       N       E                     dE             d eps       ncg     rms          rms(c)
DAV:   1     0.205758132208E+04    0.20576E+04   -0.15742E+05  7424   0.165E+03
DAV:   2    -0.484496659891E+02   -0.21060E+04   -0.20403E+04  8736   0.194E+02
DAV:   3    -0.283163036829E+03   -0.23471E+03   -0.22566E+03  9184   0.642E+01
DAV:   4    -0.293518416893E+03   -0.10355E+02   -0.10043E+02  8944   0.132E+01
DAV:   5    -0.293968464906E+03   -0.45005E+00   -0.44536E+00  9712   0.243E+00    0.237E+01
DAV:   6    -0.285271310607E+03    0.86972E+01   -0.16292E+01  9976   0.717E+00    0.116E+01
DAV:   7    -0.284363485057E+03    0.90783E+00   -0.81484E+00  8680   0.510E+00    0.379E+00
DAV:   8    -0.284165619305E+03    0.19787E+00   -0.12216E+00  8376   0.221E+00    0.107E+00
DAV:   9    -0.284162609765E+03    0.30095E-02   -0.23817E-01  8840   0.789E-01    0.525E-01
DAV:  10    -0.284163783377E+03   -0.11736E-02   -0.47062E-02  8528   0.365E-01    0.296E-01
DAV:  11    -0.284165420525E+03   -0.16371E-02   -0.95641E-03  8376   0.175E-01    0.141E-01
DAV:  12    -0.284165829270E+03   -0.40874E-03   -0.21758E-03  8784   0.926E-02    0.625E-02
DAV:  13    -0.284165843558E+03   -0.14288E-04   -0.75364E-04  8840   0.559E-02    0.339E-02
DAV:  14    -0.284165879547E+03   -0.35989E-04   -0.25349E-04  8592   0.297E-02    0.194E-02
DAV:  15    -0.284165897902E+03   -0.18355E-04   -0.68660E-05  8264   0.147E-02    0.866E-03
DAV:  16    -0.284165902244E+03   -0.43428E-05   -0.17511E-05  8920   0.673E-03    0.495E-03
DAV:  17    -0.284165903912E+03   -0.16677E-05   -0.43748E-06  8408   0.374E-03    0.287E-03
DAV:  18    -0.284165904625E+03   -0.71266E-06   -0.12612E-06  8184   0.203E-03    0.137E-03
DAV:  19    -0.284165904685E+03   -0.60529E-07   -0.32705E-07  6328   0.102E-03
   1 F= -.28416590E+03 E0= -.28416453E+03  d E =-.275258E-02  mag=     1.0000
