    8    8    1    2
  0.2131153E+02  0.5545000E-09  0.5545000E-09  0.5545000E-09  0.5000000E-15
  1.000000000000000E-004
  CAR 
 Si and Ge interface calculation         
     32    112     20
 
  0.0000000E+00  0.0000000E+00  0.0000000E+00  0.4629630E-02
      1         -7.761541       -7.639915   1.000000   1.000000
      2         -4.122602       -4.020514   1.000000   1.000000
      3         -4.122599       -4.020434   1.000000   1.000000
      4         -4.122567       -4.020427   1.000000   1.000000
      5         -3.340069       -3.209566   1.000000   1.000000
      6         -3.340033       -3.209332   1.000000   1.000000
      7         -3.339989       -3.209181   1.000000   1.000000
      8          1.651512        1.775431   1.000000   1.000000
      9          1.651570        1.776028   1.000000   1.000000
     10          1.651574        1.776077   1.000000   1.000000
     11          1.651678        1.776242   1.000000   1.000000
     12          1.651698        1.776248   1.000000   1.000000
     13          1.651950        1.776374   1.000000   1.000000
     14          4.627252        4.744599   1.000000   0.000000
     15          4.627266        4.744774   1.000000   0.000000
     16          4.627416        4.744790   1.000000   0.000000
     17          5.220119        5.409959   1.000000   0.000000
     18          5.220130        5.410063   1.000000   0.000000
     19          5.220254        5.410073   1.000000   0.000000
     20          5.552734        5.675116   1.000000   0.000000
 
  0.1666667E+00  0.0000000E+00  0.0000000E+00  0.9259259E-02
      1         -7.644885       -7.523485   1.000000   1.000000
      2         -4.968357       -4.854582   1.000000   1.000000
      3         -4.098779       -3.997307   1.000000   1.000000
      4         -4.098776       -3.997300   1.000000   1.000000
      5         -3.302409       -3.171837   1.000000   1.000000
      6         -3.302339       -3.171503   1.000000   1.000000
      7         -2.346308       -2.227287   1.000000   1.000000
      8          1.370280        1.493999   1.000000   1.000000
      9          1.370576        1.495158   1.000000   1.000000
     10          1.379476        1.511897   1.000000   1.000000
     11          1.379485        1.511913   1.000000   1.000000
     12          1.766090        1.890507   1.000000   1.000000
     13          1.766096        1.890529   1.000000   1.000000
     14          3.613341        3.728223   1.000000   1.000000
     15          4.175903        4.295711   1.000000   0.000000
     16          4.175913        4.295729   1.000000   0.000000
     17          5.177742        5.346378   1.000000   0.000000
     18          5.813890        5.995620   1.000000   0.000000
     19          5.813899        5.995625   1.000000   0.000000
     20          5.909252        6.050533   0.327608   0.000000
 
  0.0000000E+00  0.1666667E+00  0.0000000E+00  0.9259259E-02
      1         -7.644885       -7.523484   1.000000   1.000000
      2         -4.968371       -4.854556   1.000000   1.000000
      3         -4.098774       -3.997382   1.000000   1.000000
      4         -4.098746       -3.997311   1.000000   1.000000
      5         -3.302387       -3.171675   1.000000   1.000000
      6         -3.302372       -3.171590   1.000000   1.000000
      7         -2.346321       -2.227298   1.000000   1.000000
      8          1.370303        1.494703   1.000000   1.000000
      9          1.370374        1.494906   1.000000   1.000000
     10          1.379432        1.511687   1.000000   1.000000
     11          1.379531        1.511868   1.000000   1.000000
     12          1.766173        1.890275   1.000000   1.000000
     13          1.766234        1.890511   1.000000   1.000000
     14          3.613239        3.728332   1.000000   1.000000
     15          4.175948        4.295517   1.000000   0.000000
     16          4.176051        4.295713   1.000000   0.000000
     17          5.177585        5.346549   1.000000   0.000000
     18          5.813908        5.995528   1.000000   0.000000
     19          5.814003        5.995592   1.000000   0.000000
     20          5.909078        6.050752   0.336577   0.000000
 
  0.0000000E+00  0.0000000E+00  0.1666667E+00  0.9259259E-02
      1         -7.644885       -7.523484   1.000000   1.000000
      2         -4.968370       -4.854558   1.000000   1.000000
      3         -4.098777       -3.997381   1.000000   1.000000
      4         -4.098746       -3.997304   1.000000   1.000000
      5         -3.302389       -3.171687   1.000000   1.000000
      6         -3.302369       -3.171584   1.000000   1.000000
      7         -2.346320       -2.227297   1.000000   1.000000
      8          1.370303        1.494650   1.000000   1.000000
      9          1.370389        1.494921   1.000000   1.000000
     10          1.379428        1.511690   1.000000   1.000000
     11          1.379535        1.511887   1.000000   1.000000
     12          1.766161        1.890275   1.000000   1.000000
     13          1.766227        1.890532   1.000000   1.000000
     14          3.613248        3.728323   1.000000   1.000000
     15          4.175936        4.295517   1.000000   0.000000
     16          4.176048        4.295731   1.000000   0.000000
     17          5.177598        5.346535   1.000000   0.000000
     18          5.813898        5.995530   1.000000   0.000000
     19          5.814002        5.995600   1.000000   0.000000
     20          5.909092        6.050735   0.335816   0.000000
 
  0.3333333E+00  0.0000000E+00  0.0000000E+00  0.9259259E-02
      1         -7.296802       -7.176095   1.000000   1.000000
      2         -5.937414       -5.819931   1.000000   1.000000
      3         -4.049194       -3.949234   1.000000   1.000000
      4         -4.049192       -3.949230   1.000000   1.000000
      5         -3.221924       -3.091178   1.000000   1.000000
      6         -3.221867       -3.090912   1.000000   1.000000
      7         -0.940407       -0.824906   1.000000   1.000000
      8          0.910755        1.034191   1.000000   1.000000
      9          0.910882        1.035632   1.000000   1.000000
     10          0.949946        1.091986   1.000000   1.000000
     11          0.949950        1.091995   1.000000   1.000000
     12          2.091740        2.205750   1.000000   1.000000
     13          2.105549        2.229562   1.000000   1.000000
     14          2.105555        2.229583   1.000000   1.000000
     15          3.381060        3.503073   1.000000   1.000000
     16          3.381066        3.503093   1.000000   1.000000
     17          5.318248        5.477677   1.000000   0.000000
     18          6.266367        6.412788   0.000000   0.000000
     19          6.685320        6.830480   0.000000   0.000000
     20          7.218310        7.388862   0.000000   0.000000
 
  0.0000000E+00  0.3333333E+00  0.0000000E+00  0.9259259E-02
      1         -7.296804       -7.176093   1.000000   1.000000
      2         -5.937421       -5.819921   1.000000   1.000000
      3         -4.049185       -3.949295   1.000000   1.000000
      4         -4.049168       -3.949252   1.000000   1.000000
      5         -3.221906       -3.091040   1.000000   1.000000
      6         -3.221894       -3.090980   1.000000   1.000000
      7         -0.940436       -0.824892   1.000000   1.000000
      8          0.910732        1.034977   1.000000   1.000000
      9          0.910763        1.035230   1.000000   1.000000
     10          0.949932        1.091822   1.000000   1.000000
     11          0.949979        1.091914   1.000000   1.000000
     12          2.091672        2.205814   1.000000   1.000000
     13          2.105631        2.229333   1.000000   1.000000
     14          2.105692        2.229566   1.000000   1.000000
     15          3.381129        3.502861   1.000000   1.000000
     16          3.381198        3.503076   1.000000   1.000000
     17          5.318076        5.477873   1.000000   0.000000
     18          6.266163        6.413028   0.000000   0.000000
     19          6.685156        6.830691   0.000000   0.000000
     20          7.218383        7.388792   0.000000   0.000000
 
  0.0000000E+00  0.0000000E+00  0.3333333E+00  0.9259259E-02
      1         -7.296803       -7.176094   1.000000   1.000000
      2         -5.937421       -5.819921   1.000000   1.000000
      3         -4.049187       -3.949293   1.000000   1.000000
      4         -4.049169       -3.949247   1.000000   1.000000
      5         -3.221907       -3.091050   1.000000   1.000000
      6         -3.221892       -3.090975   1.000000   1.000000
      7         -0.940433       -0.824893   1.000000   1.000000
      8          0.910735        1.034919   1.000000   1.000000
      9          0.910772        1.035256   1.000000   1.000000
     10          0.949929        1.091828   1.000000   1.000000
     11          0.949981        1.091928   1.000000   1.000000
     12          2.091678        2.205808   1.000000   1.000000
     13          2.105620        2.229332   1.000000   1.000000
     14          2.105685        2.229587   1.000000   1.000000
     15          3.381117        3.502860   1.000000   1.000000
     16          3.381193        3.503096   1.000000   1.000000
     17          5.318091        5.477857   1.000000   0.000000
     18          6.266181        6.413008   0.000000   0.000000
     19          6.685169        6.830673   0.000000   0.000000
     20          7.218328        7.388798   0.000000   0.000000
 
  0.5000000E+00  0.0000000E+00  0.0000000E+00  0.4629630E-02
      1         -6.723542       -6.604251   1.000000   1.000000
      2         -6.723355       -6.603702   1.000000   1.000000
      3         -4.023345       -3.924209   1.000000   1.000000
      4         -4.023344       -3.924209   1.000000   1.000000
      5         -3.178681       -3.047832   1.000000   1.000000
      6         -3.178631       -3.047606   1.000000   1.000000
      7          0.554973        0.668909   1.000000   1.000000
      8          0.555053        0.669376   1.000000   1.000000
      9          0.711159        0.834466   1.000000   1.000000
     10          0.711228        0.836016   1.000000   1.000000
     11          0.768853        0.914347   1.000000   1.000000
     12          0.768853        0.914347   1.000000   1.000000
     13          2.655555        2.778640   1.000000   1.000000
     14          2.655560        2.778657   1.000000   1.000000
     15          2.655768        2.779226   1.000000   1.000000
     16          2.655773        2.779242   1.000000   1.000000
     17          5.699332        5.852690   1.000000   0.000000
     18          5.699988        5.852979   1.000000   0.000000
     19          7.685018        7.823821   0.000000   0.000000
     20          7.685382        7.824445   0.000000   0.000000
 
  0.0000000E+00  0.5000000E+00  0.0000000E+00  0.4629630E-02
      1         -6.723468       -6.604020   1.000000   1.000000
      2         -6.723435       -6.603924   1.000000   1.000000
      3         -4.023328       -3.924251   1.000000   1.000000
      4         -4.023327       -3.924249   1.000000   1.000000
      5         -3.178665       -3.047704   1.000000   1.000000
      6         -3.178656       -3.047665   1.000000   1.000000
      7          0.554960        0.669137   1.000000   1.000000
      8          0.554974        0.669219   1.000000   1.000000
      9          0.711121        0.835287   1.000000   1.000000
     10          0.711134        0.835558   1.000000   1.000000
     11          0.768863        0.914225   1.000000   1.000000
     12          0.768863        0.914226   1.000000   1.000000
     13          2.655722        2.778664   1.000000   1.000000
     14          2.655753        2.778741   1.000000   1.000000
     15          2.655787        2.778901   1.000000   1.000000
     16          2.655818        2.778978   1.000000   1.000000
     17          5.699417        5.853025   1.000000   0.000000
     18          5.699532        5.853075   1.000000   0.000000
     19          7.685008        7.824300   0.000000   0.000000
     20          7.685071        7.824408   0.000000   0.000000
 
  0.0000000E+00  0.0000000E+00  0.5000000E+00  0.4629630E-02
      1         -6.723473       -6.604036   1.000000   1.000000
      2         -6.723429       -6.603908   1.000000   1.000000
      3         -4.023330       -3.924247   1.000000   1.000000
      4         -4.023329       -3.924246   1.000000   1.000000
      5         -3.178666       -3.047714   1.000000   1.000000
      6         -3.178654       -3.047661   1.000000   1.000000
      7          0.554962        0.669120   1.000000   1.000000
      8          0.554981        0.669230   1.000000   1.000000
      9          0.711125        0.835226   1.000000   1.000000
     10          0.711141        0.835588   1.000000   1.000000
     11          0.768862        0.914235   1.000000   1.000000
     12          0.768862        0.914237   1.000000   1.000000
     13          2.655705        2.778649   1.000000   1.000000
     14          2.655744        2.778749   1.000000   1.000000
     15          2.655778        2.778913   1.000000   1.000000
     16          2.655818        2.779013   1.000000   1.000000
     17          5.699413        5.852997   1.000000   0.000000
     18          5.699567        5.853066   1.000000   0.000000
     19          7.685011        7.824262   0.000000   0.000000
     20          7.685095        7.824409   0.000000   0.000000
 
  0.1666667E+00  0.1666667E+00  0.0000000E+00  0.9259259E-02
      1         -7.529367       -7.408202   1.000000   1.000000
      2         -4.902034       -4.788926   1.000000   1.000000
      3         -4.902013       -4.788894   1.000000   1.000000
      4         -4.139214       -4.036800   1.000000   1.000000
      5         -3.224479       -3.095026   1.000000   1.000000
      6         -2.383305       -2.264076   1.000000   1.000000
      7         -2.383288       -2.263990   1.000000   1.000000
      8          0.731511        0.865317   1.000000   1.000000
      9          1.408741        1.537061   1.000000   1.000000
     10          1.408834        1.537255   1.000000   1.000000
     11          1.610768        1.738362   1.000000   1.000000
     12          1.610857        1.738481   1.000000   1.000000
     13          1.848335        1.972249   1.000000   1.000000
     14          2.696617        2.813632   1.000000   1.000000
     15          3.724926        3.847699   1.000000   0.581841
     16          4.485020        4.602348   1.000000   0.000000
     17          5.575503        5.735361   1.000000   0.000000
     18          5.806461        5.970967   1.000000   0.000000
     19          5.806599        5.971173   1.000000   0.000000
     20          6.447119        6.584730   0.000000   0.000000
 
  0.0000000E+00  0.1666667E+00  0.1666667E+00  0.9259259E-02
      1         -7.529368       -7.408202   1.000000   1.000000
      2         -4.902066       -4.788935   1.000000   1.000000
      3         -4.901992       -4.788864   1.000000   1.000000
      4         -4.139191       -4.036857   1.000000   1.000000
      5         -3.224485       -3.094977   1.000000   1.000000
      6         -2.383327       -2.264220   1.000000   1.000000
      7         -2.383274       -2.263858   1.000000   1.000000
      8          0.731469        0.865362   1.000000   1.000000
      9          1.408716        1.536773   1.000000   1.000000
     10          1.408931        1.537490   1.000000   1.000000
     11          1.610837        1.738208   1.000000   1.000000
     12          1.610853        1.738536   1.000000   1.000000
     13          1.848235        1.972364   1.000000   1.000000
     14          2.696601        2.813640   1.000000   1.000000
     15          3.725009        3.847610   1.000000   0.586733
     16          4.484943        4.602441   1.000000   0.000000
     17          5.575650        5.735194   1.000000   0.000000
     18          5.806360        5.970793   1.000000   0.000000
     19          5.806593        5.971446   1.000000   0.000000
     20          6.447380        6.584855   0.000000   0.000000
 
  0.1666667E+00  0.0000000E+00  0.1666667E+00  0.9259259E-02
      1         -7.529367       -7.408202   1.000000   1.000000
      2         -4.902032       -4.788924   1.000000   1.000000
      3         -4.902014       -4.788898   1.000000   1.000000
      4         -4.139217       -4.036795   1.000000   1.000000
      5         -3.224479       -3.095030   1.000000   1.000000
      6         -2.383303       -2.264064   1.000000   1.000000
      7         -2.383290       -2.264001   1.000000   1.000000
      8          0.731515        0.865313   1.000000   1.000000
      9          1.408744        1.537084   1.000000   1.000000
     10          1.408825        1.537238   1.000000   1.000000
     11          1.610769        1.738376   1.000000   1.000000
     12          1.610851        1.738476   1.000000   1.000000
     13          1.848344        1.972238   1.000000   1.000000
     14          2.696619        2.813632   1.000000   1.000000
     15          3.724918        3.847706   1.000000   0.581407
     16          4.485026        4.602339   1.000000   0.000000
     17          5.575489        5.735376   1.000000   0.000000
     18          5.806473        5.970980   1.000000   0.000000
     19          5.806596        5.971150   1.000000   0.000000
     20          6.447157        6.584656   0.000000   0.000000
 
 -0.1666667E+00  0.1666667E+00  0.0000000E+00  0.9259259E-02
      1         -7.529367       -7.408202   1.000000   1.000000
      2         -4.902034       -4.788925   1.000000   1.000000
      3         -4.902012       -4.788895   1.000000   1.000000
      4         -4.139215       -4.036800   1.000000   1.000000
      5         -3.224479       -3.095025   1.000000   1.000000
      6         -2.383305       -2.264076   1.000000   1.000000
      7         -2.383289       -2.263991   1.000000   1.000000
      8          0.731512        0.865318   1.000000   1.000000
      9          1.408741        1.537062   1.000000   1.000000
     10          1.408834        1.537255   1.000000   1.000000
     11          1.610768        1.738363   1.000000   1.000000
     12          1.610858        1.738481   1.000000   1.000000
     13          1.848334        1.972248   1.000000   1.000000
     14          2.696618        2.813634   1.000000   1.000000
     15          3.724925        3.847698   1.000000   0.581851
     16          4.485018        4.602346   1.000000   0.000000
     17          5.575503        5.735360   1.000000   0.000000
     18          5.806461        5.970967   1.000000   0.000000
     19          5.806599        5.971172   1.000000   0.000000
     20          6.447267        6.584610   0.000000   0.000000
 
 -0.1666667E+00  0.0000000E+00  0.1666667E+00  0.9259259E-02
      1         -7.529367       -7.408202   1.000000   1.000000
      2         -4.902031       -4.788924   1.000000   1.000000
      3         -4.902014       -4.788897   1.000000   1.000000
      4         -4.139216       -4.036795   1.000000   1.000000
      5         -3.224479       -3.095030   1.000000   1.000000
      6         -2.383304       -2.264065   1.000000   1.000000
      7         -2.383289       -2.264000   1.000000   1.000000
      8          0.731515        0.865314   1.000000   1.000000
      9          1.408744        1.537083   1.000000   1.000000
     10          1.408825        1.537238   1.000000   1.000000
     11          1.610769        1.738376   1.000000   1.000000
     12          1.610851        1.738477   1.000000   1.000000
     13          1.848344        1.972238   1.000000   1.000000
     14          2.696619        2.813632   1.000000   1.000000
     15          3.724918        3.847707   1.000000   0.581388
     16          4.485026        4.602339   1.000000   0.000000
     17          5.575490        5.735375   1.000000   0.000000
     18          5.806473        5.970981   1.000000   0.000000
     19          5.806596        5.971150   1.000000   0.000000
     20          6.447111        6.584626   0.000000   0.000000
 
  0.0000000E+00 -0.1666667E+00  0.1666667E+00  0.9259259E-02
      1         -7.529368       -7.408202   1.000000   1.000000
      2         -4.902065       -4.788935   1.000000   1.000000
      3         -4.901992       -4.788863   1.000000   1.000000
      4         -4.139192       -4.036858   1.000000   1.000000
      5         -3.224483       -3.094975   1.000000   1.000000
      6         -2.383328       -2.264221   1.000000   1.000000
      7         -2.383274       -2.263860   1.000000   1.000000
      8          0.731470        0.865363   1.000000   1.000000
      9          1.408716        1.536773   1.000000   1.000000
     10          1.408931        1.537491   1.000000   1.000000
     11          1.610837        1.738209   1.000000   1.000000
     12          1.610854        1.738537   1.000000   1.000000
     13          1.848233        1.972362   1.000000   1.000000
     14          2.696604        2.813644   1.000000   1.000000
     15          3.725008        3.847609   1.000000   0.586779
     16          4.484940        4.602437   1.000000   0.000000
     17          5.575650        5.735191   1.000000   0.000000
     18          5.806360        5.970792   1.000000   0.000000
     19          5.806592        5.971445   1.000000   0.000000
     20          6.446981        6.585398   0.000000   0.000000
 
  0.3333333E+00  0.1666667E+00  0.0000000E+00  0.9259259E-02
      1         -7.185008       -7.064573   1.000000   1.000000
      2         -5.846417       -5.729393   1.000000   1.000000
      3         -4.721435       -4.610320   1.000000   1.000000
      4         -4.268950       -4.164134   1.000000   1.000000
      5         -3.016849       -2.890263   1.000000   1.000000
      6         -2.514968       -2.394435   1.000000   1.000000
      7         -1.105472       -0.989267   1.000000   1.000000
      8          0.349738        0.486031   1.000000   1.000000
      9          0.797028        0.929953   1.000000   1.000000
     10          1.421426        1.552826   1.000000   1.000000
     11          1.461609        1.578278   1.000000   1.000000
     12          1.697115        1.825378   1.000000   1.000000
     13          1.761764        1.889047   1.000000   1.000000
     14          2.124838        2.250381   1.000000   1.000000
     15          2.931225        3.056987   1.000000   1.000000
     16          3.833523        3.952857   1.000000   0.000000
     17          5.974068        6.129231   0.000000   0.000000
     18          6.367094        6.519244   0.000000   0.000000
     19          6.908697        7.051623   0.000000   0.000000
     20          7.144488        7.284310   0.000000   0.000000
 
  0.0000000E+00  0.3333333E+00  0.1666667E+00  0.9259259E-02
      1         -7.185009       -7.064571   1.000000   1.000000
      2         -5.846424       -5.729382   1.000000   1.000000
      3         -4.721432       -4.610327   1.000000   1.000000
      4         -4.268935       -4.164168   1.000000   1.000000
      5         -3.016848       -2.890239   1.000000   1.000000
      6         -2.514962       -2.394434   1.000000   1.000000
      7         -1.105490       -0.989263   1.000000   1.000000
      8          0.349715        0.486059   1.000000   1.000000
      9          0.797020        0.929977   1.000000   1.000000
     10          1.421398        1.552843   1.000000   1.000000
     11          1.461590        1.578287   1.000000   1.000000
     12          1.697192        1.825298   1.000000   1.000000
     13          1.761685        1.889134   1.000000   1.000000
     14          2.124910        2.250294   1.000000   1.000000
     15          2.931302        3.056906   1.000000   1.000000
     16          3.833523        3.952858   1.000000   0.000000
     17          5.973934        6.129379   0.000000   0.000000
     18          6.367225        6.519093   0.000000   0.000000
     19          6.908539        7.051805   0.000000   0.000000
     20          7.143632        7.284581   0.000000   0.000000
 
  0.1666667E+00  0.0000000E+00  0.3333333E+00  0.9259259E-02
      1         -7.185008       -7.064571   1.000000   1.000000
      2         -5.846423       -5.729383   1.000000   1.000000
      3         -4.721424       -4.610342   1.000000   1.000000
      4         -4.268947       -4.164142   1.000000   1.000000
      5         -3.016849       -2.890257   1.000000   1.000000
      6         -2.514962       -2.394421   1.000000   1.000000
      7         -1.105493       -0.989260   1.000000   1.000000
      8          0.349731        0.486044   1.000000   1.000000
      9          0.796985        0.930008   1.000000   1.000000
     10          1.421374        1.552876   1.000000   1.000000
     11          1.461590        1.578297   1.000000   1.000000
     12          1.697177        1.825302   1.000000   1.000000
     13          1.761758        1.889047   1.000000   1.000000
     14          2.124926        2.250289   1.000000   1.000000
     15          2.931255        3.056948   1.000000   1.000000
     16          3.833590        3.952779   1.000000   0.000000
     17          5.973942        6.129373   0.000000   0.000000
     18          6.367088        6.519249   0.000000   0.000000
     19          6.908546        7.051803   0.000000   0.000000
     20          7.143078        7.284622   0.000000   0.000000
 
 -0.1666667E+00  0.3333333E+00  0.0000000E+00  0.9259259E-02
      1         -7.185009       -7.064571   1.000000   1.000000
      2         -5.846423       -5.729382   1.000000   1.000000
      3         -4.721423       -4.610342   1.000000   1.000000
      4         -4.268946       -4.164145   1.000000   1.000000
      5         -3.016848       -2.890254   1.000000   1.000000
      6         -2.514962       -2.394422   1.000000   1.000000
      7         -1.105495       -0.989260   1.000000   1.000000
      8          0.349729        0.486047   1.000000   1.000000
      9          0.796984        0.930009   1.000000   1.000000
     10          1.421372        1.552877   1.000000   1.000000
     11          1.461589        1.578299   1.000000   1.000000
     12          1.697183        1.825295   1.000000   1.000000
     13          1.761751        1.889054   1.000000   1.000000
     14          2.124932        2.250283   1.000000   1.000000
     15          2.931261        3.056942   1.000000   1.000000
     16          3.833589        3.952779   1.000000   0.000000
     17          5.973930        6.129386   0.000000   0.000000
     18          6.367101        6.519234   0.000000   0.000000
     19          6.908533        7.051819   0.000000   0.000000
     20          7.144338        7.284500   0.000000   0.000000
 
 -0.3333333E+00  0.0000000E+00  0.1666667E+00  0.9259259E-02
      1         -7.185008       -7.064573   1.000000   1.000000
      2         -5.846417       -5.729393   1.000000   1.000000
      3         -4.721434       -4.610321   1.000000   1.000000
      4         -4.268951       -4.164133   1.000000   1.000000
      5         -3.016849       -2.890264   1.000000   1.000000
      6         -2.514968       -2.394434   1.000000   1.000000
      7         -1.105473       -0.989267   1.000000   1.000000
      8          0.349739        0.486031   1.000000   1.000000
      9          0.797025        0.929955   1.000000   1.000000
     10          1.421424        1.552830   1.000000   1.000000
     11          1.461609        1.578280   1.000000   1.000000
     12          1.697114        1.825378   1.000000   1.000000
     13          1.761769        1.889039   1.000000   1.000000
     14          2.124840        2.250380   1.000000   1.000000
     15          2.931221        3.056990   1.000000   1.000000
     16          3.833529        3.952849   1.000000   0.000000
     17          5.974068        6.129232   0.000000   0.000000
     18          6.367083        6.519256   0.000000   0.000000
     19          6.908697        7.051624   0.000000   0.000000
     20          7.143463        7.284315   0.000000   0.000000
 
  0.0000000E+00  0.1666667E+00  0.3333333E+00  0.9259259E-02
      1         -7.185009       -7.064571   1.000000   1.000000
      2         -5.846423       -5.729383   1.000000   1.000000
      3         -4.721433       -4.610325   1.000000   1.000000
      4         -4.268936       -4.164167   1.000000   1.000000
      5         -3.016848       -2.890239   1.000000   1.000000
      6         -2.514963       -2.394436   1.000000   1.000000
      7         -1.105488       -0.989264   1.000000   1.000000
      8          0.349715        0.486058   1.000000   1.000000
      9          0.797023        0.929973   1.000000   1.000000
     10          1.421402        1.552839   1.000000   1.000000
     11          1.461591        1.578285   1.000000   1.000000
     12          1.697186        1.825305   1.000000   1.000000
     13          1.761686        1.889133   1.000000   1.000000
     14          2.124902        2.250303   1.000000   1.000000
     15          2.931299        3.056910   1.000000   1.000000
     16          3.833518        3.952864   1.000000   0.000000
     17          5.973946        6.129366   0.000000   0.000000
     18          6.367224        6.519094   0.000000   0.000000
     19          6.908553        7.051788   0.000000   0.000000
     20          7.144478        7.284817   0.000000   0.000000
 
  0.0000000E+00 -0.3333333E+00  0.1666667E+00  0.9259259E-02
      1         -7.185009       -7.064571   1.000000   1.000000
      2         -5.846423       -5.729382   1.000000   1.000000
      3         -4.721432       -4.610325   1.000000   1.000000