 vasp.6.4.3 19Mar24 (build Oct 22 2024 11:23:12) complex                        
  
 executed on             LinuxIFC date 2025.06.07  23:09:10
 running   64 mpi-ranks, on    4 nodes
 distrk:  each k-point on   64 cores,    1 groups
 distr:  one band on NCORE=  16 cores,    4 groups


--------------------------------------------------------------------------------------------------------


 INCAR:
   SYSTEM = Si and Ge interface calculation
   ISTART = 0
   ICHARG = 2
   LWAVE = .FALSE.
   LREAL = AUTO
   ENCUT = 700
   ENAUG = 900
   ADDGRID = .TRUE.
   LMAXMIX = 6
   LASPH = .TRUE.
   LMIXTAU = .TRUE.
   NCORE = 16
   NELM = 100
   NBANDS = 288
   EDIFF = 1d-7
   AMIX = 0.6
   ISMEAR = 0
   SIGMA = 0.01
   NELECT = 480
   ISPIN = 2
   NUPDOWN = 1
   LVTOT = .FALSE.
   LVHAR = .TRUE.

 POTCAR:    PAW_PBE Si 05Jan2001                  
 POTCAR:    PAW_PBE C 08Apr2002                   
 -----------------------------------------------------------------------------
|                                                                             |
|           W    W    AA    RRRRR   N    N  II  N    N   GGGG   !!!           |
|           W    W   A  A   R    R  NN   N  II  NN   N  G    G  !!!           |
|           W    W  A    A  R    R  N N  N  II  N N  N  G       !!!           |
|           W WW W  AAAAAA  RRRRR   N  N N  II  N  N N  G  GGG   !            |
|           WW  WW  A    A  R   R   N   NN  II  N   NN  G    G                |
|           W    W  A    A  R    R  N    N  II  N    N   GGGG   !!!           |
|                                                                             |
|     You use a magnetic or noncollinear calculation, but did not specify     |
|     the initial magnetic moment with the MAGMOM tag. Note that a            |
|     default of 8.333e-3 will be used for all atoms. This ferromagnetic      |
|     setup may break the symmetry of the crystal, in particular it may       |
|     rule out finding an antiferromagnetic solution. Thence, we              |
|     recommend setting the initial magnetic moment manually or verifying     |
|     carefully that this magnetic setup is desired.                          |
|                                                                             |
 -----------------------------------------------------------------------------

 POTCAR:    PAW_PBE Si 05Jan2001                  
   VRHFIN =Si: s2p2                                                                                 
   LEXCH  = PE                                                                                      
   EATOM  =   103.0669 eV,    7.5752 Ry                                                             
                                                                                                    
   TITEL  = PAW_PBE Si 05Jan2001                                                                    
   LULTRA =        F    use ultrasoft PP ?                                                          
   IUNSCR =        1    unscreen: 0-lin 1-nonlin 2-no                                               
   RPACOR =    1.500    partial core radius                                                         
   POMASS =   28.085; ZVAL   =    4.000    mass and valenz                                          
   RCORE  =    1.900    outmost cutoff radius                                                       
   RWIGS  =    2.480; RWIGS  =    1.312    wigner-seitz radius (au A)                               
   ENMAX  =  245.345; ENMIN  =  184.009 eV                                                          
   ICORE  =        2    local potential                                                             
   LCOR   =        T    correct aug charges                                                         
   LPAW   =        T    paw PP                                                                      
   EAUG   =  322.069                                                                                
   DEXC   =    0.000                                                                                
   RMAX   =    1.950    core radius for proj-oper                                                   
   RAUG   =    1.300    factor for augmentation sphere                                              
   RDEP   =    1.993    radius for radial grids                                                     
   RDEPT  =    1.837    core radius for aug-charge                                                  
                                                                                                    
   Atomic configuration                                                                             
    6 entries                                                                                       
     n  l   j            E        occ.                                                              
     1  0  0.50     -1785.8828   2.0000                                                             
     2  0  0.50      -139.4969   2.0000                                                             
     2  1  1.50       -95.5546   6.0000                                                             
     3  0  0.50       -10.8127   2.0000                                                             
     3  1  0.50        -4.0811   2.0000                                                             
     3  2  1.50        -4.0817   0.0000                                                             
   Description                                                                                      
     l       E           TYP  RCUT    TYP  RCUT                                                     
     0    -10.8127223     23  1.900                                                                 
     0     -7.6451159     23  1.900                                                                 
     1     -4.0811372     23  1.900                                                                 
     1      2.4879257     23  1.900                                                                 
     2     -4.0817478      7  1.900                                                                 
  local pseudopotential read in
  partial core-charges read in
  partial kinetic energy density read in
  atomic valenz-charges read in
  non local Contribution for L=           0  read in
    real space projection operators read in
  non local Contribution for L=           0  read in
    real space projection operators read in
  non local Contribution for L=           1  read in
    real space projection operators read in
  non local Contribution for L=           1  read in
    real space projection operators read in
    PAW grid and wavefunctions read in
 
   number of l-projection  operators is LMAX  =           4
   number of lm-projection operators is LMMAX =           8
 
 POTCAR:    PAW_PBE C 08Apr2002                   
   VRHFIN =C: s2p2                                                                                  
   LEXCH  = PE                                                                                      
   EATOM  =   147.1560 eV,   10.8157 Ry                                                             
                                                                                                    
   TITEL  = PAW_PBE C 08Apr2002                                                                     
   LULTRA =        F    use ultrasoft PP ?                                                          
   IUNSCR =        1    unscreen: 0-lin 1-nonlin 2-no                                               
   RPACOR =    1.200    partial core radius                                                         
   POMASS =   12.011; ZVAL   =    4.000    mass and valenz                                          
   RCORE  =    1.500    outmost cutoff radius                                                       
   RWIGS  =    1.630; RWIGS  =    0.863    wigner-seitz radius (au A)                               
   ENMAX  =  400.000; ENMIN  =  300.000 eV                                                          
   ICORE  =        2    local potential                                                             
   LCOR   =        T    correct aug charges                                                         
   LPAW   =        T    paw PP                                                                      
   EAUG   =  644.873                                                                                
   DEXC   =    0.000                                                                                
   RMAX   =    1.529    core radius for proj-oper                                                   
   RAUG   =    1.300    factor for augmentation sphere                                              
   RDEP   =    1.501    radius for radial grids                                                     
   RDEPT  =    1.300    core radius for aug-charge                                                  
                                                                                                    
   Atomic configuration                                                                             
    4 entries                                                                                       
     n  l   j            E        occ.                                                              
     1  0  0.50      -273.3789   2.0000                                                             
     2  0  0.50       -13.7508   2.0000                                                             
     2  1  0.50        -5.2854   2.0000                                                             
     3  2  1.50        -5.4423   0.0000                                                             
   Description                                                                                      
     l       E           TYP  RCUT    TYP  RCUT                                                     
     0    -13.7508458     23  1.200                                                                 
     0     -8.2022199     23  1.200                                                                 
     1     -5.2854383     23  1.500                                                                 
     1     34.0145650     23  1.500                                                                 
     2     -5.4423304      7  1.500                                                                 
  local pseudopotential read in
  partial core-charges read in
  partial kinetic energy density read in
  atomic valenz-charges read in
  non local Contribution for L=           0  read in
    real space projection operators read in
  non local Contribution for L=           0  read in
    real space projection operators read in
  non local Contribution for L=           1  read in
    real space projection operators read in
  non local Contribution for L=           1  read in
    real space projection operators read in
    PAW grid and wavefunctions read in
 
   number of l-projection  operators is LMAX  =           4
   number of lm-projection operators is LMMAX =           8
 
 Optimization of the real space projectors (new method)

 maximal supplied QI-value         = 19.84
 optimisation between [QCUT,QGAM] = [ 13.49, 26.99] = [ 50.98,203.92] Ry 
 Optimized for a Real-space Cutoff    1.07 Angstroem

   l    n(q)    QCUT    max X(q) W(low)/X(q) W(high)/X(q)  e(spline) 
   0      9    13.493   159.560    0.22E-03    0.15E-03    0.72E-07
   0      9    13.493   115.863    0.21E-03    0.15E-03    0.71E-07
   1      8    13.493    88.339    0.15E-03    0.11E-03    0.13E-06
   1      8    13.493    48.592    0.15E-03    0.10E-03    0.13E-06
 Optimization of the real space projectors (new method)

 maximal supplied QI-value         = 25.13
 optimisation between [QCUT,QGAM] = [ 13.32, 26.89] = [ 49.69,202.52] Ry 
 Optimized for a Real-space Cutoff    1.01 Angstroem

   l    n(q)    QCUT    max X(q) W(low)/X(q) W(high)/X(q)  e(spline) 
   0      8    13.321   115.676    0.29E-03    0.42E-03    0.11E-06
   0      8    13.321    87.132    0.29E-03    0.42E-03    0.11E-06
   1      8    13.321     4.429    0.39E-03    0.33E-03    0.98E-07
   1      8    13.321     2.733    0.30E-03    0.26E-03    0.97E-07
  PAW_PBE Si 05Jan2001                  :
 energy of atom  1       EATOM= -103.0669
 kinetic energy error for atom=    0.0003 (will be added to EATOM!!)
  PAW_PBE C 08Apr2002                   :
 energy of atom  2       EATOM= -147.1560
 kinetic energy error for atom=    0.0032 (will be added to EATOM!!)
 
 
 POSCAR: Si+C
  positions in direct lattice
  No initial velocities read in


 exchange-correlation table for PE
   RHO(1)=    0.500       N(1)  =     2000
   RHO(2)=  100.500       N(2)  =     4000
 


--------------------------------------------------------------------------------------------------------


 ion  position               nearest neighbor table
   1  0.997  0.980  0.000-  37 1.60 100 1.67  29 2.35  34 2.35 103 2.56
   2  0.964  0.747  0.173-  30 2.35  35 2.35  16 2.35
   3  0.930  0.513  0.347- 113 2.00  50 2.18  36 2.35  16 2.35  17 2.35
   4  0.330  0.313  0.000- 117 1.94  76 2.15  73 2.25  32 2.35  28 2.35  54 2.38  49 2.53
   5  0.297  0.080  0.173-  10 2.35  33 2.35  29 2.35
   6  0.264  0.847  0.347-  11 2.35  30 2.35  10 2.35  84 2.41  65 2.50
   7  0.664  0.647  0.000-  85 1.54  69 1.99  64 2.17  31 2.35  35 2.35
   8  0.630  0.413  0.173-  13 2.35  32 2.35  36 2.35
   9  0.597  0.180  0.347-  98 2.14  14 2.35  33 2.35  13 2.35  77 2.43
  10  0.314  0.947  0.087-   5 2.35  22 2.35   6 2.35  63 2.41  79 2.51
  11  0.280  0.713  0.260-   6 2.35  19 2.35  23 2.35
  12  0.247  0.480  0.433-  89 1.67  51 2.16 114 2.22  20 2.35  24 2.35  92 2.56  71 2.60
  13  0.647  0.280  0.087- 115 1.86  52 2.09   8 2.35  25 2.35   9 2.35
  14  0.614  0.047  0.260-   9 2.35  22 2.35  26 2.35  98 2.52
  15  0.580  0.813  0.433- 107 1.65  44 2.15  41 2.25  23 2.35  27 2.35  82 2.58
  16  0.980  0.613  0.087-  67 1.91  19 2.35   2 2.35   3 2.35  88 2.58
  17  0.947  0.380  0.260-  20 2.35  25 2.35   3 2.35  50 2.55
  18  0.914  0.147  0.433-  59 1.71  99 2.12  53 2.17  21 2.35  26 2.35
  19  0.164  0.647  0.000-  43 1.54 111 1.99 106 2.17  16 2.35  11 2.35
  20  0.130  0.413  0.173-  17 2.35  28 2.35  12 2.35
  21  0.097  0.180  0.347-  56 2.14  18 2.35  29 2.35  28 2.35 119 2.43
  22  0.497  0.980  0.000-  79 1.60  58 1.67  14 2.35  10 2.35  61 2.56
  23  0.464  0.747  0.173-  15 2.35  31 2.35  11 2.35
  24  0.430  0.513  0.347-  71 2.00  92 2.18  32 2.35  12 2.35  31 2.35
  25  0.830  0.313  0.000-  75 1.94 118 2.15 115 2.25  13 2.35  17 2.35  96 2.38  91 2.53
  26  0.797  0.080  0.173-  34 2.35  14 2.35  18 2.35
  27  0.764  0.847  0.347-  35 2.35  15 2.35  34 2.35  42 2.41 107 2.50
  28  0.147  0.280  0.087-  73 1.86  94 2.09  20 2.35   4 2.35  21 2.35
  29  0.114  0.047  0.260-  21 2.35   1 2.35   5 2.35  56 2.52
  30  0.080  0.813  0.433-  65 1.65  86 2.15  83 2.25   2 2.35   6 2.35  40 2.58
  31  0.480  0.613  0.087- 109 1.91   7 2.35  23 2.35  24 2.35  46 2.58
  32  0.447  0.380  0.260-   8 2.35   4 2.35  24 2.35  92 2.55
  33  0.414  0.147  0.433- 101 1.71  57 2.12  95 2.17   9 2.35   5 2.35
  34  0.814  0.947  0.087-  26 2.35   1 2.35  27 2.35 105 2.41  37 2.51
  35  0.780  0.713  0.260-  27 2.35   7 2.35   2 2.35
  36  0.747  0.480  0.433-  47 1.67  93 2.16  72 2.22   8 2.35   3 2.35  50 2.56 113 2.60
  37  0.932  0.957  0.802- 100 1.54 105 1.54  62 1.54   1 1.60  34 2.51
  38  0.304  0.985  0.574- 101 1.54  63 1.54
  39  0.618  0.971  0.688- 102 1.54 104 1.54  61 1.54
  40  0.075  0.814  0.802- 103 1.54 108 1.54  65 1.54  30 2.58
  41  0.447  0.842  0.574- 104 1.54  66 1.54  15 2.25
  42  0.761  0.828  0.688- 105 1.54 107 1.54  64 1.54  27 2.41
  43  0.218  0.671  0.802-  19 1.54 106 1.54 111 1.54  68 1.54
  44  0.589  0.700  0.574- 107 1.54  69 1.54  15 2.15
  45  0.904  0.685  0.688- 108 1.54 110 1.54  67 1.54
  46  0.361  0.528  0.802- 109 1.54 114 1.54  71 1.54  31 2.58
  47  0.732  0.557  0.574- 110 1.54  72 1.54  36 1.67
  48  0.047  0.542  0.688- 111 1.54 113 1.54  70 1.54
  49  0.504  0.385  0.802- 112 1.54 117 1.54  74 1.54   4 2.53
  50  0.875  0.414  0.574- 113 1.54  75 1.54   3 2.18  17 2.55  36 2.56
  51  0.189  0.400  0.688- 114 1.54 116 1.54  73 1.54  12 2.16
  52  0.647  0.242  0.802- 115 1.54 120 1.54  77 1.54  13 2.09
  53  0.018  0.271  0.574- 116 1.54  78 1.54  18 2.17
  54  0.332  0.257  0.688- 117 1.54 119 1.54  76 1.54   4 2.38
  55  0.789  0.100  0.802- 118 1.54 102 1.54  59 1.54
  56  0.161  0.128  0.574- 119 1.54  60 1.54  21 2.14  29 2.52
  57  0.475  0.114  0.688- 120 1.54 101 1.54  58 1.54  33 2.12
  58  0.482  0.057  0.859-  79 1.54  57 1.54  22 1.67
  59  0.854  0.085  0.631-  80 1.54  99 1.54  55 1.54  18 1.71
  60  0.168  0.071  0.745-  81 1.54  97 1.54  56 1.54
  61  0.625  0.914  0.859-  82 1.54  39 1.54  22 2.56
  62  0.997  0.942  0.631-  83 1.54  81 1.54  37 1.54
  63  0.311  0.928  0.745-  84 1.54  79 1.54  38 1.54  10 2.41
  64  0.768  0.771  0.859-  85 1.54  42 1.54   7 2.17
  65  0.139  0.800  0.631-  86 1.54  84 1.54  40 1.54  30 1.65   6 2.50
  66  0.454  0.785  0.745-  87 1.54  82 1.54  41 1.54
  67  0.911  0.628  0.859-  88 1.54  45 1.54  16 1.91
  68  0.282  0.657  0.631-  89 1.54  87 1.54  43 1.54
  69  0.597  0.642  0.745-  90 1.54  85 1.54  44 1.54   7 1.99
  70  0.054  0.485  0.859-  91 1.54  48 1.54
  71  0.425  0.514  0.631-  92 1.54  90 1.54  46 1.54  24 2.00  12 2.60
  72  0.739  0.500  0.745-  93 1.54  88 1.54  47 1.54  36 2.22
  73  0.197  0.342  0.859-  94 1.54  51 1.54  28 1.86   4 2.25
  74  0.568  0.371  0.631-  95 1.54  93 1.54  49 1.54
  75  0.882  0.357  0.745-  96 1.54  91 1.54  50 1.54  25 1.94
  76  0.339  0.200  0.859-  97 1.54  54 1.54   4 2.15
  77  0.711  0.228  0.631-  98 1.54  96 1.54  52 1.54   9 2.43
  78  0.025  0.214  0.745-  99 1.54  94 1.54  53 1.54
  79  0.432  0.957  0.802-  58 1.54  63 1.54 104 1.54  22 1.60  10 2.51
  80  0.804  0.985  0.574-  59 1.54 105 1.54
  81  0.118  0.971  0.688-  60 1.54  62 1.54 103 1.54
  82  0.575  0.814  0.802-  61 1.54  66 1.54 107 1.54  15 2.58
  83  0.947  0.842  0.574-  62 1.54 108 1.54  30 2.25
  84  0.261  0.828  0.688-  63 1.54  65 1.54 106 1.54   6 2.41
  85  0.718  0.671  0.802-   7 1.54  64 1.54  69 1.54 110 1.54
  86  0.089  0.700  0.574-  65 1.54 111 1.54  30 2.15
  87  0.404  0.685  0.688-  66 1.54  68 1.54 109 1.54
  88  0.861  0.528  0.802-  67 1.54  72 1.54 113 1.54  16 2.58
  89  0.232  0.557  0.574-  68 1.54 114 1.54  12 1.67
  90  0.547  0.542  0.688-  69 1.54  71 1.54 112 1.54
  91  0.004  0.385  0.802-  70 1.54  75 1.54 116 1.54  25 2.53
  92  0.375  0.414  0.574-  71 1.54 117 1.54  24 2.18  32 2.55  12 2.56
  93  0.689  0.400  0.688-  72 1.54  74 1.54 115 1.54  36 2.16
  94  0.147  0.242  0.802-  73 1.54  78 1.54 119 1.54  28 2.09
  95  0.518  0.271  0.574-  74 1.54 120 1.54  33 2.17
  96  0.832  0.257  0.688-  75 1.54  77 1.54 118 1.54  25 2.38
  97  0.289  0.100  0.802-  76 1.54  60 1.54 101 1.54
  98  0.661  0.128  0.574-  77 1.54 102 1.54   9 2.14  14 2.52
  99  0.975  0.114  0.688-  78 1.54  59 1.54 100 1.54  18 2.12
 100  0.982  0.057  0.859-  37 1.54  99 1.54   1 1.67
 101  0.354  0.085  0.631-  38 1.54  57 1.54  97 1.54  33 1.71
 102  0.668  0.071  0.745-  39 1.54  55 1.54  98 1.54
 103  0.125  0.914  0.859-  40 1.54  81 1.54   1 2.56
 104  0.497  0.942  0.631-  41 1.54  39 1.54  79 1.54
 105  0.811  0.928  0.745-  42 1.54  37 1.54  80 1.54  34 2.41
 106  0.268  0.771  0.859-  43 1.54  84 1.54  19 2.17
 107  0.639  0.800  0.631-  44 1.54  42 1.54  82 1.54  15 1.65  27 2.50
 108  0.954  0.785  0.745-  45 1.54  40 1.54  83 1.54
 109  0.411  0.628  0.859-  46 1.54  87 1.54  31 1.91
 110  0.782  0.657  0.631-  47 1.54  45 1.54  85 1.54
 111  0.097  0.642  0.745-  48 1.54  43 1.54  86 1.54  19 1.99
 112  0.554  0.485  0.859-  49 1.54  90 1.54
 113  0.925  0.514  0.631-  50 1.54  48 1.54  88 1.54   3 2.00  36 2.60
 114  0.239  0.500  0.745-  51 1.54  46 1.54  89 1.54  12 2.22
 115  0.697  0.342  0.859-  52 1.54  93 1.54  13 1.86  25 2.25
 116  0.068  0.371  0.631-  53 1.54  51 1.54  91 1.54
 117  0.382  0.357  0.745-  54 1.54  49 1.54  92 1.54   4 1.94
 118  0.839  0.200  0.859-  55 1.54  96 1.54  25 2.15
 119  0.211  0.228  0.631-  56 1.54  54 1.54  94 1.54  21 2.43
 120  0.525  0.214  0.745-  57 1.54  52 1.54  95 1.54
 
  LATTYP: Found a base centered orthorhombic cell.
 ALAT       =    13.3031797410
 B/A-ratio  =     2.2360678724
 C/A-ratio  =     0.5266767125
  
  Lattice vectors:
  
 A1 = (   6.6515893940, -14.8734064100,   0.0000000000)
 A2 = (   6.6515903470,  14.8734064100,   0.0000000000)
 A3 = (   0.0000000000,   0.0000000000,   7.0064749720)


Analysis of symmetry for initial positions (statically):
=====================================================================
 Subroutine PRICEL returns following result:
 
  LATTYP: Found a simple orthorhombic cell.
 ALAT       =     6.6515886799
 B/A-ratio  =     1.0533536136
 C/A-ratio  =     2.2360684046
  
  Lattice vectors:
  
 A1 = (  -6.6515886799,  -0.0000008775,  -0.0000000420)
 A2 = (   0.0000000000,   0.0000000000,   7.0064749720)
 A3 = (  -0.0000007141,  14.8734072875,   0.0000000420)
 
   2 primitive cells build up your supercell.
 

 Routine SETGRP: Setting up the symmetry group for a 
 base centered orthorhombic supercell.


 Subroutine GETGRP returns: Found  1 space group operations
 (whereof  1 operations were pure point group operations)
 out of a pool of  8 trial point group operations.


The static configuration has the point symmetry C_1 .


Analysis of symmetry for dynamics (positions and initial velocities):
=====================================================================
 Subroutine PRICEL returns following result:
 
  LATTYP: Found a simple orthorhombic cell.
 ALAT       =     6.6515886799
 B/A-ratio  =     1.0533536136
 C/A-ratio  =     2.2360684046
  
  Lattice vectors:
  
 A1 = (  -6.6515886799,  -0.0000008775,  -0.0000000420)
 A2 = (   0.0000000000,   0.0000000000,   7.0064749720)
 A3 = (  -0.0000007141,  14.8734072875,   0.0000000420)
 
   2 primitive cells build up your supercell.
 

 Routine SETGRP: Setting up the symmetry group for a 
 base centered orthorhombic supercell.


 Subroutine GETGRP returns: Found  1 space group operations
 (whereof  1 operations were pure point group operations)
 out of a pool of  8 trial point group operations.


The dynamic configuration has the point symmetry C_1 .


Analysis of structural, dynamic, and magnetic symmetry:
=====================================================================
 Subroutine PRICEL returns following result:
 
  LATTYP: Found a simple orthorhombic cell.
 ALAT       =     6.6515886799
 B/A-ratio  =     1.0533536136
 C/A-ratio  =     2.2360684046
  
  Lattice vectors:
  
 A1 = (  -6.6515886799,  -0.0000008775,  -0.0000000420)
 A2 = (   0.0000000000,   0.0000000000,   7.0064749720)
 A3 = (  -0.0000007141,  14.8734072875,   0.0000000420)
 
   2 primitive cells build up your supercell.
 

 Routine SETGRP: Setting up the symmetry group for a 
 base centered orthorhombic supercell.


 Subroutine GETGRP returns: Found  1 space group operations
 (whereof  1 operations were pure point group operations)
 out of a pool of  8 trial point group operations.


The overall configuration has the point symmetry C_1 .


 Subroutine INISYM returns: Found  1 space group operations
 (whereof  1 operations are pure point group operations),
 and found     2 'primitive' translations


----------------------------------------------------------------------------------------

                                     Primitive cell                                     

  volume of cell :     693.1631

  direct lattice vectors                    reciprocal lattice vectors
    -6.651588680 -0.000000878 -0.000000042    -0.150340024 -0.000000007  0.000000000
     0.000000000  0.000000000  7.006474972    -0.000000001 -0.000000000  0.142725123
    -0.000000714 14.873407288  0.000000042    -0.000000009  0.067234090  0.000000000

  length of vectors
     6.651588680  7.006474972 14.873407288     0.150340024  0.142725123  0.067234090

  position of ions in fractional coordinates (direct lattice)
     0.985754311  0.999999988  0.980056466
     0.819087756  0.173326719  0.746723061
     0.652421261  0.346653450  0.513389716
     0.652421267  0.999999996  0.313389770
     0.485754779  0.173326646  0.080056432
     0.319088187  0.346653363  0.846722990
     0.319087893  0.000000000  0.646723073
     0.152421338  0.173326729  0.413389698
     0.985754784  0.346653460  0.180056308
     0.319087989  0.086663177  0.946723186
     0.152421315  0.259989878  0.713389782
     0.985755118  0.433316526  0.480056555
     0.985754705  0.086663192  0.280056549
     0.819088158  0.259989916  0.046723152
     0.652421609  0.433316558  0.813389769
     0.652420647  0.086663197  0.613389734
     0.485754122  0.259989876  0.380056359
     0.319087595  0.433316518  0.146722984
     0.092081212  0.802032221  0.956741104
     0.377795945  0.574368228  0.985312784
     0.734938699  0.688200234  0.971027003
     0.663510057  0.802032350  0.813884011
     0.949224192  0.574368227  0.842455573
     0.306367245  0.688200226  0.828169733
     0.234938781  0.802032229  0.671026919
     0.520653217  0.574368237  0.699598540
     0.877795730  0.688200224  0.685312641
     0.806366970  0.802032341  0.528169768
     0.092081881  0.574368235  0.556741389
     0.449224335  0.688200234  0.542455548
     0.377795756  0.802032232  0.385312617
     0.663510188  0.574368227  0.413884120
     0.020653061  0.688200233  0.399598457
     0.949224450  0.802032230  0.242455495
     0.234939092  0.574368238  0.271027086
     0.592081367  0.688200225  0.256741187
     0.520652727  0.802032283  0.099598315
     0.806367578  0.574368236  0.128169875
     0.163509974  0.688200223  0.113884096
     0.092081552  0.858948100  0.056741122
     0.377796343  0.631284108  0.085312742
     0.734939038  0.745116172  0.071027020
     0.663510754  0.858948110  0.913884148
     0.949224891  0.631284106  0.942455472
     0.306367644  0.745116164  0.928169810
     0.234938466  0.858948103  0.771026878
     0.520653435  0.631284116  0.799598439
     0.877795773  0.745116163  0.785312599
     0.806367190  0.858948101  0.628169787
     0.092081803  0.631284168  0.656741229
     0.449224855  0.745116173  0.642455507
     0.377796393  0.858948111  0.485312694
     0.663510588  0.631284166  0.513884078
     0.020653342  0.745116171  0.499598416
     0.949224520  0.858948110  0.342455483
     0.234939194  0.631284117  0.371027104
     0.592081589  0.745116163  0.356741205
     0.520652843  0.858948102  0.199598347
     0.806367828  0.631284174  0.228169923
     0.163510642  0.745116174  0.213884202

  ion indices of the primitive-cell ions
   primitive index   ion index
                 1           1
                 2           2
                 3           3
                 4          25
                 5          26
                 6          27
                 7          19
                 8          20
                 9          21
                10          34
                11          35
                12          12
                13          28
                14          29
                15          30
                16          16
                17          17
                18          18
                19          37
                20          80
                21          81
                22          40
                23          83
                24          42
                25          43
                26          86
                27          45
                28          88
                29          89
                30          48
                31          91
                32          50
                33          51
                34          94
                35          53
                36          96
                37          55
                38          56
                39          99
                40         100
                41          59
                42          60
                43         103
                44          62
                45         105
                46          64
                47          65
                48         108
                49          67
                50         110
                51         111
                52          70
                53         113
                54         114
                55          73
                56         116
                57          75
                58         118
                59         119
                60          78

----------------------------------------------------------------------------------------

 
 
 KPOINTS: Automatic KPOINTS generated             

Automatic generation of k-mesh.
 Grid dimensions read from file:
 generate k-points for:    3    2    4

 Generating k-lattice:

  Cartesian coordinates                     Fractional coordinates (reciprocal lattice)
     0.025056666  0.011205681  0.000000000     0.333333333  0.000000000  0.000000000
     0.000000000  0.033617047  0.000000000     0.000000000  0.500000000  0.000000000
     0.000000000  0.000000000  0.035681281     0.000000000  0.000000000  0.250000000

  Length of vectors
     0.027448202  0.033617047  0.035681281

  Shift w.r.t. Gamma in fractional coordinates (k-lattice)
     0.000000000  0.000000000  0.000000000

 WARNING: IBZKPT: internal override: KBLOWUP is changed to .FALSE.
      ... skipping the blow-up phase ...

 
 Subroutine IBZKPT returns following result:
 ===========================================
 
 Found     14 irreducible k-points:
 
 Following reciprocal coordinates:
            Coordinates               Weight
  0.000000  0.000000  0.000000      1.000000
  0.333333  0.000000  0.000000      2.000000
  0.000000  0.500000  0.000000      1.000000
  0.333333  0.500000  0.000000      2.000000
  0.000000  0.000000  0.250000      2.000000
  0.333333  0.000000  0.250000      2.000000
 -0.333333 -0.000000  0.250000      2.000000
  0.000000  0.500000  0.250000      2.000000
  0.333333  0.500000  0.250000      2.000000
 -0.333333  0.500000  0.250000      2.000000
  0.000000  0.000000  0.500000      1.000000
  0.333333  0.000000  0.500000      2.000000
  0.000000  0.500000  0.500000      1.000000
  0.333333  0.500000  0.500000      2.000000
 
 Following cartesian coordinates:
            Coordinates               Weight
  0.000000  0.000000  0.000000      1.000000
  0.025057  0.011206  0.000000      2.000000
  0.000000  0.033617  0.000000      1.000000
  0.025057  0.044823  0.000000      2.000000
  0.000000  0.000000  0.035681      2.000000
  0.025057  0.011206  0.035681      2.000000
 -0.025057 -0.011206  0.035681      2.000000
  0.000000  0.033617  0.035681      2.000000
  0.025057  0.044823  0.035681      2.000000
 -0.025057  0.022411  0.035681      2.000000
  0.000000  0.000000  0.071363      1.000000
  0.025057  0.011206  0.071363      2.000000
  0.000000  0.033617  0.071363      1.000000
  0.025057  0.044823  0.071363      2.000000
 


--------------------------------------------------------------------------------------------------------




 Dimension of arrays:
   k-points           NKPTS =     14   k-points in BZ     NKDIM =     14   number of bands    NBANDS=    288
   number of dos      NEDOS =    301   number of ions     NIONS =    120
   non local maximal  LDIM  =      4   non local SUM 2l+1 LMDIM =      8
   total plane-waves  NPLWV = 466560
   max r-space proj   IRMAX =   1800   max aug-charges    IRDMAX=  90208
   dimension x,y,z NGX =    90 NGY =  108 NGZ =   48
   dimension x,y,z NGXF=   180 NGYF=  216 NGZF=   96
   support grid    NGXF=   360 NGYF=  432 NGZF=  192
   ions per type =              36  84
   NGX,Y,Z   is equivalent  to a cutoff of  11.25, 11.02, 11.39 a.u.
   NGXF,Y,Z  is equivalent  to a cutoff of  22.49, 22.04, 22.78 a.u.

 SYSTEM =  Si and Ge interface calculation         
 POSCAR =  Si+C                                    

 Startparameter for this run:
   NWRITE =      2    write-flag & timer
   PREC   = normal    normal or accurate (medium, high low for compatibility)
   ISTART =      0    job   : 0-new  1-cont  2-samecut
   ICHARG =      2    charge: 1-file 2-atom 10-const
   ISPIN  =      2    spin polarized calculation?
   LNONCOLLINEAR =      F non collinear calculations
   LSORBIT =      F    spin-orbit coupling
   INIWAV =      1    electr: 0-lowe 1-rand  2-diag
   LASPH  =      T    aspherical Exc in radial PAW
 Electronic Relaxation 1
   ENCUT  =  700.0 eV  51.45 Ry    7.17 a.u.  28.70 35.15 15.11*2*pi/ulx,y,z
   ENINI  =  700.0     initial cutoff
   ENAUG  =  900.0 eV  augmentation charge cutoff
   NELM   =    100;   NELMIN=  2; NELMDL= -5     # of ELM steps 
   EDIFF  = 0.1E-06   stopping-criterion for ELM
   LREAL  =      T    real-space projection
   NLSPLINE    = F    spline interpolate recip. space projectors
   LCOMPAT=      F    compatible to vasp.4.4
   GGA_COMPAT  = T    GGA compatible to vasp.4.4-vasp.4.6
   LMAXPAW     = -100 max onsite density
   LMAXMIX     =    6 max onsite mixed and CHGCAR
   VOSKOWN=      0    Vosko Wilk Nusair interpolation
   ROPT   =   -0.00050  -0.00050
 Ionic relaxation
   EDIFFG = 0.1E-05   stopping-criterion for IOM
   NSW    =      0    number of steps for IOM
   NBLOCK =      1;   KBLOCK =      1    inner block; outer block 
   IBRION =     -1    ionic relax: 0-MD 1-quasi-New 2-CG
   NFREE  =      0    steps in history (QN), initial steepest desc. (CG)
   ISIF   =      2    stress and relaxation
   IWAVPR =     10    prediction:  0-non 1-charg 2-wave 3-comb
   ISYM   =      2    0-nonsym 1-usesym 2-fastsym
   LCORR  =      T    Harris-Foulkes like correction to forces

   POTIM  = 0.5000    time-step for ionic-motion
   TEIN   =    0.0    initial temperature
   TEBEG  =    0.0;   TEEND  =   0.0 temperature during run
   SMASS  =  -3.00    Nose mass-parameter (am)
   estimated Nose-frequenzy (Omega)   =  0.10E-29 period in steps = 0.13E+47 mass=  -0.404E-26a.u.
   SCALEE = 1.0000    scale energy and forces
   NPACO  =    256;   APACO  = 10.0  distance and # of slots for P.C.
   PSTRESS=    0.0 pullay stress

  Mass of Ions in am
   POMASS =  28.09 12.01
  Ionic Valenz
   ZVAL   =   4.00  4.00
  Atomic Wigner-Seitz radii
   RWIGS  =  -1.00 -1.00
  virtual crystal weights 
   VCA    =   1.00  1.00
   NELECT =     480.0000    total number of electrons
   NUPDOWN=       1.0000    fix difference up-down

 DOS related values:
   EMIN   =  10.00;   EMAX   =-10.00  energy-range for DOS
   EFERMI =   0.00;   METHOD = LEGACY      
   ISMEAR =     0;   SIGMA  =   0.01  broadening in eV -4-tet -1-fermi 0-gaus

 Electronic relaxation 2 (details)
   IALGO  =     38    algorithm
   LDIAG  =      T    sub-space diagonalisation (order eigenvalues)
   LSUBROT=      F    optimize rotation matrix (better conditioning)
   TURBO    =      0    0=normal 1=particle mesh
   IRESTART =      0    0=no restart 2=restart with 2 vectors
   NREBOOT  =      0    no. of reboots
   NMIN     =      0    reboot dimension
   EREF     =   0.00    reference energy to select bands
   IMIX   =      4    mixing-type and parameters
     AMIX     =   0.60;   BMIX     =  1.00
     AMIX_MAG =   2.40;   BMIX_MAG =  1.00
     AMIN     =   0.10
     WC   =   100.;   INIMIX=   1;  MIXPRE=   1;  MAXMIX= -45

 Intra band minimization:
   WEIMIN = 0.0000     energy-eigenvalue tresh-hold
   EBREAK =  0.87E-10  absolut break condition
   DEPER  =   0.30     relativ break condition  

   TIME   =   0.40     timestep for ELM

  volume/ion in A,a.u.               =      11.55        77.96
  Fermi-wavevector in a.u.,A,eV,Ry     =   1.149565  2.172362 17.980085  1.321499
  Thomas-Fermi vector in A             =   2.286234
 
 Write flags
   LWAVE        =      F    write WAVECAR
   LDOWNSAMPLE  =      F    k-point downsampling of WAVECAR
   LCHARG       =      T    write CHGCAR
   LVTOT        =      F    write LOCPOT, total local potential
   LVHAR        =      T    write LOCPOT, Hartree potential only
   WRT_POTENTIAL=  hartree ionic  ! write potential to hdf5 file
   LELF         =      F    write electronic localiz. function (ELF)
   LORBIT       =      0    0 simple, 1 ext, 2 COOP (PROOUT), +10 PAW based schemes


 Dipole corrections
   LMONO      =      F    monopole corrections only (constant potential shift)
   LDIPOL     =      F    correct potential (dipole corrections)
   IDIPOL     =      0    1-x, 2-y, 3-z, 4-all directions 
   EPSILON    =  1.0000000 bulk dielectric constant
   LVACPOTAV  =      F  vacuum potentials using an averaging scheme for the charge density
   VACPOTFLAT =  0.1000000 required flatness to determine vacuum potential
 Exchange correlation treatment:
   GGA     = PE    functional components
   XC_C    = 1    coefficients multiplying the functional components
   LIBXC   =     F    Libxc                    
   VOSKOWN =     0    Vosko Wilk Nusair interpolation
   LHFCALC =     F    Hartree Fock is set to
   LHFONE  =     F    Hartree Fock one center treatment
   AEXX    =    0.0000 exact exchange contribution

 Parameters of functionals:
   PE:
     No parameter
 
 Van der Waals corrections
   IVDW    =     0    specifies the selected vdW correction

 Linear response parameters
   LEPSILON=     F    determine dielectric tensor
   LRPA    =     F    only Hartree local field effects (RPA)
   LNABLA  =     F    use nabla operator in PAW spheres
   LVEL    =     F    velocity operator in full k-point grid
   CSHIFT  =0.1000    complex shift for real part using Kramers Kronig
   OMEGAMAX=  -1.0    maximum frequency
   DEG_THRESHOLD= 0.2000000E-02 threshold for treating states as degnerate
   RTIME   =   -0.100 relaxation time in fs
  (WPLASMAI=    0.000 imaginary part of plasma frequency in eV, 0.658/RTIME)
   DFIELD  = 0.0000000 0.0000000 0.0000000 field for delta impulse in time
 
  Optional k-point grid parameters
   LKPOINTS_OPT  =     F    use optional k-point grid
   KPOINTS_OPT_MODE=     1    mode for optional k-point grid
 
 Orbital magnetization related:
   ORBITALMAG=     F  switch on orbital magnetization
   LCHIMAG   =     F  perturbation theory with respect to B field
   DQ        =  0.001000  dq finite difference perturbation B field
   LLRAUG    =     F  two centre corrections for induced B field
   LBONE     =     F  B-component reconstruction in AE one-centre
   LVGVCALC  =     T  calculate vGv susceptibility
   LVGVAPPL  =     F  apply vGv susceptibility instead of pGv for G=0

 Random number generation:
   RANDOM_GENERATOR = DEFAULT
   PCG_SEED         = not used


--------------------------------------------------------------------------------------------------------


 Static calculation
 charge density and potential will be updated during run
 spin polarized calculation
 Variant of blocked Davidson
 Davidson routine will perform the subspace rotation
 perform sub-space diagonalisation
    after iterative eigenvector-optimisation
 modified Broyden-mixing scheme, WC =      100.0
 initial mixing is a Kerker type mixing with AMIX =  0.6000 and BMIX =      1.0000
 Hartree-type preconditioning will be used
 using additional bands           48
 real space projection scheme for non local part
 use partial core corrections
 calculate Harris-corrections to forces 
   (improved forces if not selfconsistent)
 use gradient corrections 
 use of overlap-Matrix (Vanderbilt PP)
 Gauss-broadening in eV      SIGMA  =   0.01


--------------------------------------------------------------------------------------------------------


  energy-cutoff  :      700.00
  volume of cell :     1386.33
      direct lattice vectors                 reciprocal lattice vectors
    13.303179741  0.000000000  0.000000000     0.075169998  0.033617044  0.000000000
    -6.651589394 14.873406410  0.000000000     0.000000000  0.067234094  0.000000000
     0.000000000  0.000000000  7.006474972     0.000000000  0.000000000  0.142725123

  length of vectors
    13.303179741 16.293000328  7.006474972     0.082344607  0.067234094  0.142725123


 
 k-points in units of 2pi/SCALE and weight: Automatic KPOINTS generated             
   0.00000000  0.00000000  0.00000000       0.042
   0.02505667  0.01120568  0.00000000       0.083
   0.00000000  0.03361705  0.00000000       0.042
   0.02505667  0.04482273  0.00000000       0.083
   0.00000000  0.00000000  0.03568128       0.083
   0.02505667  0.01120568  0.03568128       0.083
  -0.02505667 -0.01120568  0.03568128       0.083
   0.00000000  0.03361705  0.03568128       0.083
   0.02505667  0.04482273  0.03568128       0.083
  -0.02505667  0.02241137  0.03568128       0.083
   0.00000000  0.00000000  0.07136256       0.042
   0.02505667  0.01120568  0.07136256       0.083
   0.00000000  0.03361705  0.07136256       0.042
   0.02505667  0.04482273  0.07136256       0.083
 
 k-points in reciprocal lattice and weights: Automatic KPOINTS generated             
   0.00000000  0.00000000  0.00000000       0.042
   0.33333333  0.00000000  0.00000000       0.083
   0.00000000  0.50000000  0.00000000       0.042
   0.33333333  0.50000000  0.00000000       0.083
   0.00000000  0.00000000  0.25000000       0.083
   0.33333333  0.00000000  0.25000000       0.083
  -0.33333333 -0.00000000  0.25000000       0.083
   0.00000000  0.50000000  0.25000000       0.083
   0.33333333  0.50000000  0.25000000       0.083
  -0.33333333  0.50000000  0.25000000       0.083
   0.00000000  0.00000000  0.50000000       0.042
   0.33333333  0.00000000  0.50000000       0.083
   0.00000000  0.50000000  0.50000000       0.042
   0.33333333  0.50000000  0.50000000       0.083
 
 position of ions in fractional coordinates (direct lattice) 
   0.99715096  0.98005658  0.00000000
   0.96381754  0.74672317  0.17332673
   0.93048412  0.51338983  0.34665346
   0.33048421  0.31338987  0.00000000
   0.29715079  0.08005647  0.17332673
   0.26381737  0.84672308  0.34665346
   0.66381747  0.64672315  0.00000000
   0.63048405  0.41338971  0.17332673
   0.59715062  0.18005633  0.34665346
   0.31381753  0.94672334  0.08666319
   0.28048411  0.71338999  0.25998992
   0.24715069  0.48005658  0.43331653
   0.64715082  0.28005657  0.08666319
   0.61381739  0.04672319  0.25998989
   0.58048397  0.81338978  0.43331656
   0.98048443  0.61338985  0.08666321
   0.94715101  0.38005647  0.25998989
   0.91381758  0.14672309  0.43331653
   0.16381757  0.64672309  0.00000000
   0.13048416  0.41338971  0.17332673
   0.09715075  0.18005632  0.34665346
   0.49715090  0.98005664  0.00000001
   0.46381742  0.74672317  0.17332666
   0.43048406  0.51338983  0.34665337
   0.83048415  0.31338987  0.00000001
   0.79715073  0.08005653  0.17332666
   0.76381731  0.84672308  0.34665337
   0.14715090  0.28005657  0.08666319
   0.11381748  0.04672317  0.25998992
   0.08048407  0.81338978  0.43331656
   0.48048422  0.61338991  0.08666319
   0.44715083  0.38005653  0.25998989
   0.41381741  0.14672317  0.43331656
   0.81381750  0.94672328  0.08666319
   0.78048414  0.71338987  0.25998989
   0.74715072  0.48005646  0.43331656
   0.93232983  0.95674121  0.80203223
   0.30375826  0.98531276  0.57436824
   0.61804408  0.97102708  0.68820023
   0.07518697  0.81388402  0.80203235
   0.44661537  0.84245563  0.57436824
   0.76090115  0.82816982  0.68820023
   0.21804404  0.67102695  0.80203223
   0.58947253  0.69959849  0.57436824
   0.90375835  0.68531275  0.68820023
   0.36090124  0.52816981  0.80203223
   0.73232973  0.55674136  0.57436824
   0.04661560  0.54245555  0.68820023
   0.50375831  0.38531268  0.80203223
   0.87518686  0.41388422  0.57436824
   0.18947267  0.39959848  0.68820023
   0.64661550  0.24245551  0.80203223
   0.01804399  0.27102709  0.57436824
   0.33232975  0.25674131  0.68820023
   0.78947270  0.09959841  0.80203229
   0.16090113  0.12816989  0.57436824
   0.47518691  0.11388421  0.68820023
   0.48232973  0.05674124  0.85894811
   0.85375810  0.08531284  0.63128412
   0.16804397  0.07102704  0.74511617
   0.62518680  0.91388404  0.85894811
   0.99661517  0.94245559  0.63128412
   0.31090093  0.92816979  0.74511617
   0.76804411  0.77102697  0.85894811
   0.13947248  0.79959846  0.63128412
   0.45375836  0.78531277  0.74511617
   0.91090119  0.62816989  0.85894811
   0.28232956  0.65674138  0.63128412
   0.59661543  0.64245564  0.74511617
   0.05375814  0.48531270  0.85894811
   0.42518666  0.51388425  0.63128418
   0.73947245  0.49959850  0.74511617
   0.19661546  0.34245551  0.85894811
   0.56804395  0.37102711  0.63128412
   0.88232970  0.35674131  0.74511617
   0.33947265  0.19959843  0.85894811
   0.71090102  0.22816996  0.63128412
   0.02518678  0.21388420  0.74511617
   0.43232989  0.95674121  0.80203235
   0.80375832  0.98531288  0.57436824
   0.11804414  0.97102702  0.68820023
   0.57518709  0.81388402  0.80203235
   0.94661558  0.84245568  0.57436824
   0.26090121  0.82816982  0.68820023
   0.71804428  0.67102689  0.80203235
   0.08947265  0.69959855  0.57436824
   0.40375841  0.68531275  0.68820023
   0.86090130  0.52816987  0.80203235
   0.23232973  0.55674142  0.57436824
   0.54661554  0.54245561  0.68820023
   0.00375843  0.38531262  0.80203223
   0.37518686  0.41388422  0.57436824
   0.68947267  0.39959842  0.68820023
   0.14661550  0.24245551  0.80203223
   0.51804399  0.27102709  0.57436824
   0.83232981  0.25674128  0.68820023
   0.28947270  0.09959841  0.80203223
   0.66090113  0.12817001  0.57436824
   0.97518694  0.11388421  0.68820023
   0.98232967  0.05674124  0.85894811
   0.35375816  0.08531284  0.63128418
   0.66804391  0.07102704  0.74511617
   0.12518668  0.91388416  0.85894811
   0.49661526  0.94245571  0.63128418
   0.81090099  0.92816991  0.74511617
   0.26804399  0.77102697  0.85894811
   0.63947248  0.79959846  0.63128418
   0.95375830  0.78531271  0.74511617
   0.41090119  0.62816978  0.85894811
   0.78232962  0.65674132  0.63128418
   0.09661531  0.64245552  0.74511617
   0.55375826  0.48531270  0.85894811
   0.92518663  0.51388419  0.63128418
   0.23947251  0.49959844  0.74511617
   0.69661558  0.34245554  0.85894823
   0.06804395  0.37102711  0.63128412
   0.38232970  0.35674134  0.74511617
   0.83947265  0.19959845  0.85894811
   0.21090102  0.22816995  0.63128418
   0.52518690  0.21388423  0.74511617
 
 position of ions in cartesian coordinates  (Angst):
   6.74634444 14.57677988  0.00000000
   7.85494198 11.10631726  1.21440940
   8.96353912  7.63585553  2.42881880
   2.31195014  4.66117487  0.00000000
   3.42054759  1.19071247  1.21440940
  -2.12244437 12.59365649  2.42881880
   4.52914620  9.61897626  0.00000000
   5.63774394  6.14851321  1.21440940
   6.74634128  2.67805103  2.42881880
  -2.12244392 14.08100102  0.60720345
  -1.01384678 10.61053929  1.82161285
   0.09475076  7.14007667  3.03602142
   6.74634233  4.16539512  0.60720345
   7.85493962  0.69493305  1.82161264
   2.31194781 12.09787674  3.03602163
   8.96354313  9.12319653  0.60720360
  10.07214047  5.65273435  1.82161264
  11.18073782  2.18227218  3.03602142
  -2.12244188  9.61897538  0.00000001
  -1.01384434  6.14851321  1.21440940
   0.09475319  2.67805081  2.42881880
   0.09475338 14.57678076  0.00000004
   1.20335053 11.10631726  1.21440888
   2.31194845  7.63585553  2.42881817
   8.96353922  4.66117487  0.00000004
  10.07213632  1.19071325  1.21440888
   4.52914471 12.59365649  2.42881817
   0.09475364  4.16539512  0.60720350
   1.20335113  0.69493262  1.82161285
  -4.33964077 12.09787674  3.03602163
   2.31195009  9.12319740  0.60720350
   3.42054783  5.65273523  1.82161264
   4.52914508  2.18227328  3.03602163
   4.52914595 14.08100013  0.60720345
   5.63774428 10.61053752  1.82161264
   6.74634182  7.14007490  3.03602163
   6.03910165 14.23000091  5.61941876
  -2.51294512 14.65495712  4.02429668
   1.76307806 14.44248034  4.82185772
  -4.41339657 12.10522780  5.61941959
   0.33773561 12.53018491  4.02429668
   4.61375919 12.31770635  4.82185772
  -1.56271661  9.98045647  5.61941876
   3.18841714 10.40541268  4.02429668
   7.46444073 10.19293502  4.82185772
   1.28796531  7.85568425  5.61941876
   6.03909907  8.28064047  4.02429668
  -2.98805589  8.06816191  4.82185772
   4.13864565  5.73091203  5.61941876
   8.88978021  6.15586826  4.02429668
  -0.13737595  5.94339058  4.82185772
   6.98932777  3.60613937  5.61941876
  -1.56271840  4.03109603  4.02429668
   2.71330459  3.81861792  4.82185772
   9.84000950  1.48136760  5.61941918
   1.28796313  1.90632292  4.02429668
   5.56398592  1.69384615  4.82185772
   6.03909962  0.84393549  6.01819845
  10.79023142  1.26889259  4.42307637
   1.76307644  1.05641403  5.22063782
   2.23819097 13.59256880  6.01819845
   6.98932315 14.01752501  4.42307637
  -2.03783340 13.80504646  5.22063782
   5.08887409 11.46779746  6.01819845
  -3.46317307 11.89275279  4.42307637
   0.81285090 11.68027602  5.22063782
   7.93955404  9.34302613  6.01819845
  -0.61249313  9.76798147  4.42307637
   3.66353125  9.55550379  5.22063782
  -2.51294656  7.21825302  6.01819845
   2.23818761  7.64320924  4.42307679
   6.51421080  7.43073158  5.22063782
   0.33773737  5.09347992  6.01819845
   5.08887072  5.51843703  4.42307637
   9.36489391  5.30595847  5.22063782
   3.18841888  2.96870860  6.01819845
   7.93955117  3.39366459  4.42307637
  -1.08760569  3.18118671  5.22063782
  -0.61248744 14.23000091  5.61941959
   4.13864474 14.65495889  4.02429668
  -4.88851062 14.44247946  4.82185772
   2.23819489 12.10522780  5.61941959
   6.98932787 12.53018579  4.02429668
  -2.03782988 12.31770635  4.82185772
   5.08887681  9.98045559  5.61941959
  -3.46317154 10.40541357  4.02429668
   0.81285165 10.19293502  4.82185772
   7.93955557  7.85568513  5.61941959
  -0.61249119  8.28064135  4.02429668
   3.66353278  8.06816281  4.82185772
  -2.51294225  5.73091115  5.61941876
   2.23819034  6.15586826  4.02429668
   6.51421431  5.94338970  4.82185772
   0.33773790  3.60613937  5.61941876
   5.08887148  4.03109603  4.02429668
   9.36489546  3.81861747  4.82185772
   3.18841963  1.48136760  5.61941876
   7.93955221  1.90632469  4.02429668
  12.21557619  1.69384615  4.82185772
  12.69068871  0.84393549  6.01819845
   4.13864233  1.26889259  4.42307679
   8.41466552  1.05641403  5.22063782
  -4.41340127 13.59257057  6.01819845
   0.33773368 14.01752678  4.42307679
   4.61375647 13.80504823  5.22063782
  -1.56271737 11.46779746  6.01819845
   3.18841680 11.89275279  4.42307679
   7.46444037 11.68027512  5.22063782
   1.28796496  9.34302436  6.01819845
   6.03909793  9.76798057  4.42307679
  -2.98805942  9.55550202  5.22063782
   4.13864491  7.21825302  6.01819845
   8.88977748  7.64320836  4.42307679
  -0.13737789  7.43073070  5.22063782
   6.98932862  5.09348036  6.01819928
  -1.56271915  5.51843703  4.42307637
   2.71330384  5.30595892  5.22063782
   9.84000866  2.96870881  6.01819845
   1.28796140  3.39366437  4.42307679
   5.56398557  3.18118714  5.22063782
 


--------------------------------------------------------------------------------------------------------


 k-point     1 :   0.0000 0.0000 0.0000  plane waves:   58295
 k-point     2 :   0.3333 0.0000 0.0000  plane waves:   58263
 k-point     3 :   0.0000 0.5000 0.0000  plane waves:   58320
 k-point     4 :   0.3333 0.5000 0.0000  plane waves:   58272
 k-point     5 :   0.0000 0.0000 0.2500  plane waves:   58296
 k-point     6 :   0.3333 0.0000 0.2500  plane waves:   58305
 k-point     7 :  -0.3333-0.0000 0.2500  plane waves:   58305
 k-point     8 :   0.0000 0.5000 0.2500  plane waves:   58352
 k-point     9 :   0.3333 0.5000 0.2500  plane waves:   58308
 k-point    10 :  -0.3333 0.5000 0.2500  plane waves:   58308
 k-point    11 :   0.0000 0.0000 0.5000  plane waves:   58290
 k-point    12 :   0.3333 0.0000 0.5000  plane waves:   58328
 k-point    13 :   0.0000 0.5000 0.5000  plane waves:   58328
 k-point    14 :   0.3333 0.5000 0.5000  plane waves:   58336

 maximum and minimum number of plane-waves per node :      3707     3600

 maximum number of plane-waves:     58352
 maximum index in each direction: 
   IXMAX=   29   IYMAX=   35   IZMAX=   15
   IXMIN=  -29   IYMIN=  -35   IZMIN=  -15


 real space projection operators:
  total allocation   :      11298.12 KBytes
  max/ min on nodes  :        807.12        590.44


 parallel 3D FFT for wavefunctions:
    minimum data exchange during FFTs selected (reduces bandwidth)
 parallel 3D FFT for charge:
    minimum data exchange during FFTs selected (reduces bandwidth)


 total amount of memory used by VASP MPI-rank0   172063. kBytes
=======================================================================

   base      :      30000. kBytes
   nonlr-proj:       4460. kBytes
   fftplans  :       9994. kBytes
   grid      :       7568. kBytes
   one-center:         49. kBytes
   wavefun   :     119992. kBytes
 
     INWAV:  cpu time      0.0000: real time      0.0001
 Broyden mixing: mesh for mixing (old mesh)
   NGX = 57   NGY = 71   NGZ = 31
  (NGX  =180   NGY  =216   NGZ  = 96)
  gives a total of 125457 points

 initial charge density was supplied:
 charge density of overlapping atoms calculated
 number of electron     480.0000000 magnetization       1.0000000
 keeping initial charge density in first step


--------------------------------------------------------------------------------------------------------


 Maximum index for non-local projection operator          194
 Maximum index for augmentation-charges         2384 (set IRDMAX)


--------------------------------------------------------------------------------------------------------


 First call to EWALD:  gamma=   0.159
 Maximum number of real-space cells 3x 2x 4
 Maximum number of reciprocal cells 3x 4x 2

    FEWALD:  cpu time      0.0037: real time      0.0037


--------------------------------------- Ionic step        1  -------------------------------------------




--------------------------------------- Iteration      1(   1)  ---------------------------------------


    POTLOK:  cpu time      0.1222: real time      0.1237
    SETDIJ:  cpu time      0.5771: real time      0.5795
     EDDAV:  cpu time     24.0905: real time     24.2837
       DOS:  cpu time      0.0035: real time      0.0035
    --------------------------------------------
      LOOP:  cpu time     24.7933: real time     24.9904

 eigenvalue-minimisations  : 16128
 total energy-change (2. order) : 0.2376944E+04  (-0.2635251E+05)
 number of electron     480.0000000 magnetization       1.0000000
 augmentation part      480.0000000 magnetization       1.0000000

 Free energy of the ion-electron system (eV)
  ---------------------------------------------------
  alpha Z        PSCENC =       702.18936556
  Ewald energy   TEWEN  =    -10872.72458139
  -Hartree energ DENC   =     -6779.96513788
  -exchange      EXHF   =         0.00000000
  -V(xc)+E(xc)   XCENC  =       765.06339710
  PAW double counting   =     12288.30765307   -11702.77953025
  entropy T*S    EENTRO =        -0.00086661
  eigenvalues    EBANDS =      1905.62325602
  atomic energy  EATOM  =     16071.23009607
  Solvation  Ediel_sol  =         0.00000000
  ---------------------------------------------------
  free energy    TOTEN  =      2376.94365169 eV

  energy without entropy =     2376.94451831  energy(sigma->0) =     2376.94408500


--------------------------------------------------------------------------------------------------------




--------------------------------------- Iteration      1(   2)  ---------------------------------------


     EDDAV:  cpu time     28.0273: real time     28.2501
       DOS:  cpu time      0.0045: real time      0.0045
    --------------------------------------------
      LOOP:  cpu time     28.0318: real time     28.2546

 eigenvalue-minimisations  : 19752
 total energy-change (2. order) :-0.2919055E+04  (-0.2790232E+04)
 number of electron     480.0000000 magnetization       1.0000000
 augmentation part      480.0000000 magnetization       1.0000000

 Free energy of the ion-electron system (eV)
  ---------------------------------------------------
  alpha Z        PSCENC =       702.18936556
  Ewald energy   TEWEN  =    -10872.72458139
  -Hartree energ DENC   =     -6779.96513788
  -exchange      EXHF   =         0.00000000
  -V(xc)+E(xc)   XCENC  =       765.06339710
  PAW double counting   =     12288.30765307   -11702.77953025
  entropy T*S    EENTRO =        -0.00152709
  eigenvalues    EBANDS =     -1013.43145198
  atomic energy  EATOM  =     16071.23009607
  Solvation  Ediel_sol  =         0.00000000
  ---------------------------------------------------
  free energy    TOTEN  =      -542.11171679 eV

  energy without entropy =     -542.11018969  energy(sigma->0) =     -542.11095324


--------------------------------------------------------------------------------------------------------




--------------------------------------- Iteration      1(   3)  ---------------------------------------


     EDDAV:  cpu time     28.2163: real time     28.4483
       DOS:  cpu time      0.0034: real time      0.0034
    --------------------------------------------
      LOOP:  cpu time     28.2197: real time     28.4517

 eigenvalue-minimisations  : 19952
 total energy-change (2. order) :-0.2935536E+03  (-0.2802869E+03)
 number of electron     480.0000000 magnetization       1.0000000
 augmentation part      480.0000000 magnetization       1.0000000

 Free energy of the ion-electron system (eV)
  ---------------------------------------------------
  alpha Z        PSCENC =       702.18936556
  Ewald energy   TEWEN  =    -10872.72458139
  -Hartree energ DENC   =     -6779.96513788
  -exchange      EXHF   =         0.00000000
  -V(xc)+E(xc)   XCENC  =       765.06339710
  PAW double counting   =     12288.30765307   -11702.77953025
  entropy T*S    EENTRO =        -0.00194033
  eigenvalues    EBANDS =     -1306.98461158
  atomic energy  EATOM  =     16071.23009607
  Solvation  Ediel_sol  =         0.00000000
  ---------------------------------------------------
  free energy    TOTEN  =      -835.66528962 eV

  energy without entropy =     -835.66334929  energy(sigma->0) =     -835.66431946


--------------------------------------------------------------------------------------------------------




--------------------------------------- Iteration      1(   4)  ---------------------------------------


     EDDAV:  cpu time     29.5076: real time     29.7757
       DOS:  cpu time      0.0036: real time      0.0036
    --------------------------------------------
      LOOP:  cpu time     29.5111: real time     29.7793

 eigenvalue-minimisations  : 20856
 total energy-change (2. order) :-0.1367716E+02  (-0.1323130E+02)
 number of electron     480.0000000 magnetization       1.0000000
 augmentation part      480.0000000 magnetization       1.0000000

 Free energy of the ion-electron system (eV)
  ---------------------------------------------------
  alpha Z        PSCENC =       702.18936556
  Ewald energy   TEWEN  =    -10872.72458139
  -Hartree energ DENC   =     -6779.96513788
  -exchange      EXHF   =         0.00000000
  -V(xc)+E(xc)   XCENC  =       765.06339710
  PAW double counting   =     12288.30765307   -11702.77953025
  entropy T*S    EENTRO =        -0.00173770
  eigenvalues    EBANDS =     -1320.66197643
  atomic energy  EATOM  =     16071.23009607
  Solvation  Ediel_sol  =         0.00000000
  ---------------------------------------------------
  free energy    TOTEN  =      -849.34245184 eV

  energy without entropy =     -849.34071414  energy(sigma->0) =     -849.34158299


--------------------------------------------------------------------------------------------------------




--------------------------------------- Iteration      1(   5)  ---------------------------------------


     EDDAV:  cpu time     30.1848: real time     30.4261
       DOS:  cpu time      0.0037: real time      0.0037
    CHARGE:  cpu time      1.0092: real time      1.0153
    MIXING:  cpu time      0.0121: real time      0.0122
    --------------------------------------------
      LOOP:  cpu time     31.2098: real time     31.4572

 eigenvalue-minimisations  : 21688
 total energy-change (2. order) :-0.5868716E+00  (-0.5789402E+00)
 number of electron     480.0000001 magnetization       1.0000000
 augmentation part       -0.2842672 magnetization       0.0210399

 Broyden mixing:
  rms(total) = 0.45133E+01    rms(broyden)= 0.45133E+01
  rms(prec ) = 0.55367E+01
  weight for this iteration     100.00

 Free energy of the ion-electron system (eV)
  ---------------------------------------------------
  alpha Z        PSCENC =       702.18936556
  Ewald energy   TEWEN  =    -10872.72458139
  -Hartree energ DENC   =     -6779.96513788
  -exchange      EXHF   =         0.00000000
  -V(xc)+E(xc)   XCENC  =       765.06339710
  PAW double counting   =     12288.30765307   -11702.77953025
  entropy T*S    EENTRO =        -0.00171621
  eigenvalues    EBANDS =     -1321.24886948
  atomic energy  EATOM  =     16071.23009607
  Solvation  Ediel_sol  =         0.00000000
  ---------------------------------------------------
  free energy    TOTEN  =      -849.92932341 eV

  energy without entropy =     -849.92760720  energy(sigma->0) =     -849.92846530


--------------------------------------------------------------------------------------------------------




--------------------------------------- Iteration      1(   6)  ---------------------------------------


    POTLOK:  cpu time      0.1082: real time      0.1108
    SETDIJ:  cpu time      0.5661: real time      0.5687
     EDDAV:  cpu time     29.6781: real time     29.9133
       DOS:  cpu time      0.0034: real time      0.0034
    CHARGE:  cpu time      1.0356: real time      1.0415
    MIXING:  cpu time      0.0048: real time      0.0056
    --------------------------------------------
      LOOP:  cpu time     31.3962: real time     31.6432

 eigenvalue-minimisations  : 21208
 total energy-change (2. order) : 0.2666281E+02  (-0.3797766E+02)
 number of electron     480.0000000 magnetization       1.0000000
 augmentation part       -3.3810664 magnetization       0.0277220

 Broyden mixing:
  rms(total) = 0.35258E+01    rms(broyden)= 0.35258E+01
  rms(prec ) = 0.47352E+01
  weight for this iteration     100.00

 eigenvalues of (default mixing * dielectric matrix)
  average eigenvalue GAMMA=   0.6858
  0.6858

 Free energy of the ion-electron system (eV)
  ---------------------------------------------------
  alpha Z        PSCENC =       702.18936556
  Ewald energy   TEWEN  =    -10872.72458139
  -Hartree energ DENC   =     -7633.33490309
  -exchange      EXHF   =         0.00000000
  -V(xc)+E(xc)   XCENC  =       800.61182149
  PAW double counting   =     24596.86611584   -24017.66541500
  entropy T*S    EENTRO =        -0.00252773
  eigenvalues    EBANDS =      -470.43648452
  atomic energy  EATOM  =     16071.23009607
  Solvation  Ediel_sol  =         0.00000000
  ---------------------------------------------------
  free energy    TOTEN  =      -823.26651277 eV

  energy without entropy =     -823.26398504  energy(sigma->0) =     -823.26524890


--------------------------------------------------------------------------------------------------------




--------------------------------------- Iteration      1(   7)  ---------------------------------------


    POTLOK:  cpu time      0.1071: real time      0.1081
    SETDIJ:  cpu time      0.5657: real time      0.5680
     EDDAV:  cpu time     29.1359: real time     29.3674
       DOS:  cpu time      0.0032: real time      0.0032
    CHARGE:  cpu time      0.9998: real time      1.0048
    MIXING:  cpu time      0.0030: real time      0.0037
    --------------------------------------------
      LOOP:  cpu time     30.8146: real time     31.0551

 eigenvalue-minimisations  : 20744
 total energy-change (2. order) : 0.2541509E+02  (-0.1624584E+02)
 number of electron     480.0000000 magnetization       1.0000000
 augmentation part       -2.6234253 magnetization       0.0239484

 Broyden mixing:
  rms(total) = 0.14914E+01    rms(broyden)= 0.14913E+01
  rms(prec ) = 0.22458E+01
  weight for this iteration     100.00

 eigenvalues of (default mixing * dielectric matrix)
  average eigenvalue GAMMA=   0.8455
  1.1742  0.5169

 Free energy of the ion-electron system (eV)
  ---------------------------------------------------
  alpha Z        PSCENC =       702.18936556
  Ewald energy   TEWEN  =    -10872.72458139
  -Hartree energ DENC   =     -7336.68780150
  -exchange      EXHF   =         0.00000000
  -V(xc)+E(xc)   XCENC  =       797.72896075
  PAW double counting   =     31372.42336739   -30794.41599972
  entropy T*S    EENTRO =        -0.00189602
  eigenvalues    EBANDS =      -737.59293251
  atomic energy  EATOM  =     16071.23009607
  Solvation  Ediel_sol  =         0.00000000
  ---------------------------------------------------
  free energy    TOTEN  =      -797.85142137 eV

  energy without entropy =     -797.84952535  energy(sigma->0) =     -797.85047336


--------------------------------------------------------------------------------------------------------




--------------------------------------- Iteration      1(   8)  ---------------------------------------


    POTLOK:  cpu time      0.1063: real time      0.1085
    SETDIJ:  cpu time      0.5659: real time      0.5685
     EDDAV:  cpu time     31.6646: real time     31.9162
       DOS:  cpu time      0.0031: real time      0.0031
    CHARGE:  cpu time      0.9982: real time      1.0035
    MIXING:  cpu time      0.0028: real time      0.0031
    --------------------------------------------
      LOOP:  cpu time     33.3409: real time     33.6029

 eigenvalue-minimisations  : 22984
 total energy-change (2. order) :-0.4843440E+01  (-0.3596938E+01)
 number of electron     480.0000000 magnetization       1.0000000
 augmentation part       -2.4216004 magnetization       0.0198381

 Broyden mixing:
  rms(total) = 0.13280E+01    rms(broyden)= 0.13279E+01
  rms(prec ) = 0.29213E+01
  weight for this iteration     100.00

 eigenvalues of (default mixing * dielectric matrix)
  average eigenvalue GAMMA=   0.7516
  1.3470  0.5416  0.3662

 Free energy of the ion-electron system (eV)
  ---------------------------------------------------
  alpha Z        PSCENC =       702.18936556
  Ewald energy   TEWEN  =    -10872.72458139
  -Hartree energ DENC   =     -7322.39025484
  -exchange      EXHF   =         0.00000000
  -V(xc)+E(xc)   XCENC  =       799.28636260
  PAW double counting   =     36588.67726232   -36010.93339806
  entropy T*S    EENTRO =        -0.00200873
  eigenvalues    EBANDS =      -758.02770504
  atomic energy  EATOM  =     16071.23009607
  Solvation  Ediel_sol  =         0.00000000
  ---------------------------------------------------
  free energy    TOTEN  =      -802.69486151 eV

  energy without entropy =     -802.69285278  energy(sigma->0) =     -802.69385714


--------------------------------------------------------------------------------------------------------




--------------------------------------- Iteration      1(   9)  ---------------------------------------


    POTLOK:  cpu time      0.1090: real time      0.1112
    SETDIJ:  cpu time      0.5650: real time      0.5674
     EDDAV:  cpu time     31.4217: real time     31.6694
       DOS:  cpu time      0.0028: real time      0.0029
    CHARGE:  cpu time      0.9994: real time      1.0043
    MIXING:  cpu time      0.0030: real time      0.0033
    --------------------------------------------
      LOOP:  cpu time     33.1010: real time     33.3584

 eigenvalue-minimisations  : 22736
 total energy-change (2. order) : 0.6100323E+01  (-0.1402963E+01)
 number of electron     480.0000000 magnetization       1.0000000
 augmentation part       -2.4769333 magnetization       0.0237809

 Broyden mixing:
  rms(total) = 0.44353E+00    rms(broyden)= 0.44350E+00
  rms(prec ) = 0.63741E+00
  weight for this iteration     100.00

 eigenvalues of (default mixing * dielectric matrix)
  average eigenvalue GAMMA=   0.8045
  1.5746  0.6803  0.6803  0.2830

 Free energy of the ion-electron system (eV)
  ---------------------------------------------------
  alpha Z        PSCENC =       702.18936556
  Ewald energy   TEWEN  =    -10872.72458139
  -Hartree energ DENC   =     -7364.89711341
  -exchange      EXHF   =         0.00000000
  -V(xc)+E(xc)   XCENC  =       801.19682491
  PAW double counting   =     39677.85991970   -39100.29319027
  entropy T*S    EENTRO =        -0.00251018
  eigenvalues    EBANDS =      -711.15334989
  atomic energy  EATOM  =     16071.23009607
  Solvation  Ediel_sol  =         0.00000000
  ---------------------------------------------------
  free energy    TOTEN  =      -796.59453890 eV

  energy without entropy =     -796.59202872  energy(sigma->0) =     -796.59328381


--------------------------------------------------------------------------------------------------------




--------------------------------------- Iteration      1(  10)  ---------------------------------------


    POTLOK:  cpu time      0.1076: real time      0.1084
    SETDIJ:  cpu time      0.5658: real time      0.5682
     EDDAV:  cpu time     29.0811: real time     29.3102
       DOS:  cpu time      0.0027: real time      0.0027
    CHARGE:  cpu time      1.0079: real time      1.0129
    MIXING:  cpu time      0.0030: real time      0.0031
    --------------------------------------------
      LOOP:  cpu time     30.7680: real time     31.0055

 eigenvalue-minimisations  : 20704
 total energy-change (2. order) :-0.3149328E+00  (-0.4928942E+00)
 number of electron     480.0000000 magnetization       1.0000000
 augmentation part       -2.5263218 magnetization       0.0235828

 Broyden mixing:
  rms(total) = 0.40837E+00    rms(broyden)= 0.40836E+00
  rms(prec ) = 0.71667E+00
  weight for this iteration     100.00

 eigenvalues of (default mixing * dielectric matrix)
  average eigenvalue GAMMA=   0.7431
  1.5787  0.7290  0.7290  0.2798  0.3993

 Free energy of the ion-electron system (eV)
  ---------------------------------------------------
  alpha Z        PSCENC =       702.18936556
  Ewald energy   TEWEN  =    -10872.72458139
  -Hartree energ DENC   =     -7384.98586074
  -exchange      EXHF   =         0.00000000
  -V(xc)+E(xc)   XCENC  =       802.24321788
  PAW double counting   =     41506.48080420   -40929.17435532
  entropy T*S    EENTRO =        -0.00225001
  eigenvalues    EBANDS =      -692.16590792
  atomic energy  EATOM  =     16071.23009607
  Solvation  Ediel_sol  =         0.00000000
  ---------------------------------------------------
  free energy    TOTEN  =      -796.90947168 eV

  energy without entropy =     -796.90722166  energy(sigma->0) =     -796.90834667


--------------------------------------------------------------------------------------------------------




--------------------------------------- Iteration      1(  11)  ---------------------------------------


    POTLOK:  cpu time      0.1059: real time      0.1081
    SETDIJ:  cpu time      0.5676: real time      0.5702
     EDDAV:  cpu time     29.0323: real time     29.2615
       DOS:  cpu time      0.0033: real time      0.0033
    CHARGE:  cpu time      1.0201: real time      1.0253
    MIXING:  cpu time      0.0058: real time      0.0058
    --------------------------------------------
      LOOP:  cpu time     30.7350: real time     30.9742

 eigenvalue-minimisations  : 20704
 total energy-change (2. order) : 0.3135891E+00  (-0.1276236E+00)
 number of electron     480.0000000 magnetization       1.0000000
 augmentation part       -2.5453571 magnetization       0.0262107

 Broyden mixing:
  rms(total) = 0.25769E+00    rms(broyden)= 0.25769E+00
  rms(prec ) = 0.33922E+00
  weight for this iteration     100.00

 eigenvalues of (default mixing * dielectric matrix)
  average eigenvalue GAMMA=   0.7208
  1.4421  0.8950  0.8950  0.4992  0.2715  0.3219

 Free energy of the ion-electron system (eV)
  ---------------------------------------------------
  alpha Z        PSCENC =       702.18936556
  Ewald energy   TEWEN  =    -10872.72458139
  -Hartree energ DENC   =     -7387.58525745
  -exchange      EXHF   =         0.00000000
  -V(xc)+E(xc)   XCENC  =       802.42771721
  PAW double counting   =     41813.71970719   -41236.49721716
  entropy T*S    EENTRO =        -0.00234566
  eigenvalues    EBANDS =      -689.35336690
  atomic energy  EATOM  =     16071.23009607
  Solvation  Ediel_sol  =         0.00000000
  ---------------------------------------------------
  free energy    TOTEN  =      -796.59588254 eV

  energy without entropy =     -796.59353688  energy(sigma->0) =     -796.59470971


--------------------------------------------------------------------------------------------------------




--------------------------------------- Iteration      1(  12)  ---------------------------------------


    POTLOK:  cpu time      0.1073: real time      0.1082
    SETDIJ:  cpu time      0.5677: real time      0.5704
     EDDAV:  cpu time     29.0786: real time     29.3350
       DOS:  cpu time      0.0032: real time      0.0033
    CHARGE:  cpu time      1.0194: real time      1.0250
    MIXING:  cpu time      0.0068: real time      0.0068
    --------------------------------------------
      LOOP:  cpu time     30.7831: real time     31.0487

 eigenvalue-minimisations  : 20800
 total energy-change (2. order) : 0.4400237E-01  (-0.4790269E-01)
 number of electron     480.0000000 magnetization       1.0000000
 augmentation part       -2.5701510 magnetization       0.0261071

 Broyden mixing:
  rms(total) = 0.18422E+00    rms(broyden)= 0.18422E+00
  rms(prec ) = 0.19777E+00
  weight for this iteration     100.00

 eigenvalues of (default mixing * dielectric matrix)
  average eigenvalue GAMMA=   0.8310
  1.7108  1.7108  0.8166  0.5112  0.5112  0.2887  0.2677

 Free energy of the ion-electron system (eV)
  ---------------------------------------------------
  alpha Z        PSCENC =       702.18936556
  Ewald energy   TEWEN  =    -10872.72458139
  -Hartree energ DENC   =     -7387.75912357
  -exchange      EXHF   =         0.00000000
  -V(xc)+E(xc)   XCENC  =       802.41420024
  PAW double counting   =     41701.08008588   -41123.89251064
  entropy T*S    EENTRO =        -0.00224036
  eigenvalues    EBANDS =      -689.08717196
  atomic energy  EATOM  =     16071.23009607
  Solvation  Ediel_sol  =         0.00000000
  ---------------------------------------------------
  free energy    TOTEN  =      -796.55188017 eV

  energy without entropy =     -796.54963981  energy(sigma->0) =     -796.55075999


--------------------------------------------------------------------------------------------------------




--------------------------------------- Iteration      1(  13)  ---------------------------------------


    POTLOK:  cpu time      0.1059: real time      0.1081
    SETDIJ:  cpu time      0.5676: real time      0.5703
     EDDAV:  cpu time     28.3909: real time     28.6167
       DOS:  cpu time      0.0038: real time      0.0038
    CHARGE:  cpu time      1.0164: real time      1.0214
    MIXING:  cpu time      0.0057: real time      0.0057
    --------------------------------------------
      LOOP:  cpu time     30.0902: real time     30.3260

 eigenvalue-minimisations  : 20144
 total energy-change (2. order) :-0.1120642E-01  (-0.1724826E-01)
 number of electron     480.0000000 magnetization       1.0000000
 augmentation part       -2.5707657 magnetization       0.0279815

 Broyden mixing:
  rms(total) = 0.99569E-01    rms(broyden)= 0.99568E-01
  rms(prec ) = 0.11901E+00
  weight for this iteration     100.00

 eigenvalues of (default mixing * dielectric matrix)
  average eigenvalue GAMMA=   0.8634
  1.9436  1.9436  0.8059  0.6181  0.6181  0.4261  0.2868  0.2652

 Free energy of the ion-electron system (eV)
  ---------------------------------------------------
  alpha Z        PSCENC =       702.18936556
  Ewald energy   TEWEN  =    -10872.72458139
  -Hartree energ DENC   =     -7385.75625504
  -exchange      EXHF   =         0.00000000
  -V(xc)+E(xc)   XCENC  =       802.30853311
  PAW double counting   =     41352.19388486   -40775.05235097
  entropy T*S    EENTRO =        -0.00201464
  eigenvalues    EBANDS =      -690.94976416
  atomic energy  EATOM  =     16071.23009607
  Solvation  Ediel_sol  =         0.00000000
  ---------------------------------------------------
  free energy    TOTEN  =      -796.56308660 eV

  energy without entropy =     -796.56107196  energy(sigma->0) =     -796.56207928


--------------------------------------------------------------------------------------------------------




--------------------------------------- Iteration      1(  14)  ---------------------------------------


    POTLOK:  cpu time      0.1071: real time      0.1080
    SETDIJ:  cpu time      0.5675: real time      0.5702
     EDDAV:  cpu time     29.7027: real time     29.9396
       DOS:  cpu time      0.0034: real time      0.0034
    CHARGE:  cpu time      1.0190: real time      1.0240
    MIXING:  cpu time      0.0033: real time      0.0034
    --------------------------------------------
      LOOP:  cpu time     31.4031: real time     31.6485

 eigenvalue-minimisations  : 21312
 total energy-change (2. order) : 0.7605946E-02  (-0.6636938E-02)
 number of electron     480.0000000 magnetization       1.0000000
 augmentation part       -2.5752463 magnetization       0.0279428

 Broyden mixing:
  rms(total) = 0.48783E-01    rms(broyden)= 0.48782E-01
  rms(prec ) = 0.64531E-01
  weight for this iteration     100.00

 eigenvalues of (default mixing * dielectric matrix)
  average eigenvalue GAMMA=   0.8407
  1.9091  1.9091  0.8039  0.8039  0.6825  0.4890  0.4187  0.2865  0.2639

 Free energy of the ion-electron system (eV)
  ---------------------------------------------------
  alpha Z        PSCENC =       702.18936556
  Ewald energy   TEWEN  =    -10872.72458139
  -Hartree energ DENC   =     -7386.82485825
  -exchange      EXHF   =         0.00000000
  -V(xc)+E(xc)   XCENC  =       802.36270730
  PAW double counting   =     41291.78506727   -40714.68257913
  entropy T*S    EENTRO =        -0.00210572
  eigenvalues    EBANDS =      -689.88859237
  atomic energy  EATOM  =     16071.23009607
  Solvation  Ediel_sol  =         0.00000000
  ---------------------------------------------------
  free energy    TOTEN  =      -796.55548065 eV

  energy without entropy =     -796.55337493  energy(sigma->0) =     -796.55442779


--------------------------------------------------------------------------------------------------------




--------------------------------------- Iteration      1(  15)  ---------------------------------------


    POTLOK:  cpu time      0.1068: real time      0.1076
    SETDIJ:  cpu time      0.5680: real time      0.5706
     EDDAV:  cpu time     29.6413: real time     29.8778
       DOS:  cpu time      0.0033: real time      0.0033
    CHARGE:  cpu time      1.0186: real time      1.0235
    MIXING:  cpu time      0.0061: real time      0.0061
    --------------------------------------------
      LOOP:  cpu time     31.3441: real time     31.5890

 eigenvalue-minimisations  : 21224
 total energy-change (2. order) : 0.4820554E-02  (-0.2446889E-02)
 number of electron     480.0000000 magnetization       1.0000000
 augmentation part       -2.5800773 magnetization       0.0284140

 Broyden mixing:
  rms(total) = 0.25014E-01    rms(broyden)= 0.25013E-01
  rms(prec ) = 0.33206E-01
  weight for this iteration     100.00

 eigenvalues of (default mixing * dielectric matrix)
  average eigenvalue GAMMA=   0.8322
[...]
   0.434E+02 -.264E+01 -.604E+02   -.468E+02 0.157E+01 0.607E+02   0.422E+01 -.289E+00 -.289E+01   0.303E-03 -.227E-03 0.867E-04
   -.332E+02 -.448E+02 -.170E+03   0.344E+02 0.526E+02 0.177E+03   -.133E+01 -.797E+01 -.832E+01   0.372E-04 -.691E-04 0.409E-05
   -.298E+01 -.233E+02 0.782E+02   0.483E+01 0.253E+02 -.743E+02   0.205E+01 -.493E+01 0.337E+01   0.149E-03 0.124E-03 0.154E-04
   0.460E+02 -.510E+01 -.833E+02   -.495E+02 0.393E+01 0.844E+02   0.413E+01 -.593E+00 -.406E+01   -.304E-03 0.132E-03 -.107E-03
   0.299E+01 -.272E+02 -.155E+03   -.368E+01 0.302E+02 0.157E+03   0.289E+00 -.509E+01 -.470E+01   -.135E-03 -.244E-03 -.722E-04
   0.150E+02 -.336E+02 0.136E+03   -.156E+02 0.357E+02 -.139E+03   0.213E+01 -.518E+01 0.238E+01   0.384E-04 0.656E-04 0.829E-05
   0.436E+02 -.346E+01 -.369E+02   -.500E+02 0.166E+01 0.348E+02   0.598E+01 0.554E+00 -.426E+01   0.197E-03 -.350E-03 0.148E-03
   -.298E+02 -.190E+02 -.178E+03   0.289E+02 0.223E+02 0.183E+03   0.112E+01 -.410E+01 -.691E+01   -.227E-04 0.105E-03 -.694E-04
   0.626E+01 -.373E+02 0.992E+02   -.674E+01 0.402E+02 -.993E+02   0.314E+01 -.498E+01 0.631E+00   0.134E-03 -.508E-04 0.751E-04
   0.439E+02 -.108E+02 -.103E+03   -.474E+02 0.103E+02 0.106E+03   0.446E+01 -.131E+01 -.541E+01   -.163E-03 -.239E-04 -.456E-04
   -.117E+02 -.520E+02 -.140E+03   0.102E+02 0.570E+02 0.143E+03   0.114E+01 -.561E+01 -.608E+01   0.299E-04 0.212E-03 -.739E-05
   0.228E+02 -.274E+02 0.129E+03   -.262E+02 0.300E+02 -.131E+03   0.415E+01 -.617E+01 0.369E+01   0.989E-04 0.483E-03 0.504E-04
   0.258E+02 -.150E+02 -.416E+02   -.277E+02 0.153E+02 0.408E+02   0.344E+01 -.189E+01 -.200E+01   -.179E-03 0.381E-03 -.972E-04
   -.368E+02 -.109E+02 -.180E+03   0.387E+02 0.124E+02 0.184E+03   -.271E+01 -.101E+01 -.637E+01   -.216E-04 -.482E-05 0.180E-04
   0.595E+01 -.361E+02 0.135E+03   -.664E+01 0.385E+02 -.138E+03   0.255E+01 -.581E+01 0.249E+01   -.168E-03 -.103E-03 -.123E-03
   0.421E+02 -.929E+01 -.891E+02   -.455E+02 0.938E+01 0.915E+02   0.455E+01 -.143E+01 -.605E+01   0.192E-03 -.106E-03 -.306E-04
   -.113E+01 0.469E+02 -.718E+02   -.298E+00 -.535E+02 0.663E+02   -.257E+01 0.581E+01 -.431E+01   0.164E-03 -.152E-03 -.452E-04
   0.273E+02 0.274E+02 0.176E+03   -.281E+02 -.326E+02 -.183E+03   0.771E+00 0.442E+01 0.915E+01   -.866E-05 -.373E-04 -.214E-05
   -.433E+02 0.282E+01 0.807E+02   0.463E+02 -.171E+01 -.822E+02   -.393E+01 0.527E+00 0.458E+01   -.204E-03 -.451E-04 -.163E-03
   -.143E+02 0.277E+02 -.151E+03   0.156E+02 -.295E+02 0.155E+03   -.360E+01 0.524E+01 -.252E+01   -.232E-03 0.557E-04 -.313E-04
   0.382E+02 0.194E+02 0.177E+03   -.400E+02 -.224E+02 -.182E+03   0.340E+01 0.489E+01 0.682E+01   -.301E-04 0.459E-04 -.222E-04
   -.465E+02 0.674E+01 0.577E+02   0.503E+02 -.557E+01 -.581E+02   -.459E+01 0.327E+00 0.377E+01   0.323E-03 -.662E-04 0.920E-04
   -.434E+02 0.189E+02 -.745E+02   0.527E+02 -.192E+02 0.678E+02   -.485E+01 0.438E+01 -.502E+01   0.286E-04 -.218E-03 0.300E-04
   0.171E+02 0.525E+02 0.175E+03   -.161E+02 -.601E+02 -.182E+03   -.132E+01 0.802E+01 0.944E+01   0.119E-03 -.163E-04 0.516E-04
   -.317E+02 0.686E+01 0.752E+02   0.350E+02 -.568E+01 -.767E+02   -.426E+01 0.480E+00 0.607E+01   -.239E-03 0.136E-03 -.108E-03
   -.989E+01 0.357E+02 -.141E+03   0.109E+02 -.379E+02 0.145E+03   -.295E+01 0.515E+01 -.473E+01   -.151E-03 -.269E-03 -.828E-04
   0.536E+02 -.104E+02 0.158E+03   -.571E+02 0.137E+02 -.160E+03   0.250E+01 0.984E+00 0.717E+01   0.399E-05 0.754E-05 0.244E-04
   -.438E+02 0.932E+01 0.812E+02   0.483E+02 -.952E+01 -.827E+02   -.519E+01 0.155E+01 0.617E+01   0.239E-03 -.242E-03 0.179E-03
   -.250E+02 0.276E+02 -.125E+03   0.284E+02 -.299E+02 0.127E+03   -.388E+01 0.580E+01 -.454E+01   -.469E-04 0.400E-03 -.362E-04
   0.145E+02 0.509E+02 0.160E+03   -.161E+02 -.559E+02 -.165E+03   0.201E+01 0.506E+01 0.629E+01   0.991E-04 0.234E-03 0.240E-04
   -.312E+02 0.177E+02 0.590E+02   0.327E+02 -.173E+02 -.586E+02   -.267E+01 0.192E+01 0.236E+01   -.166E-04 0.305E-03 0.428E-04
   -.112E+02 0.467E+02 -.108E+03   0.123E+02 -.504E+02 0.109E+03   -.334E+01 0.563E+01 -.146E+01   0.892E-05 0.265E-04 -.387E-04
   0.290E+02 0.788E+00 0.172E+03   -.287E+02 -.264E+01 -.175E+03   -.603E+00 0.107E+01 0.502E+01   0.132E-03 0.223E-03 -.669E-04
   -.412E+02 0.103E+02 0.951E+02   0.448E+02 -.105E+02 -.966E+02   -.470E+01 0.120E+01 0.371E+01   -.230E-03 0.142E-03 -.162E-03
   -.123E+02 0.301E+02 -.133E+03   0.125E+02 -.321E+02 0.136E+03   -.234E+01 0.540E+01 -.168E+01   -.580E-05 -.191E-03 -.129E-03
   0.603E+01 0.317E+02 0.161E+03   -.476E+01 -.352E+02 -.163E+03   -.819E+00 0.461E+01 0.488E+01   -.154E-03 -.176E-03 -.155E-03
   -.448E+02 0.123E+02 0.482E+02   0.500E+02 -.104E+02 -.472E+02   -.491E+01 -.673E+00 0.477E+01   0.205E-03 -.187E-03 -.638E-04
   -.635E+01 -.722E+02 -.149E+03   0.532E+01 0.825E+02 0.153E+03   -.648E+00 -.726E+01 -.932E+01   0.776E-04 -.123E-03 -.865E-04
   0.326E+02 -.554E+01 0.917E+02   -.374E+02 0.446E+01 -.913E+02   0.445E+01 -.298E+01 0.297E+01   0.149E-03 -.361E-04 -.126E-03
   0.309E+02 -.867E+01 -.723E+02   -.343E+02 0.768E+01 0.731E+02   0.478E+01 -.617E+00 -.551E+01   -.281E-03 -.111E-03 -.230E-03
   -.284E+02 -.208E+02 -.185E+03   0.289E+02 0.238E+02 0.192E+03   -.133E+01 -.465E+01 -.830E+01   -.233E-04 -.463E-04 -.373E-04
   0.159E+02 -.310E+02 0.151E+03   -.174E+02 0.326E+02 -.154E+03   0.339E+01 -.474E+01 0.290E+01   -.555E-05 -.114E-03 -.109E-03
   0.434E+02 -.264E+01 -.604E+02   -.468E+02 0.157E+01 0.607E+02   0.422E+01 -.289E+00 -.289E+01   0.115E-03 -.969E-04 0.577E-04
   -.332E+02 -.448E+02 -.170E+03   0.344E+02 0.526E+02 0.177E+03   -.133E+01 -.797E+01 -.832E+01   0.230E-03 0.593E-04 0.293E-04
   -.298E+01 -.233E+02 0.782E+02   0.483E+01 0.253E+02 -.743E+02   0.205E+01 -.493E+01 0.337E+01   -.107E-03 0.145E-03 -.290E-04
   0.460E+02 -.510E+01 -.833E+02   -.495E+02 0.393E+01 0.844E+02   0.413E+01 -.593E+00 -.406E+01   -.142E-03 0.340E-04 -.108E-03
   0.299E+01 -.272E+02 -.155E+03   -.368E+01 0.302E+02 0.157E+03   0.289E+00 -.509E+01 -.470E+01   -.656E-04 -.670E-04 0.232E-04
   0.150E+02 -.336E+02 0.136E+03   -.156E+02 0.357E+02 -.139E+03   0.213E+01 -.518E+01 0.238E+01   -.196E-04 -.270E-03 -.493E-05
   0.436E+02 -.346E+01 -.369E+02   -.500E+02 0.165E+01 0.348E+02   0.598E+01 0.554E+00 -.426E+01   0.213E-03 -.163E-03 0.104E-03
   -.298E+02 -.190E+02 -.178E+03   0.289E+02 0.223E+02 0.183E+03   0.112E+01 -.410E+01 -.691E+01   0.134E-03 0.883E-04 0.101E-04
   0.626E+01 -.373E+02 0.992E+02   -.675E+01 0.402E+02 -.993E+02   0.314E+01 -.498E+01 0.631E+00   -.112E-03 -.174E-03 0.125E-04
   0.439E+02 -.108E+02 -.103E+03   -.474E+02 0.103E+02 0.106E+03   0.446E+01 -.131E+01 -.541E+01   -.309E-04 0.920E-04 -.213E-04
   -.117E+02 -.520E+02 -.140E+03   0.102E+02 0.570E+02 0.143E+03   0.114E+01 -.561E+01 -.608E+01   -.674E-04 0.273E-03 -.292E-04
   0.228E+02 -.274E+02 0.129E+03   -.262E+02 0.300E+02 -.131E+03   0.415E+01 -.617E+01 0.369E+01   -.254E-04 0.340E-03 0.172E-04
   0.258E+02 -.150E+02 -.416E+02   -.277E+02 0.153E+02 0.408E+02   0.344E+01 -.189E+01 -.200E+01   0.721E-04 0.442E-03 0.170E-04
   -.368E+02 -.109E+02 -.180E+03   0.387E+02 0.124E+02 0.184E+03   -.271E+01 -.101E+01 -.637E+01   -.140E-03 -.637E-04 -.160E-04
   0.595E+01 -.361E+02 0.135E+03   -.664E+01 0.385E+02 -.138E+03   0.255E+01 -.581E+01 0.249E+01   -.119E-03 -.141E-03 -.155E-03
   0.421E+02 -.929E+01 -.891E+02   -.455E+02 0.938E+01 0.915E+02   0.455E+01 -.143E+01 -.605E+01   0.304E-03 -.298E-04 -.560E-05
 -----------------------------------------------------------------------------------------------
   -.128E+02 0.271E+02 -.287E+02   -.142E-13 0.238E-12 -.568E-13   0.128E+02 -.270E+02 0.287E+02   0.173E-04 0.430E-03 -.196E-02
 
 
 POSITION                                       TOTAL-FORCE (eV/Angst)
 -----------------------------------------------------------------------------------
      6.74634     14.57678      0.00000         6.072391     -0.538146      9.921102
      7.85494     11.10632      1.21441         0.272668      0.060048     -0.394314
      8.96354      7.63586      2.42882        -0.578188     -0.018243     -0.205884
      2.31195      4.66117      0.00000         0.396626     -0.989307     -0.234525
      3.42055      1.19071      1.21441        -0.625108     -0.595730     -1.162524
     -2.12244     12.59366      2.42882         0.779949      0.540400      0.512032
      4.52915      9.61898      0.00000        -3.385797     -2.632218     10.848242
      5.63774      6.14851      1.21441        -0.773185      0.053556      0.229530
      6.74634      2.67805      2.42882         0.510932     -0.669988      1.149008
     -2.12244     14.08100      0.60720        -1.303251      0.105782     -0.622350
     -1.01385     10.61054      1.82161         0.346954      0.329336      1.335504
      0.09475      7.14008      3.03602         1.162962     -3.387921     -3.085663
      6.74634      4.16540      0.60720         0.108796      0.132541      0.118099
      7.85494      0.69493      1.82161         0.499894      0.201029      1.098940
      2.31195     12.09788      3.03602        -4.307126      0.411614     -5.224419
      8.96354      9.12320      0.60720        -0.550362      1.259991     -0.802340
     10.07214      5.65273      1.82161        -0.128352      0.794662      1.057839
     11.18074      2.18227      3.03602         0.525371      4.333201     -3.394101
     -2.12244      9.61898      0.00000        -3.385797     -2.632218     10.848242
     -1.01384      6.14851      1.21441        -0.773185      0.053556      0.229530
      0.09475      2.67805      2.42882         0.510932     -0.669988      1.149008
      0.09475     14.57678      0.00000         6.072391     -0.538146      9.921102
      1.20335     11.10632      1.21441         0.272668      0.060048     -0.394314
      2.31195      7.63586      2.42882        -0.578188     -0.018243     -0.205884
      8.96354      4.66117      0.00000         0.396626     -0.989307     -0.234525
     10.07214      1.19071      1.21441        -0.625108     -0.595730     -1.162524
      4.52914     12.59366      2.42882         0.779949      0.540400      0.512032
      0.09475      4.16540      0.60720         0.108796      0.132541      0.118099
      1.20335      0.69493      1.82161         0.499894      0.201029      1.098940
     -4.33964     12.09788      3.03602        -4.307126      0.411614     -5.224419
      2.31195      9.12320      0.60720        -0.550362      1.259991     -0.802340
      3.42055      5.65274      1.82161        -0.128352      0.794662      1.057839
      4.52915      2.18227      3.03602         0.525371      4.333201     -3.394101
      4.52915     14.08100      0.60720        -1.303251      0.105782     -0.622350
      5.63774     10.61054      1.82161         0.346954      0.329336      1.335504
      6.74634      7.14007      3.03602         1.162962     -3.387921     -3.085663
      6.03910     14.23000      5.61942        -3.997752     -0.759424     -9.888165
     -2.51295     14.65496      4.02430         0.048124     -0.722978      2.281084
      1.76308     14.44248      4.82186        -0.894601      1.634452      3.128559
     -4.41340     12.10523      5.61942        -2.249296      3.422268      1.087335
      0.33774     12.53018      4.02430         1.594305      1.826471      1.519513
      4.61376     12.31771      4.82186        -0.783524      1.499708      3.404775
     -1.56272      9.98046      5.61942         4.435386      4.100494    -11.672669
      3.18842     10.40541      4.02430        -0.377017      0.442483      1.816820
      7.46444     10.19294      4.82186        -0.981443      1.661456      4.623809
      1.28797      7.85568      5.61942        -1.952497      2.950865     -0.836963
      6.03910      8.28064      4.02430        -1.018746      4.305029      5.088899
     -2.98806      8.06816      4.82186        -0.760315      1.360947      4.658752
      4.13865      5.73091      5.61942        -0.547081      3.568518     -2.453242
      8.88978      6.15587      4.02430         0.436521      0.022855      1.996699
     -0.13738      5.94339      4.82186        -1.192053      2.305163      2.796301
      6.98933      3.60614      5.61942        -2.268585      1.879272     -0.439851
     -1.56272      4.03110      4.02430        -0.387193     -0.782811      1.971125
      2.71330      3.81862      4.82186        -1.037774      1.003436      2.178945
      9.84001      1.48137      5.61942        -2.156950      3.363085      1.188092
      1.28796      1.90632      4.02430         0.452223      1.101659      2.988226
      5.56399      1.69385      4.82186         0.349112      1.152582      5.723291
      6.03910      0.84394      6.01820        -1.676858      3.077754     -4.590588
     10.79023      1.26889      4.42308        -0.364763     -4.058190      3.383535
      1.76308      1.05641      5.22064         1.382982     -1.608646     -4.725561
      2.23819     13.59257      6.01820        -0.790240     -1.658485     -1.791029
      6.98932     14.01753      4.42308         1.886908     -3.178165     -0.015594
     -2.03783     13.80505      5.22064         0.729805     -1.359752     -2.522907
      5.08887     11.46780      6.01820        -0.171144     -0.163242     -1.833366
     -3.46317     11.89275      4.42308         3.900700     -2.903302      7.203256
      0.81285     11.68028      5.22064         0.700186     -1.761632     -2.870040
      7.93955      9.34303      6.01820        -0.400960     -2.057094     -3.023085
     -0.61249      9.76798      4.42308         1.532134     -3.148484     -1.041915
      3.66353      9.55550      5.22064        -0.455121     -1.254091     -6.346312
     -2.51295      7.21825      6.01820         0.182661     -0.812342     -2.399827
      2.23819      7.64321      4.42308         2.652247     -2.113455      0.473008
      6.51421      7.43073      5.22064         0.958283     -1.741468     -1.879268
      0.33774      5.09348      6.01820        -0.320684     -0.654668     -3.307129
      5.08887      5.51844      4.42308         0.823239     -3.532602      1.806817
      9.36489      5.30596      5.22064         1.500323     -1.549489     -2.764342
      3.18842      2.96871      6.01820        -0.839065      0.535252     -2.564533
      7.93955      3.39366      4.42308         1.851776     -3.442099      0.234712
     -1.08761      3.18119      5.22064         1.181572     -1.341936     -3.731346
     -0.61249     14.23000      5.61942        -3.997752     -0.759424     -9.888165
      4.13864     14.65496      4.02430         0.048124     -0.722978      2.281084
     -4.88851     14.44248      4.82186        -0.894601      1.634452      3.128559
      2.23819     12.10523      5.61942        -2.249296      3.422268      1.087335
      6.98933     12.53019      4.02430         1.594305      1.826471      1.519513
     -2.03783     12.31771      4.82186        -0.783524      1.499708      3.404775
      5.08888      9.98046      5.61942         4.435386      4.100494    -11.672669
     -3.46317     10.40541      4.02430        -0.377017      0.442483      1.816820
      0.81285     10.19294      4.82186        -0.981443      1.661456      4.623809
      7.93956      7.85569      5.61942        -1.952497      2.950865     -0.836963
     -0.61249      8.28064      4.02430        -1.018746      4.305029      5.088899
      3.66353      8.06816      4.82186        -0.760315      1.360947      4.658752
     -2.51294      5.73091      5.61942        -0.547081      3.568518     -2.453242
      2.23819      6.15587      4.02430         0.436521      0.022855      1.996699
      6.51421      5.94339      4.82186        -1.192053      2.305163      2.796301
      0.33774      3.60614      5.61942        -2.268585      1.879272     -0.439851
      5.08887      4.03110      4.02430        -0.387193     -0.782811      1.971125
      9.36490      3.81862      4.82186        -1.037774      1.003436      2.178945
      3.18842      1.48137      5.61942        -2.156950      3.363085      1.188092
      7.93955      1.90632      4.02430         0.452223      1.101659      2.988226
     12.21558      1.69385      4.82186         0.349112      1.152582      5.723291
     12.69069      0.84394      6.01820        -1.676858      3.077754     -4.590588
      4.13864      1.26889      4.42308        -0.364763     -4.058190      3.383535
      8.41467      1.05641      5.22064         1.382982     -1.608646     -4.725561
     -4.41340     13.59257      6.01820        -0.790240     -1.658485     -1.791029
      0.33773     14.01753      4.42308         1.886908     -3.178165     -0.015594
      4.61376     13.80505      5.22064         0.729805     -1.359752     -2.522907
     -1.56272     11.46780      6.01820        -0.171144     -0.163242     -1.833366
      3.18842     11.89275      4.42308         3.900700     -2.903302      7.203256
      7.46444     11.68028      5.22064         0.700186     -1.761632     -2.870040
      1.28796      9.34302      6.01820        -0.400960     -2.057094     -3.023085
      6.03910      9.76798      4.42308         1.532134     -3.148484     -1.041915
     -2.98806      9.55550      5.22064        -0.455121     -1.254091     -6.346312
      4.13864      7.21825      6.01820         0.182661     -0.812342     -2.399827
      8.88978      7.64321      4.42308         2.652247     -2.113455      0.473008
     -0.13738      7.43073      5.22064         0.958283     -1.741468     -1.879268
      6.98933      5.09348      6.01820        -0.320684     -0.654668     -3.307129
     -1.56272      5.51844      4.42308         0.823239     -3.532602      1.806817
      2.71330      5.30596      5.22064         1.500323     -1.549489     -2.764342
      9.84001      2.96871      6.01820        -0.839065      0.535252     -2.564533
      1.28796      3.39366      4.42308         1.851776     -3.442099      0.234712
      5.56399      3.18119      5.22064         1.181572     -1.341936     -3.731346
 -----------------------------------------------------------------------------------
    total drift:                                0.018316      0.060477     -0.007566


--------------------------------------------------------------------------------------------------------



  FREE ENERGIE OF THE ION-ELECTRON SYSTEM (eV)
  ---------------------------------------------------
  free  energy   TOTEN  =      -796.54968766 eV

  energy  without entropy=     -796.54758648  energy(sigma->0) =     -796.54863707
 


--------------------------------------------------------------------------------------------------------


    POTLOK:  cpu time      0.6806: real time      0.6838


--------------------------------------------------------------------------------------------------------


     LOOP+:  cpu time    920.6118: real time    928.2133
    4ORBIT:  cpu time      0.0000: real time      0.0000

 total amount of memory used by VASP MPI-rank0   172063. kBytes
=======================================================================

   base      :      30000. kBytes
   nonlr-proj:       4460. kBytes
   fftplans  :       9994. kBytes
   grid      :       7568. kBytes
   one-center:         49. kBytes
   wavefun   :     119992. kBytes
 
  
  
 General timing and accounting informations for this job:
 ========================================================
  
                  Total CPU time used (sec):      966.855
                            User time (sec):      906.177
                          System time (sec):       60.678
                         Elapsed time (sec):      976.405
  
                   Maximum memory used (kb):      401708.
                   Average memory used (kb):          N/A
  
                          Minor page faults:       175309
                          Major page faults:          206
                 Voluntary context switches:         1760
