 264 264   0   0
  0.2770664E+02  0.1946760E-08  0.1946760E-08  0.1930025E-08  0.5000000E-15
  1.000000000000000E-004
  CAR 
 Si and Ge interface calculation         
      6.65664076     -8.91477179  301      4.05939315      1.00000000
     -8.915  0.0000E+00  0.0000E+00  0.0000E+00  0.0000E+00
     -8.863  0.0000E+00  0.0000E+00  0.0000E+00  0.0000E+00
     -8.811  0.0000E+00  0.0000E+00  0.0000E+00  0.0000E+00
     -8.759  0.0000E+00  0.0000E+00  0.0000E+00  0.0000E+00
     -8.707  0.0000E+00  0.0000E+00  0.0000E+00  0.0000E+00
     -8.655  0.0000E+00  0.0000E+00  0.0000E+00  0.0000E+00
     -8.603  0.0000E+00  0.0000E+00  0.0000E+00  0.0000E+00
     -8.551  0.0000E+00  0.0000E+00  0.0000E+00  0.0000E+00
     -8.500  0.0000E+00  0.0000E+00  0.0000E+00  0.0000E+00
     -8.448  0.0000E+00  0.0000E+00  0.0000E+00  0.0000E+00
     -8.396  0.0000E+00  0.0000E+00  0.0000E+00  0.0000E+00
     -8.344  0.0000E+00  0.0000E+00  0.0000E+00  0.0000E+00
     -8.292  0.0000E+00  0.0000E+00  0.0000E+00  0.0000E+00
     -8.240  0.1416E-04  0.3073E-05  0.7352E-06  0.1595E-06
     -8.188  0.1020E+02  0.9835E+01  0.5294E+00  0.5105E+00
     -8.136  0.2818E+02  0.2837E+02  0.1992E+01  0.1983E+01
     -8.084  0.1527E+00  0.3259E+00  0.2000E+01  0.2000E+01
     -8.032  0.2027E+02  0.1909E+02  0.3052E+01  0.2991E+01
     -7.980  0.8631E+01  0.9806E+01  0.3500E+01  0.3500E+01
     -7.929  0.1905E+02  0.1885E+02  0.4489E+01  0.4478E+01
     -7.877  0.1624E+02  0.1502E+02  0.5332E+01  0.5258E+01
     -7.825  0.1291E+02  0.1379E+02  0.6002E+01  0.5974E+01
     -7.773  0.9709E+01  0.1020E+02  0.6506E+01  0.6503E+01
     -7.721  0.3811E+02  0.3789E+02  0.8484E+01  0.8470E+01
     -7.669  0.2377E+02  0.2289E+02  0.9718E+01  0.9658E+01
     -7.617  0.1506E+02  0.1622E+02  0.1050E+02  0.1050E+02
     -7.565  0.4117E-09  0.5773E-10  0.1050E+02  0.1050E+02
     -7.513  0.1439E+02  0.1226E+02  0.1125E+02  0.1114E+02
     -7.461  0.2270E+02  0.2416E+02  0.1243E+02  0.1239E+02
     -7.410  0.3830E+02  0.3595E+02  0.1441E+02  0.1426E+02
     -7.358  0.2414E+02  0.2629E+02  0.1567E+02  0.1562E+02
     -7.306  0.2360E+02  0.2362E+02  0.1689E+02  0.1685E+02
     -7.254  0.3931E+02  0.3801E+02  0.1893E+02  0.1882E+02
     -7.202  0.2329E+02  0.2355E+02  0.2014E+02  0.2004E+02
     -7.150  0.3038E+02  0.3017E+02  0.2172E+02  0.2161E+02
     -7.098  0.1643E+02  0.1802E+02  0.2257E+02  0.2254E+02
     -7.046  0.5322E+02  0.5075E+02  0.2533E+02  0.2518E+02
     -6.994  0.4611E+02  0.4772E+02  0.2773E+02  0.2765E+02
     -6.942  0.2998E+02  0.3011E+02  0.2928E+02  0.2922E+02
     -6.890  0.3783E+02  0.3620E+02  0.3125E+02  0.3110E+02
     -6.839  0.2940E+02  0.2980E+02  0.3277E+02  0.3264E+02
     -6.787  0.4773E+02  0.4737E+02  0.3525E+02  0.3510E+02
     -6.735  0.4316E+02  0.4357E+02  0.3749E+02  0.3736E+02
     -6.683  0.6111E+02  0.6115E+02  0.4066E+02  0.4054E+02
     -6.631  0.4720E+02  0.4842E+02  0.4311E+02  0.4305E+02
     -6.579  0.4156E+02  0.4134E+02  0.4527E+02  0.4520E+02
     -6.527  0.4721E+02  0.4747E+02  0.4772E+02  0.4766E+02
     -6.475  0.3979E+02  0.3920E+02  0.4978E+02  0.4970E+02
     -6.423  0.4270E+02  0.4413E+02  0.5200E+02  0.5199E+02
     -6.371  0.5004E+02  0.4715E+02  0.5460E+02  0.5443E+02
     -6.320  0.4335E+02  0.4409E+02  0.5685E+02  0.5672E+02
     -6.268  0.3903E+02  0.3973E+02  0.5887E+02  0.5878E+02
     -6.216  0.3718E+02  0.3695E+02  0.6080E+02  0.6070E+02
     -6.164  0.5574E+02  0.5541E+02  0.6370E+02  0.6358E+02
     -6.112  0.6023E+02  0.6025E+02  0.6682E+02  0.6671E+02
     -6.060  0.8083E+02  0.8058E+02  0.7102E+02  0.7089E+02
     -6.008  0.7491E+02  0.7464E+02  0.7491E+02  0.7476E+02
     -5.956  0.5239E+02  0.5385E+02  0.7763E+02  0.7756E+02
     -5.904  0.6213E+02  0.6056E+02  0.8085E+02  0.8070E+02
     -5.852  0.7075E+02  0.6885E+02  0.8452E+02  0.8427E+02
     -5.800  0.7272E+02  0.7481E+02  0.8830E+02  0.8816E+02
     -5.749  0.6781E+02  0.6815E+02  0.9182E+02  0.9169E+02
     -5.697  0.8548E+02  0.8410E+02  0.9625E+02  0.9606E+02
     -5.645  0.8617E+02  0.8535E+02  0.1007E+03  0.1005E+03
     -5.593  0.7662E+02  0.7820E+02  0.1047E+03  0.1045E+03
     -5.541  0.8662E+02  0.8499E+02  0.1092E+03  0.1090E+03
     -5.489  0.6395E+02  0.6400E+02  0.1125E+03  0.1123E+03
     -5.437  0.6211E+02  0.6166E+02  0.1157E+03  0.1155E+03
     -5.385  0.7774E+02  0.7826E+02  0.1198E+03  0.1195E+03
     -5.333  0.8778E+02  0.8788E+02  0.1243E+03  0.1241E+03
     -5.281  0.8016E+02  0.8105E+02  0.1285E+03  0.1283E+03
     -5.230  0.5763E+02  0.5851E+02  0.1315E+03  0.1314E+03
     -5.178  0.7195E+02  0.7192E+02  0.1352E+03  0.1351E+03
     -5.126  0.6838E+02  0.6847E+02  0.1388E+03  0.1386E+03
     -5.074  0.6534E+02  0.6418E+02  0.1422E+03  0.1420E+03
     -5.022  0.8324E+02  0.8385E+02  0.1465E+03  0.1463E+03
     -4.970  0.6044E+02  0.6134E+02  0.1496E+03  0.1495E+03
     -4.918  0.6963E+02  0.6785E+02  0.1532E+03  0.1530E+03
     -4.866  0.8864E+02  0.8727E+02  0.1578E+03  0.1576E+03
     -4.814  0.1006E+03  0.1019E+03  0.1631E+03  0.1628E+03
     -4.762  0.9789E+02  0.9563E+02  0.1681E+03  0.1678E+03
     -4.710  0.9230E+02  0.9232E+02  0.1729E+03  0.1726E+03
     -4.659  0.1139E+03  0.1137E+03  0.1788E+03  0.1785E+03
     -4.607  0.1151E+03  0.1133E+03  0.1848E+03  0.1844E+03
     -4.555  0.1062E+03  0.1087E+03  0.1903E+03  0.1900E+03
     -4.503  0.1100E+03  0.1101E+03  0.1960E+03  0.1957E+03
     -4.451  0.1112E+03  0.1113E+03  0.2018E+03  0.2015E+03
     -4.399  0.8036E+02  0.8146E+02  0.2060E+03  0.2057E+03
     -4.347  0.8695E+02  0.8628E+02  0.2105E+03  0.2102E+03
     -4.295  0.7684E+02  0.7846E+02  0.2145E+03  0.2143E+03
     -4.243  0.6922E+02  0.6718E+02  0.2181E+03  0.2178E+03
     -4.191  0.8312E+02  0.8380E+02  0.2224E+03  0.2221E+03
     -4.140  0.8575E+02  0.8515E+02  0.2268E+03  0.2266E+03
     -4.088  0.5712E+02  0.5900E+02  0.2298E+03  0.2296E+03
     -4.036  0.6360E+02  0.6462E+02  0.2331E+03  0.2330E+03
     -3.984  0.6187E+02  0.6138E+02  0.2363E+03  0.2362E+03
     -3.932  0.7438E+02  0.7289E+02  0.2402E+03  0.2399E+03
     -3.880  0.7017E+02  0.6935E+02  0.2438E+03  0.2435E+03
     -3.828  0.8052E+02  0.8137E+02  0.2480E+03  0.2478E+03
     -3.776  0.7531E+02  0.7659E+02  0.2519E+03  0.2517E+03
     -3.724  0.6285E+02  0.5979E+02  0.2552E+03  0.2548E+03
     -3.672  0.6824E+02  0.7070E+02  0.2587E+03  0.2585E+03
     -3.620  0.6557E+02  0.6474E+02  0.2621E+03  0.2619E+03
     -3.569  0.5405E+02  0.5688E+02  0.2649E+03  0.2648E+03
     -3.517  0.5283E+02  0.4804E+02  0.2677E+03  0.2673E+03
     -3.465  0.8229E+02  0.8183E+02  0.2719E+03  0.2716E+03
     -3.413  0.7874E+02  0.8088E+02  0.2760E+03  0.2758E+03
     -3.361  0.7939E+02  0.7840E+02  0.2801E+03  0.2798E+03
     -3.309  0.5780E+02  0.5829E+02  0.2831E+03  0.2829E+03
     -3.257  0.7313E+02  0.7484E+02  0.2869E+03  0.2867E+03
     -3.205  0.7826E+02  0.7814E+02  0.2910E+03  0.2908E+03
     -3.153  0.7982E+02  0.7965E+02  0.2951E+03  0.2949E+03
     -3.101  0.8993E+02  0.8947E+02  0.2998E+03  0.2996E+03
     -3.050  0.5928E+02  0.5709E+02  0.3029E+03  0.3025E+03
     -2.998  0.6933E+02  0.6989E+02  0.3065E+03  0.3062E+03
     -2.946  0.9064E+02  0.9068E+02  0.3112E+03  0.3109E+03
     -2.894  0.9511E+02  0.9406E+02  0.3161E+03  0.3158E+03
     -2.842  0.8118E+02  0.8550E+02  0.3203E+03  0.3202E+03
     -2.790  0.7102E+02  0.6893E+02  0.3240E+03  0.3238E+03
     -2.738  0.1162E+03  0.1158E+03  0.3301E+03  0.3298E+03
     -2.686  0.8930E+02  0.8893E+02  0.3347E+03  0.3344E+03
     -2.634  0.9944E+02  0.1009E+03  0.3398E+03  0.3396E+03
     -2.582  0.1058E+03  0.1017E+03  0.3453E+03  0.3449E+03
     -2.530  0.1165E+03  0.1192E+03  0.3514E+03  0.3511E+03
     -2.479  0.1197E+03  0.1201E+03  0.3576E+03  0.3573E+03
     -2.427  0.8996E+02  0.9092E+02  0.3623E+03  0.3621E+03
     -2.375  0.8820E+02  0.8664E+02  0.3668E+03  0.3665E+03
     -2.323  0.9804E+02  0.9971E+02  0.3719E+03  0.3717E+03
     -2.271  0.1002E+03  0.9787E+02  0.3771E+03  0.3768E+03
     -2.219  0.7454E+02  0.7909E+02  0.3810E+03  0.3809E+03
     -2.167  0.4754E+02  0.4642E+02  0.3835E+03  0.3833E+03
     -2.115  0.6960E+02  0.6897E+02  0.3871E+03  0.3869E+03
     -2.063  0.5146E+02  0.5087E+02  0.3898E+03  0.3895E+03
     -2.011  0.8203E+02  0.8213E+02  0.3940E+03  0.3938E+03
     -1.960  0.8491E+02  0.8533E+02  0.3984E+03  0.3982E+03
     -1.908  0.9405E+02  0.9371E+02  0.4033E+03  0.4031E+03
     -1.856  0.8864E+02  0.8582E+02  0.4079E+03  0.4075E+03
     -1.804  0.8394E+02  0.8613E+02  0.4123E+03  0.4120E+03
     -1.752  0.8369E+02  0.8336E+02  0.4166E+03  0.4163E+03
     -1.700  0.8260E+02  0.8222E+02  0.4209E+03  0.4206E+03
     -1.648  0.9219E+02  0.9330E+02  0.4257E+03  0.4255E+03
     -1.596  0.7885E+02  0.7652E+02  0.4298E+03  0.4294E+03
     -1.544  0.8584E+02  0.8735E+02  0.4342E+03  0.4340E+03
     -1.492  0.7615E+02  0.7565E+02  0.4382E+03  0.4379E+03
     -1.440  0.5608E+02  0.5991E+02  0.4411E+03  0.4410E+03
     -1.389  0.3927E+02  0.3700E+02  0.4431E+03  0.4429E+03
     -1.337  0.6819E+02  0.6562E+02  0.4467E+03  0.4463E+03
     -1.285  0.5930E+02  0.6137E+02  0.4497E+03  0.4495E+03
     -1.233  0.5457E+02  0.5600E+02  0.4526E+03  0.4524E+03
     -1.181  0.4909E+02  0.4836E+02  0.4551E+03  0.4549E+03
     -1.129  0.5715E+02  0.5663E+02  0.4581E+03  0.4579E+03
     -1.077  0.5167E+02  0.5322E+02  0.4608E+03  0.4606E+03
     -1.025  0.6425E+02  0.6396E+02  0.4641E+03  0.4639E+03
     -0.973  0.3938E+02  0.4011E+02  0.4662E+03  0.4660E+03
     -0.921  0.4610E+02  0.4532E+02  0.4685E+03  0.4684E+03
     -0.870  0.5960E+02  0.6011E+02  0.4716E+03  0.4715E+03
     -0.818  0.6183E+02  0.5981E+02  0.4748E+03  0.4746E+03
     -0.766  0.6826E+02  0.6982E+02  0.4784E+03  0.4782E+03
     -0.714  0.4947E+02  0.4751E+02  0.4810E+03  0.4807E+03
     -0.662  0.6723E+02  0.6859E+02  0.4844E+03  0.4843E+03
     -0.610  0.4083E+02  0.4369E+02  0.4866E+03  0.4865E+03
     -0.558  0.3072E+02  0.2980E+02  0.4882E+03  0.4881E+03
     -0.506  0.2109E+02  0.2271E+02  0.4893E+03  0.4893E+03
     -0.454  0.4071E+02  0.3634E+02  0.4914E+03  0.4911E+03
     -0.402  0.4110E+02  0.4298E+02  0.4935E+03  0.4934E+03
     -0.350  0.6472E+02  0.6332E+02  0.4969E+03  0.4967E+03
     -0.299  0.7258E+02  0.7436E+02  0.5006E+03  0.5005E+03
     -0.247  0.8552E+02  0.8427E+02  0.5051E+03  0.5049E+03
     -0.195  0.6474E+02  0.6505E+02  0.5084E+03  0.5083E+03
     -0.143  0.1138E+03  0.1116E+03  0.5143E+03  0.5141E+03
     -0.091  0.1181E+03  0.1178E+03  0.5205E+03  0.5202E+03
     -0.039  0.1111E+03  0.1112E+03  0.5262E+03  0.5259E+03
      0.013  0.1011E+03  0.1009E+03  0.5315E+03  0.5312E+03
      0.065  0.1566E+03  0.1540E+03  0.5396E+03  0.5392E+03
      0.117  0.1459E+03  0.1501E+03  0.5472E+03  0.5470E+03
      0.169  0.7624E+02  0.7676E+02  0.5511E+03  0.5509E+03
      0.220  0.7139E+02  0.6963E+02  0.5548E+03  0.5546E+03
      0.272  0.1044E+03  0.1047E+03  0.5603E+03  0.5600E+03
      0.324  0.7602E+02  0.7792E+02  0.5642E+03  0.5640E+03
      0.376  0.9603E+02  0.9396E+02  0.5692E+03  0.5689E+03
      0.428  0.9305E+02  0.9427E+02  0.5740E+03  0.5738E+03
      0.480  0.7783E+02  0.7950E+02  0.5781E+03  0.5779E+03
      0.532  0.1125E+03  0.1105E+03  0.5839E+03  0.5837E+03
      0.584  0.1462E+03  0.1446E+03  0.5915E+03  0.5912E+03
      0.636  0.1251E+03  0.1257E+03  0.5980E+03  0.5977E+03
      0.688  0.1435E+03  0.1437E+03  0.6054E+03  0.6052E+03
      0.740  0.1201E+03  0.1195E+03  0.6117E+03  0.6114E+03
      0.791  0.1199E+03  0.1190E+03  0.6179E+03  0.6175E+03
      0.843  0.1127E+03  0.1141E+03  0.6237E+03  0.6235E+03
      0.895  0.8641E+02  0.8929E+02  0.6282E+03  0.6281E+03
      0.947  0.9834E+02  0.9655E+02  0.6333E+03  0.6331E+03
      0.999  0.1037E+03  0.1017E+03  0.6387E+03  0.6384E+03
      1.051  0.1583E+03  0.1544E+03  0.6469E+03  0.6464E+03
      1.103  0.1405E+03  0.1457E+03  0.6542E+03  0.6540E+03
      1.155  0.1183E+03  0.1133E+03  0.6604E+03  0.6598E+03
      1.207  0.1712E+03  0.1716E+03  0.6692E+03  0.6688E+03
      1.259  0.1790E+03  0.1807E+03  0.6785E+03  0.6781E+03
      1.310  0.1740E+03  0.1706E+03  0.6876E+03  0.6870E+03
      1.362  0.1935E+03  0.1963E+03  0.6976E+03  0.6972E+03
      1.414  0.1914E+03  0.1917E+03  0.7075E+03  0.7071E+03
      1.466  0.1278E+03  0.1299E+03  0.7142E+03  0.7139E+03
      1.518  0.2088E+03  0.2023E+03  0.7250E+03  0.7244E+03
      1.570  0.2051E+03  0.2068E+03  0.7357E+03  0.7351E+03
      1.622  0.1926E+03  0.1926E+03  0.7457E+03  0.7451E+03
      1.674  0.1648E+03  0.1659E+03  0.7542E+03  0.7537E+03
      1.726  0.1967E+03  0.1962E+03  0.7644E+03  0.7639E+03
      1.778  0.1779E+03  0.1818E+03  0.7737E+03  0.7733E+03
      1.830  0.1720E+03  0.1669E+03  0.7826E+03  0.7820E+03
      1.881  0.1657E+03  0.1672E+03  0.7912E+03  0.7907E+03
      1.933  0.1813E+03  0.1794E+03  0.8006E+03  0.8000E+03
      1.985  0.2098E+03  0.2125E+03  0.8115E+03  0.8110E+03
      2.037  0.1566E+03  0.1559E+03  0.8196E+03  0.8191E+03
      2.089  0.1973E+03  0.1956E+03  0.8299E+03  0.8293E+03
      2.141  0.1628E+03  0.1630E+03  0.8383E+03  0.8377E+03
      2.193  0.2031E+03  0.2039E+03  0.8489E+03  0.8483E+03
      2.245  0.1612E+03  0.1608E+03  0.8572E+03  0.8566E+03
      2.297  0.1649E+03  0.1663E+03  0.8658E+03  0.8653E+03
      2.349  0.1638E+03  0.1608E+03  0.8743E+03  0.8736E+03
      2.400  0.2081E+03  0.2118E+03  0.8851E+03  0.8846E+03
      2.452  0.1457E+03  0.1450E+03  0.8927E+03  0.8921E+03
      2.504  0.1488E+03  0.1478E+03  0.9004E+03  0.8998E+03
      2.556  0.1712E+03  0.1710E+03  0.9093E+03  0.9087E+03
      2.608  0.1421E+03  0.1421E+03  0.9166E+03  0.9161E+03
      2.660  0.1107E+03  0.1152E+03  0.9224E+03  0.9220E+03
      2.712  0.1476E+03  0.1422E+03  0.9301E+03  0.9294E+03
      2.764  0.1323E+03  0.1378E+03  0.9369E+03  0.9366E+03
      2.816  0.1473E+03  0.1379E+03  0.9446E+03  0.9437E+03
      2.868  0.1569E+03  0.1620E+03  0.9527E+03  0.9521E+03
      2.920  0.1307E+03  0.1311E+03  0.9595E+03  0.9590E+03
      2.971  0.9102E+02  0.9328E+02  0.9642E+03  0.9638E+03
      3.023  0.1387E+03  0.1370E+03  0.9714E+03  0.9709E+03
      3.075  0.1237E+03  0.1271E+03  0.9778E+03  0.9775E+03
      3.127  0.1337E+03  0.1255E+03  0.9848E+03  0.9840E+03
      3.179  0.9674E+02  0.9750E+02  0.9898E+03  0.9891E+03
      3.231  0.1104E+03  0.1159E+03  0.9955E+03  0.9951E+03
      3.283  0.1125E+03  0.1049E+03  0.1001E+04  0.1001E+04
      3.335  0.1081E+03  0.1149E+03  0.1007E+04  0.1006E+04
      3.387  0.7141E+02  0.7545E+02  0.1011E+04  0.1010E+04
      3.439  0.8963E+02  0.8709E+02  0.1015E+04  0.1015E+04
      3.490  0.8672E+02  0.8303E+02  0.1020E+04  0.1019E+04
      3.542  0.8698E+02  0.8476E+02  0.1024E+04  0.1024E+04
      3.594  0.8226E+02  0.8929E+02  0.1029E+04  0.1028E+04
      3.646  0.7226E+02  0.7252E+02  0.1032E+04  0.1032E+04
      3.698  0.4162E+02  0.4125E+02  0.1035E+04  0.1034E+04
      3.750  0.6305E+02  0.6791E+02  0.1038E+04  0.1038E+04
      3.802  0.5037E+02  0.4223E+02  0.1040E+04  0.1040E+04
      3.854  0.5152E+02  0.5766E+02  0.1043E+04  0.1043E+04
      3.906  0.3304E+02  0.3296E+02  0.1045E+04  0.1045E+04
      3.958  0.7969E+02  0.6865E+02  0.1049E+04  0.1048E+04
      4.010  0.6296E+02  0.6729E+02  0.1052E+04  0.1052E+04
      4.061  0.8161E+02  0.6830E+02  0.1056E+04  0.1055E+04
      4.113  0.9063E+02  0.9969E+02  0.1061E+04  0.1060E+04
      4.165  0.1135E+03  0.1118E+03  0.1067E+04  0.1066E+04
      4.217  0.8299E+02  0.9197E+02  0.1071E+04  0.1071E+04
      4.269  0.8709E+02  0.8035E+02  0.1076E+04  0.1075E+04
      4.321  0.9204E+02  0.8823E+02  0.1081E+04  0.1080E+04
      4.373  0.1223E+03  0.1198E+03  0.1087E+04  0.1086E+04
      4.425  0.1249E+03  0.1230E+03  0.1093E+04  0.1092E+04
      4.477  0.1073E+03  0.1234E+03  0.1099E+04  0.1099E+04
      4.529  0.1145E+03  0.1095E+03  0.1105E+04  0.1104E+04
      4.580  0.9805E+02  0.1010E+03  0.1110E+04  0.1110E+04
      4.632  0.8120E+02  0.7803E+02  0.1114E+04  0.1114E+04
      4.684  0.1271E+03  0.1243E+03  0.1121E+04  0.1120E+04
      4.736  0.1350E+03  0.1345E+03  0.1128E+04  0.1127E+04
      4.788  0.1161E+03  0.1166E+03  0.1134E+04  0.1133E+04
      4.840  0.1317E+03  0.1319E+03  0.1141E+04  0.1140E+04
      4.892  0.1060E+03  0.1101E+03  0.1146E+04  0.1146E+04
      4.944  0.1107E+03  0.1085E+03  0.1152E+04  0.1151E+04
      4.996  0.1296E+03  0.1285E+03  0.1159E+04  0.1158E+04
      5.048  0.1324E+03  0.1332E+03  0.1166E+04  0.1165E+04
      5.099  0.1197E+03  0.1217E+03  0.1172E+04  0.1171E+04
      5.151  0.9390E+02  0.9848E+02  0.1177E+04  0.1176E+04
      5.203  0.1143E+03  0.1087E+03  0.1183E+04  0.1182E+04
      5.255  0.9472E+02  0.9713E+02  0.1188E+04  0.1187E+04
      5.307  0.1324E+03  0.1317E+03  0.1194E+04  0.1194E+04
      5.359  0.1262E+03  0.1288E+03  0.1201E+04  0.1201E+04
      5.411  0.1524E+03  0.1488E+03  0.1209E+04  0.1208E+04
      5.463  0.1296E+03  0.1333E+03  0.1216E+04  0.1215E+04
      5.515  0.1370E+03  0.1334E+03  0.1223E+04  0.1222E+04
      5.567  0.1536E+03  0.1521E+03  0.1231E+04  0.1230E+04
      5.619  0.1303E+03  0.1344E+03  0.1237E+04  0.1237E+04
      5.670  0.1163E+03  0.1178E+03  0.1243E+04  0.1243E+04
      5.722  0.1356E+03  0.1346E+03  0.1251E+04  0.1250E+04
      5.774  0.1108E+03  0.1119E+03  0.1256E+04  0.1256E+04
      5.826  0.1412E+03  0.1387E+03  0.1264E+04  0.1263E+04
      5.878  0.1086E+03  0.1123E+03  0.1269E+04  0.1269E+04
      5.930  0.4430E+02  0.4190E+02  0.1272E+04  0.1271E+04
      5.982  0.8602E+01  0.1646E+02  0.1272E+04  0.1272E+04
      6.034  0.0000E+00  0.0000E+00  0.1272E+04  0.1272E+04
      6.086  0.0000E+00  0.0000E+00  0.1272E+04  0.1272E+04
      6.138  0.0000E+00  0.0000E+00  0.1272E+04  0.1272E+04
      6.189  0.0000E+00  0.0000E+00  0.1272E+04  0.1272E+04
      6.241  0.0000E+00  0.0000E+00  0.1272E+04  0.1272E+04
      6.293  0.0000E+00  0.0000E+00  0.1272E+04  0.1272E+04
      6.345  0.0000E+00  0.0000E+00  0.1272E+04  0.1272E+04
      6.397  0.0000E+00  0.0000E+00  0.1272E+04  0.1272E+04
      6.449  0.0000E+00  0.0000E+00  0.1272E+04  0.1272E+04
      6.501  0.0000E+00  0.0000E+00  0.1272E+04  0.1272E+04
      6.553  0.0000E+00  0.0000E+00  0.1272E+04  0.1272E+04
      6.605  0.0000E+00  0.0000E+00  0.1272E+04  0.1272E+04
      6.657  0.0000E+00  0.0000E+00  0.1272E+04  0.1272E+04
