 vasp.6.4.3 19Mar24 (build Oct 22 2024 11:23:12) complex                        
  
 executed on             LinuxIFC date 2025.06.12  08:25:11
 running   64 mpi-ranks, on    4 nodes
 distrk:  each k-point on   64 cores,    1 groups
 distr:  one band on NCORE=  16 cores,    4 groups


--------------------------------------------------------------------------------------------------------


 INCAR:
   SYSTEM = Si and Ge interface calculation
   ISTART = 0
   ICHARG = 2
   LWAVE = .FALSE.
   LREAL = AUTO
   ENCUT = 700
   ENAUG = 900
   ADDGRID = .TRUE.
   LMAXMIX = 6
   LASPH = .TRUE.
   LMIXTAU = .TRUE.
   NCORE = 16
   NELM = 100
   NBANDS = 634
   EDIFF = 1d-7
   AMIX = 0.6
   ISMEAR = 0
   SIGMA = 0.01
   NELECT = 1056
   ISPIN = 2
   NUPDOWN = 1
   LVTOT = .FALSE.
   LVHAR = .TRUE.

 POTCAR:    PAW_PBE Sn 08Apr2002                  
 POTCAR:    PAW_PBE Si 05Jan2001                  
 -----------------------------------------------------------------------------
|                                                                             |
|           W    W    AA    RRRRR   N    N  II  N    N   GGGG   !!!           |
|           W    W   A  A   R    R  NN   N  II  NN   N  G    G  !!!           |
|           W    W  A    A  R    R  N N  N  II  N N  N  G       !!!           |
|           W WW W  AAAAAA  RRRRR   N  N N  II  N  N N  G  GGG   !            |
|           WW  WW  A    A  R   R   N   NN  II  N   NN  G    G                |
|           W    W  A    A  R    R  N    N  II  N    N   GGGG   !!!           |
|                                                                             |
|     You use a magnetic or noncollinear calculation, but did not specify     |
|     the initial magnetic moment with the MAGMOM tag. Note that a            |
|     default of 3.788e-3 will be used for all atoms. This ferromagnetic      |
|     setup may break the symmetry of the crystal, in particular it may       |
|     rule out finding an antiferromagnetic solution. Thence, we              |
|     recommend setting the initial magnetic moment manually or verifying     |
|     carefully that this magnetic setup is desired.                          |
|                                                                             |
 -----------------------------------------------------------------------------

 POTCAR:    PAW_PBE Sn 08Apr2002                  
   VRHFIN =Sn: s2p2                                                                                 
   LEXCH  = PE                                                                                      
   EATOM  =    94.0860 eV,    6.9151 Ry                                                             
                                                                                                    
   TITEL  = PAW_PBE Sn 08Apr2002                                                                    
   LULTRA =        F    use ultrasoft PP ?                                                          
   IUNSCR =        1    unscreen: 0-lin 1-nonlin 2-no                                               
   RPACOR =    2.000    partial core radius                                                         
   POMASS =  118.710; ZVAL   =    4.000    mass and valenz                                          
   RCORE  =    3.000    outmost cutoff radius                                                       
   RWIGS  =    2.960; RWIGS  =    1.566    wigner-seitz radius (au A)                               
   ENMAX  =  103.236; ENMIN  =   77.427 eV                                                          
   ICORE  =        3    local potential                                                             
   LCOR   =        T    correct aug charges                                                         
   LPAW   =        T    paw PP                                                                      
   EAUG   =  263.585                                                                                
   DEXC   =    0.000                                                                                
   RMAX   =    3.078    core radius for proj-oper                                                   
   RAUG   =    1.300    factor for augmentation sphere                                              
   RDEP   =    3.022    radius for radial grids                                                     
   RDEPT  =    2.655    core radius for aug-charge                                                  
                                                                                                    
   Atomic configuration                                                                             
   13 entries                                                                                       
     n  l   j            E        occ.                                                              
     1  0  0.50    -29007.2859   2.0000                                                             
     2  0  0.50     -4378.8056   2.0000                                                             
     2  1  1.50     -3930.4293   6.0000                                                             
     3  0  0.50      -845.0264   2.0000                                                             
     3  1  1.50      -698.5725   6.0000                                                             
     3  2  2.50      -473.2839  10.0000                                                             
     4  0  0.50      -133.9036   2.0000                                                             
     4  1  1.50       -89.6752   6.0000                                                             
     4  2  2.50       -25.8375  10.0000                                                             
     5  0  0.50       -10.5484   2.0000                                                             
     5  1  0.50        -3.6940   2.0000                                                             
     5  2  1.50        -1.3606   0.0000                                                             
     4  3  2.50        -4.0817   0.0000                                                             
   Description                                                                                      
     l       E           TYP  RCUT    TYP  RCUT                                                     
     0    -10.5483727     23  3.000                                                                 
     0     27.2116520     23  3.000                                                                 
     1     -3.6939829     23  3.000                                                                 
     1      1.9821976     23  3.000                                                                 
     2     -1.3605826     23  3.000                                                                 
     3     -2.7211652     23  3.000                                                                 
  local pseudopotential read in
  partial core-charges read in
  partial kinetic energy density read in
  atomic valenz-charges read in
  non local Contribution for L=           0  read in
    real space projection operators read in
  non local Contribution for L=           0  read in
    real space projection operators read in
  non local Contribution for L=           1  read in
    real space projection operators read in
  non local Contribution for L=           1  read in
    real space projection operators read in
  non local Contribution for L=           2  read in
    real space projection operators read in
    PAW grid and wavefunctions read in
 
   number of l-projection  operators is LMAX  =           5
   number of lm-projection operators is LMMAX =          13
 
 POTCAR:    PAW_PBE Si 05Jan2001                  
   VRHFIN =Si: s2p2                                                                                 
   LEXCH  = PE                                                                                      
   EATOM  =   103.0669 eV,    7.5752 Ry                                                             
                                                                                                    
   TITEL  = PAW_PBE Si 05Jan2001                                                                    
   LULTRA =        F    use ultrasoft PP ?                                                          
   IUNSCR =        1    unscreen: 0-lin 1-nonlin 2-no                                               
   RPACOR =    1.500    partial core radius                                                         
   POMASS =   28.085; ZVAL   =    4.000    mass and valenz                                          
   RCORE  =    1.900    outmost cutoff radius                                                       
   RWIGS  =    2.480; RWIGS  =    1.312    wigner-seitz radius (au A)                               
   ENMAX  =  245.345; ENMIN  =  184.009 eV                                                          
   ICORE  =        2    local potential                                                             
   LCOR   =        T    correct aug charges                                                         
   LPAW   =        T    paw PP                                                                      
   EAUG   =  322.069                                                                                
   DEXC   =    0.000                                                                                
   RMAX   =    1.950    core radius for proj-oper                                                   
   RAUG   =    1.300    factor for augmentation sphere                                              
   RDEP   =    1.993    radius for radial grids                                                     
   RDEPT  =    1.837    core radius for aug-charge                                                  
                                                                                                    
   Atomic configuration                                                                             
    6 entries                                                                                       
     n  l   j            E        occ.                                                              
     1  0  0.50     -1785.8828   2.0000                                                             
     2  0  0.50      -139.4969   2.0000                                                             
     2  1  1.50       -95.5546   6.0000                                                             
     3  0  0.50       -10.8127   2.0000                                                             
     3  1  0.50        -4.0811   2.0000                                                             
     3  2  1.50        -4.0817   0.0000                                                             
   Description                                                                                      
     l       E           TYP  RCUT    TYP  RCUT                                                     
     0    -10.8127223     23  1.900                                                                 
     0     -7.6451159     23  1.900                                                                 
     1     -4.0811372     23  1.900                                                                 
     1      2.4879257     23  1.900                                                                 
     2     -4.0817478      7  1.900                                                                 
  local pseudopotential read in
  partial core-charges read in
  partial kinetic energy density read in
  atomic valenz-charges read in
  non local Contribution for L=           0  read in
    real space projection operators read in
  non local Contribution for L=           0  read in
    real space projection operators read in
  non local Contribution for L=           1  read in
    real space projection operators read in
  non local Contribution for L=           1  read in
    real space projection operators read in
    PAW grid and wavefunctions read in
 
   number of l-projection  operators is LMAX  =           4
   number of lm-projection operators is LMMAX =           8
 
 Optimization of the real space projectors (new method)

 maximal supplied QI-value         = 12.47
 optimisation between [QCUT,QGAM] = [ 12.47, 27.06] = [ 43.56,205.12] Ry 
 Optimized for a Real-space Cutoff    1.58 Angstroem

   l    n(q)    QCUT    max X(q) W(low)/X(q) W(high)/X(q)  e(spline) 
   0     13    12.472    14.688    0.45E-04    0.45E-04    0.25E-05
   0     13    12.472     7.308    0.94E-04    0.11E-03    0.61E-05
   1     12    12.472    45.102    0.34E-03    0.14E-03    0.21E-05
   1     12    12.472    30.691    0.31E-03    0.13E-03    0.20E-05
   2     12    12.472     7.156    0.86E-04    0.11E-03    0.17E-05
 WARNING: PSMAXN for non-local potential too small
          PSMAXN should be >   13.5545592237991       NTYP=           1
 Optimization of the real space projectors (new method)

 maximal supplied QI-value         = 19.84
 optimisation between [QCUT,QGAM] = [ 13.49, 26.99] = [ 50.98,203.92] Ry 
 Optimized for a Real-space Cutoff    1.07 Angstroem

   l    n(q)    QCUT    max X(q) W(low)/X(q) W(high)/X(q)  e(spline) 
   0      9    13.493   159.560    0.22E-03    0.15E-03    0.72E-07
   0      9    13.493   115.863    0.21E-03    0.15E-03    0.71E-07
   1      8    13.493    88.339    0.15E-03    0.11E-03    0.13E-06
   1      8    13.493    48.592    0.15E-03    0.10E-03    0.13E-06
  PAW_PBE Sn 08Apr2002                  :
 energy of atom  1       EATOM=  -94.0860
 kinetic energy error for atom=    0.0000 (will be added to EATOM!!)
  PAW_PBE Si 05Jan2001                  :
 energy of atom  2       EATOM= -103.0669
 kinetic energy error for atom=    0.0003 (will be added to EATOM!!)
 
 
 POSCAR: Sn+Si
  positions in direct lattice
  No initial velocities read in


 exchange-correlation table for PE
   RHO(1)=    0.500       N(1)  =     2000
   RHO(2)=  100.500       N(2)  =     4000
 


--------------------------------------------------------------------------------------------------------


 ion  position               nearest neighbor table
   1  0.010  0.104  0.886- 126 2.34 213 2.34   7 3.01
   2  0.828  0.667  0.168-  49 2.81 199 2.81 223 2.81 150 2.81
   3  0.662  0.667  0.336- 142 2.81 193 2.81 223 2.81 102 2.81
   4  0.394  0.181  0.886- 201 2.34 147 2.34 258 2.96
   5  0.740  0.451  0.886- 192 2.34 120 2.34  76 2.95
   6  0.662  0.333  0.336- 112 2.81  36 2.81 250 2.81 105 2.81
   7  0.995  0.000  0.000-  28 2.81 106 2.81  20 2.97   1 3.01
   8  0.586  0.220  0.886- 117 2.34 222 2.34 258 3.01 246 3.44
   9  0.913  0.585  0.534- 247 2.34 163 2.34
  10  0.328  0.667  0.000-  40 2.81  82 2.81 174 2.95  23 2.99  62 3.61
  11  0.162  0.667  0.168- 139 2.81  31 2.81  83 2.81  82 2.81
  12  0.995  0.667  0.336-  42 2.81 199 2.81  83 2.81 136 2.81
  13  0.328  0.333  0.000- 243 2.40  43 2.81  85 2.81
  14  0.856  0.874  0.886- 210 2.34 123 2.34  73 2.40
  15  0.995  0.333  0.336-  45 2.81 187 2.81  86 2.81 220 2.81
  16  0.328  0.000  0.000-  37 2.81  88 2.81 183 2.95  70 3.00
  17  0.625  0.028  0.886- 222 2.34 138 2.34  25 2.37
  18  0.995  0.000  0.336-  39 2.81  29 2.81  89 2.81  90 2.81
  19  0.662  0.667  0.000-  59 2.38  49 2.81  91 2.81
  20  0.048  0.912  0.886- 198 2.34 126 2.34   7 2.97  55 3.48
  21  0.328  0.667  0.336- 124 2.81 139 2.81  93 2.81  92 2.81
  22  0.510  0.604  0.886- 204 2.34 135 2.34  67 3.01
  23  0.279  0.758  0.886-  62 2.34  80 2.34  10 2.99  55 3.49
  24  0.328  0.333  0.336-  54 2.81 109 2.81 214 2.81 151 2.81
  25  0.662  0.000  0.000-  17 2.37  46 2.81  97 2.81
  26  0.779  0.258  0.886- 192 2.34 141 2.34  79 2.99
  27  0.328  0.000  0.336-  48 2.81 115 2.81  99 2.81 211 2.81
  28  0.078  0.917  0.084- 180 2.81   7 2.81  55 2.81 252 2.81
  29  0.912  0.917  0.252- 261 2.81  18 2.81 252 2.81  57 2.81
  30  0.760  0.354  0.534- 244 2.34 160 2.34  36 3.01
  31  0.078  0.583  0.084-  11 2.81 171 2.81 231 2.81 165 2.81
  32  0.606  0.124  0.534- 241 2.34 184 2.34 108 2.40
  33  0.144  0.431  0.534- 235 2.34 154 2.34 109 2.96
  34  0.078  0.250  0.084- 168 2.81 159 2.81 186 2.81 216 2.81
  35  0.375  0.278  0.534- 229 2.34 148 2.34  54 2.37
  36  0.745  0.250  0.420-   6 2.81  63 2.81  38 2.97  30 3.01
  37  0.412  0.917  0.084-  16 2.81 153 2.81  64 2.81  65 2.81
  38  0.798  0.162  0.534- 259 2.34 160 2.34  36 2.97  90 3.48
  39  0.078  0.917  0.420-  18 2.81  66 2.81 208 2.95  41 2.99 104 3.61
  40  0.412  0.583  0.084-  10 2.81 240 2.81  67 2.81  68 2.81
  41  0.029  0.008  0.534- 104 2.34  95 2.34  39 2.99  90 3.49
  42  0.078  0.583  0.420- 121 2.40  12 2.81  69 2.81
  43  0.412  0.250  0.084-  13 2.81 258 2.81  71 2.81 255 2.81
  44  0.529  0.508  0.534- 253 2.34 172 2.34 105 2.99
  45  0.078  0.250  0.420-  15 2.81  72 2.81 190 2.95  96 3.00
  46  0.745  0.917  0.084- 261 2.81  25 2.81 177 2.81  73 2.81
  47  0.578  0.917  0.252- 205 2.81 153 2.81 177 2.81  75 2.81
  48  0.412  0.917  0.420- 101 2.38  27 2.81  75 2.81
  49  0.745  0.583  0.084-   2 2.81  19 2.81  77 2.81  76 2.81
  50  0.490  0.701  0.534- 181 2.34 253 2.34 102 2.95
  51  0.260  0.854  0.534- 169 2.34 238 2.34  93 3.01
  52  0.745  0.250  0.084- 234 2.81 144 2.81  79 2.81 246 2.81
  53  0.336  0.470  0.534- 229 2.34 157 2.34 109 3.01 124 3.44
  54  0.412  0.250  0.420-  35 2.37  24 2.81  81 2.81
  55  0.162  0.833  0.000-  82 2.81  28 2.81  61 3.44  20 3.48  23 3.49
  56  0.817  0.066  0.886- 210 2.34 141 2.34  79 2.95
  57  0.828  0.833  0.336- 136 2.81 223 2.81 202 2.81  29 2.81
  58  0.125  0.528  0.886- 114 2.34 189 2.34 231 2.37
  59  0.702  0.643  0.886- 207 2.34 120 2.34  19 2.38
  60  0.828  0.500  0.336- 220 2.81 250 2.81 193 2.81 199 2.81
  61  0.086  0.720  0.886- 198 2.34 114 2.34 171 3.01  55 3.44
  62  0.298  0.662  0.816- 158 2.34  23 2.34 174 2.34 254 2.34  10 3.61
  63  0.828  0.167  0.336-  90 2.81  36 2.81 187 2.81 130 2.81
  64  0.495  0.833  0.000-  74 2.36  91 2.81  37 2.81
  65  0.328  0.833  0.168-  82 2.81  92 2.81 115 2.81  37 2.81
  66  0.162  0.833  0.336-  83 2.81  93 2.81  39 2.81 115 2.81
  67  0.495  0.500  0.000-  94 2.81  40 2.81 162 2.97  22 3.01
  68  0.328  0.500  0.168-  85 2.81 151 2.81 139 2.81  40 2.81
  69  0.162  0.500  0.336-  86 2.81 109 2.81  42 2.81 139 2.81
  70  0.433  0.989  0.886- 147 2.34 219 2.34  16 3.00
  71  0.328  0.167  0.168- 214 2.81  88 2.81  43 2.81 211 2.81
  72  0.162  0.167  0.336-  89 2.81  45 2.81 214 2.81  99 2.81
  73  0.828  0.833  0.000-  14 2.40 150 2.81  46 2.81
  74  0.471  0.797  0.886- 219 2.34 135 2.34  64 2.36
  75  0.495  0.833  0.336- 102 2.81  92 2.81  47 2.81  48 2.81
  76  0.828  0.500  0.000- 103 2.81  49 2.81   5 2.95 156 3.00
  77  0.662  0.500  0.168- 250 2.81  94 2.81 142 2.81  49 2.81
  78  0.495  0.500  0.336- 105 2.81 151 2.81 142 2.81 124 2.81
  79  0.828  0.167  0.000- 106 2.81  52 2.81  56 2.95  26 2.99
  80  0.260  0.854  0.816- 239 2.34 183 2.34 182 2.34  23 2.34
  81  0.495  0.167  0.336- 108 2.81 211 2.81 112 2.81  54 2.81
  82  0.245  0.750  0.084-  55 2.81  65 2.81  11 2.81  10 2.81
  83  0.078  0.750  0.252- 252 2.81  66 2.81  11 2.81  12 2.81
  84  0.875  0.778  0.534- 247 2.34 178 2.34 136 2.37
  85  0.245  0.417  0.084-  68 2.81 231 2.81 168 2.81  13 2.81
  86  0.078  0.417  0.252- 165 2.81 168 2.81  69 2.81  15 2.81
  87  0.836  0.970  0.534- 259 2.34 178 2.34 202 3.01  90 3.44
  88  0.245  0.083  0.084-  71 2.81 159 2.81 180 2.81  16 2.81
  89  0.078  0.083  0.252- 180 2.81 216 2.81  72 2.81  18 2.81
  90  0.912  0.083  0.420-  63 2.81  18 2.81  87 3.44  38 3.48  41 3.49
  91  0.578  0.750  0.084-  64 2.81 177 2.81  19 2.81 240 2.81
  92  0.412  0.750  0.252- 240 2.81  65 2.81  75 2.81  21 2.81
  93  0.245  0.750  0.420-  66 2.81  21 2.81 196 2.97  51 3.01
  94  0.578  0.417  0.084-  67 2.81  77 2.81 246 2.81 255 2.81
  95  0.010  0.104  0.605- 190 2.34 212 2.34  41 2.34 140 2.34
  96  0.183  0.239  0.534- 154 2.34 226 2.34  45 3.00
  97  0.578  0.083  0.084-  25 2.81 144 2.81 258 2.81 153 2.81
  98  0.221  0.047  0.534- 226 2.34 169 2.34  99 2.36
  99  0.245  0.083  0.420-  98 2.36  27 2.81  72 2.81
 100  0.163  0.335  0.886- 189 2.34 129 2.34
 101  0.452  0.893  0.534- 262 2.34 181 2.34  48 2.38
 102  0.578  0.750  0.420-  75 2.81   3 2.81  50 2.95 217 3.00
 103  0.912  0.417  0.084-  76 2.81 165 2.81 234 2.81 186 2.81
 104  0.048  0.912  0.605- 125 2.34  41 2.34 208 2.34 209 2.34  39 3.61
 105  0.578  0.417  0.420-  78 2.81   6 2.81 107 2.95  44 2.99
 106  0.912  0.083  0.084-  79 2.81 216 2.81 261 2.81   7 2.81
 107  0.567  0.316  0.534- 172 2.34 241 2.34 105 2.95
 108  0.578  0.083  0.420-  32 2.40  81 2.81 205 2.81
 109  0.245  0.417  0.420-  69 2.81  24 2.81  33 2.96  53 3.01
 110  0.067  0.316  0.675- 227 2.34 154 2.34 232 2.34 155 2.34
 111  0.952  0.393  0.816- 233 2.34 228 2.34 156 2.34 155 2.34
 112  0.578  0.250  0.252- 144 2.81   6 2.81 255 2.81  81 2.81
 113  0.221  0.547  0.675- 235 2.34 230 2.34 157 2.34 158 2.34
 114  0.106  0.624  0.816- 236 2.34  58 2.34 158 2.34  61 2.34
 115  0.245  0.917  0.252- 180 2.81  27 2.81  65 2.81  66 2.81
 116  0.683  0.239  0.675- 260 2.34 241 2.34 161 2.34 160 2.34
 117  0.567  0.316  0.816-   8 2.34 242 2.34 162 2.34 161 2.34
 118  0.952  0.393  0.534- 232 2.34 163 2.34 220 2.38
 119  0.836  0.470  0.675- 244 2.34 164 2.34 163 2.34 233 2.34
 120  0.721  0.547  0.816- 245 2.34   5 2.34 164 2.34  59 2.34
 121  0.106  0.624  0.534- 166 2.34 235 2.34  42 2.40
 122  0.990  0.701  0.675- 247 2.34 166 2.34 167 2.34 236 2.34
 123  0.875  0.778  0.816- 248 2.34  14 2.34 237 2.34 167 2.34
 124  0.412  0.583  0.420-  21 2.81  78 2.81  53 3.44
 125  0.144  0.931  0.675- 104 2.34 170 2.34 169 2.34 239 2.34
 126  0.029  0.008  0.816- 251 2.34   1 2.34 170 2.34  20 2.34
 127  0.413  0.085  0.534- 262 2.34 148 2.34
 128  0.298  0.162  0.675- 226 2.34 148 2.34 263 2.34 149 2.34
 129  0.183  0.239  0.816- 227 2.34 264 2.34 100 2.34 149 2.34
 130  0.745  0.083  0.252- 144 2.81 261 2.81 205 2.81  63 2.81
 131  0.452  0.393  0.675- 229 2.34 173 2.34 172 2.34 242 2.34
 132  0.336  0.470  0.816- 174 2.34 230 2.34 243 2.34 173 2.34
 133  0.721  0.547  0.534- 244 2.34 175 2.34 193 2.36
 134  0.606  0.624  0.675- 253 2.34 245 2.34 176 2.34 175 2.34
 135  0.490  0.701  0.816- 254 2.34  22 2.34  74 2.34 176 2.34
 136  0.912  0.750  0.420-  84 2.37  57 2.81  12 2.81
 137  0.760  0.854  0.675- 248 2.34 256 2.34 178 2.34 179 2.34
 138  0.644  0.931  0.816- 249 2.34 257 2.34 179 2.34  17 2.34
 139  0.245  0.583  0.252-  11 2.81  21 2.81  68 2.81  69 2.81
 140  0.913  0.085  0.675- 259 2.34 251 2.34  95 2.34 152 2.34
 141  0.798  0.162  0.816- 260 2.34  56 2.34  26 2.34 152 2.34
 142  0.578  0.583  0.252-   3 2.81 240 2.81  77 2.81  78 2.81
 143  0.375  0.778  0.675- 238 2.34 254 2.34 182 2.34 181 2.34
 144  0.662  0.167  0.168- 130 2.81 112 2.81  52 2.81  97 2.81
 145  0.644  0.931  0.534- 256 2.34 184 2.34 202 2.96
 146  0.529  0.008  0.675- 257 2.34 262 2.34 184 2.34 185 2.34
 147  0.413  0.085  0.816- 263 2.34  70 2.34   4 2.34 185 2.34
 148  0.394  0.181  0.605- 128 2.34 200 2.34  35 2.34 127 2.34
 149  0.279  0.258  0.745- 201 2.34 128 2.34 188 2.34 129 2.34
 150  0.912  0.750  0.084-  73 2.81 252 2.81   2 2.81 171 2.81
 151  0.412  0.417  0.252- 255 2.81  68 2.81  78 2.81  24 2.81
 152  0.894  0.181  0.745- 191 2.34 213 2.34 140 2.34 141 2.34
 153  0.495  0.000  0.168- 211 2.81  37 2.81  47 2.81  97 2.81
 154  0.163  0.335  0.605- 188 2.34 110 2.34  96 2.34  33 2.34
 155  0.048  0.412  0.745- 189 2.34 110 2.34 194 2.34 111 2.34
 156  0.933  0.489  0.886- 111 2.34 195 2.34  76 3.00
 157  0.317  0.566  0.605- 215 2.34  53 2.34 113 2.34 196 2.34
 158  0.202  0.643  0.745- 114 2.34  62 2.34 197 2.34 113 2.34
 159  0.162  0.167  0.000- 264 2.38  88 2.81  34 2.81
 160  0.779  0.258  0.605- 191 2.34  38 2.34  30 2.34 116 2.34
 161  0.663  0.335  0.745- 192 2.34 116 2.34 203 2.34 117 2.34
 162  0.548  0.412  0.886- 204 2.34 117 2.34  67 2.97
 163  0.933  0.489  0.605- 194 2.34 119 2.34   9 2.34 118 2.34
 164  0.817  0.566  0.745- 195 2.34 119 2.34 120 2.34 206 2.34
 165  0.995  0.500  0.168- 103 2.81  86 2.81 199 2.81  31 2.81
 166  0.086  0.720  0.605- 122 2.34 197 2.34 208 2.34 121 2.34
 167  0.971  0.797  0.745- 198 2.34 122 2.34 209 2.34 123 2.34
 168  0.162  0.333  0.168-  86 2.81 214 2.81  34 2.81  85 2.81
 169  0.240  0.951  0.605- 224 2.34  51 2.34  98 2.34 125 2.34
 170  0.125  0.028  0.745- 225 2.34 125 2.34 212 2.34 126 2.34
 171  0.995  0.667  0.000-  31 2.81 150 2.81 237 2.96  61 3.01
 172  0.548  0.412  0.605- 203 2.34 107 2.34  44 2.34 131 2.34
 173  0.433  0.489  0.745- 131 2.34 204 2.34 215 2.34 132 2.34
 174  0.317  0.566  0.886- 132 2.34  62 2.34  10 2.95
 175  0.702  0.643  0.605- 206 2.34 217 2.34 134 2.34 133 2.34
 176  0.586  0.720  0.745- 207 2.34 134 2.34 218 2.34 135 2.34
 177  0.662  0.833  0.168- 223 2.81  91 2.81  47 2.81  46 2.81
 178  0.856  0.874  0.605- 209 2.34 137 2.34  87 2.34  84 2.34
 179  0.740  0.951  0.745- 210 2.34 221 2.34 138 2.34 137 2.34
 180  0.162  0.000  0.168- 115 2.81  28 2.81  89 2.81  88 2.81
 181  0.471  0.797  0.605- 218 2.34  50 2.34 101 2.34 143 2.34
 182  0.356  0.874  0.745- 224 2.34 219 2.34  80 2.34 143 2.34
 183  0.240  0.951  0.886- 225 2.34  80 2.34  16 2.95
 184  0.625  0.028  0.605- 221 2.34  32 2.34 145 2.34 146 2.34
 185  0.510  0.104  0.745- 200 2.34 222 2.34 147 2.34 146 2.34
 186  0.995  0.333  0.000- 228 2.36  34 2.81 103 2.81
 187  0.912  0.250  0.252- 216 2.81 234 2.81  15 2.81  63 2.81
 188  0.260  0.354  0.675- 154 2.34 230 2.34 149 2.34 229 2.34
 189  0.144  0.431  0.816- 230 2.34 155 2.34  58 2.34 100 2.34
 190  0.990  0.201  0.534- 232 2.34  95 2.34  45 2.95
 191  0.875  0.278  0.675- 160 2.34 152 2.34 233 2.34 232 2.34
 192  0.760  0.354  0.816- 161 2.34  26 2.34   5 2.34 233 2.34
 193  0.745  0.583  0.420- 133 2.36   3 2.81  60 2.81
 194  0.029  0.508  0.675- 163 2.34 236 2.34 155 2.34 235 2.34
 195  0.913  0.585  0.816- 237 2.34 164 2.34 156 2.34 236 2.34
 196  0.298  0.662  0.534- 238 2.34 157 2.34  93 2.97
 197  0.183  0.739  0.675- 239 2.34 166 2.34 158 2.34 238 2.34
 198  0.067  0.816  0.816-  20 2.34 167 2.34  61 2.34 239 2.34
 199  0.912  0.583  0.252-   2 2.81  12 2.81 165 2.81  60 2.81
 200  0.490  0.201  0.675- 242 2.34 185 2.34 148 2.34 241 2.34
 201  0.375  0.278  0.816- 149 2.34   4 2.34 243 2.34 242 2.34
 202  0.745  0.917  0.420- 205 2.81  57 2.81 145 2.96  87 3.01
 203  0.644  0.431  0.675- 172 2.34 245 2.34 244 2.34 161 2.34
 204  0.529  0.508  0.816- 173 2.34 162 2.34  22 2.34 245 2.34
 205  0.662  0.000  0.336-  47 2.81 202 2.81 130 2.81 108 2.81
 206  0.798  0.662  0.675- 175 2.34 248 2.34 247 2.34 164 2.34
 207  0.683  0.739  0.816- 249 2.34 176 2.34  59 2.34 248 2.34
 208  0.067  0.816  0.534- 166 2.34 104 2.34  39 2.95
 209  0.952  0.893  0.675- 178 2.34 167 2.34 251 2.34 104 2.34
 210  0.836  0.970  0.816- 179 2.34  14 2.34  56 2.34 251 2.34
 211  0.412  0.083  0.252- 153 2.81  71 2.81  81 2.81  27 2.81
 212  0.106  0.124  0.675- 227 2.34 170 2.34  95 2.34 226 2.34
 213  0.990  0.201  0.816- 228 2.34 152 2.34   1 2.34 227 2.34
 214  0.245  0.250  0.252-  71 2.81 168 2.81  72 2.81  24 2.81
 215  0.413  0.585  0.675- 157 2.34 253 2.34 254 2.34 173 2.34
 216  0.995  0.167  0.168- 187 2.81 106 2.81  89 2.81  34 2.81
 217  0.683  0.739  0.534- 256 2.34 175 2.34 102 3.00
 218  0.567  0.816  0.675- 257 2.34 256 2.34 181 2.34 176 2.34
 219  0.452  0.893  0.816-  70 2.34  74 2.34 182 2.34 257 2.34
 220  0.912  0.417  0.420- 118 2.38  60 2.81  15 2.81
 221  0.721  0.047  0.675- 184 2.34 179 2.34 259 2.34 260 2.34
 222  0.606  0.124  0.816-  17 2.34 185 2.34   8 2.34 260 2.34
 223  0.745  0.750  0.252- 177 2.81  57 2.81   2 2.81   3 2.81
 224  0.336  0.970  0.675- 169 2.34 182 2.34 263 2.34 262 2.34
 225  0.221  0.047  0.816- 170 2.34 183 2.34 264 2.34 263 2.34
 226  0.202  0.143  0.605- 128 2.34  98 2.34  96 2.34 212 2.34
 227  0.086  0.220  0.745- 129 2.34 212 2.34 110 2.34 213 2.34
 228  0.971  0.297  0.886- 213 2.34 111 2.34 186 2.36
 229  0.356  0.374  0.605- 131 2.34  53 2.34  35 2.34 188 2.34
 230  0.240  0.451  0.745- 113 2.34 189 2.34 188 2.34 132 2.34
 231  0.162  0.500  0.000-  58 2.37  85 2.81  31 2.81
 232  0.971  0.297  0.605- 190 2.34 110 2.34 118 2.34 191 2.34
 233  0.856  0.374  0.745- 191 2.34 111 2.34 119 2.34 192 2.34
 234  0.828  0.333  0.168-  52 2.81 187 2.81 250 2.81 103 2.81
 235  0.125  0.528  0.605- 113 2.34  33 2.34 121 2.34 194 2.34
 236  0.010  0.604  0.745- 114 2.34 194 2.34 122 2.34 195 2.34
 237  0.894  0.681  0.886- 195 2.34 123 2.34 171 2.96
 238  0.279  0.758  0.605- 143 2.34 196 2.34  51 2.34 197 2.34
 239  0.163  0.835  0.745-  80 2.34 197 2.34 125 2.34 198 2.34
 240  0.495  0.667  0.168-  92 2.81  40 2.81 142 2.81  91 2.81
 241  0.586  0.220  0.605- 116 2.34  32 2.34 200 2.34 107 2.34
 242  0.471  0.297  0.745- 117 2.34 200 2.34 131 2.34 201 2.34
 243  0.356  0.374  0.886- 201 2.34 132 2.34  13 2.40
 244  0.740  0.451  0.605- 119 2.34  30 2.34 203 2.34 133 2.34
 245  0.625  0.528  0.745- 120 2.34 203 2.34 134 2.34 204 2.34
 246  0.662  0.333  0.000-  94 2.81  52 2.81   8 3.44
 247  0.894  0.681  0.605- 122 2.34   9 2.34  84 2.34 206 2.34
 248  0.779  0.758  0.745- 206 2.34 123 2.34 137 2.34 207 2.34
 249  0.663  0.835  0.886- 207 2.34 138 2.34
 250  0.745  0.417  0.252-  77 2.81 234 2.81  60 2.81   6 2.81
 251  0.933  0.989  0.745- 126 2.34 140 2.34 209 2.34 210 2.34
 252  0.995  0.833  0.168- 150 2.81  83 2.81  29 2.81  28 2.81
 253  0.510  0.604  0.605- 134 2.34 215 2.34  44 2.34  50 2.34
 254  0.394  0.681  0.745- 135 2.34 215 2.34 143 2.34  62 2.34
 255  0.495  0.333  0.168- 151 2.81  43 2.81 112 2.81  94 2.81
 256  0.663  0.835  0.605- 217 2.34 218 2.34 137 2.34 145 2.34
 257  0.548  0.912  0.745- 146 2.34 218 2.34 138 2.34 219 2.34
 258  0.495  0.167  0.000-  43 2.81  97 2.81   4 2.96   8 3.01
 259  0.817  0.066  0.605- 140 2.34  87 2.34  38 2.34 221 2.34
 260  0.702  0.143  0.745- 141 2.34 116 2.34 221 2.34 222 2.34
 261  0.828  0.000  0.168-  46 2.81  29 2.81 130 2.81 106 2.81
 262  0.433  0.989  0.605- 146 2.34 101 2.34 127 2.34 224 2.34
 263  0.317  0.066  0.745- 147 2.34 224 2.34 128 2.34 225 2.34
 264  0.202  0.143  0.886- 129 2.34 225 2.34 159 2.38
 
  LATTYP: Found a simple tetragonal cell.
 ALAT       =    19.4675998690
 C/A-ratio  =     0.9914038219
  
  Lattice vectors:
  
 A1 = (  19.4675998690,   0.0000000000,   0.0000000000)
 A2 = (   0.0000000000,  19.4675998690,   0.0000000000)
 A3 = (   0.0000000000,   0.0000000000,  19.3002529140)


Analysis of symmetry for initial positions (statically):
=====================================================================
 Subroutine PRICEL returns:
 Original cell was already a primitive cell.
 

 Routine SETGRP: Setting up the symmetry group for a 
 simple tetragonal supercell.


 Subroutine GETGRP returns: Found  1 space group operations
 (whereof  1 operations were pure point group operations)
 out of a pool of 16 trial point group operations.


The static configuration has the point symmetry C_1 .


Analysis of symmetry for dynamics (positions and initial velocities):
=====================================================================
 Subroutine PRICEL returns:
 Original cell was already a primitive cell.
 

 Routine SETGRP: Setting up the symmetry group for a 
 simple tetragonal supercell.


 Subroutine GETGRP returns: Found  1 space group operations
 (whereof  1 operations were pure point group operations)
 out of a pool of 16 trial point group operations.


The dynamic configuration has the point symmetry C_1 .


Analysis of structural, dynamic, and magnetic symmetry:
=====================================================================
 Subroutine PRICEL returns:
 Original cell was already a primitive cell.
 

 Routine SETGRP: Setting up the symmetry group for a 
 simple tetragonal supercell.


 Subroutine GETGRP returns: Found  1 space group operations
 (whereof  1 operations were pure point group operations)
 out of a pool of 16 trial point group operations.


The overall configuration has the point symmetry C_1 .


 Subroutine INISYM returns: Found  1 space group operations
 (whereof  1 operations are pure point group operations),
 and found     1 'primitive' translations


----------------------------------------------------------------------------------------

                                     Primitive cell                                     

  volume of cell :    7314.5535

  direct lattice vectors                    reciprocal lattice vectors
    19.467599869  0.000000000  0.000000000     0.051367401  0.000000000  0.000000000
     0.000000000 19.467599869  0.000000000     0.000000000  0.051367401  0.000000000
     0.000000000  0.000000000 19.300252914     0.000000000  0.000000000  0.051812793

  length of vectors
    19.467599869 19.467599869 19.300252914     0.051367401  0.051367401  0.051812793

  position of ions in fractional coordinates (direct lattice)
     0.009572506  0.104443185  0.886011779
     0.828368425  0.666666687  0.168111786
     0.661701739  0.666666687  0.336223543
     0.394187808  0.181366205  0.886011779
     0.740341783  0.450596988  0.886011779
     0.661701739  0.333333343  0.336223543
     0.995035112  0.000000000  0.000000000
     0.586495578  0.219827890  0.886011779
     0.913418829  0.585212350  0.534267545
     0.328368455  0.666666687  0.000000000
     0.161701739  0.666666687  0.168111786
     0.995035112  0.666666687  0.336223543
     0.328368455  0.333333343  0.000000000
     0.855726242  0.873673916  0.886011779
     0.995035112  0.333333343  0.336223543
     0.328368455  0.000000000  0.000000000
     0.624957025  0.027520061  0.886011779
     0.995035112  0.000000000  0.336223543
     0.661701798  0.666666687  0.000000000
     0.048034191  0.912135482  0.886011779
     0.328368455  0.666666687  0.336223543
     0.509572506  0.604443133  0.886011779
     0.278803110  0.758289278  0.886011779
     0.328368455  0.333333343  0.336223543
     0.661701798  0.000000000  0.000000000
     0.778803229  0.258289337  0.886011779
     0.328368455  0.000000000  0.336223543
     0.078368433  0.916666746  0.084055893
     0.911701798  0.916666746  0.252167612
     0.759572685  0.354443043  0.534267545
     0.078368433  0.583333433  0.084055893
     0.605726480  0.123673767  0.534267545
     0.144188166  0.431366175  0.534267545
     0.078368433  0.250000000  0.084055893
     0.374957323  0.277519971  0.534267545
     0.745035052  0.250000000  0.420279443
     0.411701769  0.916666746  0.084055893
     0.798034191  0.162135303  0.534267545
     0.078368381  0.916666746  0.420279443
     0.411701769  0.583333433  0.084055893
     0.028803349  0.008289218  0.534267545
     0.078368381  0.583333433  0.420279443
     0.411701769  0.250000000  0.084055893
     0.528803408  0.508289218  0.534267545
     0.078368381  0.250000000  0.420279443
     0.745035172  0.916666746  0.084055893
     0.578368545  0.916666746  0.252167612
     0.411701798  0.916666746  0.420279443
     0.745035172  0.583333433  0.084055893
     0.490341842  0.700596869  0.534267545
     0.259572625  0.854443133  0.534267545
     0.745035172  0.250000000  0.084055893
     0.336495876  0.469827592  0.534267545
     0.411701798  0.250000000  0.420279443
     0.161701769  0.833333313  0.000000000
     0.817264795  0.065981627  0.886011779
     0.828368425  0.833333313  0.336223543
     0.124956965  0.527520061  0.886011779
     0.701880097  0.642904758  0.886011779
     0.828368425  0.500000000  0.336223543
     0.086495519  0.719827771  0.886011779
     0.298033953  0.662135482  0.815662920
     0.828368425  0.166666672  0.336223543
     0.495035112  0.833333313  0.000000000
     0.328368425  0.833333313  0.168111786
     0.161701754  0.833333313  0.336223543
     0.495035112  0.500000000  0.000000000
     0.328368425  0.500000000  0.168111786
     0.161701754  0.500000000  0.336223543
     0.432649344  0.989058554  0.886011779
     0.328368425  0.166666672  0.168111786
     0.161701754  0.166666672  0.336223543
     0.828368545  0.833333313  0.000000000
     0.471110880  0.796750903  0.886011779
     0.495035201  0.833333313  0.336223543
     0.828368545  0.500000000  0.000000000
     0.661701858  0.500000000  0.168111786
     0.495035201  0.500000000  0.336223543
     0.828368545  0.166666672  0.000000000
     0.259572506  0.854443192  0.815662920
     0.495035201  0.166666672  0.336223543
     0.245035097  0.750000060  0.084055893
     0.078368433  0.750000060  0.252167612
     0.874957323  0.777519882  0.534267545
     0.245035097  0.416666716  0.084055893
     0.078368433  0.416666716  0.252167612
     0.836495757  0.969827712  0.534267545
     0.245035097  0.083333343  0.084055893
     0.078368433  0.083333343  0.252167612
     0.911701739  0.083333343  0.420279443
     0.578368485  0.750000060  0.084055893
     0.411701858  0.750000060  0.252167612
     0.245035127  0.750000060  0.420279443
     0.578368485  0.416666716  0.084055893
     0.009572625  0.104443066  0.604616404
     0.182649612  0.239058375  0.534267545
     0.578368485  0.083333343  0.084055893
     0.221111059  0.046750784  0.534267545
     0.245035127  0.083333343  0.420279443
     0.163418531  0.335212380  0.886011779
     0.451880306  0.892904580  0.534267545
     0.578368366  0.750000060  0.420279443
     0.911701739  0.416666716  0.084055893
     0.048034191  0.912135422  0.604616404
     0.578368366  0.416666716  0.420279443
     0.911701739  0.083333343  0.084055893
     0.567264915  0.315981477  0.534267545
     0.578368366  0.083333343  0.420279443
     0.245035127  0.416666716  0.420279443
     0.067265034  0.315981507  0.674965203
     0.951880276  0.392904669  0.815662920
     0.578368545  0.250000000  0.252167612
     0.221111059  0.546750665  0.674965203
     0.105726480  0.623673856  0.815662920
     0.245035097  0.916666746  0.252167612
     0.682649493  0.239058435  0.674965203
     0.567264795  0.315981567  0.815662920
     0.951880395  0.392904580  0.534267545
     0.836495638  0.469827712  0.674965203
     0.721110940  0.546750844  0.815662920
     0.105726480  0.623673797  0.534267545
     0.990341783  0.700596929  0.674965203
     0.874957085  0.777520061  0.815662920
     0.411701798  0.583333433  0.420279443
     0.144187927  0.931366265  0.674965203
     0.028803229  0.008289337  0.815662920
     0.413418770  0.085212208  0.534267545
     0.298034072  0.162135333  0.674965203
     0.182649374  0.239058465  0.815662920
     0.745035052  0.083333343  0.252167612
     0.451880246  0.392904609  0.674965203
     0.336495519  0.469827741  0.815662920
     0.721111119  0.546750724  0.534267545
     0.605726421  0.623673856  0.674965203
     0.490341693  0.700596988  0.815662920
     0.911701739  0.750000060  0.420279443
     0.759572625  0.854443014  0.674965203
     0.644187868  0.931366146  0.815662920
     0.245035097  0.583333433  0.252167612
     0.913418710  0.085212342  0.674965203
     0.798034012  0.162135482  0.815662920
     0.578368545  0.583333433  0.252167612
     0.374957085  0.777520001  0.674965203
     0.661701858  0.166666672  0.168111786
     0.644188046  0.931366086  0.534267545
     0.528803349  0.008289099  0.674965203
     0.413418531  0.085212342  0.815662920
     0.394187927  0.181366086  0.604616404
     0.278803349  0.258289218  0.745314062
     0.911701739  0.750000060  0.084055893
     0.411701858  0.416666716  0.252167612
     0.894187927  0.181366205  0.745314062
     0.495035112  0.000000000  0.168111786
     0.163418889  0.335212231  0.604616404
     0.048034191  0.412135392  0.745314062
     0.932649493  0.489058524  0.886011779
     0.317265034  0.565981448  0.604616404
     0.201880217  0.642904639  0.745314062
     0.161701769  0.166666672  0.000000000
     0.778803468  0.258289158  0.604616404
     0.663418770  0.335212290  0.745314062
     0.548034012  0.412135422  0.886011779
     0.932649553  0.489058465  0.604616404
     0.817264855  0.565981567  0.745314062
     0.995035052  0.500000000  0.168111786
     0.086495638  0.719827652  0.604616404
     0.971111000  0.796750784  0.745314062
     0.161701739  0.333333343  0.168111786
     0.240341902  0.950596929  0.604616404
     0.124957085  0.027520061  0.745314062
     0.995035112  0.666666687  0.000000000
     0.548034191  0.412135333  0.604616404
     0.432649463  0.489058435  0.745314062
     0.317264795  0.565981567  0.886011779
     0.701880336  0.642904639  0.604616404
     0.586495638  0.719827712  0.745314062
     0.661701858  0.833333313  0.168111786
     0.855726480  0.873673797  0.604616404
     0.740341783  0.950596929  0.745314062
     0.161701739  0.000000000  0.168111786
     0.471111089  0.796750724  0.604616404
     0.355726361  0.873673916  0.745314062
     0.240341663  0.950596988  0.886011779
     0.624957263  0.027519941  0.604616404
     0.509572506  0.104443066  0.745314062
     0.995035112  0.333333343  0.000000000
     0.911701798  0.250000000  0.252167612
     0.259572506  0.354443103  0.674965203
     0.144187927  0.431366265  0.815662920
     0.990341842  0.200596869  0.534267545
     0.874957144  0.277520001  0.674965203
     0.759572446  0.354443133  0.815662920
     0.745035052  0.583333433  0.420279443
     0.028803349  0.508289278  0.674965203
     0.913418651  0.585212469  0.815662920
     0.298034191  0.662135422  0.534267545
     0.182649493  0.739058554  0.674965203
     0.067264795  0.815981686  0.815662920
     0.911701798  0.583333433  0.252167612
     0.490341812  0.200596899  0.674965203
     0.374957085  0.277520031  0.815662920
     0.745035052  0.916666746  0.420279443
     0.644187987  0.431366175  0.674965203
     0.528803289  0.508289278  0.815662920
     0.661701739  0.000000000  0.336223543
     0.798034072  0.662135482  0.674965203
     0.682649374  0.739058614  0.815662920
     0.067264915  0.815981507  0.534267545
     0.951880217  0.892904639  0.674965203
     0.836495519  0.969827771  0.815662920
     0.411701858  0.083333343  0.252167612
     0.105726480  0.123673908  0.674965203
     0.990341723  0.200597048  0.815662920
     0.245035097  0.250000000  0.252167612
     0.413418770  0.585212350  0.674965203
     0.995035052  0.166666672  0.168111786
     0.682649612  0.739058495  0.534267545
     0.567264915  0.815981627  0.674965203
     0.451880187  0.892904758  0.815662920
     0.911701739  0.416666716  0.420279443
     0.721111059  0.046750784  0.674965203
     0.605726361  0.123673908  0.815662920
     0.745035052  0.750000060  0.252167612
     0.336495638  0.969827712  0.674965203
     0.221110821  0.046750784  0.815662920
     0.201880455  0.142904535  0.604616404
     0.086495638  0.219827682  0.745314062
     0.971111000  0.296750814  0.886011779
     0.355726480  0.373673767  0.604616404
     0.240341663  0.450596929  0.745314062
     0.161701769  0.500000000  0.000000000
     0.971111178  0.296750695  0.604616404
     0.855726480  0.373673826  0.745314062
     0.828368425  0.333333343  0.168111786
     0.124957323  0.527519941  0.604616404
     0.009572744  0.604443073  0.745314062
     0.894187927  0.681366205  0.886011779
     0.278803587  0.758289218  0.604616404
     0.163418889  0.835212350  0.745314062
     0.495035112  0.666666687  0.168111786
     0.586495757  0.219827563  0.604616404
     0.471111029  0.296750695  0.745314062
     0.355726242  0.373673856  0.886011779
     0.740341902  0.450596869  0.604616404
     0.624957204  0.527520001  0.745314062
     0.661701798  0.333333343  0.000000000
     0.894188046  0.681366086  0.604616404
     0.778803349  0.758289218  0.745314062
     0.663418591  0.835212350  0.886011779
     0.745035052  0.416666716  0.252167612
     0.932649553  0.989058554  0.745314062
     0.995035052  0.833333313  0.168111786
     0.509572625  0.604443014  0.604616404
     0.394187927  0.681366146  0.745314062
     0.495035112  0.333333343  0.168111786
     0.663418770  0.835212231  0.604616404
     0.548034072  0.912135363  0.745314062
     0.495035112  0.166666672  0.000000000
     0.817265034  0.065981507  0.604616404
     0.701880336  0.142904758  0.745314062
     0.828368425  0.000000000  0.168111786
     0.432649553  0.989058375  0.604616404
     0.317264795  0.065981507  0.745314062
     0.201880097  0.142904639  0.886011779

  ion indices of the primitive-cell ions
   primitive index   ion index
                 1           1
                 2           2
                 3           3
                 4           4
                 5           5
                 6           6
                 7           7
                 8           8
                 9           9
                10          10
                11          11
                12          12
                13          13
                14          14
                15          15
                16          16
                17          17
                18          18
                19          19
                20          20
                21          21
                22          22
                23          23
                24          24
                25          25
                26          26
                27          27
                28          28
                29          29
                30          30
                31          31
                32          32
                33          33
                34          34
                35          35
                36          36
                37          37
                38          38
                39          39
                40          40
                41          41
                42          42
                43          43
                44          44
                45          45
                46          46
                47          47
                48          48
                49          49
                50          50
                51          51
                52          52
                53          53
                54          54
                55          55
                56          56
                57          57
                58          58
                59          59
                60          60
                61          61
                62          62
                63          63
                64          64
                65          65
                66          66
                67          67
                68          68
                69          69
                70          70
                71          71
                72          72
                73          73
                74          74
                75          75
                76          76
                77          77
                78          78
                79          79
                80          80
                81          81
                82          82
                83          83
                84          84
                85          85
                86          86
                87          87
                88          88
                89          89
                90          90
                91          91
                92          92
                93          93
                94          94
                95          95
                96          96
                97          97
                98          98
                99          99
               100         100
               101         101
               102         102
               103         103
               104         104
               105         105
               106         106
               107         107
               108         108
               109         109
               110         110
               111         111
               112         112
               113         113
               114         114
               115         115
               116         116
               117         117
               118         118
               119         119
               120         120
               121         121
               122         122
               123         123
               124         124
               125         125
               126         126
               127         127
               128         128
               129         129
               130         130
               131         131
               132         132
               133         133
               134         134
               135         135
               136         136
               137         137
               138         138
               139         139
               140         140
               141         141
               142         142
               143         143
               144         144
               145         145
               146         146
               147         147
               148         148
               149         149
               150         150
               151         151
               152         152
               153         153
               154         154
               155         155
               156         156
               157         157
               158         158
               159         159
               160         160
               161         161
               162         162
               163         163
               164         164
               165         165
               166         166
               167         167
               168         168
               169         169
               170         170
               171         171
               172         172
               173         173
               174         174
               175         175
               176         176
               177         177
               178         178
               179         179
               180         180
               181         181
               182         182
               183         183
               184         184
               185         185
               186         186
               187         187
               188         188
               189         189
               190         190
               191         191
               192         192
               193         193
               194         194
               195         195
               196         196
               197         197
               198         198
               199         199
               200         200
               201         201
               202         202
               203         203
               204         204
               205         205
               206         206
               207         207
               208         208
               209         209
               210         210
               211         211
               212         212
               213         213
               214         214
               215         215
               216         216
               217         217
               218         218
               219         219
               220         220
               221         221
               222         222
               223         223
               224         224
               225         225
               226         226
               227         227
               228         228
               229         229
               230         230
               231         231
               232         232
               233         233
               234         234
               235         235
               236         236
               237         237
               238         238
               239         239
               240         240
               241         241
               242         242
               243         243
               244         244
               245         245
               246         246
               247         247
               248         248
               249         249
               250         250
               251         251
               252         252
               253         253
               254         254
               255         255
               256         256
               257         257
               258         258
               259         259
               260         260
               261         261
               262         262
               263         263
               264         264

----------------------------------------------------------------------------------------

 
 
 KPOINTS: Automatic KPOINTS generated             

Automatic generation of k-mesh.
 Grid dimensions read from file:
 generate k-points for:    2    2    2

 Generating k-lattice:

  Cartesian coordinates                     Fractional coordinates (reciprocal lattice)
     0.025683700  0.000000000  0.000000000     0.500000000  0.000000000  0.000000000
     0.000000000  0.025683700  0.000000000     0.000000000  0.500000000  0.000000000
     0.000000000  0.000000000  0.025906396     0.000000000  0.000000000  0.500000000

  Length of vectors
     0.025683700  0.025683700  0.025906396

  Shift w.r.t. Gamma in fractional coordinates (k-lattice)
     0.000000000  0.000000000  0.000000000

 
 Subroutine IBZKPT returns following result:
 ===========================================
 
 Found      8 irreducible k-points:
 
 Following reciprocal coordinates:
            Coordinates               Weight
  0.000000  0.000000  0.000000      1.000000
  0.500000  0.000000  0.000000      1.000000
  0.000000  0.500000  0.000000      1.000000
  0.500000  0.500000  0.000000      1.000000
  0.000000  0.000000  0.500000      1.000000
  0.500000  0.000000  0.500000      1.000000
  0.000000  0.500000  0.500000      1.000000
  0.500000  0.500000  0.500000      1.000000
 
 Following cartesian coordinates:
            Coordinates               Weight
  0.000000  0.000000  0.000000      1.000000
  0.025684  0.000000  0.000000      1.000000
  0.000000  0.025684  0.000000      1.000000
  0.025684  0.025684  0.000000      1.000000
  0.000000  0.000000  0.025906      1.000000
  0.025684  0.000000  0.025906      1.000000
  0.000000  0.025684  0.025906      1.000000
  0.025684  0.025684  0.025906      1.000000
 
 -----------------------------------------------------------------------------
|                                                                             |
|           W    W    AA    RRRRR   N    N  II  N    N   GGGG   !!!           |
|           W    W   A  A   R    R  NN   N  II  NN   N  G    G  !!!           |
|           W    W  A    A  R    R  N N  N  II  N N  N  G       !!!           |
|           W WW W  AAAAAA  RRRRR   N  N N  II  N  N N  G  GGG   !            |
|           WW  WW  A    A  R   R   N   NN  II  N   NN  G    G                |
|           W    W  A    A  R    R  N    N  II  N    N   GGGG   !!!           |
|                                                                             |
|     The number of bands has been changed from the values supplied in        |
|     the INCAR file. This is a result of running the parallel version.       |
|     The orbitals not found in the WAVECAR file will be initialized with     |
|     random numbers, which is usually adequate. For correlated               |
|     calculations, however, you should redo the groundstate calculation.     |
|     I found NBANDS = 634. Now, NBANDS = 636.                                |
|                                                                             |
 -----------------------------------------------------------------------------



--------------------------------------------------------------------------------------------------------




 Dimension of arrays:
   k-points           NKPTS =      8   k-points in BZ     NKDIM =      8   number of bands    NBANDS=    636
   number of dos      NEDOS =    301   number of ions     NIONS =    264
   non local maximal  LDIM  =      5   non local SUM 2l+1 LMDIM =     13
   total plane-waves  NPLWV = ******
   max r-space proj   IRMAX =   4555   max aug-charges    IRDMAX= 210771
   dimension x,y,z NGX =   126 NGY =  126 NGZ =  126
   dimension x,y,z NGXF=   252 NGYF=  252 NGZF=  252
   support grid    NGXF=   504 NGYF=  504 NGZF=  504
   ions per type =             108 156
   NGX,Y,Z   is equivalent  to a cutoff of  10.76, 10.76, 10.85 a.u.
   NGXF,Y,Z  is equivalent  to a cutoff of  21.52, 21.52, 21.71 a.u.

 SYSTEM =  Si and Ge interface calculation         
 POSCAR =  Sn+Si                                   

 Startparameter for this run:
   NWRITE =      2    write-flag & timer
   PREC   = normal    normal or accurate (medium, high low for compatibility)
   ISTART =      0    job   : 0-new  1-cont  2-samecut
   ICHARG =      2    charge: 1-file 2-atom 10-const
   ISPIN  =      2    spin polarized calculation?
   LNONCOLLINEAR =      F non collinear calculations
   LSORBIT =      F    spin-orbit coupling
   INIWAV =      1    electr: 0-lowe 1-rand  2-diag
   LASPH  =      T    aspherical Exc in radial PAW
 Electronic Relaxation 1
   ENCUT  =  700.0 eV  51.45 Ry    7.17 a.u.  42.00 42.00 41.64*2*pi/ulx,y,z
   ENINI  =  700.0     initial cutoff
   ENAUG  =  900.0 eV  augmentation charge cutoff
   NELM   =    100;   NELMIN=  2; NELMDL= -5     # of ELM steps 
   EDIFF  = 0.1E-06   stopping-criterion for ELM
   LREAL  =      T    real-space projection
   NLSPLINE    = F    spline interpolate recip. space projectors
   LCOMPAT=      F    compatible to vasp.4.4
   GGA_COMPAT  = T    GGA compatible to vasp.4.4-vasp.4.6
   LMAXPAW     = -100 max onsite density
   LMAXMIX     =    6 max onsite mixed and CHGCAR
   VOSKOWN=      0    Vosko Wilk Nusair interpolation
   ROPT   =   -0.00050  -0.00050
 Ionic relaxation
   EDIFFG = 0.1E-05   stopping-criterion for IOM
   NSW    =      0    number of steps for IOM
   NBLOCK =      1;   KBLOCK =      1    inner block; outer block 
   IBRION =     -1    ionic relax: 0-MD 1-quasi-New 2-CG
   NFREE  =      0    steps in history (QN), initial steepest desc. (CG)
   ISIF   =      2    stress and relaxation
   IWAVPR =     10    prediction:  0-non 1-charg 2-wave 3-comb
   ISYM   =      2    0-nonsym 1-usesym 2-fastsym
   LCORR  =      T    Harris-Foulkes like correction to forces

   POTIM  = 0.5000    time-step for ionic-motion
   TEIN   =    0.0    initial temperature
   TEBEG  =    0.0;   TEEND  =   0.0 temperature during run
   SMASS  =  -3.00    Nose mass-parameter (am)
   estimated Nose-frequenzy (Omega)   =  0.10E-29 period in steps = 0.13E+47 mass=  -0.866E-26a.u.
   SCALEE = 1.0000    scale energy and forces
   NPACO  =    256;   APACO  = 10.0  distance and # of slots for P.C.
   PSTRESS=    0.0 pullay stress

  Mass of Ions in am
   POMASS = 118.71 28.09
  Ionic Valenz
   ZVAL   =   4.00  4.00
  Atomic Wigner-Seitz radii
   RWIGS  =  -1.00 -1.00
  virtual crystal weights 
   VCA    =   1.00  1.00
   NELECT =    1056.0000    total number of electrons
   NUPDOWN=       1.0000    fix difference up-down

 DOS related values:
   EMIN   =  10.00;   EMAX   =-10.00  energy-range for DOS
   EFERMI =   0.00;   METHOD = LEGACY      
   ISMEAR =     0;   SIGMA  =   0.01  broadening in eV -4-tet -1-fermi 0-gaus

 Electronic relaxation 2 (details)
   IALGO  =     38    algorithm
   LDIAG  =      T    sub-space diagonalisation (order eigenvalues)
   LSUBROT=      F    optimize rotation matrix (better conditioning)
   TURBO    =      0    0=normal 1=particle mesh
   IRESTART =      0    0=no restart 2=restart with 2 vectors
   NREBOOT  =      0    no. of reboots
   NMIN     =      0    reboot dimension
   EREF     =   0.00    reference energy to select bands
   IMIX   =      4    mixing-type and parameters
     AMIX     =   0.60;   BMIX     =  1.00
     AMIX_MAG =   2.40;   BMIX_MAG =  1.00
     AMIN     =   0.10
     WC   =   100.;   INIMIX=   1;  MIXPRE=   1;  MAXMIX= -45

 Intra band minimization:
   WEIMIN = 0.0000     energy-eigenvalue tresh-hold
   EBREAK =  0.39E-10  absolut break condition
   DEPER  =   0.30     relativ break condition  

   TIME   =   0.40     timestep for ELM

  volume/ion in A,a.u.               =      27.71       186.97
  Fermi-wavevector in a.u.,A,eV,Ry     =   0.858816  1.622927 10.035183  0.737565
  Thomas-Fermi vector in A             =   1.976078
 
 Write flags
   LWAVE        =      F    write WAVECAR
   LDOWNSAMPLE  =      F    k-point downsampling of WAVECAR
   LCHARG       =      T    write CHGCAR
   LVTOT        =      F    write LOCPOT, total local potential
   LVHAR        =      T    write LOCPOT, Hartree potential only
   WRT_POTENTIAL=  hartree ionic  ! write potential to hdf5 file
   LELF         =      F    write electronic localiz. function (ELF)
   LORBIT       =      0    0 simple, 1 ext, 2 COOP (PROOUT), +10 PAW based schemes


 Dipole corrections
   LMONO      =      F    monopole corrections only (constant potential shift)
   LDIPOL     =      F    correct potential (dipole corrections)
   IDIPOL     =      0    1-x, 2-y, 3-z, 4-all directions 
   EPSILON    =  1.0000000 bulk dielectric constant
   LVACPOTAV  =      F  vacuum potentials using an averaging scheme for the charge density
   VACPOTFLAT =  0.1000000 required flatness to determine vacuum potential
 Exchange correlation treatment:
   GGA     = PE    functional components
   XC_C    = 1    coefficients multiplying the functional components
   LIBXC   =     F    Libxc                    
   VOSKOWN =     0    Vosko Wilk Nusair interpolation
   LHFCALC =     F    Hartree Fock is set to
   LHFONE  =     F    Hartree Fock one center treatment
   AEXX    =    0.0000 exact exchange contribution

 Parameters of functionals:
   PE:
     No parameter
 
 Van der Waals corrections
   IVDW    =     0    specifies the selected vdW correction

 Linear response parameters
   LEPSILON=     F    determine dielectric tensor
   LRPA    =     F    only Hartree local field effects (RPA)
   LNABLA  =     F    use nabla operator in PAW spheres
   LVEL    =     F    velocity operator in full k-point grid
   CSHIFT  =0.1000    complex shift for real part using Kramers Kronig
   OMEGAMAX=  -1.0    maximum frequency
   DEG_THRESHOLD= 0.2000000E-02 threshold for treating states as degnerate
   RTIME   =   -0.100 relaxation time in fs
  (WPLASMAI=    0.000 imaginary part of plasma frequency in eV, 0.658/RTIME)
   DFIELD  = 0.0000000 0.0000000 0.0000000 field for delta impulse in time
 
  Optional k-point grid parameters
   LKPOINTS_OPT  =     F    use optional k-point grid
   KPOINTS_OPT_MODE=     1    mode for optional k-point grid
 
 Orbital magnetization related:
   ORBITALMAG=     F  switch on orbital magnetization
   LCHIMAG   =     F  perturbation theory with respect to B field
   DQ        =  0.001000  dq finite difference perturbation B field
   LLRAUG    =     F  two centre corrections for induced B field
   LBONE     =     F  B-component reconstruction in AE one-centre
   LVGVCALC  =     T  calculate vGv susceptibility
   LVGVAPPL  =     F  apply vGv susceptibility instead of pGv for G=0

 Random number generation:
   RANDOM_GENERATOR = DEFAULT
   PCG_SEED         = not used


--------------------------------------------------------------------------------------------------------


 Static calculation
 charge density and potential will be updated during run
 spin polarized calculation
 Variant of blocked Davidson
 Davidson routine will perform the subspace rotation
 perform sub-space diagonalisation
    after iterative eigenvector-optimisation
 modified Broyden-mixing scheme, WC =      100.0
 initial mixing is a Kerker type mixing with AMIX =  0.6000 and BMIX =      1.0000
 Hartree-type preconditioning will be used
 using additional bands          108
 real space projection scheme for non local part
 use partial core corrections
 calculate Harris-corrections to forces 
   (improved forces if not selfconsistent)
 use gradient corrections 
 use of overlap-Matrix (Vanderbilt PP)
 Gauss-broadening in eV      SIGMA  =   0.01


--------------------------------------------------------------------------------------------------------


  energy-cutoff  :      700.00
  volume of cell :     7314.55
      direct lattice vectors                 reciprocal lattice vectors
    19.467599869  0.000000000  0.000000000     0.051367401  0.000000000  0.000000000
     0.000000000 19.467599869  0.000000000     0.000000000  0.051367401  0.000000000
     0.000000000  0.000000000 19.300252914     0.000000000  0.000000000  0.051812793

  length of vectors
    19.467599869 19.467599869 19.300252914     0.051367401  0.051367401  0.051812793


 
 k-points in units of 2pi/SCALE and weight: Automatic KPOINTS generated             
   0.00000000  0.00000000  0.00000000       0.125
   0.02568370  0.00000000  0.00000000       0.125
   0.00000000  0.02568370  0.00000000       0.125
   0.02568370  0.02568370  0.00000000       0.125
   0.00000000  0.00000000  0.02590640       0.125
   0.02568370  0.00000000  0.02590640       0.125
   0.00000000  0.02568370  0.02590640       0.125
   0.02568370  0.02568370  0.02590640       0.125
 
 k-points in reciprocal lattice and weights: Automatic KPOINTS generated             
   0.00000000  0.00000000  0.00000000       0.125
   0.50000000  0.00000000  0.00000000       0.125
   0.00000000  0.50000000  0.00000000       0.125
   0.50000000  0.50000000  0.00000000       0.125
   0.00000000  0.00000000  0.50000000       0.125
   0.50000000  0.00000000  0.50000000       0.125
   0.00000000  0.50000000  0.50000000       0.125
   0.50000000  0.50000000  0.50000000       0.125
 
 position of ions in fractional coordinates (direct lattice) 
   0.00957251  0.10444319  0.88601178
   0.82836843  0.66666669  0.16811179
   0.66170174  0.66666669  0.33622354
   0.39418781  0.18136621  0.88601178
   0.74034178  0.45059699  0.88601178
   0.66170174  0.33333334  0.33622354
   0.99503511  0.00000000  0.00000000
   0.58649558  0.21982789  0.88601178
   0.91341883  0.58521235  0.53426754
   0.32836846  0.66666669  0.00000000
   0.16170174  0.66666669  0.16811179
   0.99503511  0.66666669  0.33622354
   0.32836846  0.33333334  0.00000000
   0.85572624  0.87367392  0.88601178
   0.99503511  0.33333334  0.33622354
   0.32836846  0.00000000  0.00000000
   0.62495703  0.02752006  0.88601178
   0.99503511  0.00000000  0.33622354
   0.66170180  0.66666669  0.00000000
   0.04803419  0.91213548  0.88601178
   0.32836846  0.66666669  0.33622354
   0.50957251  0.60444313  0.88601178
   0.27880311  0.75828928  0.88601178
   0.32836846  0.33333334  0.33622354
   0.66170180  0.00000000  0.00000000
   0.77880323  0.25828934  0.88601178
   0.32836846  0.00000000  0.33622354
   0.07836843  0.91666675  0.08405589
   0.91170180  0.91666675  0.25216761
   0.75957269  0.35444304  0.53426754
   0.07836843  0.58333343  0.08405589
   0.60572648  0.12367377  0.53426754
   0.14418817  0.43136618  0.53426754
   0.07836843  0.25000000  0.08405589
   0.37495732  0.27751997  0.53426754
   0.74503505  0.25000000  0.42027944
   0.41170177  0.91666675  0.08405589
   0.79803419  0.16213530  0.53426754
   0.07836838  0.91666675  0.42027944
   0.41170177  0.58333343  0.08405589
   0.02880335  0.00828922  0.53426754
   0.07836838  0.58333343  0.42027944
   0.41170177  0.25000000  0.08405589
   0.52880341  0.50828922  0.53426754
   0.07836838  0.25000000  0.42027944
   0.74503517  0.91666675  0.08405589
   0.57836855  0.91666675  0.25216761
   0.41170180  0.91666675  0.42027944
   0.74503517  0.58333343  0.08405589
   0.49034184  0.70059687  0.53426754
   0.25957262  0.85444313  0.53426754
   0.74503517  0.25000000  0.08405589
   0.33649588  0.46982759  0.53426754
   0.41170180  0.25000000  0.42027944
   0.16170177  0.83333331  0.00000000
   0.81726479  0.06598163  0.88601178
   0.82836843  0.83333331  0.33622354
   0.12495697  0.52752006  0.88601178
   0.70188010  0.64290476  0.88601178
   0.82836843  0.50000000  0.33622354
   0.08649552  0.71982777  0.88601178
   0.29803395  0.66213548  0.81566292
   0.82836843  0.16666667  0.33622354
   0.49503511  0.83333331  0.00000000
   0.32836843  0.83333331  0.16811179
   0.16170175  0.83333331  0.33622354
   0.49503511  0.50000000  0.00000000
   0.32836843  0.50000000  0.16811179
   0.16170175  0.50000000  0.33622354
   0.43264934  0.98905855  0.88601178
   0.32836843  0.16666667  0.16811179
   0.16170175  0.16666667  0.33622354
   0.82836855  0.83333331  0.00000000
   0.47111088  0.79675090  0.88601178
   0.49503520  0.83333331  0.33622354
   0.82836855  0.50000000  0.00000000
   0.66170186  0.50000000  0.16811179
   0.49503520  0.50000000  0.33622354
   0.82836855  0.16666667  0.00000000
   0.25957251  0.85444319  0.81566292
   0.49503520  0.16666667  0.33622354
   0.24503510  0.75000006  0.08405589
   0.07836843  0.75000006  0.25216761
   0.87495732  0.77751988  0.53426754
   0.24503510  0.41666672  0.08405589
   0.07836843  0.41666672  0.25216761
   0.83649576  0.96982771  0.53426754
   0.24503510  0.08333334  0.08405589
   0.07836843  0.08333334  0.25216761
   0.91170174  0.08333334  0.42027944
   0.57836848  0.75000006  0.08405589
   0.41170186  0.75000006  0.25216761
   0.24503513  0.75000006  0.42027944
   0.57836848  0.41666672  0.08405589
   0.00957262  0.10444307  0.60461640
   0.18264961  0.23905837  0.53426754
   0.57836848  0.08333334  0.08405589
   0.22111106  0.04675078  0.53426754
   0.24503513  0.08333334  0.42027944
   0.16341853  0.33521238  0.88601178
   0.45188031  0.89290458  0.53426754
   0.57836837  0.75000006  0.42027944
   0.91170174  0.41666672  0.08405589
   0.04803419  0.91213542  0.60461640
   0.57836837  0.41666672  0.42027944
   0.91170174  0.08333334  0.08405589
   0.56726492  0.31598148  0.53426754
   0.57836837  0.08333334  0.42027944
   0.24503513  0.41666672  0.42027944
   0.06726503  0.31598151  0.67496520
   0.95188028  0.39290467  0.81566292
   0.57836855  0.25000000  0.25216761
   0.22111106  0.54675066  0.67496520
   0.10572648  0.62367386  0.81566292
   0.24503510  0.91666675  0.25216761
   0.68264949  0.23905843  0.67496520
   0.56726479  0.31598157  0.81566292
   0.95188040  0.39290458  0.53426754
   0.83649564  0.46982771  0.67496520
   0.72111094  0.54675084  0.81566292
   0.10572648  0.62367380  0.53426754
   0.99034178  0.70059693  0.67496520
   0.87495708  0.77752006  0.81566292
   0.41170180  0.58333343  0.42027944
   0.14418793  0.93136627  0.67496520
   0.02880323  0.00828934  0.81566292
   0.41341877  0.08521221  0.53426754
   0.29803407  0.16213533  0.67496520
   0.18264937  0.23905846  0.81566292
   0.74503505  0.08333334  0.25216761
   0.45188025  0.39290461  0.67496520
   0.33649552  0.46982774  0.81566292
   0.72111112  0.54675072  0.53426754
   0.60572642  0.62367386  0.67496520
   0.49034169  0.70059699  0.81566292
   0.91170174  0.75000006  0.42027944
   0.75957262  0.85444301  0.67496520
   0.64418787  0.93136615  0.81566292
   0.24503510  0.58333343  0.25216761
   0.91341871  0.08521234  0.67496520
   0.79803401  0.16213548  0.81566292
   0.57836855  0.58333343  0.25216761
   0.37495708  0.77752000  0.67496520
   0.66170186  0.16666667  0.16811179
   0.64418805  0.93136609  0.53426754
   0.52880335  0.00828910  0.67496520
   0.41341853  0.08521234  0.81566292
   0.39418793  0.18136609  0.60461640
   0.27880335  0.25828922  0.74531406
   0.91170174  0.75000006  0.08405589
   0.41170186  0.41666672  0.25216761
   0.89418793  0.18136621  0.74531406
   0.49503511  0.00000000  0.16811179
   0.16341889  0.33521223  0.60461640
   0.04803419  0.41213539  0.74531406
   0.93264949  0.48905852  0.88601178
   0.31726503  0.56598145  0.60461640
   0.20188022  0.64290464  0.74531406
   0.16170177  0.16666667  0.00000000
   0.77880347  0.25828916  0.60461640
   0.66341877  0.33521229  0.74531406
   0.54803401  0.41213542  0.88601178
   0.93264955  0.48905846  0.60461640
   0.81726485  0.56598157  0.74531406
   0.99503505  0.50000000  0.16811179
   0.08649564  0.71982765  0.60461640
   0.97111100  0.79675078  0.74531406
   0.16170174  0.33333334  0.16811179
   0.24034190  0.95059693  0.60461640
   0.12495708  0.02752006  0.74531406
   0.99503511  0.66666669  0.00000000
   0.54803419  0.41213533  0.60461640
   0.43264946  0.48905843  0.74531406
   0.31726479  0.56598157  0.88601178
   0.70188034  0.64290464  0.60461640
   0.58649564  0.71982771  0.74531406
   0.66170186  0.83333331  0.16811179
   0.85572648  0.87367380  0.60461640
   0.74034178  0.95059693  0.74531406
   0.16170174  0.00000000  0.16811179
   0.47111109  0.79675072  0.60461640
   0.35572636  0.87367392  0.74531406
   0.24034166  0.95059699  0.88601178
   0.62495726  0.02751994  0.60461640
   0.50957251  0.10444307  0.74531406
   0.99503511  0.33333334  0.00000000
   0.91170180  0.25000000  0.25216761
   0.25957251  0.35444310  0.67496520
   0.14418793  0.43136627  0.81566292
   0.99034184  0.20059687  0.53426754
   0.87495714  0.27752000  0.67496520
   0.75957245  0.35444313  0.81566292
   0.74503505  0.58333343  0.42027944
   0.02880335  0.50828928  0.67496520
   0.91341865  0.58521247  0.81566292
   0.29803419  0.66213542  0.53426754
   0.18264949  0.73905855  0.67496520
   0.06726479  0.81598169  0.81566292
   0.91170180  0.58333343  0.25216761
   0.49034181  0.20059690  0.67496520
   0.37495708  0.27752003  0.81566292
   0.74503505  0.91666675  0.42027944
   0.64418799  0.43136618  0.67496520
   0.52880329  0.50828928  0.81566292
   0.66170174  0.00000000  0.33622354
   0.79803407  0.66213548  0.67496520
   0.68264937  0.73905861  0.81566292
   0.06726492  0.81598151  0.53426754
   0.95188022  0.89290464  0.67496520
   0.83649552  0.96982777  0.81566292
   0.41170186  0.08333334  0.25216761
   0.10572648  0.12367391  0.67496520
   0.99034172  0.20059705  0.81566292
   0.24503510  0.25000000  0.25216761
   0.41341877  0.58521235  0.67496520
   0.99503505  0.16666667  0.16811179
   0.68264961  0.73905850  0.53426754
   0.56726492  0.81598163  0.67496520
   0.45188019  0.89290476  0.81566292
   0.91170174  0.41666672  0.42027944
   0.72111106  0.04675078  0.67496520
   0.60572636  0.12367391  0.81566292
   0.74503505  0.75000006  0.25216761
   0.33649564  0.96982771  0.67496520
   0.22111082  0.04675078  0.81566292
   0.20188046  0.14290453  0.60461640
   0.08649564  0.21982768  0.74531406
   0.97111100  0.29675081  0.88601178
   0.35572648  0.37367377  0.60461640
   0.24034166  0.45059693  0.74531406
   0.16170177  0.50000000  0.00000000
   0.97111118  0.29675070  0.60461640
   0.85572648  0.37367383  0.74531406
   0.82836843  0.33333334  0.16811179
   0.12495732  0.52751994  0.60461640
   0.00957274  0.60444307  0.74531406
   0.89418793  0.68136621  0.88601178
   0.27880359  0.75828922  0.60461640
   0.16341889  0.83521235  0.74531406
   0.49503511  0.66666669  0.16811179
   0.58649576  0.21982756  0.60461640
   0.47111103  0.29675070  0.74531406
   0.35572624  0.37367386  0.88601178
   0.74034190  0.45059687  0.60461640
   0.62495720  0.52752000  0.74531406
   0.66170180  0.33333334  0.00000000
   0.89418805  0.68136609  0.60461640
   0.77880335  0.75828922  0.74531406
   0.66341859  0.83521235  0.88601178
   0.74503505  0.41666672  0.25216761
   0.93264955  0.98905855  0.74531406
   0.99503505  0.83333331  0.16811179
   0.50957262  0.60444301  0.60461640
   0.39418793  0.68136615  0.74531406
   0.49503511  0.33333334  0.16811179
   0.66341877  0.83521223  0.60461640
   0.54803407  0.91213536  0.74531406
   0.49503511  0.16666667  0.00000000
   0.81726503  0.06598151  0.60461640
   0.70188034  0.14290476  0.74531406
   0.82836843  0.00000000  0.16811179
   0.43264955  0.98905837  0.60461640
   0.31726479  0.06598151  0.74531406
   0.20188010  0.14290464  0.88601178
 
 position of ions in cartesian coordinates  (Angst):
   0.18635372  2.03325813 17.10025142
  16.12634504 12.97840031  3.24459999
  12.88174469 12.97840031  6.48919942
   7.67389052  3.53076471 17.10025142
  14.41267760  8.77204186 17.10025142
  12.88174469  6.48920014  6.48919942
  19.37094542  0.00000000  0.00000000
  11.41766124  4.27952140 17.10025142
  17.78207228 11.39267987 10.31149874
   6.39254569 12.97840031  0.00000000
   3.14794475 12.97840031  3.24459999
  19.37094542 12.97840031  6.48919942
   6.39254569  6.48920014  0.00000000
  16.65893608 17.00833421 17.10025142
  19.37094542  6.48920014  6.48919942
   6.39254569  0.00000000  0.00000000
  12.16641330  0.53574954 17.10025142
  19.37094542  0.00000000  6.48919942
  12.88174584 12.97840031  0.00000000
   0.93511041 17.75708859 17.10025142
   6.39254569 12.97840031  6.48919942
   9.92015365 11.76705706 17.10025142
   5.42762739 14.76207225 17.10025142
   6.39254569  6.48920014  6.48919942
  12.88174584  0.00000000  0.00000000
  15.16142964  5.02827346 17.10025142
   6.39254569  0.00000000  6.48919942
   1.52564530 17.84530142  1.62229999
  17.74864580 17.84530142  4.86689869
  14.78705710  6.90015534 10.31149874
   1.52564530 11.35610186  1.62229999
  11.79204074  2.40763141 10.31149874
   2.80699752  8.39766409 10.31149874
   1.52564530  4.86689997  1.62229999
   7.29951913  5.40264775 10.31149874
  14.50404428  4.86689997  8.11149954
   8.01484530 17.84530142  1.62229999
  15.53581031  3.15638520 10.31149874
   1.52564428 17.84530142  8.11149954
   8.01484530 11.35610186  1.62229999
   0.56073207  0.16137118 10.31149874
   1.52564428 11.35610186  8.11149954
   8.01484530  4.86689997  1.62229999
  10.29453316  9.89517111 10.31149874
   1.52564428  4.86689997  8.11149954
  14.50404662 17.84530142  1.62229999
  11.25944741 17.84530142  4.86689869
   8.01484587 17.84530142  8.11149954
  14.50404662 11.35610186  1.62229999
   9.54577878 13.63893952 10.31149874
   5.05325600 16.63395702 10.31149874
  14.50404662  4.86689997  1.62229999
   6.55076707  9.14641557 10.31149874
   8.01484587  4.86689997  8.11149954
   3.14794534 16.22299949  0.00000000
  15.91018402  1.28450391 17.10025142
  16.12634504 16.22299949  6.48919942
   2.43261220 10.26954947 17.10025142
  13.66392088 12.51581258 17.10025142
  16.12634504  9.73379993  6.48919942
   1.68386015 14.01331902 17.10025142
   5.80200574 12.89018862 15.74250065
  16.12634504  3.24460008  6.48919942
   9.63714548 16.22299949  0.00000000
   6.39254511 16.22299949  3.24459999
   3.14794504 16.22299949  6.48919942
   9.63714548  9.73379993  0.00000000
   6.39254511  9.73379993  3.24459999
   3.14794504  9.73379993  6.48919942
   8.42264431 19.25459618 17.10025142
   6.39254511  3.24460008  3.24459999
   3.14794504  3.24460008  6.48919942
  16.12634738 16.22299949  0.00000000
   9.17139811 15.51082777 17.10025142
   9.63714721 16.22299949  6.48919942
  16.12634738  9.73379993  0.00000000
  12.88174700  9.73379993  3.24459999
   9.63714721  9.73379993  6.48919942
  16.12634738  3.24460008  0.00000000
   5.05325368 16.63395817 15.74250065
   9.63714721  3.24460008  6.48919942
   4.77024522 14.60070107  1.62229999
   1.52564530 14.60070107  4.86689869
  17.03331907 15.13644595 10.31149874
   4.77024522  8.11150091  1.62229999
   1.52564530  8.11150091  4.86689869
  16.28456469 18.88021784 10.31149874
   4.77024522  1.62230018  1.62229999
   1.52564530  1.62230018  4.86689869
  17.74864465  1.62230018  8.11149954
  11.25944624 14.60070107  1.62229999
   8.01484704 14.60070107  4.86689869
   4.77024581 14.60070107  8.11149954
  11.25944624  8.11150091  1.62229999
   0.18635603  2.03325582 11.66924951
   3.55574956  4.65389279 10.31149874
  11.25944624  1.62230018  1.62229999
   4.30450162  0.91012556 10.31149874
   4.77024581  1.62230018  8.11149954
   3.18136657  6.52578048 17.10025142
   8.79702499 17.38270908 10.31149874
[...]
      6.55077      9.14642     10.31150        -0.051193      0.359830     -4.378183
      8.01485      4.86690      8.11150         1.435447     -0.943376     -4.486709
      3.14795     16.22300      0.00000         0.005268     -0.060786     -1.342369
     15.91018      1.28450     17.10025         0.120530      0.389108      3.326246
     16.12635     16.22300      6.48920        -0.397569     -0.858251      0.598102
      2.43261     10.26955     17.10025        -0.642307     -0.071704      1.371579
     13.66392     12.51581     17.10025         1.826643     -0.455171     -1.716750
     16.12635      9.73380      6.48920        -0.263697      0.106290      0.169676
      1.68386     14.01332     17.10025        -0.194273      0.172279      4.275298
      5.80201     12.89019     15.74250         0.403447     -3.316344     -2.318740
     16.12635      3.24460      6.48920         0.085313      0.102325     -1.575352
      9.63715     16.22300      0.00000         1.451588      1.515312      4.854975
      6.39255     16.22300      3.24460        -0.503681      0.542275      0.701066
      3.14795     16.22300      6.48920         0.597679      0.659524     -0.815808
      9.63715      9.73380      0.00000         0.043257     -0.197412     -0.943216
      6.39255      9.73380      3.24460        -0.022897      0.096177      1.369715
      3.14795      9.73380      6.48920         1.556232      0.082578      0.064632
      8.42264     19.25460     17.10025         0.204535      0.572097      3.439092
      6.39255      3.24460      3.24460        -0.036407     -0.033032      1.253480
      3.14795      3.24460      6.48920         0.450880      0.455659     -0.574243
     16.12635     16.22300      0.00000        -0.817590     -2.050368      4.524619
      9.17140     15.51083     17.10025        -1.180444     -1.595416     -2.131354
      9.63715     16.22300      6.48920        -0.177170      0.149089     -0.010102
     16.12635      9.73380      0.00000         0.519298     -0.397094     -1.288373
     12.88175      9.73380      3.24460         0.059810     -0.098597      1.345875
      9.63715      9.73380      6.48920        -0.779730      0.541080     -0.928124
     16.12635      3.24460      0.00000         0.117373     -0.037259     -0.438325
      5.05325     16.63396     15.74250        -0.195223      3.256210     -1.704565
      9.63715      3.24460      6.48920         0.128434     -0.062207     -1.053967
      4.77025     14.60070      1.62230        -0.106855     -0.102570      0.351862
      1.52565     14.60070      4.86690        -0.684680      0.720092     -0.727480
     17.03332     15.13645     10.31150        -0.640040     -0.057126     -1.378741
      4.77025      8.11150      1.62230        -1.070982     -0.097060     -0.163959
      1.52565      8.11150      4.86690        -0.052810     -0.011281     -1.262475
     16.28456     18.88022     10.31150        -0.191854      0.181327     -4.268246
      4.77025      1.62230      1.62230        -1.468078      0.133600     -0.115613
      1.52565      1.62230      4.86690         0.124516     -0.068623     -1.342545
     17.74864      1.62230      8.11150        -0.010037     -0.058038      1.316679
     11.25945     14.60070      1.62230        -0.136336      0.066006      0.983583
      8.01485     14.60070      4.86690         0.688213     -0.739239     -0.705826
      4.77025     14.60070      8.11150         0.034373     -0.215379      0.939612
     11.25945      8.11150      1.62230         0.097774     -1.221520      0.250439
      0.18636      2.03326     11.66925        -0.217348      3.281531      1.704605
      3.55575      4.65389     10.31150         0.224470      0.562770     -3.453942
     11.25945      1.62230      1.62230        -0.400675      0.461308      0.706866
      4.30450      0.91013     10.31150        -1.173394     -1.585464      2.111192
      4.77025      1.62230      8.11150         1.470383      1.518488     -4.840980
      3.18137      6.52578     17.10025         0.000220     -0.086381      3.992382
      8.79702     17.38271     10.31150         1.837566     -0.466817      1.769012
     11.25944     14.60070      8.11150         0.524138     -0.396690      1.300151
     17.74864      8.11150      1.62230         0.308221     -0.669266      0.561967
      0.93511     17.75709     11.66925         0.431273     -3.343958      2.317464
     11.25944      8.11150      8.11150         0.127011     -0.039876      0.418868
     17.74864      1.62230      1.62230        -0.042293      0.041062      1.449831
     11.04329      6.15140     10.31150         0.116969      0.378458     -3.316187
     11.25944      1.62230      8.11150        -0.811306     -2.058935     -4.539813
      4.77025      8.11150      8.11150        -0.235616      0.676681      0.624114
      1.30949      6.15140     13.02700         0.003484      0.105602      0.081232
     18.53082      7.64891     15.74250        -0.366715     -0.052975      0.433183
     11.25945      4.86690      4.86690        -0.053063      0.061685     -0.947760
      4.30450     10.64392     13.02700        -0.057096      0.048856      0.094927
      2.05824     12.14143     15.74250         0.065336     -0.054434     -2.578304
      4.77025     17.84530      4.86690        -0.350202      0.367175     -0.521394
     13.28955      4.65389     13.02700         0.069828     -0.070618      0.133839
     11.04328      6.15140     15.74250        -0.903682      2.281196     -1.258737
     18.53083      7.64891     10.31150         0.046224      0.773195     -0.414038
     16.28456      9.14642     13.02700         0.038503     -0.022025      0.114425
     14.03830     10.64393     15.74250        -0.096979      0.074466     -2.592436
      2.05824     12.14143     10.31150         0.632145      0.321336      1.640180
     19.27958     13.63894     13.02700         0.010869      0.003854      0.100953
     17.03331     15.13645     15.74250         0.863810     -2.246757     -1.306391
      8.01485     11.35610      8.11150        -0.027962     -0.001702      0.472507
      2.80699     18.13147     13.02700         2.210585      0.513782      1.743563
      0.56073      0.16137     15.74250         0.223060      0.071462     -3.300784
      8.04827      1.65888     10.31150         0.036766      0.005992     -0.760358
      5.80201      3.15639     13.02700         0.082276      0.047078      0.024386
      3.55574      4.65389     15.74250         0.331417     -2.397846     -1.325069
     14.50404      1.62230      4.86690        -0.553423     -0.378761     -0.514362
      8.79702      7.64891     13.02700         0.110786     -0.030778      0.144200
      6.55076      9.14642     15.74250        -0.245829      0.012312      0.676551
     14.03830     10.64392     10.31150        -0.186931      0.469123     -0.403572
     11.79204     12.14143     13.02700         0.058979     -0.053231      0.129998
      9.54578     13.63894     15.74250         0.202910      0.137385     -2.502981
     17.74864     14.60070      8.11150         0.285169      0.005853     -2.472131
     14.78706     16.63395     13.02700        -0.051122     -0.041077      0.085144
     12.54079     18.13146     15.74250         0.591150     -2.400709     -1.545448
      4.77025     11.35610      4.86690        -0.114907      0.088459     -0.047705
     17.78207      1.65888     13.02700        -2.289791     -0.458701      1.651108
     15.53581      3.15639     15.74250        -0.206404     -0.055022     -3.275230
     11.25945     11.35610      4.86690        -0.286930      0.350076     -0.496324
      7.29951     15.13645     13.02700        -0.024234      0.043327      0.053420
     12.88175      3.24460      3.24460        -0.100124      0.098334      0.982040
     12.54080     18.13146     10.31150         0.202531     -0.737570     -0.979460
     10.29453      0.16137     13.02700        -0.029971     -0.115413      0.040849
      8.04827      1.65888     15.74250        -0.000407      0.001575     -2.992799
      7.67389      3.53076     11.66925         0.585307     -2.402039      1.530274
      5.42763      5.02827     14.38475        -0.023253     -0.115012     -0.007265
     17.74864     14.60070      1.62230         1.098196      0.121227     -0.117874
      8.01485      8.11150      4.86690         0.331992     -0.331123     -0.568363
     17.40769      3.53076     14.38475        -0.134386      0.116672     -0.053620
      9.63715      0.00000      3.24460        -0.382032      0.491985      0.404638
      3.18137      6.52578     11.66925        -0.002895     -0.007918      2.988965
      0.93511      8.02329     14.38475         0.029990      0.036006      0.008884
     18.15645      9.52080     17.10025         0.022839      0.663280      0.703372
      6.17639     11.01830     11.66925        -0.901332      2.291563      1.273929
      3.93012     12.51581     14.38475        -2.226873     -0.536126     -1.790330
      3.14795      3.24460      0.00000         0.378563     -0.546948      0.051663
     15.16143      5.02827     11.66925         0.237064      0.069468      3.279651
     12.91517      6.52578     14.38475        -0.006711     -0.003771      0.002707
     10.66891      8.02329     17.10025         0.055145      0.514367      0.452588
     18.15645      9.52079     11.66925         0.343756     -2.393603      1.340408
     15.91019     11.01830     14.38475         0.059445      0.070463     -0.082353
     19.37094      9.73380      3.24460        -0.340187      0.419092      0.400079
      1.68386     14.01332     11.66925        -0.246770      0.016461     -0.702052
     18.90520     15.51083     14.38475        -0.099533     -0.001340     -0.122459
      3.14794      6.48920      3.24460         0.421933     -0.408156      0.402794
      4.67888     18.50584     11.66925         0.210806      0.137408      2.518068
      2.43261      0.53575     14.38475         0.015477      0.056615     -0.032577
     19.37095     12.97840      0.00000        -0.893505      1.141912     -0.507543
     10.66891      8.02329     11.66925        -0.205796     -0.060985      3.295786
      8.42265      9.52079     14.38475         0.079277     -0.079393     -0.040680
      6.17638     11.01830     17.10025         0.592371     -1.570670      2.228425
     13.66393     12.51581     11.66925        -0.350833     -0.046048     -0.436685
     11.41766     14.01332     14.38475         0.055935     -0.012842     -0.150250
     12.88175     16.22300      3.24460         0.412351     -0.414859      0.445592
     16.65894     17.00833     11.66925         0.068472     -0.059409      2.577802
     14.41268     18.50584     14.38475        -0.043835      0.025687     -0.173423
      3.14794      0.00000      3.24460         0.468624     -0.528657      0.523566
      9.17140     15.51082     11.66925        -0.101424      0.069947      2.584092
      6.92514     17.00833     14.38475         2.344755      0.447885     -1.839060
      4.67888     18.50584     17.10025        -0.454311      2.243487      2.644760
     12.16642      0.53575     11.66925         0.881201     -2.243328      1.332202
      9.92015      2.03326     14.38475        -0.029629     -0.027004     -0.135376
     19.37095      6.48920      0.00000         0.420174     -0.339124      0.058935
     17.74865      4.86690      4.86690         0.038884     -0.085028     -0.956282
      5.05325      6.90016     13.02700        -0.045086     -0.008787      0.141015
      2.80699      8.39767     15.74250         0.107899      0.020770     -3.054089
     19.27958      3.90514     10.31150        -0.471951      2.239650     -2.635313
     17.03332      5.40265     13.02700        -0.082641      0.046070      0.080049
     14.78705      6.90016     15.74250         0.385107      0.058991     -2.733328
     14.50404     11.35610      8.11150         0.408765     -0.332526     -0.077895
      0.56073      9.89517     13.02700        -0.011617     -0.102244      0.011101
     17.78207     11.39268     15.74250        -0.007856     -0.028324      0.241088
      5.80201     12.89019     10.31150         0.049917      0.489615     -0.457618
      3.55575     14.38770     13.02700         0.004521     -0.099266     -0.002557
      1.30948     15.88520     15.74250        -0.458647     -0.032694     -2.840010
     17.74865     11.35610      4.86690         0.423860     -0.402963     -0.401608
      9.54578      3.90514     13.02700        -0.056344      0.012714      0.172788
      7.29951      5.40265     15.74250        -0.162678      2.484074     -1.154535
     14.50404     17.84530      8.11150        -0.881231      1.137223      0.512319
     12.54079      8.39766     13.02700        -0.091870      0.111765      0.100828
     10.29453      9.89517     15.74250         0.707229     -2.400606     -1.647872
     12.88174      0.00000      6.48920         1.079194      0.117270      0.113320
     15.53581     12.89019     13.02700         0.008345      0.048509      0.000714
     13.28954     14.38770     15.74250        -0.562380      2.405764     -1.511692
      1.30949     15.88520     10.31150         0.589602     -1.552023     -2.222944
     18.53082     17.38271     13.02700        -2.232780     -0.547460      1.807274
     16.28456     18.88022     15.74250        -0.197408     -0.130473     -2.454177
      8.01485      1.62230      4.86690         0.404792     -0.422472     -0.428720
      2.05824      2.40763     13.02700         2.337536      0.442025      1.838922
     19.27958      3.90514     15.74250        -0.209759      2.279341     -0.911534
      4.77025      4.86690      4.86690        -0.383624      0.467869     -0.397661
      8.04827     11.39268     13.02700        -0.000782      0.002627     -0.022071
     19.37094      3.24460      3.24460        -0.357374      0.314112      0.532216
     13.28955     14.38770     10.31150        -0.002327      0.646681     -0.689968
     11.04329     15.88520     13.02700         0.022681      0.079633      0.091839
      8.79702     17.38271     15.74250        -0.316122     -0.076441     -2.859911
     17.74864      8.11150      8.11150         0.392433     -0.548973     -0.021653
     14.03830      0.91013     13.02700        -0.059102     -0.010245      0.162259
     11.79204      2.40763     15.74250         0.081134     -0.089030     -2.562382
     14.50404     14.60070      4.86690        -0.345643      0.446590     -0.389104
      6.55076     18.88022     13.02700         0.083629     -0.023267      0.108564
      4.30450      0.91013     15.74250        -0.093596     -0.178634      0.659882
      3.93013      2.78201     11.66925        -0.314350     -0.083737      2.882360
      1.68386      4.27952     14.38475         0.069808     -0.016681     -0.071656
     18.90520      5.77703     17.10025        -0.195351      0.469883      0.411905
      6.92514      7.27453     11.66925         0.092643     -0.098449      2.558780
      4.67888      8.77204     14.38475        -0.020084      0.009037     -0.104864
      3.14795      9.73380      0.00000         0.281094     -0.015316      2.484264
     18.90520      5.77702     11.66925        -0.104313     -0.190266     -0.634211
     16.65894      7.27453     14.38475         0.056465     -0.069934     -0.114431
     16.12635      6.48920      3.24460         0.137916     -0.063009      0.939011
      2.43262     10.26955     11.66925        -0.154328      2.480457      1.144153
      0.18636     11.76706     14.38475        -0.081106     -0.036630     -0.055920
     17.40769     13.26456     17.10025         0.217227     -0.735652      0.982203
      5.42764     14.76207     11.66925         0.690265     -2.398237      1.665424
      3.18137     16.25958     14.38475        -2.270729     -0.475080     -1.627835
      9.63715     12.97840      3.24460         0.497679     -0.489787      0.504812
     11.41766      4.27952     11.66925        -0.195968     -0.125831      2.478281
      9.17140      5.77702     14.38475        -0.012367      0.048984     -0.127529
      6.92514      7.27453     17.10025         0.630545      0.317591     -1.626976
     14.41268      8.77204     11.66925        -0.225139      2.281560      0.903264
     12.16642     10.26955     14.38475        -0.117922      0.013698     -0.099230
     12.88175      6.48920      0.00000        -0.053867      0.010767     -0.442558
     17.40770     13.26456     11.66925         0.116012      0.035752      3.067388
     15.16143     14.76207     14.38475        -0.019809     -0.099614     -0.048952
     12.91517     16.25958     17.10025         0.055515     -0.011564      0.760725
     14.50404      8.11150      4.86690         0.481893     -0.540789     -0.495831
     18.15645     19.25460     14.38475        -0.000990     -0.087792     -0.076765
     19.37094     16.22300      3.24460        -0.523178     -0.375767     -0.340491
      9.92016     11.76705     11.66925         0.364920      0.055228      2.734938
      7.67389     13.26456     14.38475         2.263934      0.508518     -1.778760
      9.63715      6.48920      3.24460        -0.130470      0.091739      0.913450
     12.91517     16.25958     11.66925         0.004797     -0.031894     -0.228380
     10.66891     17.75709     14.38475         0.060652      0.060292     -0.052010
      9.63715      3.24460      0.00000        -0.229218      0.670015     -0.622854
     15.91019      1.28450     11.66925        -0.457500     -0.051719      2.839078
     13.66393      2.78201     14.38475         0.103891     -0.044539     -0.145536
     16.12635      0.00000      3.24460        -0.508147      0.482710      0.509607
      8.42265     19.25459     11.66925        -0.570574      2.421915      1.507262
      6.17638      1.28450     14.38475        -0.018994      0.093601     -0.063308
      3.93012      2.78201     17.10025         0.054326      0.760292      0.389329
 -----------------------------------------------------------------------------------
    total drift:                               -0.030341     -0.056134     -0.421098


--------------------------------------------------------------------------------------------------------



  FREE ENERGIE OF THE ION-ELECTRON SYSTEM (eV)
  ---------------------------------------------------
  free  energy   TOTEN  =     -1122.73775127 eV

  energy  without entropy=    -1122.73236963  energy(sigma->0) =    -1122.73506045
 


--------------------------------------------------------------------------------------------------------


    POTLOK:  cpu time      3.0694: real time      3.0892


--------------------------------------------------------------------------------------------------------


     LOOP+:  cpu time   6164.7940: real time   6221.9947
    4ORBIT:  cpu time      0.0000: real time      0.0000

 total amount of memory used by VASP MPI-rank0   916444. kBytes
=======================================================================

   base      :      30000. kBytes
   nonlr-proj:      25140. kBytes
   fftplans  :      40892. kBytes
   grid      :      30643. kBytes
   one-center:        275. kBytes
   wavefun   :     789494. kBytes
 
  
  
 General timing and accounting informations for this job:
 ========================================================
  
                  Total CPU time used (sec):     6485.679
                            User time (sec):     6239.382
                          System time (sec):      246.297
                         Elapsed time (sec):     6553.160
  
                   Maximum memory used (kb):     1215684.
                   Average memory used (kb):          N/A
  
                          Minor page faults:       895109
                          Major page faults:          935
                 Voluntary context switches:         4068
