 156 156   0   0
  0.1762508E+02  0.1600268E-08  0.1697340E-08  0.1012265E-08  0.5000000E-15
  1.000000000000000E-004
  CAR 
 Si and Ge interface calculation         
      9.88463977    -10.06063661  301      6.94091822      1.00000000
    -10.061  0.0000E+00  0.0000E+00  0.0000E+00  0.0000E+00
     -9.994  0.0000E+00  0.0000E+00  0.0000E+00  0.0000E+00
     -9.928  0.0000E+00  0.0000E+00  0.0000E+00  0.0000E+00
     -9.861  0.0000E+00  0.0000E+00  0.0000E+00  0.0000E+00
     -9.795  0.0000E+00  0.0000E+00  0.0000E+00  0.0000E+00
     -9.728  0.0000E+00  0.0000E+00  0.0000E+00  0.0000E+00
     -9.662  0.0000E+00  0.0000E+00  0.0000E+00  0.0000E+00
     -9.595  0.0000E+00  0.0000E+00  0.0000E+00  0.0000E+00
     -9.529  0.0000E+00  0.0000E+00  0.0000E+00  0.0000E+00
     -9.462  0.0000E+00  0.0000E+00  0.0000E+00  0.0000E+00
     -9.396  0.0000E+00  0.0000E+00  0.0000E+00  0.0000E+00
     -9.329  0.0000E+00  0.0000E+00  0.0000E+00  0.0000E+00
     -9.263  0.0000E+00  0.0000E+00  0.0000E+00  0.0000E+00
     -9.196  0.5066E-08  0.1099E-10  0.3368E-09  0.7309E-12
     -9.130  0.2957E+02  0.2709E+02  0.1966E+01  0.1801E+01
     -9.063  0.4013E+00  0.2961E+01  0.2000E+01  0.2000E+01
     -8.997  0.0000E+00  0.0000E+00  0.2000E+01  0.2000E+01
     -8.930  0.0000E+00  0.0000E+00  0.2000E+01  0.2000E+01
     -8.864  0.2914E-06  0.1413E-08  0.2000E+01  0.2000E+01
     -8.797  0.3081E+02  0.2990E+02  0.4048E+01  0.3988E+01
     -8.731  0.2933E+02  0.3018E+02  0.6000E+01  0.6000E+01
     -8.664  0.0000E+00  0.0000E+00  0.6000E+01  0.6000E+01
     -8.598  0.1417E+00  0.3543E-02  0.6009E+01  0.6000E+01
     -8.531  0.2994E+02  0.3007E+02  0.8000E+01  0.7999E+01
     -8.465  0.2978E+02  0.2694E+02  0.9980E+01  0.9791E+01
     -8.399  0.1411E-10  0.3146E+01  0.1000E+02  0.1000E+02
     -8.332  0.2670E+02  0.1858E+02  0.1177E+02  0.1124E+02
     -8.266  0.3345E+01  0.1150E+02  0.1200E+02  0.1200E+02
     -8.199  0.0000E+00  0.0000E+00  0.1200E+02  0.1200E+02
     -8.133  0.0000E+00  0.0000E+00  0.1200E+02  0.1200E+02
     -8.066  0.7048E-04  0.2956E-06  0.1200E+02  0.1200E+02
     -8.000  0.3013E+02  0.2975E+02  0.1400E+02  0.1398E+02
     -7.933  0.3002E+02  0.3029E+02  0.1600E+02  0.1600E+02
     -7.867  0.0000E+00  0.0000E+00  0.1600E+02  0.1600E+02
     -7.800  0.9796E-03  0.1435E-04  0.1600E+02  0.1600E+02
     -7.734  0.3007E+02  0.2989E+02  0.1800E+02  0.1799E+02
     -7.667  0.1893E+00  0.1926E+00  0.1801E+02  0.1800E+02
     -7.601  0.1687E+02  0.1526E+02  0.1913E+02  0.1901E+02
     -7.534  0.1302E+02  0.1482E+02  0.2000E+02  0.2000E+02
     -7.468  0.0000E+00  0.0000E+00  0.2000E+02  0.2000E+02
     -7.401  0.6237E+01  0.1608E+01  0.2041E+02  0.2011E+02
     -7.335  0.8810E+01  0.1343E+02  0.2100E+02  0.2100E+02
     -7.268  0.1504E+02  0.1504E+02  0.2200E+02  0.2200E+02
     -7.202  0.1378E+02  0.9258E+01  0.2292E+02  0.2262E+02
     -7.135  0.3957E+02  0.3944E+02  0.2555E+02  0.2524E+02
     -7.069  0.6813E+01  0.1137E+02  0.2600E+02  0.2600E+02
     -7.002  0.1882E+02  0.1450E+02  0.2725E+02  0.2696E+02
     -6.936  0.1107E+02  0.1513E+02  0.2800E+02  0.2797E+02
     -6.869  0.1947E+01  0.6885E+00  0.2813E+02  0.2802E+02
     -6.803  0.4304E+02  0.4337E+02  0.3099E+02  0.3091E+02
     -6.736  0.1465E+02  0.1414E+02  0.3197E+02  0.3185E+02
     -6.670  0.4277E+01  0.3108E+01  0.3227E+02  0.3205E+02
     -6.603  0.2600E+02  0.2841E+02  0.3399E+02  0.3394E+02
     -6.537  0.2026E+02  0.1611E+02  0.3535E+02  0.3502E+02
     -6.470  0.9765E+01  0.1468E+02  0.3600E+02  0.3600E+02
     -6.404  0.1576E+02  0.1505E+02  0.3705E+02  0.3700E+02
     -6.338  0.1832E+02  0.1633E+02  0.3827E+02  0.3809E+02
     -6.271  0.1106E+02  0.1369E+02  0.3900E+02  0.3900E+02
     -6.205  0.1502E+02  0.1504E+02  0.4000E+02  0.4000E+02
     -6.138  0.1504E+02  0.1503E+02  0.4100E+02  0.4100E+02
     -6.072  0.1427E+02  0.1178E+02  0.4195E+02  0.4178E+02
     -6.005  0.7598E+00  0.3263E+01  0.4200E+02  0.4200E+02
     -5.939  0.2955E+02  0.2818E+02  0.4397E+02  0.4387E+02
     -5.872  0.5010E+00  0.1820E+01  0.4400E+02  0.4400E+02
     -5.806  0.1092E+02  0.7421E+01  0.4473E+02  0.4449E+02
     -5.739  0.1406E+02  0.1566E+02  0.4566E+02  0.4554E+02
     -5.673  0.5103E+01  0.6936E+01  0.4600E+02  0.4600E+02
     -5.606  0.8487E+01  0.6103E+01  0.4656E+02  0.4641E+02
     -5.540  0.2155E+02  0.2366E+02  0.4800E+02  0.4798E+02
     -5.473  0.2569E+02  0.2331E+02  0.4971E+02  0.4953E+02
     -5.407  0.1658E+02  0.1458E+02  0.5081E+02  0.5051E+02
     -5.340  0.1790E+02  0.2235E+02  0.5200E+02  0.5200E+02
     -5.274  0.2773E+02  0.2304E+02  0.5385E+02  0.5353E+02
     -5.207  0.3471E+02  0.3354E+02  0.5616E+02  0.5576E+02
     -5.141  0.2768E+02  0.3364E+02  0.5800E+02  0.5800E+02
     -5.074  0.1552E+01  0.1466E+00  0.5810E+02  0.5801E+02
     -5.008  0.1619E+02  0.1613E+02  0.5918E+02  0.5908E+02
     -4.941  0.3250E+02  0.2834E+02  0.6134E+02  0.6097E+02
     -4.875  0.2350E+02  0.2824E+02  0.6291E+02  0.6285E+02
     -4.808  0.1589E+02  0.1316E+02  0.6396E+02  0.6373E+02
     -4.742  0.2847E+02  0.2943E+02  0.6586E+02  0.6568E+02
     -4.675  0.2518E+02  0.2314E+02  0.6753E+02  0.6722E+02
     -4.609  0.2280E+02  0.2400E+02  0.6905E+02  0.6882E+02
     -4.542  0.2197E+02  0.2243E+02  0.7052E+02  0.7031E+02
     -4.476  0.3602E+02  0.3603E+02  0.7291E+02  0.7271E+02
     -4.409  0.2093E+02  0.2263E+02  0.7430E+02  0.7421E+02
     -4.343  0.3276E+02  0.2961E+02  0.7648E+02  0.7618E+02
     -4.277  0.2611E+02  0.2992E+02  0.7822E+02  0.7817E+02
     -4.210  0.1321E+02  0.1119E+02  0.7910E+02  0.7892E+02
     -4.144  0.2820E+02  0.2863E+02  0.8097E+02  0.8082E+02
     -4.077  0.2853E+02  0.2765E+02  0.8287E+02  0.8266E+02
     -4.011  0.3109E+02  0.3215E+02  0.8494E+02  0.8480E+02
     -3.944  0.2601E+02  0.2699E+02  0.8667E+02  0.8659E+02
     -3.878  0.3139E+02  0.2967E+02  0.8876E+02  0.8856E+02
     -3.811  0.3607E+02  0.3751E+02  0.9116E+02  0.9107E+02
     -3.745  0.4189E+02  0.3607E+02  0.9394E+02  0.9347E+02
     -3.678  0.2916E+02  0.3301E+02  0.9589E+02  0.9567E+02
     -3.612  0.2140E+02  0.2306E+02  0.9731E+02  0.9721E+02
     -3.545  0.3379E+02  0.3184E+02  0.9956E+02  0.9932E+02
     -3.479  0.3926E+02  0.3684E+02  0.1022E+03  0.1018E+03
     -3.412  0.3219E+02  0.3316E+02  0.1043E+03  0.1040E+03
     -3.346  0.3443E+02  0.3599E+02  0.1066E+03  0.1064E+03
     -3.279  0.3620E+02  0.3386E+02  0.1090E+03  0.1086E+03
     -3.213  0.3467E+02  0.3802E+02  0.1113E+03  0.1112E+03
     -3.146  0.4567E+02  0.4298E+02  0.1144E+03  0.1140E+03
     -3.080  0.3919E+02  0.3976E+02  0.1170E+03  0.1167E+03
     -3.013  0.3367E+02  0.3526E+02  0.1192E+03  0.1190E+03
     -2.947  0.4035E+02  0.3803E+02  0.1219E+03  0.1215E+03
     -2.880  0.4307E+02  0.4390E+02  0.1248E+03  0.1245E+03
     -2.814  0.2957E+02  0.3105E+02  0.1267E+03  0.1265E+03
     -2.747  0.3437E+02  0.3600E+02  0.1290E+03  0.1289E+03
     -2.681  0.4364E+02  0.4202E+02  0.1319E+03  0.1317E+03
     -2.614  0.2595E+02  0.2845E+02  0.1337E+03  0.1336E+03
     -2.548  0.3207E+02  0.2996E+02  0.1358E+03  0.1356E+03
     -2.481  0.3265E+02  0.2900E+02  0.1380E+03  0.1375E+03
     -2.415  0.2704E+02  0.3010E+02  0.1398E+03  0.1395E+03
     -2.348  0.2806E+02  0.2971E+02  0.1416E+03  0.1415E+03
     -2.282  0.4297E+02  0.4243E+02  0.1445E+03  0.1444E+03
     -2.215  0.3124E+02  0.3237E+02  0.1466E+03  0.1465E+03
     -2.149  0.3086E+02  0.2888E+02  0.1486E+03  0.1484E+03
     -2.083  0.4772E+02  0.4711E+02  0.1518E+03  0.1516E+03
     -2.016  0.3187E+02  0.3240E+02  0.1539E+03  0.1537E+03
     -1.950  0.3866E+02  0.3620E+02  0.1565E+03  0.1561E+03
     -1.883  0.4366E+02  0.4505E+02  0.1594E+03  0.1591E+03
     -1.817  0.4605E+02  0.4847E+02  0.1625E+03  0.1624E+03
     -1.750  0.3136E+02  0.3028E+02  0.1646E+03  0.1644E+03
     -1.684  0.3707E+02  0.3720E+02  0.1670E+03  0.1669E+03
     -1.617  0.3563E+02  0.3250E+02  0.1694E+03  0.1690E+03
     -1.551  0.4367E+02  0.4394E+02  0.1723E+03  0.1719E+03
     -1.484  0.3347E+02  0.3451E+02  0.1745E+03  0.1742E+03
     -1.418  0.3515E+02  0.3434E+02  0.1769E+03  0.1765E+03
     -1.351  0.3092E+02  0.3062E+02  0.1789E+03  0.1786E+03
     -1.285  0.5236E+02  0.5517E+02  0.1824E+03  0.1822E+03
     -1.218  0.2391E+02  0.2478E+02  0.1840E+03  0.1839E+03
     -1.152  0.4881E+02  0.4477E+02  0.1873E+03  0.1869E+03
     -1.085  0.3661E+02  0.4014E+02  0.1897E+03  0.1895E+03
     -1.019  0.4256E+02  0.4098E+02  0.1925E+03  0.1923E+03
     -0.952  0.4506E+02  0.4051E+02  0.1955E+03  0.1950E+03
     -0.886  0.3910E+02  0.4148E+02  0.1981E+03  0.1977E+03
     -0.819  0.4922E+02  0.5173E+02  0.2014E+03  0.2012E+03
     -0.753  0.4721E+02  0.4563E+02  0.2045E+03  0.2042E+03
     -0.686  0.4364E+02  0.4386E+02  0.2074E+03  0.2071E+03
     -0.620  0.3772E+02  0.3849E+02  0.2099E+03  0.2097E+03
     -0.553  0.3162E+02  0.3278E+02  0.2120E+03  0.2119E+03
     -0.487  0.4908E+02  0.4765E+02  0.2153E+03  0.2150E+03
     -0.420  0.5477E+02  0.5184E+02  0.2190E+03  0.2185E+03
     -0.354  0.3111E+02  0.3507E+02  0.2210E+03  0.2208E+03
     -0.287  0.5076E+02  0.4980E+02  0.2244E+03  0.2241E+03
     -0.221  0.4098E+02  0.4017E+02  0.2271E+03  0.2268E+03
     -0.154  0.4019E+02  0.3997E+02  0.2298E+03  0.2295E+03
     -0.088  0.5020E+02  0.4890E+02  0.2331E+03  0.2327E+03
     -0.022  0.4868E+02  0.5279E+02  0.2364E+03  0.2362E+03
      0.045  0.4460E+02  0.4284E+02  0.2394E+03  0.2391E+03
      0.111  0.5709E+02  0.5127E+02  0.2432E+03  0.2425E+03
      0.178  0.3719E+02  0.4488E+02  0.2456E+03  0.2455E+03
      0.244  0.4122E+02  0.3902E+02  0.2484E+03  0.2481E+03
      0.311  0.4173E+02  0.3793E+02  0.2511E+03  0.2506E+03
      0.377  0.4153E+02  0.4216E+02  0.2539E+03  0.2534E+03
      0.444  0.4624E+02  0.4927E+02  0.2570E+03  0.2567E+03
      0.510  0.5748E+02  0.5492E+02  0.2608E+03  0.2603E+03
      0.577  0.4201E+02  0.4563E+02  0.2636E+03  0.2634E+03
      0.643  0.4719E+02  0.4647E+02  0.2668E+03  0.2665E+03
      0.710  0.4901E+02  0.4889E+02  0.2700E+03  0.2697E+03
      0.776  0.5863E+02  0.5638E+02  0.2739E+03  0.2735E+03
      0.843  0.3931E+02  0.4384E+02  0.2765E+03  0.2764E+03
      0.909  0.4325E+02  0.4120E+02  0.2794E+03  0.2791E+03
      0.976  0.5764E+02  0.5439E+02  0.2833E+03  0.2828E+03
      1.042  0.4753E+02  0.5067E+02  0.2864E+03  0.2861E+03
      1.109  0.4735E+02  0.4622E+02  0.2896E+03  0.2892E+03
      1.175  0.4699E+02  0.4751E+02  0.2927E+03  0.2924E+03
      1.242  0.4828E+02  0.4407E+02  0.2959E+03  0.2953E+03
      1.308  0.5216E+02  0.5363E+02  0.2994E+03  0.2989E+03
      1.375  0.5022E+02  0.5124E+02  0.3027E+03  0.3023E+03
      1.441  0.5805E+02  0.5846E+02  0.3066E+03  0.3062E+03
      1.508  0.3700E+02  0.4151E+02  0.3091E+03  0.3089E+03
      1.574  0.5582E+02  0.5163E+02  0.3128E+03  0.3124E+03
      1.641  0.6084E+02  0.6257E+02  0.3168E+03  0.3165E+03
      1.707  0.3480E+02  0.3554E+02  0.3191E+03  0.3189E+03
      1.774  0.5605E+02  0.5534E+02  0.3229E+03  0.3226E+03
      1.840  0.5430E+02  0.5008E+02  0.3265E+03  0.3259E+03
      1.907  0.5635E+02  0.6124E+02  0.3302E+03  0.3300E+03
      1.973  0.5421E+02  0.5499E+02  0.3338E+03  0.3337E+03
      2.039  0.6586E+02  0.6201E+02  0.3382E+03  0.3378E+03
      2.106  0.5230E+02  0.5513E+02  0.3417E+03  0.3415E+03
      2.172  0.4809E+02  0.4258E+02  0.3449E+03  0.3443E+03
      2.239  0.4838E+02  0.5014E+02  0.3481E+03  0.3476E+03
      2.305  0.5759E+02  0.5902E+02  0.3520E+03  0.3516E+03
      2.372  0.6544E+02  0.6550E+02  0.3563E+03  0.3559E+03
      2.438  0.5359E+02  0.5455E+02  0.3599E+03  0.3596E+03
      2.505  0.4481E+02  0.4288E+02  0.3629E+03  0.3624E+03
      2.571  0.5341E+02  0.5499E+02  0.3664E+03  0.3661E+03
      2.638  0.5822E+02  0.5739E+02  0.3703E+03  0.3699E+03
      2.704  0.7214E+02  0.7207E+02  0.3751E+03  0.3747E+03
      2.771  0.4382E+02  0.4567E+02  0.3780E+03  0.3777E+03
      2.837  0.6408E+02  0.6164E+02  0.3823E+03  0.3818E+03
      2.904  0.5831E+02  0.6178E+02  0.3862E+03  0.3859E+03
      2.970  0.6450E+02  0.6131E+02  0.3905E+03  0.3900E+03
      3.037  0.6895E+02  0.6841E+02  0.3951E+03  0.3946E+03
      3.103  0.5780E+02  0.5989E+02  0.3989E+03  0.3986E+03
      3.170  0.5817E+02  0.5707E+02  0.4028E+03  0.4024E+03
      3.236  0.6352E+02  0.6637E+02  0.4070E+03  0.4068E+03
      3.303  0.6736E+02  0.6532E+02  0.4115E+03  0.4111E+03
      3.369  0.5858E+02  0.5658E+02  0.4154E+03  0.4149E+03
      3.436  0.6014E+02  0.6473E+02  0.4194E+03  0.4192E+03
      3.502  0.7592E+02  0.7363E+02  0.4244E+03  0.4241E+03
      3.569  0.6745E+02  0.6680E+02  0.4289E+03  0.4285E+03
      3.635  0.6937E+02  0.6941E+02  0.4336E+03  0.4332E+03
      3.702  0.7854E+02  0.7931E+02  0.4388E+03  0.4384E+03
      3.768  0.6285E+02  0.6431E+02  0.4430E+03  0.4427E+03
      3.835  0.6294E+02  0.6247E+02  0.4472E+03  0.4469E+03
      3.901  0.6435E+02  0.6402E+02  0.4515E+03  0.4511E+03
      3.968  0.7221E+02  0.7322E+02  0.4563E+03  0.4560E+03
      4.034  0.6610E+02  0.6311E+02  0.4607E+03  0.4602E+03
      4.101  0.6288E+02  0.6307E+02  0.4648E+03  0.4644E+03
      4.167  0.6580E+02  0.7035E+02  0.4692E+03  0.4691E+03
      4.233  0.6856E+02  0.6657E+02  0.4738E+03  0.4735E+03
      4.300  0.6349E+02  0.6085E+02  0.4780E+03  0.4776E+03
      4.366  0.5642E+02  0.5572E+02  0.4818E+03  0.4813E+03
      4.433  0.5832E+02  0.5923E+02  0.4856E+03  0.4852E+03
      4.499  0.6373E+02  0.6644E+02  0.4899E+03  0.4897E+03
      4.566  0.6096E+02  0.5877E+02  0.4939E+03  0.4936E+03
      4.632  0.6084E+02  0.6231E+02  0.4980E+03  0.4977E+03
      4.699  0.6486E+02  0.6359E+02  0.5023E+03  0.5019E+03
      4.765  0.6833E+02  0.6763E+02  0.5069E+03  0.5064E+03
      4.832  0.5583E+02  0.5533E+02  0.5106E+03  0.5101E+03
      4.898  0.6223E+02  0.6545E+02  0.5147E+03  0.5145E+03
      4.965  0.5539E+02  0.5356E+02  0.5184E+03  0.5180E+03
      5.031  0.5436E+02  0.5451E+02  0.5220E+03  0.5217E+03
      5.098  0.5873E+02  0.5636E+02  0.5259E+03  0.5254E+03
      5.164  0.5348E+02  0.5305E+02  0.5295E+03  0.5290E+03
      5.231  0.5183E+02  0.5441E+02  0.5329E+03  0.5326E+03
      5.297  0.5533E+02  0.5364E+02  0.5366E+03  0.5361E+03
      5.364  0.4669E+02  0.4960E+02  0.5397E+03  0.5394E+03
      5.430  0.4308E+02  0.4090E+02  0.5426E+03  0.5422E+03
      5.497  0.6072E+02  0.6111E+02  0.5466E+03  0.5462E+03
      5.563  0.5687E+02  0.5682E+02  0.5504E+03  0.5500E+03
      5.630  0.5150E+02  0.5087E+02  0.5538E+03  0.5534E+03
      5.696  0.4739E+02  0.4937E+02  0.5570E+03  0.5567E+03
      5.763  0.5424E+02  0.5321E+02  0.5606E+03  0.5602E+03
      5.829  0.5296E+02  0.5398E+02  0.5641E+03  0.5638E+03
      5.896  0.4501E+02  0.4366E+02  0.5671E+03  0.5667E+03
      5.962  0.5386E+02  0.5560E+02  0.5707E+03  0.5704E+03
      6.029  0.5783E+02  0.5759E+02  0.5746E+03  0.5743E+03
      6.095  0.5166E+02  0.5168E+02  0.5780E+03  0.5777E+03
      6.162  0.4070E+02  0.4297E+02  0.5807E+03  0.5806E+03
      6.228  0.6310E+02  0.5946E+02  0.5849E+03  0.5845E+03
      6.294  0.4527E+02  0.4753E+02  0.5879E+03  0.5877E+03
      6.361  0.5518E+02  0.5380E+02  0.5916E+03  0.5913E+03
      6.427  0.5891E+02  0.5768E+02  0.5955E+03  0.5951E+03
      6.494  0.5264E+02  0.5366E+02  0.5990E+03  0.5987E+03
      6.560  0.5269E+02  0.5095E+02  0.6025E+03  0.6021E+03
      6.627  0.5063E+02  0.5134E+02  0.6059E+03  0.6055E+03
      6.693  0.4034E+02  0.4253E+02  0.6086E+03  0.6083E+03
      6.760  0.6132E+02  0.6487E+02  0.6127E+03  0.6126E+03
      6.826  0.5851E+02  0.5628E+02  0.6166E+03  0.6164E+03
      6.893  0.5677E+02  0.5469E+02  0.6203E+03  0.6200E+03
      6.959  0.5838E+02  0.6138E+02  0.6242E+03  0.6241E+03
      7.026  0.5808E+02  0.5598E+02  0.6281E+03  0.6278E+03
      7.092  0.6494E+02  0.6385E+02  0.6324E+03  0.6321E+03
      7.159  0.5683E+02  0.5963E+02  0.6362E+03  0.6360E+03
      7.225  0.4710E+02  0.4498E+02  0.6393E+03  0.6390E+03
      7.292  0.6493E+02  0.6668E+02  0.6436E+03  0.6435E+03
      7.358  0.5038E+02  0.4949E+02  0.6470E+03  0.6468E+03
      7.425  0.6702E+02  0.6439E+02  0.6514E+03  0.6510E+03
      7.491  0.5727E+02  0.5802E+02  0.6553E+03  0.6549E+03
      7.558  0.6341E+02  0.6253E+02  0.6595E+03  0.6591E+03
      7.624  0.5353E+02  0.5383E+02  0.6630E+03  0.6626E+03
      7.691  0.6107E+02  0.6227E+02  0.6671E+03  0.6668E+03
      7.757  0.7028E+02  0.6777E+02  0.6718E+03  0.6713E+03
      7.824  0.5664E+02  0.5580E+02  0.6755E+03  0.6750E+03
      7.890  0.5317E+02  0.5489E+02  0.6791E+03  0.6787E+03
      7.957  0.7158E+02  0.6704E+02  0.6838E+03  0.6832E+03
      8.023  0.5034E+02  0.5424E+02  0.6872E+03  0.6868E+03
      8.090  0.6712E+02  0.6698E+02  0.6917E+03  0.6912E+03
      8.156  0.7111E+02  0.6960E+02  0.6964E+03  0.6959E+03
      8.223  0.6510E+02  0.6511E+02  0.7007E+03  0.7002E+03
      8.289  0.7014E+02  0.7075E+02  0.7054E+03  0.7049E+03
      8.356  0.5928E+02  0.5826E+02  0.7093E+03  0.7088E+03
      8.422  0.7663E+02  0.7829E+02  0.7144E+03  0.7140E+03
      8.488  0.7915E+02  0.7984E+02  0.7197E+03  0.7193E+03
      8.555  0.7044E+02  0.6659E+02  0.7244E+03  0.7238E+03
      8.621  0.6562E+02  0.6799E+02  0.7288E+03  0.7283E+03
      8.688  0.8682E+02  0.8565E+02  0.7345E+03  0.7340E+03
      8.754  0.7293E+02  0.7239E+02  0.7394E+03  0.7388E+03
      8.821  0.8335E+02  0.8113E+02  0.7449E+03  0.7442E+03
      8.887  0.7380E+02  0.7359E+02  0.7498E+03  0.7491E+03
      8.954  0.3004E+02  0.4064E+02  0.7519E+03  0.7518E+03
      9.020  0.2165E+01  0.3289E+01  0.7520E+03  0.7520E+03
      9.087  0.0000E+00  0.0000E+00  0.7520E+03  0.7520E+03
      9.153  0.0000E+00  0.0000E+00  0.7520E+03  0.7520E+03
      9.220  0.0000E+00  0.0000E+00  0.7520E+03  0.7520E+03
      9.286  0.0000E+00  0.0000E+00  0.7520E+03  0.7520E+03
      9.353  0.0000E+00  0.0000E+00  0.7520E+03  0.7520E+03
      9.419  0.0000E+00  0.0000E+00  0.7520E+03  0.7520E+03
      9.486  0.0000E+00  0.0000E+00  0.7520E+03  0.7520E+03
      9.552  0.0000E+00  0.0000E+00  0.7520E+03  0.7520E+03
      9.619  0.0000E+00  0.0000E+00  0.7520E+03  0.7520E+03
      9.685  0.0000E+00  0.0000E+00  0.7520E+03  0.7520E+03
      9.752  0.0000E+00  0.0000E+00  0.7520E+03  0.7520E+03
      9.818  0.0000E+00  0.0000E+00  0.7520E+03  0.7520E+03
      9.885  0.0000E+00  0.0000E+00  0.7520E+03  0.7520E+03
