 120 120   0   0
  0.2169524E+02  0.7680595E-09  0.1629300E-08  0.2080414E-08  0.5000000E-15
  1.000000000000000E-004
  CAR 
 Si and Ge interface calculation         
      7.90091539     -8.53863481  301      4.86491788      1.00000000
     -8.539  0.0000E+00  0.0000E+00  0.0000E+00  0.0000E+00
     -8.484  0.0000E+00  0.0000E+00  0.0000E+00  0.0000E+00
     -8.429  0.0000E+00  0.0000E+00  0.0000E+00  0.0000E+00
     -8.374  0.0000E+00  0.0000E+00  0.0000E+00  0.0000E+00
     -8.319  0.0000E+00  0.0000E+00  0.0000E+00  0.0000E+00
     -8.265  0.0000E+00  0.0000E+00  0.0000E+00  0.0000E+00
     -8.210  0.0000E+00  0.0000E+00  0.0000E+00  0.0000E+00
     -8.155  0.0000E+00  0.0000E+00  0.0000E+00  0.0000E+00
     -8.100  0.0000E+00  0.0000E+00  0.0000E+00  0.0000E+00
     -8.045  0.0000E+00  0.0000E+00  0.0000E+00  0.0000E+00
     -7.991  0.0000E+00  0.0000E+00  0.0000E+00  0.0000E+00
     -7.936  0.0000E+00  0.0000E+00  0.0000E+00  0.0000E+00
     -7.881  0.0000E+00  0.0000E+00  0.0000E+00  0.0000E+00
     -7.826  0.9302E-06  0.3134E-08  0.5097E-07  0.1717E-09
     -7.771  0.4069E+01  0.3114E+01  0.2230E+00  0.1706E+00
     -7.717  0.4936E+00  0.1448E+01  0.2500E+00  0.2500E+00
     -7.662  0.9583E+01  0.8532E+01  0.7751E+00  0.7175E+00
     -7.607  0.8690E+01  0.9719E+01  0.1251E+01  0.1250E+01
     -7.552  0.6273E+01  0.3302E+01  0.1595E+01  0.1431E+01
     -7.497  0.1454E+02  0.1738E+02  0.2392E+01  0.2383E+01
     -7.443  0.1323E+02  0.1287E+02  0.3117E+01  0.3088E+01
     -7.388  0.1520E+01  0.1038E+01  0.3200E+01  0.3145E+01
     -7.333  0.1666E+02  0.1518E+02  0.4113E+01  0.3977E+01
     -7.278  0.1164E+02  0.1410E+02  0.4751E+01  0.4750E+01
     -7.223  0.3421E+02  0.3150E+02  0.6625E+01  0.6476E+01
     -7.169  0.1489E+02  0.1533E+02  0.7441E+01  0.7316E+01
     -7.114  0.1488E+02  0.1152E+02  0.8256E+01  0.7948E+01
     -7.059  0.2712E+02  0.3201E+02  0.9743E+01  0.9702E+01
     -7.004  0.1291E+02  0.1162E+02  0.1045E+02  0.1034E+02
     -6.949  0.2525E+02  0.2139E+02  0.1183E+02  0.1151E+02
     -6.895  0.2363E+02  0.2860E+02  0.1313E+02  0.1308E+02
     -6.840  0.2790E+02  0.2174E+02  0.1466E+02  0.1427E+02
     -6.785  0.3687E+02  0.4066E+02  0.1668E+02  0.1650E+02
     -6.730  0.6330E+01  0.7766E+01  0.1702E+02  0.1692E+02
     -6.675  0.2505E+02  0.2513E+02  0.1840E+02  0.1830E+02
     -6.621  0.1775E+02  0.1770E+02  0.1937E+02  0.1927E+02
     -6.566  0.3080E+02  0.3007E+02  0.2106E+02  0.2092E+02
     -6.511  0.1963E+02  0.1988E+02  0.2213E+02  0.2201E+02
     -6.456  0.4222E+02  0.4104E+02  0.2445E+02  0.2426E+02
     -6.401  0.3429E+02  0.3104E+02  0.2633E+02  0.2596E+02
     -6.347  0.2942E+02  0.3262E+02  0.2794E+02  0.2774E+02
     -6.292  0.3042E+02  0.2960E+02  0.2961E+02  0.2937E+02
     -6.237  0.2511E+02  0.2661E+02  0.3098E+02  0.3082E+02
     -6.182  0.2271E+02  0.2267E+02  0.3223E+02  0.3207E+02
     -6.128  0.3656E+02  0.3579E+02  0.3423E+02  0.3403E+02
     -6.073  0.2681E+02  0.2634E+02  0.3570E+02  0.3547E+02
     -6.018  0.3010E+02  0.3174E+02  0.3735E+02  0.3721E+02
     -5.963  0.3437E+02  0.3330E+02  0.3923E+02  0.3904E+02
     -5.908  0.3319E+02  0.3078E+02  0.4105E+02  0.4072E+02
     -5.854  0.3428E+02  0.3589E+02  0.4293E+02  0.4269E+02
     -5.799  0.3900E+02  0.3746E+02  0.4507E+02  0.4474E+02
     -5.744  0.4319E+02  0.4436E+02  0.4743E+02  0.4717E+02
     -5.689  0.4518E+02  0.4603E+02  0.4991E+02  0.4970E+02
     -5.634  0.4225E+02  0.4367E+02  0.5222E+02  0.5209E+02
     -5.580  0.1513E+02  0.1616E+02  0.5305E+02  0.5297E+02
     -5.525  0.4996E+02  0.4671E+02  0.5579E+02  0.5553E+02
     -5.470  0.3460E+02  0.3564E+02  0.5769E+02  0.5749E+02
     -5.415  0.4964E+02  0.4663E+02  0.6041E+02  0.6004E+02
     -5.360  0.5352E+02  0.5341E+02  0.6334E+02  0.6297E+02
     -5.306  0.4849E+02  0.5237E+02  0.6600E+02  0.6584E+02
     -5.251  0.3657E+02  0.3357E+02  0.6800E+02  0.6768E+02
     -5.196  0.4060E+02  0.4115E+02  0.7022E+02  0.6993E+02
     -5.141  0.3146E+02  0.3312E+02  0.7195E+02  0.7175E+02
     -5.086  0.4245E+02  0.4159E+02  0.7427E+02  0.7403E+02
     -5.032  0.5184E+02  0.5321E+02  0.7712E+02  0.7694E+02
     -4.977  0.5915E+02  0.5509E+02  0.8036E+02  0.7996E+02
     -4.922  0.2905E+02  0.3496E+02  0.8195E+02  0.8188E+02
     -4.867  0.2972E+02  0.2974E+02  0.8358E+02  0.8351E+02
     -4.812  0.3319E+02  0.3182E+02  0.8540E+02  0.8525E+02
     -4.758  0.3460E+02  0.3328E+02  0.8729E+02  0.8707E+02
     -4.703  0.2921E+02  0.3045E+02  0.8889E+02  0.8874E+02
     -4.648  0.4883E+02  0.4461E+02  0.9157E+02  0.9119E+02
     -4.593  0.2610E+02  0.2801E+02  0.9300E+02  0.9272E+02
     -4.538  0.4360E+02  0.4577E+02  0.9539E+02  0.9523E+02
     -4.484  0.2902E+02  0.2784E+02  0.9698E+02  0.9676E+02
     -4.429  0.3698E+02  0.3580E+02  0.9900E+02  0.9872E+02
     -4.374  0.4461E+02  0.4829E+02  0.1014E+03  0.1014E+03
     -4.319  0.3336E+02  0.3252E+02  0.1033E+03  0.1031E+03
     -4.264  0.2505E+02  0.2657E+02  0.1046E+03  0.1046E+03
     -4.210  0.3408E+02  0.2587E+02  0.1065E+03  0.1060E+03
     -4.155  0.3355E+02  0.3930E+02  0.1084E+03  0.1082E+03
     -4.100  0.1580E+02  0.1805E+02  0.1092E+03  0.1092E+03
     -4.045  0.1839E+02  0.1808E+02  0.1102E+03  0.1102E+03
     -3.990  0.1392E+02  0.1471E+02  0.1110E+03  0.1110E+03
     -3.936  0.1783E+02  0.1156E+02  0.1120E+03  0.1116E+03
     -3.881  0.2853E+02  0.3268E+02  0.1135E+03  0.1134E+03
     -3.826  0.1872E+02  0.1924E+02  0.1146E+03  0.1144E+03
     -3.771  0.1272E+02  0.1218E+02  0.1153E+03  0.1151E+03
     -3.716  0.2606E+02  0.2354E+02  0.1167E+03  0.1164E+03
     -3.662  0.8112E+01  0.1333E+02  0.1171E+03  0.1171E+03
     -3.607  0.1346E+02  0.1108E+02  0.1179E+03  0.1177E+03
     -3.552  0.3296E+02  0.2988E+02  0.1197E+03  0.1194E+03
     -3.497  0.6896E+01  0.1165E+02  0.1200E+03  0.1200E+03
     -3.442  0.2344E+02  0.1913E+02  0.1213E+03  0.1211E+03
     -3.388  0.1491E+02  0.1691E+02  0.1222E+03  0.1220E+03
     -3.333  0.1438E+02  0.1409E+02  0.1229E+03  0.1228E+03
     -3.278  0.2457E+02  0.2696E+02  0.1243E+03  0.1242E+03
     -3.223  0.1652E+02  0.1321E+02  0.1252E+03  0.1250E+03
     -3.168  0.2897E+02  0.2604E+02  0.1268E+03  0.1264E+03
     -3.114  0.2028E+02  0.2528E+02  0.1279E+03  0.1278E+03
     -3.059  0.2264E+02  0.2308E+02  0.1291E+03  0.1290E+03
     -3.004  0.1314E+02  0.1376E+02  0.1298E+03  0.1298E+03
     -2.949  0.2648E+02  0.2038E+02  0.1313E+03  0.1309E+03
     -2.894  0.2405E+02  0.2497E+02  0.1326E+03  0.1323E+03
     -2.840  0.3897E+02  0.3958E+02  0.1348E+03  0.1344E+03
     -2.785  0.2847E+02  0.3054E+02  0.1363E+03  0.1361E+03
     -2.730  0.3680E+02  0.3487E+02  0.1383E+03  0.1380E+03
     -2.675  0.2719E+02  0.3139E+02  0.1398E+03  0.1397E+03
     -2.620  0.2768E+02  0.2512E+02  0.1413E+03  0.1411E+03
     -2.566  0.4378E+02  0.4214E+02  0.1437E+03  0.1434E+03
     -2.511  0.5245E+02  0.5010E+02  0.1466E+03  0.1462E+03
     -2.456  0.6133E+02  0.5918E+02  0.1500E+03  0.1494E+03
     -2.401  0.6041E+02  0.6435E+02  0.1533E+03  0.1529E+03
     -2.346  0.6436E+02  0.6425E+02  0.1568E+03  0.1565E+03
     -2.292  0.5908E+02  0.6100E+02  0.1600E+03  0.1598E+03
     -2.237  0.5017E+02  0.4965E+02  0.1628E+03  0.1625E+03
     -2.182  0.6049E+02  0.5685E+02  0.1661E+03  0.1656E+03
     -2.127  0.4496E+02  0.4743E+02  0.1686E+03  0.1682E+03
     -2.072  0.3929E+02  0.4285E+02  0.1707E+03  0.1706E+03
     -2.018  0.3642E+02  0.3182E+02  0.1727E+03  0.1723E+03
     -1.963  0.3956E+02  0.4091E+02  0.1749E+03  0.1746E+03
     -1.908  0.4355E+02  0.4500E+02  0.1773E+03  0.1770E+03
     -1.853  0.3298E+02  0.3305E+02  0.1791E+03  0.1789E+03
     -1.798  0.2702E+02  0.2738E+02  0.1806E+03  0.1804E+03
     -1.744  0.3300E+02  0.3068E+02  0.1824E+03  0.1820E+03
     -1.689  0.3674E+02  0.3834E+02  0.1844E+03  0.1841E+03
     -1.634  0.2850E+02  0.3007E+02  0.1859E+03  0.1858E+03
     -1.579  0.3283E+02  0.3124E+02  0.1877E+03  0.1875E+03
     -1.524  0.3859E+02  0.3720E+02  0.1899E+03  0.1895E+03
     -1.470  0.3865E+02  0.4099E+02  0.1920E+03  0.1918E+03
     -1.415  0.3401E+02  0.3282E+02  0.1938E+03  0.1936E+03
     -1.360  0.3118E+02  0.2878E+02  0.1956E+03  0.1952E+03
     -1.305  0.3082E+02  0.3444E+02  0.1972E+03  0.1970E+03
     -1.250  0.1826E+02  0.2139E+02  0.1982E+03  0.1982E+03
     -1.196  0.9885E+01  0.9879E+01  0.1988E+03  0.1988E+03
     -1.141  0.1551E+02  0.1360E+02  0.1996E+03  0.1995E+03
     -1.086  0.1691E+02  0.1577E+02  0.2006E+03  0.2004E+03
     -1.031  0.2351E+02  0.2518E+02  0.2018E+03  0.2017E+03
     -0.976  0.2184E+02  0.2135E+02  0.2030E+03  0.2029E+03
     -0.922  0.3032E+02  0.3078E+02  0.2047E+03  0.2046E+03
     -0.867  0.2322E+02  0.2240E+02  0.2060E+03  0.2058E+03
     -0.812  0.1065E+02  0.1156E+02  0.2066E+03  0.2065E+03
     -0.757  0.1996E+02  0.1953E+02  0.2077E+03  0.2075E+03
     -0.702  0.2334E+02  0.2263E+02  0.2089E+03  0.2088E+03
     -0.648  0.1294E+02  0.1264E+02  0.2096E+03  0.2095E+03
     -0.593  0.2424E+02  0.2592E+02  0.2110E+03  0.2109E+03
     -0.538  0.2963E+02  0.2650E+02  0.2126E+03  0.2123E+03
     -0.483  0.3580E+02  0.3578E+02  0.2146E+03  0.2143E+03
     -0.428  0.2833E+02  0.2781E+02  0.2161E+03  0.2158E+03
     -0.374  0.1998E+02  0.2053E+02  0.2172E+03  0.2170E+03
     -0.319  0.2025E+02  0.2168E+02  0.2183E+03  0.2181E+03
     -0.264  0.1247E+02  0.1542E+02  0.2190E+03  0.2190E+03
     -0.209  0.1368E+02  0.9061E+01  0.2197E+03  0.2195E+03
     -0.154  0.2249E+02  0.2563E+02  0.2210E+03  0.2209E+03
     -0.100  0.1584E+02  0.1573E+02  0.2218E+03  0.2217E+03
     -0.045  0.5830E+01  0.6963E+01  0.2222E+03  0.2221E+03
      0.010  0.1723E+02  0.1496E+02  0.2231E+03  0.2229E+03
      0.065  0.1994E+02  0.2145E+02  0.2242E+03  0.2241E+03
      0.120  0.9658E+01  0.9050E+01  0.2247E+03  0.2246E+03
      0.174  0.2112E+02  0.1946E+02  0.2259E+03  0.2257E+03
      0.229  0.4017E+02  0.3890E+02  0.2281E+03  0.2278E+03
      0.284  0.5342E+02  0.4900E+02  0.2310E+03  0.2305E+03
      0.339  0.6001E+02  0.6439E+02  0.2343E+03  0.2340E+03
      0.394  0.3242E+02  0.3137E+02  0.2361E+03  0.2358E+03
      0.448  0.3316E+02  0.3593E+02  0.2379E+03  0.2377E+03
      0.503  0.5818E+02  0.5608E+02  0.2411E+03  0.2408E+03
      0.558  0.5129E+02  0.4586E+02  0.2439E+03  0.2433E+03
      0.613  0.6345E+02  0.7058E+02  0.2474E+03  0.2472E+03
      0.668  0.5153E+02  0.4852E+02  0.2502E+03  0.2498E+03
      0.722  0.4730E+02  0.5026E+02  0.2528E+03  0.2526E+03
      0.777  0.6259E+02  0.5741E+02  0.2562E+03  0.2557E+03
      0.832  0.8921E+02  0.8971E+02  0.2611E+03  0.2606E+03
      0.887  0.7043E+02  0.7456E+02  0.2650E+03  0.2647E+03
      0.942  0.7227E+02  0.6882E+02  0.2689E+03  0.2685E+03
      0.996  0.4335E+02  0.4415E+02  0.2713E+03  0.2709E+03
      1.051  0.4508E+02  0.4656E+02  0.2738E+03  0.2735E+03
      1.106  0.8037E+02  0.7442E+02  0.2782E+03  0.2776E+03
      1.161  0.7085E+02  0.7340E+02  0.2821E+03  0.2816E+03
      1.215  0.5562E+02  0.5609E+02  0.2851E+03  0.2847E+03
      1.270  0.8989E+02  0.8788E+02  0.2900E+03  0.2895E+03
      1.325  0.7781E+02  0.7572E+02  0.2943E+03  0.2936E+03
      1.380  0.7619E+02  0.8065E+02  0.2985E+03  0.2980E+03
      1.435  0.5022E+02  0.5445E+02  0.3012E+03  0.3010E+03
      1.489  0.8289E+02  0.6743E+02  0.3058E+03  0.3047E+03
      1.544  0.7814E+02  0.8969E+02  0.3101E+03  0.3096E+03
      1.599  0.3769E+02  0.3974E+02  0.3121E+03  0.3118E+03
      1.654  0.8358E+02  0.8183E+02  0.3167E+03  0.3163E+03
      1.709  0.7981E+02  0.7768E+02  0.3211E+03  0.3205E+03
      1.763  0.7900E+02  0.8125E+02  0.3254E+03  0.3250E+03
      1.818  0.8380E+02  0.8310E+02  0.3300E+03  0.3296E+03
      1.873  0.9421E+02  0.9395E+02  0.3352E+03  0.3347E+03
      1.928  0.8171E+02  0.8227E+02  0.3396E+03  0.3392E+03
      1.983  0.7269E+02  0.7177E+02  0.3436E+03  0.3431E+03
      2.037  0.7344E+02  0.7392E+02  0.3476E+03  0.3472E+03
      2.092  0.6105E+02  0.6316E+02  0.3510E+03  0.3507E+03
      2.147  0.5569E+02  0.5465E+02  0.3540E+03  0.3537E+03
      2.202  0.8187E+02  0.8024E+02  0.3585E+03  0.3580E+03
      2.257  0.6217E+02  0.5675E+02  0.3619E+03  0.3612E+03
      2.311  0.9543E+02  0.1016E+03  0.3672E+03  0.3667E+03
      2.366  0.4987E+02  0.5105E+02  0.3699E+03  0.3695E+03
      2.421  0.6795E+02  0.6872E+02  0.3736E+03  0.3733E+03
      2.476  0.6269E+02  0.6162E+02  0.3771E+03  0.3767E+03
      2.531  0.9405E+02  0.8904E+02  0.3822E+03  0.3815E+03
      2.585  0.7022E+02  0.7193E+02  0.3861E+03  0.3855E+03
      2.640  0.6335E+02  0.6721E+02  0.3895E+03  0.3892E+03
      2.695  0.7072E+02  0.6972E+02  0.3934E+03  0.3930E+03
      2.750  0.6213E+02  0.6518E+02  0.3968E+03  0.3966E+03
      2.805  0.5225E+02  0.4422E+02  0.3997E+03  0.3990E+03
      2.859  0.5164E+02  0.5947E+02  0.4025E+03  0.4022E+03
      2.914  0.4695E+02  0.4290E+02  0.4051E+03  0.4046E+03
      2.969  0.6812E+02  0.6694E+02  0.4088E+03  0.4083E+03
      3.024  0.7419E+02  0.7535E+02  0.4129E+03  0.4124E+03
      3.079  0.6575E+02  0.6099E+02  0.4165E+03  0.4157E+03
      3.133  0.7497E+02  0.7613E+02  0.4206E+03  0.4199E+03
      3.188  0.6211E+02  0.6736E+02  0.4240E+03  0.4236E+03
      3.243  0.6078E+02  0.5793E+02  0.4273E+03  0.4268E+03
      3.298  0.6378E+02  0.5950E+02  0.4308E+03  0.4300E+03
      3.353  0.6880E+02  0.7229E+02  0.4346E+03  0.4340E+03
      3.407  0.6910E+02  0.7252E+02  0.4384E+03  0.4380E+03
      3.462  0.6193E+02  0.5790E+02  0.4418E+03  0.4411E+03
      3.517  0.4785E+02  0.4824E+02  0.4444E+03  0.4438E+03
      3.572  0.4507E+02  0.5284E+02  0.4469E+03  0.4467E+03
      3.627  0.4929E+02  0.3916E+02  0.4496E+03  0.4488E+03
      3.681  0.4078E+02  0.5196E+02  0.4518E+03  0.4517E+03
      3.736  0.4826E+02  0.4429E+02  0.4544E+03  0.4541E+03
      3.791  0.3487E+02  0.3439E+02  0.4563E+03  0.4560E+03
      3.846  0.3752E+02  0.3938E+02  0.4584E+03  0.4581E+03
      3.901  0.2549E+02  0.2560E+02  0.4598E+03  0.4595E+03
      3.955  0.2806E+02  0.2870E+02  0.4613E+03  0.4611E+03
      4.010  0.3481E+02  0.3360E+02  0.4632E+03  0.4630E+03
      4.065  0.3696E+02  0.3463E+02  0.4653E+03  0.4649E+03
      4.120  0.2715E+02  0.3426E+02  0.4668E+03  0.4667E+03
      4.175  0.1656E+02  0.1370E+02  0.4677E+03  0.4675E+03
      4.229  0.2191E+02  0.1624E+02  0.4689E+03  0.4684E+03
      4.284  0.3112E+02  0.2386E+02  0.4706E+03  0.4697E+03
      4.339  0.1934E+02  0.3259E+02  0.4716E+03  0.4715E+03
      4.394  0.1996E+02  0.1926E+02  0.4727E+03  0.4725E+03
      4.449  0.6647E+01  0.6438E+01  0.4731E+03  0.4729E+03
      4.503  0.1965E+02  0.8948E+01  0.4742E+03  0.4734E+03
      4.558  0.1759E+02  0.2350E+02  0.4751E+03  0.4747E+03
      4.613  0.1369E+02  0.1165E+02  0.4759E+03  0.4753E+03
      4.668  0.1142E+02  0.1268E+02  0.4765E+03  0.4760E+03
      4.723  0.1475E+02  0.1033E+02  0.4773E+03  0.4766E+03
      4.777  0.1271E+02  0.1356E+02  0.4780E+03  0.4773E+03
      4.832  0.3477E+02  0.1242E+02  0.4799E+03  0.4780E+03
      4.887  0.2196E+02  0.4045E+02  0.4811E+03  0.4802E+03
      4.942  0.2078E+02  0.2580E+02  0.4823E+03  0.4816E+03
      4.997  0.3160E+02  0.2597E+02  0.4840E+03  0.4830E+03
      5.051  0.2786E+02  0.2201E+02  0.4855E+03  0.4842E+03
      5.106  0.2526E+02  0.3200E+02  0.4869E+03  0.4860E+03
      5.161  0.3962E+02  0.3084E+02  0.4891E+03  0.4877E+03
      5.216  0.4114E+02  0.4041E+02  0.4913E+03  0.4899E+03
      5.271  0.3321E+02  0.3850E+02  0.4931E+03  0.4920E+03
      5.325  0.2823E+02  0.3674E+02  0.4947E+03  0.4940E+03
      5.380  0.3953E+02  0.3045E+02  0.4969E+03  0.4957E+03
      5.435  0.3047E+02  0.4455E+02  0.4985E+03  0.4981E+03
      5.490  0.3104E+02  0.3150E+02  0.5002E+03  0.4999E+03
      5.545  0.4020E+02  0.3476E+02  0.5024E+03  0.5018E+03
      5.599  0.4260E+02  0.4583E+02  0.5048E+03  0.5043E+03
      5.654  0.5377E+02  0.5827E+02  0.5077E+03  0.5075E+03
      5.709  0.3293E+02  0.3196E+02  0.5095E+03  0.5092E+03
      5.764  0.3987E+02  0.3441E+02  0.5117E+03  0.5111E+03
      5.819  0.6053E+02  0.5839E+02  0.5150E+03  0.5143E+03
      5.873  0.5262E+02  0.5928E+02  0.5179E+03  0.5176E+03
      5.928  0.4237E+02  0.3697E+02  0.5202E+03  0.5196E+03
      5.983  0.7497E+02  0.7341E+02  0.5243E+03  0.5236E+03
      6.038  0.4848E+02  0.5072E+02  0.5270E+03  0.5264E+03
      6.093  0.4984E+02  0.4848E+02  0.5297E+03  0.5290E+03
      6.147  0.4013E+02  0.4900E+02  0.5319E+03  0.5317E+03
      6.202  0.3251E+02  0.2509E+02  0.5337E+03  0.5331E+03
      6.257  0.6108E+02  0.6144E+02  0.5370E+03  0.5365E+03
      6.312  0.5227E+02  0.5059E+02  0.5399E+03  0.5392E+03
      6.367  0.5560E+02  0.5970E+02  0.5430E+03  0.5425E+03
      6.421  0.3820E+02  0.4310E+02  0.5451E+03  0.5449E+03
      6.476  0.7169E+02  0.6525E+02  0.5490E+03  0.5484E+03
      6.531  0.4713E+02  0.4835E+02  0.5516E+03  0.5511E+03
      6.586  0.7712E+02  0.7525E+02  0.5558E+03  0.5552E+03
      6.641  0.5135E+02  0.5786E+02  0.5586E+03  0.5584E+03
      6.695  0.5443E+02  0.5423E+02  0.5616E+03  0.5614E+03
      6.750  0.4118E+02  0.3315E+02  0.5638E+03  0.5632E+03
      6.805  0.4373E+02  0.5182E+02  0.5662E+03  0.5660E+03
      6.860  0.4662E+02  0.4179E+02  0.5688E+03  0.5683E+03
      6.915  0.4053E+02  0.4211E+02  0.5710E+03  0.5706E+03
      6.969  0.4278E+02  0.4444E+02  0.5734E+03  0.5730E+03
      7.024  0.1557E+02  0.1880E+02  0.5742E+03  0.5741E+03
      7.079  0.1188E+02  0.1010E+02  0.5749E+03  0.5746E+03
      7.134  0.1821E+02  0.2087E+02  0.5759E+03  0.5758E+03
      7.189  0.2559E+01  0.4068E+01  0.5760E+03  0.5760E+03
      7.243  0.0000E+00  0.0000E+00  0.5760E+03  0.5760E+03
      7.298  0.0000E+00  0.0000E+00  0.5760E+03  0.5760E+03
      7.353  0.0000E+00  0.0000E+00  0.5760E+03  0.5760E+03
      7.408  0.0000E+00  0.0000E+00  0.5760E+03  0.5760E+03
      7.463  0.0000E+00  0.0000E+00  0.5760E+03  0.5760E+03
      7.517  0.0000E+00  0.0000E+00  0.5760E+03  0.5760E+03
      7.572  0.0000E+00  0.0000E+00  0.5760E+03  0.5760E+03
      7.627  0.0000E+00  0.0000E+00  0.5760E+03  0.5760E+03
      7.682  0.0000E+00  0.0000E+00  0.5760E+03  0.5760E+03
      7.737  0.0000E+00  0.0000E+00  0.5760E+03  0.5760E+03
      7.791  0.0000E+00  0.0000E+00  0.5760E+03  0.5760E+03
      7.846  0.0000E+00  0.0000E+00  0.5760E+03  0.5760E+03
      7.901  0.0000E+00  0.0000E+00  0.5760E+03  0.5760E+03
