 168 168   0   0
  0.2644459E+02  0.1589523E-08  0.1589523E-08  0.2030401E-08  0.5000000E-15
  1.000000000000000E-004
  CAR 
 Si and Ge interface calculation         
      6.74778564     -9.48590266  301      3.73312860      1.00000000
     -9.486  0.0000E+00  0.0000E+00  0.0000E+00  0.0000E+00
     -9.432  0.0000E+00  0.0000E+00  0.0000E+00  0.0000E+00
     -9.378  0.0000E+00  0.0000E+00  0.0000E+00  0.0000E+00
     -9.324  0.0000E+00  0.0000E+00  0.0000E+00  0.0000E+00
     -9.269  0.0000E+00  0.0000E+00  0.0000E+00  0.0000E+00
     -9.215  0.0000E+00  0.0000E+00  0.0000E+00  0.0000E+00
     -9.161  0.0000E+00  0.0000E+00  0.0000E+00  0.0000E+00
     -9.107  0.0000E+00  0.0000E+00  0.0000E+00  0.0000E+00
     -9.053  0.0000E+00  0.0000E+00  0.0000E+00  0.0000E+00
     -8.999  0.0000E+00  0.0000E+00  0.0000E+00  0.0000E+00
     -8.945  0.0000E+00  0.0000E+00  0.0000E+00  0.0000E+00
     -8.891  0.0000E+00  0.0000E+00  0.0000E+00  0.0000E+00
     -8.837  0.0000E+00  0.0000E+00  0.0000E+00  0.0000E+00
     -8.782  0.4721E-05  0.3250E-07  0.2555E-06  0.1759E-08
     -8.728  0.9214E+01  0.8950E+01  0.4986E+00  0.4843E+00
     -8.674  0.2638E-01  0.2897E+00  0.5000E+00  0.5000E+00
     -8.620  0.3148E-08  0.5551E-11  0.5000E+00  0.5000E+00
     -8.566  0.4910E+02  0.3432E+02  0.3157E+01  0.2357E+01
     -8.512  0.6339E+01  0.2112E+02  0.3500E+01  0.3500E+01
     -8.458  0.0000E+00  0.0000E+00  0.3500E+01  0.3500E+01
     -8.404  0.0000E+00  0.0000E+00  0.3500E+01  0.3500E+01
     -8.350  0.1259E-01  0.5490E-03  0.3501E+01  0.3500E+01
     -8.295  0.9227E+01  0.9239E+01  0.4000E+01  0.4000E+01
     -8.241  0.7411E+01  0.1249E+01  0.4401E+01  0.4068E+01
     -8.187  0.4803E+02  0.5419E+02  0.7000E+01  0.7000E+01
     -8.133  0.5533E+02  0.5430E+02  0.9994E+01  0.9938E+01
     -8.079  0.1663E+02  0.8839E+01  0.1089E+02  0.1042E+02
     -8.025  0.3892E+02  0.4771E+02  0.1300E+02  0.1300E+02
     -7.971  0.0000E+00  0.3756E-01  0.1300E+02  0.1300E+02
     -7.917  0.0000E+00  0.0000E+00  0.1300E+02  0.1300E+02
     -7.863  0.9219E-10  0.1816E-12  0.1300E+02  0.1300E+02
     -7.808  0.4141E+02  0.2408E+02  0.1524E+02  0.1430E+02
     -7.754  0.1403E+02  0.3136E+02  0.1600E+02  0.1600E+02
     -7.700  0.3368E-05  0.9283E-07  0.1600E+02  0.1600E+02
     -7.646  0.2734E+02  0.2612E+02  0.1748E+02  0.1741E+02
     -7.592  0.5385E+02  0.3919E+02  0.2039E+02  0.1953E+02
     -7.538  0.8513E+02  0.1008E+03  0.2500E+02  0.2499E+02
     -7.484  0.9239E+01  0.9345E+01  0.2550E+02  0.2550E+02
     -7.430  0.3842E-02  0.6768E-01  0.2550E+02  0.2550E+02
     -7.376  0.1172E-04  0.8217E-07  0.2550E+02  0.2550E+02
     -7.321  0.5432E+02  0.4927E+02  0.2844E+02  0.2817E+02
     -7.267  0.5592E+02  0.5677E+02  0.3147E+02  0.3124E+02
     -7.213  0.6404E+00  0.4837E+01  0.3150E+02  0.3150E+02
     -7.159  0.5505E+02  0.5352E+02  0.3448E+02  0.3440E+02
     -7.105  0.5583E+02  0.5727E+02  0.3750E+02  0.3750E+02
     -7.051  0.0000E+00  0.8906E-01  0.3750E+02  0.3750E+02
     -6.997  0.1928E+01  0.1882E+00  0.3760E+02  0.3751E+02
     -6.943  0.5351E+02  0.5525E+02  0.4050E+02  0.4050E+02
     -6.889  0.2140E+02  0.6554E+01  0.4166E+02  0.4085E+02
     -6.834  0.8628E+02  0.9398E+02  0.4633E+02  0.4594E+02
     -6.780  0.8612E+02  0.9168E+02  0.5099E+02  0.5090E+02
     -6.726  0.2797E+02  0.2950E+02  0.5250E+02  0.5250E+02
     -6.672  0.7274E+02  0.6555E+02  0.5644E+02  0.5604E+02
     -6.618  0.1186E+01  0.8417E+01  0.5650E+02  0.5650E+02
     -6.564  0.9246E+01  0.9232E+01  0.5700E+02  0.5700E+02
     -6.510  0.3225E+02  0.3207E+02  0.5875E+02  0.5873E+02
     -6.456  0.5585E+02  0.5350E+02  0.6177E+02  0.6163E+02
     -6.402  0.1464E+02  0.1520E+02  0.6256E+02  0.6245E+02
     -6.347  0.8769E+02  0.8032E+02  0.6731E+02  0.6680E+02
     -6.293  0.6509E+02  0.6989E+02  0.7083E+02  0.7058E+02
     -6.239  0.1048E+03  0.1094E+03  0.7650E+02  0.7650E+02
     -6.185  0.4676E+01  0.1034E+01  0.7675E+02  0.7655E+02
     -6.131  0.5867E+02  0.5574E+02  0.7993E+02  0.7957E+02
     -6.077  0.5955E+01  0.1256E+02  0.8025E+02  0.8025E+02
     -6.023  0.5859E+02  0.5259E+02  0.8342E+02  0.8310E+02
     -5.969  0.2681E+02  0.3185E+02  0.8487E+02  0.8482E+02
     -5.914  0.5784E+02  0.5867E+02  0.8800E+02  0.8799E+02
     -5.860  0.6912E+02  0.6773E+02  0.9174E+02  0.9166E+02
     -5.806  0.2777E+02  0.2311E+02  0.9324E+02  0.9291E+02
     -5.752  0.3953E+02  0.3840E+02  0.9538E+02  0.9499E+02
     -5.698  0.1038E+03  0.1111E+03  0.1010E+03  0.1010E+03
     -5.644  0.7530E+01  0.3463E+01  0.1014E+03  0.1012E+03
     -5.590  0.2019E+02  0.2427E+02  0.1025E+03  0.1025E+03
     -5.536  0.1031E+00  0.9403E-02  0.1025E+03  0.1025E+03
     -5.482  0.6265E+02  0.5049E+02  0.1059E+03  0.1052E+03
     -5.427  0.7403E+02  0.7901E+02  0.1099E+03  0.1095E+03
     -5.373  0.7542E+02  0.8151E+02  0.1140E+03  0.1139E+03
     -5.319  0.4321E+02  0.3845E+02  0.1163E+03  0.1160E+03
     -5.265  0.5283E+02  0.5665E+02  0.1192E+03  0.1191E+03
     -5.211  0.8962E+02  0.8652E+02  0.1240E+03  0.1237E+03
     -5.157  0.8697E+01  0.1391E+02  0.1245E+03  0.1245E+03
     -5.103  0.2368E+02  0.1664E+02  0.1258E+03  0.1254E+03
     -5.049  0.5898E+02  0.5555E+02  0.1290E+03  0.1284E+03
     -4.995  0.5590E+02  0.6624E+02  0.1320E+03  0.1320E+03
     -4.940  0.4203E+02  0.3228E+02  0.1343E+03  0.1337E+03
     -4.886  0.8837E+02  0.9266E+02  0.1391E+03  0.1388E+03
     -4.832  0.6074E+02  0.5979E+02  0.1423E+03  0.1420E+03
     -4.778  0.6293E+02  0.6881E+02  0.1457E+03  0.1457E+03
     -4.724  0.1167E+03  0.1064E+03  0.1521E+03  0.1515E+03
     -4.670  0.2210E+02  0.3195E+02  0.1533E+03  0.1532E+03
     -4.616  0.5056E+02  0.5121E+02  0.1560E+03  0.1560E+03
     -4.562  0.2635E+02  0.1742E+02  0.1574E+03  0.1569E+03
     -4.508  0.1627E+02  0.2484E+02  0.1583E+03  0.1583E+03
     -4.453  0.5453E+02  0.5532E+02  0.1612E+03  0.1612E+03
     -4.399  0.1716E+02  0.1549E+02  0.1622E+03  0.1621E+03
     -4.345  0.2177E+02  0.2065E+02  0.1634E+03  0.1632E+03
     -4.291  0.1227E+03  0.1205E+03  0.1700E+03  0.1697E+03
     -4.237  0.1913E+02  0.2067E+02  0.1710E+03  0.1708E+03
     -4.183  0.5426E+02  0.5529E+02  0.1740E+03  0.1738E+03
     -4.129  0.5605E+02  0.5846E+02  0.1770E+03  0.1770E+03
     -4.075  0.1991E+01  0.4129E+00  0.1771E+03  0.1770E+03
     -4.021  0.5755E+02  0.5583E+02  0.1802E+03  0.1800E+03
     -3.966  0.5134E+02  0.5464E+02  0.1830E+03  0.1830E+03
     -3.912  0.1292E+02  0.1158E+02  0.1837E+03  0.1836E+03
     -3.858  0.2458E+02  0.2058E+02  0.1850E+03  0.1847E+03
     -3.804  0.5227E+02  0.4426E+02  0.1879E+03  0.1871E+03
     -3.750  0.6225E+02  0.6867E+02  0.1912E+03  0.1909E+03
     -3.696  0.4227E+02  0.4117E+02  0.1935E+03  0.1931E+03
     -3.642  0.3173E+02  0.3633E+02  0.1952E+03  0.1950E+03
     -3.588  0.6816E+02  0.6443E+02  0.1989E+03  0.1985E+03
     -3.534  0.6149E+02  0.6768E+02  0.2022E+03  0.2022E+03
     -3.479  0.2831E+02  0.1804E+02  0.2038E+03  0.2032E+03
     -3.425  0.6856E+02  0.7837E+02  0.2075E+03  0.2074E+03
     -3.371  0.7766E+02  0.6809E+02  0.2117E+03  0.2111E+03
     -3.317  0.5733E+01  0.1671E+02  0.2120E+03  0.2120E+03
     -3.263  0.4031E+02  0.3490E+02  0.2142E+03  0.2139E+03
     -3.209  0.1580E+02  0.2060E+02  0.2150E+03  0.2150E+03
     -3.155  0.8181E+02  0.7786E+02  0.2195E+03  0.2192E+03
     -3.101  0.5857E+02  0.5442E+02  0.2226E+03  0.2222E+03
     -3.047  0.9308E+02  0.9804E+02  0.2277E+03  0.2275E+03
     -2.992  0.1247E+02  0.1491E+02  0.2283E+03  0.2283E+03
     -2.938  0.7761E+02  0.7202E+02  0.2325E+03  0.2322E+03
     -2.884  0.8500E+02  0.7947E+02  0.2371E+03  0.2365E+03
     -2.830  0.1138E+03  0.1190E+03  0.2433E+03  0.2429E+03
     -2.776  0.3917E+01  0.1091E+02  0.2435E+03  0.2435E+03
     -2.722  0.5609E+02  0.5144E+02  0.2465E+03  0.2463E+03
     -2.668  0.7026E+02  0.6359E+02  0.2503E+03  0.2497E+03
     -2.614  0.5247E+02  0.6109E+02  0.2532E+03  0.2530E+03
     -2.560  0.5133E+02  0.4657E+02  0.2560E+03  0.2556E+03
     -2.505  0.5261E+01  0.1290E+02  0.2563E+03  0.2563E+03
     -2.451  0.4512E+02  0.3366E+02  0.2587E+03  0.2581E+03
     -2.397  0.6039E+02  0.6879E+02  0.2620E+03  0.2618E+03
     -2.343  0.3793E+02  0.3236E+02  0.2640E+03  0.2635E+03
     -2.289  0.6585E+02  0.7334E+02  0.2676E+03  0.2675E+03
     -2.235  0.8717E+02  0.7625E+02  0.2723E+03  0.2716E+03
     -2.181  0.5465E+02  0.6672E+02  0.2752E+03  0.2752E+03
     -2.127  0.2580E+02  0.2041E+02  0.2766E+03  0.2764E+03
     -2.073  0.4455E+02  0.4421E+02  0.2791E+03  0.2787E+03
     -2.018  0.1281E+02  0.1854E+02  0.2798E+03  0.2798E+03
     -1.964  0.2550E+02  0.1874E+02  0.2811E+03  0.2808E+03
     -1.910  0.1608E+02  0.2284E+02  0.2820E+03  0.2820E+03
     -1.856  0.5517E+02  0.5457E+02  0.2850E+03  0.2850E+03
     -1.802  0.2414E+02  0.1513E+02  0.2863E+03  0.2858E+03
     -1.748  0.6857E+02  0.6904E+02  0.2900E+03  0.2895E+03
     -1.694  0.2819E+02  0.2740E+02  0.2915E+03  0.2910E+03
     -1.640  0.3183E+02  0.4176E+02  0.2932E+03  0.2932E+03
     -1.586  0.3333E+02  0.2748E+02  0.2951E+03  0.2947E+03
     -1.531  0.8917E+02  0.8786E+02  0.2999E+03  0.2995E+03
     -1.477  0.7487E+02  0.7915E+02  0.3039E+03  0.3038E+03
     -1.423  0.1858E+02  0.2047E+02  0.3049E+03  0.3049E+03
     -1.369  0.1196E+01  0.2191E+01  0.3050E+03  0.3050E+03
     -1.315  0.2858E+02  0.2708E+02  0.3065E+03  0.3065E+03
     -1.261  0.1300E+02  0.1450E+02  0.3072E+03  0.3072E+03
     -1.207  0.0000E+00  0.0000E+00  0.3072E+03  0.3072E+03
     -1.153  0.5309E+01  0.1122E+01  0.3075E+03  0.3073E+03
     -1.098  0.4568E+02  0.4476E+02  0.3100E+03  0.3097E+03
     -1.044  0.4454E+01  0.9558E+01  0.3102E+03  0.3102E+03
     -0.990  0.7166E-06  0.7770E-08  0.3103E+03  0.3103E+03
     -0.936  0.2734E+02  0.2569E+02  0.3117E+03  0.3116E+03
     -0.882  0.3784E+00  0.2033E+01  0.3118E+03  0.3118E+03
     -0.828  0.0000E+00  0.0000E+00  0.3118E+03  0.3118E+03
     -0.774  0.4718E+00  0.8250E-01  0.3118E+03  0.3118E+03
     -0.720  0.3979E+02  0.3853E+02  0.3139E+03  0.3138E+03
     -0.666  0.3798E+02  0.3548E+02  0.3160E+03  0.3158E+03
     -0.611  0.3242E+02  0.2922E+02  0.3177E+03  0.3173E+03
     -0.557  0.7249E+02  0.7074E+02  0.3217E+03  0.3212E+03
     -0.503  0.1089E+02  0.1998E+02  0.3223E+03  0.3223E+03
     -0.449  0.2772E+02  0.2769E+02  0.3237E+03  0.3237E+03
     -0.395  0.0000E+00  0.2920E-01  0.3238E+03  0.3238E+03
     -0.341  0.1803E-02  0.2447E-03  0.3238E+03  0.3238E+03
     -0.287  0.3995E+02  0.3346E+02  0.3259E+03  0.3256E+03
     -0.233  0.4608E+02  0.3635E+02  0.3284E+03  0.3275E+03
     -0.179  0.1461E+03  0.1575E+03  0.3363E+03  0.3360E+03
     -0.124  0.7973E+02  0.7669E+02  0.3406E+03  0.3402E+03
     -0.070  0.4805E+02  0.4286E+02  0.3432E+03  0.3425E+03
     -0.016  0.1080E+03  0.1177E+03  0.3491E+03  0.3489E+03
      0.038  0.9379E+02  0.8478E+02  0.3541E+03  0.3535E+03
      0.092  0.1063E+03  0.1102E+03  0.3599E+03  0.3594E+03
      0.146  0.2044E+02  0.2876E+02  0.3610E+03  0.3610E+03
      0.200  0.4918E+02  0.3856E+02  0.3637E+03  0.3631E+03
      0.254  0.8344E+02  0.8219E+02  0.3682E+03  0.3675E+03
      0.308  0.1604E+03  0.1622E+03  0.3769E+03  0.3763E+03
      0.363  0.6794E+02  0.7546E+02  0.3805E+03  0.3804E+03
      0.417  0.1284E+03  0.1230E+03  0.3875E+03  0.3870E+03
      0.471  0.7748E+02  0.7742E+02  0.3917E+03  0.3912E+03
      0.525  0.1079E+03  0.1036E+03  0.3975E+03  0.3968E+03
      0.579  0.7609E+02  0.7962E+02  0.4016E+03  0.4012E+03
      0.633  0.4857E+02  0.5063E+02  0.4043E+03  0.4039E+03
      0.687  0.6384E+02  0.6808E+02  0.4077E+03  0.4076E+03
      0.741  0.3766E+02  0.3994E+02  0.4098E+03  0.4097E+03
      0.795  0.5403E+02  0.4630E+02  0.4127E+03  0.4122E+03
      0.850  0.1322E+03  0.1344E+03  0.4198E+03  0.4195E+03
      0.904  0.1415E+03  0.1260E+03  0.4275E+03  0.4263E+03
      0.958  0.1082E+03  0.1057E+03  0.4333E+03  0.4321E+03
      1.012  0.1577E+03  0.1681E+03  0.4419E+03  0.4411E+03
      1.066  0.1305E+03  0.1333E+03  0.4489E+03  0.4484E+03
      1.120  0.8367E+02  0.9186E+02  0.4535E+03  0.4533E+03
      1.174  0.7928E+02  0.7448E+02  0.4578E+03  0.4574E+03
      1.228  0.1473E+03  0.1422E+03  0.4657E+03  0.4651E+03
      1.282  0.9495E+02  0.9051E+02  0.4709E+03  0.4700E+03
      1.337  0.1144E+03  0.1197E+03  0.4771E+03  0.4764E+03
      1.391  0.1086E+03  0.1073E+03  0.4829E+03  0.4822E+03
      1.445  0.1006E+03  0.9660E+02  0.4884E+03  0.4875E+03
      1.499  0.9485E+02  0.1009E+03  0.4935E+03  0.4929E+03
      1.553  0.1030E+03  0.9923E+02  0.4991E+03  0.4983E+03
      1.607  0.1789E+03  0.1794E+03  0.5088E+03  0.5080E+03
      1.661  0.1155E+03  0.1242E+03  0.5150E+03  0.5147E+03
      1.715  0.1344E+03  0.1300E+03  0.5223E+03  0.5218E+03
      1.769  0.5463E+02  0.5848E+02  0.5252E+03  0.5249E+03
      1.824  0.1454E+03  0.1444E+03  0.5331E+03  0.5327E+03
      1.878  0.1217E+03  0.1164E+03  0.5397E+03  0.5390E+03
      1.932  0.7693E+02  0.8543E+02  0.5438E+03  0.5437E+03
      1.986  0.7578E+02  0.7764E+02  0.5479E+03  0.5479E+03
      2.040  0.8361E+02  0.8170E+02  0.5525E+03  0.5523E+03
      2.094  0.9518E+02  0.8950E+02  0.5576E+03  0.5571E+03
      2.148  0.5675E+02  0.5248E+02  0.5607E+03  0.5600E+03
      2.202  0.1192E+03  0.1180E+03  0.5671E+03  0.5663E+03
      2.256  0.1243E+03  0.1370E+03  0.5739E+03  0.5738E+03
      2.311  0.8525E+02  0.6223E+02  0.5785E+03  0.5771E+03
      2.365  0.1060E+03  0.1240E+03  0.5842E+03  0.5838E+03
      2.419  0.7612E+02  0.7613E+02  0.5883E+03  0.5880E+03
      2.473  0.4902E+02  0.5350E+02  0.5910E+03  0.5908E+03
      2.527  0.1065E+03  0.1040E+03  0.5968E+03  0.5965E+03
      2.581  0.5086E+02  0.5067E+02  0.5995E+03  0.5992E+03
      2.635  0.8893E+02  0.8479E+02  0.6043E+03  0.6038E+03
      2.689  0.3316E+02  0.3640E+02  0.6061E+03  0.6058E+03
      2.743  0.1007E+03  0.9310E+02  0.6116E+03  0.6108E+03
      2.798  0.1251E+03  0.1264E+03  0.6183E+03  0.6177E+03
      2.852  0.7113E+02  0.7481E+02  0.6222E+03  0.6217E+03
      2.906  0.8505E+02  0.8877E+02  0.6268E+03  0.6265E+03
      2.960  0.6282E+02  0.5547E+02  0.6302E+03  0.6295E+03
      3.014  0.3810E+02  0.5075E+02  0.6323E+03  0.6322E+03
      3.068  0.9685E+01  0.9148E+01  0.6328E+03  0.6327E+03
      3.122  0.1112E+03  0.1028E+03  0.6388E+03  0.6383E+03
      3.176  0.9555E+01  0.1756E+02  0.6393E+03  0.6393E+03
      3.230  0.4823E+02  0.3521E+02  0.6419E+03  0.6412E+03
      3.285  0.1140E+03  0.1214E+03  0.6481E+03  0.6477E+03
      3.339  0.3484E+02  0.3830E+02  0.6500E+03  0.6498E+03
      3.393  0.5160E+02  0.4899E+02  0.6528E+03  0.6525E+03
      3.447  0.8159E+02  0.6438E+02  0.6572E+03  0.6559E+03
      3.501  0.3972E+02  0.5753E+02  0.6593E+03  0.6591E+03
      3.555  0.6874E+02  0.6286E+02  0.6631E+03  0.6625E+03
      3.609  0.3175E+02  0.3509E+02  0.6648E+03  0.6644E+03
      3.663  0.5044E+02  0.2368E+02  0.6675E+03  0.6656E+03
      3.717  0.6453E+02  0.7535E+02  0.6710E+03  0.6697E+03
      3.772  0.3111E+02  0.4709E+02  0.6727E+03  0.6723E+03
      3.826  0.3835E+02  0.4545E+02  0.6747E+03  0.6747E+03
      3.880  0.3967E+02  0.1604E+02  0.6769E+03  0.6756E+03
      3.934  0.1908E+01  0.2610E+02  0.6770E+03  0.6770E+03
      3.988  0.3116E+02  0.1538E+02  0.6787E+03  0.6778E+03
      4.042  0.2100E+01  0.1736E+02  0.6788E+03  0.6788E+03
      4.096  0.1749E+02  0.1642E+02  0.6797E+03  0.6797E+03
      4.150  0.4810E+02  0.4769E+02  0.6823E+03  0.6822E+03
      4.205  0.6513E+01  0.5706E+01  0.6827E+03  0.6825E+03
      4.259  0.6541E+02  0.6203E+02  0.6862E+03  0.6859E+03
      4.313  0.6923E+02  0.7448E+02  0.6900E+03  0.6899E+03
      4.367  0.1066E+02  0.8429E+01  0.6906E+03  0.6904E+03
      4.421  0.6588E+02  0.6408E+02  0.6941E+03  0.6939E+03
      4.475  0.3101E+02  0.3105E+02  0.6958E+03  0.6955E+03
      4.529  0.4026E+02  0.4452E+02  0.6980E+03  0.6979E+03
      4.583  0.9701E+01  0.1020E+02  0.6985E+03  0.6985E+03
      4.637  0.7336E+02  0.6274E+02  0.7025E+03  0.7019E+03
      4.692  0.7696E+02  0.8558E+02  0.7066E+03  0.7065E+03
      4.746  0.5453E+01  0.5171E+01  0.7069E+03  0.7068E+03
      4.800  0.6757E+02  0.6438E+02  0.7106E+03  0.7103E+03
      4.854  0.9020E+02  0.8953E+02  0.7155E+03  0.7151E+03
      4.908  0.8824E+02  0.8800E+02  0.7203E+03  0.7199E+03
      4.962  0.8706E+02  0.9097E+02  0.7250E+03  0.7248E+03
      5.016  0.4018E+02  0.4151E+02  0.7271E+03  0.7271E+03
      5.070  0.3143E+02  0.2788E+02  0.7288E+03  0.7286E+03
      5.124  0.5622E+02  0.5416E+02  0.7319E+03  0.7315E+03
      5.179  0.6161E+02  0.6280E+02  0.7352E+03  0.7349E+03
      5.233  0.4958E+02  0.4406E+02  0.7379E+03  0.7373E+03
      5.287  0.1207E+03  0.1261E+03  0.7444E+03  0.7441E+03
      5.341  0.1208E+03  0.1213E+03  0.7510E+03  0.7507E+03
      5.395  0.5719E+02  0.5556E+02  0.7541E+03  0.7537E+03
      5.449  0.9825E+02  0.9851E+02  0.7594E+03  0.7590E+03
      5.503  0.7774E+02  0.7371E+02  0.7636E+03  0.7630E+03
      5.557  0.8702E+02  0.9315E+02  0.7683E+03  0.7680E+03
      5.611  0.8906E+02  0.8305E+02  0.7731E+03  0.7725E+03
      5.666  0.1132E+03  0.1188E+03  0.7792E+03  0.7790E+03
      5.720  0.7996E+02  0.7988E+02  0.7836E+03  0.7833E+03
      5.774  0.1058E+03  0.1019E+03  0.7893E+03  0.7888E+03
      5.828  0.7500E+02  0.7664E+02  0.7934E+03  0.7929E+03
      5.882  0.1162E+03  0.1102E+03  0.7996E+03  0.7989E+03
      5.936  0.9301E+02  0.1046E+03  0.8047E+03  0.8046E+03
      5.990  0.5092E+02  0.5049E+02  0.8074E+03  0.8073E+03
      6.044  0.1048E+02  0.1292E+02  0.8080E+03  0.8080E+03
      6.098  0.0000E+00  0.0000E+00  0.8080E+03  0.8080E+03
      6.153  0.0000E+00  0.0000E+00  0.8080E+03  0.8080E+03
      6.207  0.0000E+00  0.0000E+00  0.8080E+03  0.8080E+03
      6.261  0.0000E+00  0.0000E+00  0.8080E+03  0.8080E+03
      6.315  0.0000E+00  0.0000E+00  0.8080E+03  0.8080E+03
      6.369  0.0000E+00  0.0000E+00  0.8080E+03  0.8080E+03
      6.423  0.0000E+00  0.0000E+00  0.8080E+03  0.8080E+03
      6.477  0.0000E+00  0.0000E+00  0.8080E+03  0.8080E+03
      6.531  0.0000E+00  0.0000E+00  0.8080E+03  0.8080E+03
      6.585  0.0000E+00  0.0000E+00  0.8080E+03  0.8080E+03
      6.640  0.0000E+00  0.0000E+00  0.8080E+03  0.8080E+03
      6.694  0.0000E+00  0.0000E+00  0.8080E+03  0.8080E+03
      6.748  0.0000E+00  0.0000E+00  0.8080E+03  0.8080E+03
