       N       E                     dE             d eps       ncg     rms          rms(c)
DAV:   1     0.605196287227E+04    0.60520E+04   -0.36479E+05 14848   0.178E+03
DAV:   2     0.202395038971E+04   -0.40280E+04   -0.38740E+04 17424   0.235E+02
DAV:   3     0.159537801453E+04   -0.42857E+03   -0.40663E+03 20096   0.654E+01
DAV:   4     0.157107494511E+04   -0.24303E+02   -0.23570E+02 18624   0.164E+01
DAV:   5     0.156995815324E+04   -0.11168E+01   -0.11029E+01 21112   0.380E+00    0.766E+02
DAV:   6     0.140617274609E+04   -0.16379E+03   -0.33529E+03 22320   0.977E+01    0.221E+02
DAV:   7     0.147318170322E+04    0.67009E+02   -0.15010E+03 24728   0.463E+01    0.252E+02
DAV:   8     0.173469246371E+04    0.26151E+03   -0.10062E+03 20224   0.596E+01    0.136E+02
DAV:   9     0.170488922842E+04   -0.29803E+02   -0.36657E+02 17704   0.206E+01    0.634E+01
DAV:  10     0.170944026492E+04    0.45510E+01   -0.97307E+01 17928   0.103E+01    0.640E+01
DAV:  11     0.169942173048E+04   -0.10019E+02   -0.39628E+01 19200   0.862E+00    0.372E+01
DAV:  12     0.170530518836E+04    0.58835E+01   -0.25070E+01 18792   0.875E+00    0.168E+01
DAV:  13     0.170946052957E+04    0.41553E+01   -0.26208E+01 20816   0.615E+00    0.277E+01
DAV:  14     0.171044151357E+04    0.98098E+00   -0.62509E+00 17720   0.403E+00    0.317E+01
DAV:  15     0.171048873144E+04    0.47218E-01   -0.23202E+00 19424   0.211E+00    0.273E+01
DAV:  16     0.171023300788E+04   -0.25572E+00   -0.11814E+00 18928   0.207E+00    0.199E+01
DAV:  17     0.171059470953E+04    0.36170E+00   -0.69329E-01 19496   0.199E+00    0.199E+01
DAV:  18     0.171068764091E+04    0.92931E-01   -0.63536E-01 17136   0.116E+00    0.213E+01
DAV:  19     0.171065134317E+04   -0.36298E-01   -0.33515E-01 19160   0.786E-01    0.204E+01
DAV:  20     0.171064404829E+04   -0.72949E-02   -0.12542E-01 18056   0.585E-01    0.201E+01
DAV:  21     0.171066924264E+04    0.25194E-01   -0.54456E-02 18120   0.416E-01    0.194E+01
DAV:  22     0.171070001187E+04    0.30769E-01   -0.61098E-02 18400   0.319E-01    0.157E+01
DAV:  23     0.171070819831E+04    0.81864E-02   -0.23022E-02 17616   0.235E-01    0.141E+01
DAV:  24     0.171071809728E+04    0.98990E-02   -0.11698E-02 17360   0.138E-01    0.134E+01
DAV:  25     0.171072276156E+04    0.46643E-02   -0.69974E-03 19088   0.827E-02    0.126E+01
DAV:  26     0.171072320677E+04    0.44521E-03   -0.73545E-04 16936   0.334E-02    0.121E+01
DAV:  27     0.171072620603E+04    0.29993E-02   -0.12489E-03 17552   0.449E-02    0.106E+01
DAV:  28     0.171073100095E+04    0.47949E-02   -0.33601E-03 18680   0.572E-02    0.827E+00
DAV:  29     0.171073162595E+04    0.62501E-03   -0.63392E-04 17904   0.331E-02    0.750E+00
DAV:  30     0.171073202520E+04    0.39925E-03   -0.16494E-04 17160   0.173E-02    0.718E+00
DAV:  31     0.171073371238E+04    0.16872E-02   -0.82401E-04 18704   0.300E-02    0.591E+00
DAV:  32     0.171073579398E+04    0.20816E-02   -0.23184E-03 18888   0.481E-02    0.386E+00
DAV:  33     0.171073670517E+04    0.91119E-03   -0.10979E-03 19392   0.367E-02    0.278E+00
DAV:  34     0.171073715867E+04    0.45350E-03   -0.38399E-04 18024   0.241E-02    0.212E+00
DAV:  35     0.171073760193E+04    0.44325E-03   -0.78144E-04 17632   0.292E-02    0.114E+00
DAV:  36     0.171073768498E+04    0.83049E-04   -0.59750E-04 19408   0.243E-02    0.470E-01
DAV:  37     0.171073769514E+04    0.10166E-04   -0.70921E-05 17152   0.106E-02    0.298E-01
DAV:  38     0.171073769788E+04    0.27416E-05   -0.99146E-06 19200   0.366E-03    0.281E-01
DAV:  39     0.171073769784E+04   -0.48942E-07   -0.26498E-06 17488   0.215E-03    0.248E-01
DAV:  40     0.171073770572E+04    0.78816E-05   -0.11122E-05 19120   0.410E-03    0.931E-02
DAV:  41     0.171073770652E+04    0.80096E-06   -0.10953E-05 19600   0.325E-03    0.424E-02
DAV:  42     0.171073770660E+04    0.80134E-07   -0.97113E-07 16536   0.126E-03
   1 F= 0.17107377E+04 E0= 0.17107396E+04  d E =-.373600E-02  mag=     1.0000
