Si and Ge interface calculation         
           1
    16.002676    0.000000    0.000000
     0.000000   16.973400    0.000000
     0.000000    0.000000   18.072525
   Ge   Si
   144    72
Direct configuration=     1
   0.98968923  0.98625231  0.00000002
   0.86468923  0.81958562  0.11068373
   0.73968923  0.65291894  0.22136749
   0.61468923  0.48625225  0.33205119
   0.48968929  0.31958556  0.44273487
   0.36468923  0.15291887  0.55341864
   0.98968923  0.31958565  0.00000002
   0.86468923  0.15291895  0.11068373
   0.73968923  0.98625225  0.22136749
   0.61468923  0.81958556  0.33205119
   0.48968929  0.65291894  0.44273487
   0.36468923  0.48625219  0.55341864
   0.98968923  0.65291899  0.00000002
   0.86468923  0.48625231  0.11068373
   0.73968923  0.31958559  0.22136749
   0.61468923  0.15291894  0.33205119
   0.48968929  0.98625225  0.44273487
   0.36468923  0.81958556  0.55341864
   0.48968923  0.98625231  0.00000002
   0.36468923  0.81958562  0.11068375
   0.23968922  0.65291894  0.22136749
   0.11468923  0.48625225  0.33205122
   0.98968923  0.31958556  0.44273490
   0.86468923  0.15291887  0.55341858
   0.48968923  0.31958565  0.00000002
   0.36468923  0.15291895  0.11068375
   0.23968922  0.98625225  0.22136749
   0.11468923  0.81958556  0.33205122
   0.98968923  0.65291894  0.44273490
   0.86468923  0.48625219  0.55341858
   0.48968923  0.65291899  0.00000002
   0.36468923  0.48625231  0.11068375
   0.23968922  0.31958559  0.22136749
   0.11468923  0.15291894  0.33205122
   0.98968923  0.98625225  0.44273490
   0.86468923  0.81958556  0.55341858
   0.23968923  0.98625231  0.00000003
   0.11468923  0.81958562  0.11068375
   0.98968923  0.65291894  0.22136749
   0.86468923  0.48625225  0.33205122
   0.73968923  0.31958556  0.44273490
   0.61468923  0.15291887  0.55341864
   0.23968923  0.31958565  0.00000003
   0.11468923  0.15291895  0.11068375
   0.98968923  0.98625225  0.22136749
   0.86468923  0.81958556  0.33205122
   0.73968923  0.65291894  0.44273490
   0.61468923  0.48625219  0.55341864
   0.23968923  0.65291899  0.00000003
   0.11468923  0.48625231  0.11068375
   0.98968923  0.31958559  0.22136749
   0.86468923  0.15291894  0.33205122
   0.73968923  0.98625225  0.44273490
   0.61468923  0.81958556  0.55341864
   0.73968923  0.98625231  0.00000001
   0.61468923  0.81958562  0.11068375
   0.48968920  0.65291894  0.22136746
   0.36468923  0.48625225  0.33205122
   0.23968925  0.31958556  0.44273490
   0.11468923  0.15291887  0.55341858
   0.73968923  0.31958565  0.00000001
   0.61468923  0.15291895  0.11068375
   0.48968920  0.98625225  0.22136746
   0.36468923  0.81958556  0.33205122
   0.23968925  0.65291894  0.44273490
   0.11468923  0.48625219  0.55341858
   0.73968923  0.65291899  0.00000001
   0.61468923  0.48625231  0.11068375
   0.48968920  0.31958559  0.22136746
   0.36468923  0.15291894  0.33205122
   0.23968925  0.98625225  0.44273490
   0.11468923  0.81958556  0.55341858
   0.36468923  0.23625231  0.00000001
   0.23968923  0.06958562  0.11068373
   0.11468921  0.90291887  0.22136746
   0.98968923  0.73625219  0.33205122
   0.86468923  0.56958556  0.44273490
   0.73968923  0.40291887  0.55341864
   0.36468923  0.56958568  0.00000001
   0.23968923  0.40291899  0.11068373
   0.11468921  0.23625229  0.22136746
   0.98968923  0.06958561  0.33205122
   0.86468923  0.90291894  0.44273490
   0.73968923  0.73625219  0.55341864
   0.36468923  0.90291899  0.00000001
   0.23968923  0.73625231  0.11068373
   0.11468921  0.56958556  0.22136746
   0.98968923  0.40291890  0.33205122
   0.86468923  0.23625226  0.44273490
   0.73968923  0.06958555  0.55341864
   0.86468929  0.23625231  0.00000000
   0.73968929  0.06958562  0.11068373
   0.61468929  0.90291887  0.22136746
   0.48968929  0.73625219  0.33205119
   0.36468929  0.56958556  0.44273487
   0.23968929  0.40291887  0.55341858
   0.86468929  0.56958568  0.00000000
   0.73968929  0.40291899  0.11068373
   0.61468929  0.23625229  0.22136746
   0.48968929  0.06958561  0.33205119
   0.36468929  0.90291894  0.44273487
   0.23968929  0.73625219  0.55341858
   0.86468929  0.90291899  0.00000000
   0.73968929  0.73625231  0.11068373
   0.61468929  0.56958556  0.22136746
   0.48968929  0.40291890  0.33205119
   0.36468929  0.23625226  0.44273487
   0.23968929  0.06958555  0.55341858
   0.11468922  0.23625231  0.00000002
   0.98968923  0.06958562  0.11068375
   0.86468923  0.90291887  0.22136746
   0.73968923  0.73625219  0.33205122
   0.61468923  0.56958556  0.44273490
   0.48968923  0.40291887  0.55341858
   0.11468922  0.56958568  0.00000002
   0.98968923  0.40291899  0.11068375
   0.86468923  0.23625229  0.22136746
   0.73968923  0.06958561  0.33205122
   0.61468923  0.90291894  0.44273490
   0.48968923  0.73625219  0.55341858
   0.11468922  0.90291899  0.00000002
   0.98968923  0.73625231  0.11068375
   0.86468923  0.56958556  0.22136746
   0.73968923  0.40291890  0.33205122
   0.61468923  0.23625226  0.44273490
   0.48968923  0.06958555  0.55341858
   0.61468923  0.23625231  0.00000001
   0.48968923  0.06958562  0.11068375
   0.36468923  0.90291887  0.22136746
   0.23968923  0.73625219  0.33205122
   0.11468925  0.56958556  0.44273487
   0.98968923  0.40291887  0.55341858
   0.61468923  0.56958568  0.00000001
   0.48968923  0.40291899  0.11068375
   0.36468923  0.23625229  0.22136746
   0.23968923  0.06958561  0.33205122
   0.11468925  0.90291894  0.44273487
   0.98968923  0.73625219  0.55341858
   0.61468923  0.90291899  0.00000001
   0.48968923  0.73625231  0.11068375
   0.36468923  0.56958556  0.22136746
   0.23968923  0.40291890  0.33205122
   0.11468925  0.23625226  0.44273487
   0.98968923  0.06958555  0.55341858
   0.97943550  0.40608633  0.89549714
   0.81276905  0.65608561  0.65792173
   0.64610231  0.00608563  0.70543677
   0.47943568  0.35608578  0.75295186
   0.31276894  0.70608616  0.80046701
   0.14610219  0.05608630  0.84798211
   0.31276894  0.40608633  0.89549714
   0.14610243  0.65608561  0.65792173
   0.97943568  0.00608563  0.70543677
   0.81276894  0.35608578  0.75295186
   0.64610219  0.70608616  0.80046701
   0.47943544  0.05608630  0.84798211
   0.64610219  0.40608633  0.89549714
   0.47943568  0.65608561  0.65792173
   0.31276905  0.00608563  0.70543677
   0.14610243  0.35608578  0.75295186
   0.97943556  0.70608616  0.80046701
   0.81276882  0.05608630  0.84798211
   0.06276882  0.15608644  0.89549714
   0.89610237  0.40608573  0.65792167
   0.72943568  0.75608587  0.70543677
   0.56276894  0.10608613  0.75295180
   0.39610219  0.45608628  0.80046695
   0.22943556  0.80608630  0.84798205
   0.39610219  0.15608644  0.89549714
   0.22943568  0.40608573  0.65792167
   0.06276894  0.75608587  0.70543677
   0.89610231  0.10608613  0.75295180
   0.72943556  0.45608628  0.80046695
   0.56276894  0.80608630  0.84798205
   0.72943544  0.15608644  0.89549714
   0.56276894  0.40608573  0.65792167
   0.39610231  0.75608587  0.70543677
   0.22943556  0.10608613  0.75295180
   0.06276882  0.45608628  0.80046695
   0.89610219  0.80608630  0.84798205
   0.97943550  0.90608644  0.89549714
   0.81276894  0.15608573  0.65792167
   0.64610231  0.50608587  0.70543677
   0.47943568  0.85608590  0.75295180
   0.31276894  0.20608616  0.80046701
   0.14610219  0.55608630  0.84798205
   0.31276894  0.90608644  0.89549714
   0.14610243  0.15608573  0.65792167
   0.97943568  0.50608587  0.70543677
   0.81276894  0.85608590  0.75295180
   0.64610219  0.20608616  0.80046701
   0.47943556  0.55608630  0.84798205
   0.64610219  0.90608644  0.89549714
   0.47943568  0.15608573  0.65792167
   0.31276894  0.50608587  0.70543677
   0.14610231  0.85608590  0.75295180
   0.97943556  0.20608616  0.80046701
   0.81276894  0.55608630  0.84798205
   0.06276882  0.65608644  0.89549714
   0.89610237  0.90608561  0.65792173
   0.72943568  0.25608563  0.70543677
   0.56276894  0.60608590  0.75295180
   0.39610219  0.95608616  0.80046695
   0.22943544  0.30608642  0.84798205
   0.39610219  0.65608644  0.89549714
   0.22943568  0.90608561  0.65792173
   0.06276905  0.25608563  0.70543677
   0.89610231  0.60608590  0.75295180
   0.72943556  0.95608616  0.80046695
   0.56276882  0.30608642  0.84798205
   0.72943556  0.65608644  0.89549714
   0.56276905  0.90608561  0.65792173
   0.39610243  0.25608563  0.70543677
   0.22943568  0.60608590  0.75295180
   0.06276894  0.95608616  0.80046695
   0.89610213  0.30608642  0.84798205
