       N       E                     dE             d eps       ncg     rms          rms(c)
DAV:   1     0.660385178832E+04    0.66039E+04   -0.22820E+05 13824   0.179E+03
DAV:   2     0.396130132679E+04   -0.26426E+04   -0.25342E+04 16232   0.241E+02
DAV:   3     0.362966740741E+04   -0.33163E+03   -0.31919E+03 20168   0.740E+01
DAV:   4     0.361305117226E+04   -0.16616E+02   -0.16288E+02 16512   0.174E+01
DAV:   5     0.361239072081E+04   -0.66045E+00   -0.65610E+00 19208   0.401E+00    0.286E+02
DAV:   6     0.339326566720E+04   -0.21913E+03   -0.60854E+03 17184   0.147E+02    0.101E+02
DAV:   7     0.377887979750E+04    0.38561E+03   -0.11312E+03 19488   0.517E+01    0.103E+02
DAV:   8     0.382579389692E+04    0.46914E+02   -0.51854E+02 17536   0.347E+01    0.851E+01
DAV:   9     0.384646582605E+04    0.20672E+02   -0.13362E+02 17816   0.206E+01    0.447E+01
DAV:  10     0.383028694339E+04   -0.16179E+02   -0.56252E+01 17432   0.117E+01    0.465E+01
DAV:  11     0.381424444720E+04   -0.16042E+02   -0.28819E+02 19048   0.235E+01    0.295E+01
DAV:  12     0.382043506067E+04    0.61906E+01   -0.61442E+01 16016   0.918E+00    0.352E+01
DAV:  13     0.382959129985E+04    0.91562E+01   -0.66084E+00 16584   0.338E+00    0.270E+01
DAV:  14     0.383737820102E+04    0.77869E+01   -0.48153E+00 17656   0.210E+00    0.205E+01
DAV:  15     0.384525016071E+04    0.78720E+01   -0.14359E+01 19248   0.347E+00    0.121E+01
DAV:  16     0.384459922751E+04   -0.65093E+00   -0.47963E+00 18144   0.263E+00    0.125E+01
DAV:  17     0.384521204953E+04    0.61282E+00   -0.24289E+00 17624   0.216E+00    0.955E+00
DAV:  18     0.384534440883E+04    0.13236E+00   -0.76877E-01 17256   0.981E-01    0.817E+00
DAV:  19     0.384557468628E+04    0.23028E+00   -0.34663E-01 17968   0.775E-01    0.700E+00
DAV:  20     0.384564663686E+04    0.71951E-01   -0.65669E-02 16288   0.398E-01    0.639E+00
DAV:  21     0.384574117495E+04    0.94538E-01   -0.56069E-02 19216   0.281E-01    0.532E+00
DAV:  22     0.384581965554E+04    0.78481E-01   -0.10722E-01 20048   0.367E-01    0.390E+00
DAV:  23     0.384587145610E+04    0.51801E-01   -0.62864E-02 18520   0.319E-01    0.279E+00
DAV:  24     0.384587077134E+04   -0.68476E-03   -0.14884E-02 15888   0.187E-01    0.234E+00
DAV:  25     0.384588782728E+04    0.17056E-01   -0.10259E-02 18488   0.139E-01    0.168E+00
DAV:  26     0.384590460188E+04    0.16775E-01   -0.15191E-02 19024   0.133E-01    0.116E+00
DAV:  27     0.384591217273E+04    0.75708E-02   -0.76023E-03 19448   0.102E-01    0.831E-01
DAV:  28     0.384591602070E+04    0.38480E-02   -0.42348E-03 19200   0.729E-02    0.639E-01
DAV:  29     0.384591833030E+04    0.23096E-02   -0.44047E-03 19256   0.665E-02    0.443E-01
DAV:  30     0.384591884826E+04    0.51796E-03   -0.23558E-03 19104   0.493E-02    0.273E-01
DAV:  31     0.384591881758E+04   -0.30682E-04   -0.67855E-04 18800   0.284E-02    0.185E-01
DAV:  32     0.384591869213E+04   -0.12545E-03   -0.10445E-03 17432   0.379E-02    0.933E-02
DAV:  33     0.384591871614E+04    0.24010E-04   -0.67595E-04 17640   0.290E-02    0.708E-02
DAV:  34     0.384591868464E+04   -0.31493E-04   -0.12570E-04 17456   0.145E-02    0.862E-02
DAV:  35     0.384591864417E+04   -0.40476E-04   -0.39403E-05 19904   0.684E-03    0.846E-02
DAV:  36     0.384591862227E+04   -0.21896E-04   -0.23817E-04 17744   0.157E-02    0.599E-02
DAV:  37     0.384591855288E+04   -0.69390E-04   -0.15719E-04 18672   0.132E-02    0.871E-02
DAV:  38     0.384591852272E+04   -0.30167E-04   -0.83704E-05 19576   0.973E-03    0.913E-02
DAV:  39     0.384591849434E+04   -0.28372E-04   -0.10993E-04 18752   0.105E-02    0.881E-02
DAV:  40     0.384591851496E+04    0.20619E-04   -0.83845E-04 18336   0.287E-02    0.472E-02
DAV:  41     0.384591851505E+04    0.86869E-07   -0.12383E-04 16016   0.151E-02    0.600E-02
DAV:  42     0.384591849564E+04   -0.19414E-04   -0.42610E-04 18120   0.202E-02    0.360E-02
DAV:  43     0.384591848551E+04   -0.10128E-04   -0.11149E-04 18264   0.119E-02    0.554E-02
DAV:  44     0.384591848164E+04   -0.38654E-05   -0.29663E-05 20216   0.556E-03    0.485E-02
DAV:  45     0.384591847840E+04   -0.32467E-05   -0.28118E-05 18928   0.530E-03    0.360E-02
DAV:  46     0.384591847530E+04   -0.30905E-05   -0.57680E-05 18512   0.759E-03    0.263E-02
DAV:  47     0.384591847410E+04   -0.12033E-05   -0.84860E-06 15536   0.396E-03    0.311E-02
DAV:  48     0.384591847321E+04   -0.89209E-06   -0.32802E-06 17816   0.179E-03    0.184E-02
DAV:  49     0.384591847298E+04   -0.23008E-06   -0.15718E-05 18008   0.387E-03    0.512E-03
DAV:  50     0.384591847236E+04   -0.62079E-06   -0.44838E-06 18392   0.238E-03    0.625E-03
DAV:  51     0.384591847234E+04   -0.19611E-07   -0.26304E-07 11344   0.727E-04
   1 F= 0.38459185E+04 E0= 0.38459196E+04  d E =-.224152E-02  mag=     1.0000
