Si and Ge interface calculation         
           1
     5.657800    0.000000    0.000000
     0.000000   16.973400    0.000000
     0.000000    0.000000   11.365840
   Ge   Si
    36    24
Direct configuration=     1
   0.00000000  0.99430549  0.00000000
   0.00000000  0.82763886  0.24889492
   0.00000000  0.66097212  0.49778986
   0.00000000  0.32763884  0.00000000
   0.00000000  0.16097215  0.24889492
   0.00000000  0.99430543  0.49778986
   0.00000000  0.66097212  0.00000000
   0.00000000  0.49430546  0.24889492
   0.00000000  0.32763877  0.49778986
   0.24999999  0.07763884  0.12444746
   0.24999999  0.91097212  0.37334242
   0.24999999  0.74430549  0.62223738
   0.24999999  0.41097212  0.12444746
   0.24999999  0.24430543  0.37334242
   0.24999999  0.07763872  0.62223738
   0.24999999  0.74430549  0.12444746
   0.24999999  0.57763875  0.37334242
   0.24999999  0.41097209  0.62223738
   0.49999997  0.16097216  0.00000000
   0.49999997  0.99430549  0.24889492
   0.49999997  0.82763880  0.49778986
   0.49999997  0.49430546  0.00000000
   0.49999997  0.32763877  0.24889492
   0.49999997  0.16097209  0.49778986
   0.49999997  0.82763886  0.00000000
   0.49999997  0.66097212  0.24889492
   0.49999997  0.49430546  0.49778986
   0.75000000  0.24430548  0.12444746
   0.75000000  0.07763879  0.37334242
   0.75000000  0.91097212  0.62223738
   0.75000000  0.57763886  0.12444746
   0.75000000  0.41097218  0.37334242
   0.75000000  0.24430546  0.62223738
   0.75000000  0.91097218  0.12444746
   0.75000000  0.74430549  0.37334242
   0.75000000  0.57763875  0.62223738
   0.10886254  0.07620380  0.62223744
   0.60886252  0.42620385  0.69778997
   0.10886240  0.77620387  0.77334243
   0.60886252  0.12620401  0.84889484
   0.10886264  0.47620416  0.92444742
   0.60886264  0.82620430  0.99999988
   0.35886252  0.82620388  0.62223738
   0.85886246  0.17620397  0.69778979
   0.35886252  0.52620387  0.77334237
   0.85886240  0.87620401  0.84889484
   0.35886264  0.22620416  0.92444730
   0.85886264  0.57620430  0.99999988
   0.10886254  0.57620382  0.62223738
   0.60886252  0.92620385  0.69778997
   0.10886240  0.27620387  0.77334243
   0.60886252  0.62620401  0.84889484
   0.10886264  0.97620404  0.92444742
   0.60886264  0.32620430  0.99999988
   0.35886252  0.32620379  0.62223744
   0.85886246  0.67620391  0.69778997
   0.35886252  0.02620387  0.77334243
   0.85886240  0.37620401  0.84889484
   0.35886264  0.72620404  0.92444742
   0.85886264  0.07620406  0.00000000
