       N       E                     dE             d eps       ncg     rms          rms(c)
DAV:   1     0.671067051055E+04    0.67107E+04   -0.30189E+05 12928   0.174E+03
DAV:   2     0.253013947178E+04   -0.41805E+04   -0.40506E+04 15448   0.222E+02
DAV:   3     0.206994096256E+04   -0.46020E+03   -0.44243E+03 16600   0.708E+01
DAV:   4     0.204708625233E+04   -0.22855E+02   -0.21975E+02 16208   0.153E+01
DAV:   5     0.204597786867E+04   -0.11084E+01   -0.10864E+01 17360   0.299E+00    0.111E+02
DAV:   6     0.216327591956E+04    0.11730E+03   -0.16189E+02 15264   0.145E+01    0.673E+01
DAV:   7     0.216844289857E+04    0.51670E+01   -0.24688E+02 14560   0.191E+01    0.182E+01
DAV:   8     0.219396042167E+04    0.25518E+02   -0.87244E+01 14960   0.133E+01    0.497E+00
DAV:   9     0.219276595380E+04   -0.11945E+01   -0.21392E+01 15440   0.516E+00    0.559E+00
DAV:  10     0.219291876367E+04    0.15281E+00   -0.19838E+00 15504   0.193E+00    0.343E+00
DAV:  11     0.219301196090E+04    0.93197E-01   -0.53249E-01 15856   0.115E+00    0.186E+00
DAV:  12     0.219305683483E+04    0.44874E-01   -0.40496E-01 15856   0.850E-01    0.541E-01
DAV:  13     0.219306140086E+04    0.45660E-02   -0.85444E-02 14672   0.410E-01    0.314E-01
DAV:  14     0.219306178751E+04    0.38665E-03   -0.10105E-02 15368   0.126E-01    0.187E-01
DAV:  15     0.219306194833E+04    0.16082E-03   -0.26354E-03 15320   0.622E-02    0.941E-02
DAV:  16     0.219306207625E+04    0.12792E-03   -0.63818E-04 15160   0.374E-02    0.334E-02
DAV:  17     0.219306207958E+04    0.33286E-05   -0.20363E-04 15720   0.159E-02    0.171E-02
DAV:  18     0.219306207946E+04   -0.11305E-06   -0.34017E-05 14896   0.823E-03    0.895E-03
DAV:  19     0.219306207841E+04   -0.10559E-05   -0.75129E-06 16128   0.339E-03    0.440E-03
DAV:  20     0.219306207866E+04    0.25289E-06   -0.18307E-06 15760   0.194E-03    0.229E-03
DAV:  21     0.219306207878E+04    0.11620E-06   -0.48093E-07 13440   0.981E-04    0.101E-03
DAV:  22     0.219306207837E+04   -0.40300E-06   -0.10786E-07  7944   0.459E-04    0.522E-04
DAV:  23     0.219306207819E+04   -0.18542E-06   -0.25833E-08  7792   0.261E-04    0.328E-04
DAV:  24     0.219306207808E+04   -0.10501E-06   -0.75517E-09  7744   0.139E-04    0.187E-04
DAV:  25     0.219306207803E+04   -0.52627E-07   -0.25723E-09  7664   0.878E-05
   1 F= 0.21930621E+04 E0= 0.21930640E+04  d E =-.392868E-02  mag=     1.0000
