 216 216   0   0
  0.2071827E+02  0.1297840E-08  0.1946760E-08  0.1771225E-08  0.5000000E-15
  1.000000000000000E-004
  CAR 
 Si and Ge interface calculation         
      9.44372083     -9.13995502  301      6.79286599      1.00000000
     -9.140  0.0000E+00  0.0000E+00  0.0000E+00  0.0000E+00
     -9.078  0.0000E+00  0.0000E+00  0.0000E+00  0.0000E+00
     -9.016  0.0000E+00  0.0000E+00  0.0000E+00  0.0000E+00
     -8.954  0.0000E+00  0.0000E+00  0.0000E+00  0.0000E+00
     -8.892  0.0000E+00  0.0000E+00  0.0000E+00  0.0000E+00
     -8.830  0.0000E+00  0.0000E+00  0.0000E+00  0.0000E+00
     -8.768  0.0000E+00  0.0000E+00  0.0000E+00  0.0000E+00
     -8.706  0.0000E+00  0.0000E+00  0.0000E+00  0.0000E+00
     -8.644  0.0000E+00  0.0000E+00  0.0000E+00  0.0000E+00
     -8.582  0.0000E+00  0.0000E+00  0.0000E+00  0.0000E+00
     -8.520  0.0000E+00  0.0000E+00  0.0000E+00  0.0000E+00
     -8.459  0.0000E+00  0.0000E+00  0.0000E+00  0.0000E+00
     -8.397  0.0000E+00  0.0000E+00  0.0000E+00  0.0000E+00
     -8.335  0.1009E-06  0.5905E-08  0.6249E-08  0.3658E-09
     -8.273  0.1608E+02  0.1593E+02  0.9962E+00  0.9869E+00
     -8.211  0.2304E+02  0.1756E+02  0.2424E+01  0.2077E+01
     -8.149  0.1925E+02  0.2253E+02  0.3616E+01  0.3472E+01
     -8.087  0.2307E+02  0.2488E+02  0.5045E+01  0.5013E+01
     -8.025  0.3156E+02  0.3207E+02  0.7000E+01  0.7000E+01
     -7.963  0.1557E+02  0.1473E+02  0.7964E+01  0.7913E+01
     -7.901  0.5757E+00  0.1408E+01  0.8000E+01  0.8000E+01
     -7.839  0.0000E+00  0.0000E+00  0.8000E+01  0.8000E+01
     -7.777  0.0000E+00  0.0000E+00  0.8000E+01  0.8000E+01
     -7.715  0.0000E+00  0.0000E+00  0.8000E+01  0.8000E+01
     -7.653  0.6537E-03  0.4100E-05  0.8000E+01  0.8000E+01
     -7.591  0.1243E+02  0.8657E+01  0.8770E+01  0.8536E+01
     -7.529  0.5215E+02  0.5592E+02  0.1200E+02  0.1200E+02
     -7.467  0.8432E+01  0.5068E+01  0.1252E+02  0.1231E+02
     -7.405  0.4560E+02  0.4623E+02  0.1535E+02  0.1518E+02
     -7.344  0.2772E+02  0.2985E+02  0.1706E+02  0.1703E+02
     -7.282  0.1029E+02  0.9430E+01  0.1770E+02  0.1761E+02
     -7.220  0.5199E+02  0.4716E+02  0.2092E+02  0.2053E+02
     -7.158  0.3354E+02  0.3979E+02  0.2300E+02  0.2300E+02
     -7.096  0.0000E+00  0.0000E+00  0.2300E+02  0.2300E+02
     -7.034  0.0000E+00  0.0000E+00  0.2300E+02  0.2300E+02
     -6.972  0.4671E-05  0.2330E-06  0.2300E+02  0.2300E+02
     -6.910  0.1614E+02  0.1613E+02  0.2400E+02  0.2400E+02
     -6.848  0.1576E+02  0.1509E+02  0.2498E+02  0.2493E+02
     -6.786  0.1418E+02  0.9369E+01  0.2585E+02  0.2552E+02
     -6.724  0.1850E+02  0.2397E+02  0.2700E+02  0.2700E+02
     -6.662  0.1614E+02  0.1614E+02  0.2800E+02  0.2800E+02
     -6.600  0.4912E+02  0.4105E+02  0.3104E+02  0.3054E+02
     -6.538  0.7428E+01  0.1546E+02  0.3150E+02  0.3150E+02
     -6.476  0.3322E+02  0.3032E+02  0.3356E+02  0.3338E+02
     -6.414  0.6211E+02  0.6217E+02  0.3741E+02  0.3723E+02
     -6.352  0.3376E+02  0.3665E+02  0.3950E+02  0.3950E+02
     -6.290  0.7939E+01  0.7584E+01  0.3999E+02  0.3997E+02
     -6.229  0.8182E+01  0.8433E+01  0.4050E+02  0.4049E+02
     -6.167  0.8071E+01  0.8193E+01  0.4100E+02  0.4100E+02
     -6.105  0.0000E+00  0.0000E+00  0.4100E+02  0.4100E+02
     -6.043  0.0000E+00  0.0000E+00  0.4100E+02  0.4100E+02
     -5.981  0.9139E-04  0.4735E-05  0.4100E+02  0.4100E+02
     -5.919  0.4081E+02  0.3527E+02  0.4353E+02  0.4318E+02
     -5.857  0.5605E+02  0.6158E+02  0.4700E+02  0.4700E+02
     -5.795  0.0000E+00  0.0000E+00  0.4700E+02  0.4700E+02
     -5.733  0.0000E+00  0.0000E+00  0.4700E+02  0.4700E+02
     -5.671  0.0000E+00  0.0000E+00  0.4700E+02  0.4700E+02
     -5.609  0.2209E+01  0.8552E+00  0.4714E+02  0.4705E+02
     -5.547  0.1393E+02  0.1529E+02  0.4800E+02  0.4800E+02
     -5.485  0.0000E+00  0.0000E+00  0.4800E+02  0.4800E+02
     -5.423  0.0000E+00  0.0000E+00  0.4800E+02  0.4800E+02
     -5.361  0.4971E-11  0.3334E-12  0.4800E+02  0.4800E+02
     -5.299  0.5340E+01  0.4654E+01  0.4833E+02  0.4829E+02
     -5.237  0.9122E+01  0.9080E+01  0.4890E+02  0.4885E+02
     -5.175  0.3554E+02  0.3243E+02  0.5110E+02  0.5086E+02
     -5.113  0.3568E+02  0.3673E+02  0.5331E+02  0.5314E+02
     -5.052  0.3764E+02  0.3634E+02  0.5564E+02  0.5539E+02
     -4.990  0.3270E+02  0.3271E+02  0.5767E+02  0.5741E+02
     -4.928  0.3444E+02  0.3564E+02  0.5980E+02  0.5962E+02
     -4.866  0.5872E+02  0.6029E+02  0.6344E+02  0.6336E+02
     -4.804  0.2969E+02  0.2709E+02  0.6528E+02  0.6504E+02
     -4.742  0.3177E+02  0.3238E+02  0.6725E+02  0.6704E+02
     -4.680  0.4357E+02  0.4112E+02  0.6995E+02  0.6959E+02
     -4.618  0.2523E+02  0.3088E+02  0.7151E+02  0.7150E+02
     -4.556  0.4212E+02  0.4097E+02  0.7412E+02  0.7404E+02
     -4.494  0.4747E+02  0.4585E+02  0.7706E+02  0.7688E+02
     -4.432  0.3818E+02  0.3936E+02  0.7942E+02  0.7932E+02
     -4.370  0.6634E+02  0.6652E+02  0.8353E+02  0.8344E+02
     -4.308  0.3429E+02  0.3151E+02  0.8566E+02  0.8540E+02
     -4.246  0.2937E+02  0.3320E+02  0.8748E+02  0.8745E+02
     -4.184  0.1758E+02  0.1538E+02  0.8857E+02  0.8841E+02
     -4.122  0.2962E+02  0.3091E+02  0.9040E+02  0.9032E+02
     -4.060  0.4280E+02  0.4101E+02  0.9305E+02  0.9286E+02
     -3.998  0.4750E+02  0.4871E+02  0.9600E+02  0.9588E+02
     -3.937  0.3984E+02  0.4035E+02  0.9847E+02  0.9838E+02
     -3.875  0.4945E+02  0.5051E+02  0.1015E+03  0.1015E+03
     -3.813  0.2420E+02  0.1990E+02  0.1030E+03  0.1027E+03
     -3.751  0.7252E+02  0.7616E+02  0.1075E+03  0.1075E+03
     -3.689  0.3306E+02  0.3145E+02  0.1096E+03  0.1094E+03
     -3.627  0.3117E+02  0.3169E+02  0.1115E+03  0.1114E+03
     -3.565  0.6118E+02  0.5747E+02  0.1153E+03  0.1149E+03
     -3.503  0.3352E+02  0.3576E+02  0.1174E+03  0.1171E+03
     -3.441  0.5371E+02  0.5374E+02  0.1207E+03  0.1205E+03
     -3.379  0.4799E+02  0.5008E+02  0.1237E+03  0.1236E+03
     -3.317  0.5714E+02  0.5421E+02  0.1272E+03  0.1269E+03
     -3.255  0.5584E+02  0.5785E+02  0.1307E+03  0.1305E+03
     -3.193  0.3561E+02  0.3637E+02  0.1329E+03  0.1328E+03
     -3.131  0.5795E+02  0.5519E+02  0.1365E+03  0.1362E+03
     -3.069  0.5634E+02  0.5916E+02  0.1400E+03  0.1399E+03
     -3.007  0.5600E+02  0.5490E+02  0.1434E+03  0.1433E+03
     -2.945  0.5781E+02  0.5741E+02  0.1470E+03  0.1468E+03
     -2.883  0.6238E+02  0.6235E+02  0.1509E+03  0.1507E+03
     -2.822  0.5656E+02  0.5649E+02  0.1544E+03  0.1542E+03
     -2.760  0.5836E+02  0.5772E+02  0.1580E+03  0.1578E+03
     -2.698  0.6151E+02  0.6107E+02  0.1618E+03  0.1615E+03
     -2.636  0.8064E+02  0.7956E+02  0.1668E+03  0.1665E+03
     -2.574  0.4549E+02  0.4687E+02  0.1696E+03  0.1694E+03
     -2.512  0.6843E+02  0.6608E+02  0.1739E+03  0.1735E+03
     -2.450  0.5545E+02  0.5855E+02  0.1773E+03  0.1771E+03
     -2.388  0.2814E+02  0.2988E+02  0.1790E+03  0.1790E+03
     -2.326  0.6109E+02  0.5831E+02  0.1828E+03  0.1826E+03
     -2.264  0.7288E+02  0.7198E+02  0.1873E+03  0.1870E+03
     -2.202  0.5867E+02  0.6208E+02  0.1910E+03  0.1909E+03
     -2.140  0.3977E+02  0.3689E+02  0.1934E+03  0.1932E+03
     -2.078  0.5989E+02  0.6234E+02  0.1971E+03  0.1970E+03
     -2.016  0.6288E+02  0.6134E+02  0.2010E+03  0.2008E+03
     -1.954  0.6756E+02  0.6719E+02  0.2052E+03  0.2050E+03
     -1.892  0.5165E+02  0.5201E+02  0.2084E+03  0.2082E+03
     -1.830  0.4256E+02  0.4306E+02  0.2111E+03  0.2109E+03
     -1.768  0.3893E+02  0.3937E+02  0.2135E+03  0.2133E+03
     -1.706  0.3796E+02  0.3541E+02  0.2158E+03  0.2155E+03
     -1.645  0.5977E+02  0.6355E+02  0.2195E+03  0.2194E+03
     -1.583  0.6080E+02  0.6135E+02  0.2233E+03  0.2232E+03
     -1.521  0.4832E+02  0.4147E+02  0.2263E+03  0.2258E+03
     -1.459  0.5632E+02  0.5933E+02  0.2298E+03  0.2295E+03
     -1.397  0.4197E+02  0.4352E+02  0.2324E+03  0.2322E+03
     -1.335  0.6197E+02  0.6258E+02  0.2362E+03  0.2361E+03
     -1.273  0.4968E+02  0.4961E+02  0.2393E+03  0.2391E+03
     -1.211  0.6715E+02  0.6831E+02  0.2435E+03  0.2434E+03
     -1.149  0.6276E+02  0.5910E+02  0.2473E+03  0.2470E+03
     -1.087  0.5796E+02  0.6140E+02  0.2509E+03  0.2508E+03
     -1.025  0.4756E+02  0.4508E+02  0.2539E+03  0.2536E+03
     -0.963  0.6040E+02  0.6291E+02  0.2576E+03  0.2575E+03
     -0.901  0.6605E+02  0.6239E+02  0.2617E+03  0.2614E+03
     -0.839  0.7091E+02  0.7142E+02  0.2661E+03  0.2658E+03
     -0.777  0.6336E+02  0.6494E+02  0.2700E+03  0.2698E+03
     -0.715  0.5335E+02  0.5129E+02  0.2733E+03  0.2730E+03
     -0.653  0.7873E+02  0.7859E+02  0.2782E+03  0.2779E+03
     -0.591  0.6153E+02  0.6272E+02  0.2820E+03  0.2818E+03
     -0.530  0.7880E+02  0.7776E+02  0.2869E+03  0.2866E+03
     -0.468  0.5027E+02  0.5200E+02  0.2900E+03  0.2898E+03
     -0.406  0.5805E+02  0.5980E+02  0.2936E+03  0.2935E+03
     -0.344  0.8249E+02  0.8085E+02  0.2987E+03  0.2985E+03
     -0.282  0.4920E+02  0.4787E+02  0.3018E+03  0.3015E+03
     -0.220  0.4788E+02  0.4881E+02  0.3047E+03  0.3045E+03
     -0.158  0.7346E+02  0.6980E+02  0.3093E+03  0.3088E+03
     -0.096  0.5523E+02  0.5802E+02  0.3127E+03  0.3124E+03
     -0.034  0.8422E+02  0.8644E+02  0.3179E+03  0.3178E+03
      0.028  0.5052E+02  0.4733E+02  0.3211E+03  0.3207E+03
      0.090  0.5579E+02  0.5840E+02  0.3245E+03  0.3243E+03
      0.152  0.7281E+02  0.6931E+02  0.3290E+03  0.3286E+03
      0.214  0.8753E+02  0.9013E+02  0.3345E+03  0.3342E+03
      0.276  0.6020E+02  0.5897E+02  0.3382E+03  0.3379E+03
      0.338  0.6253E+02  0.6244E+02  0.3421E+03  0.3417E+03
      0.400  0.6494E+02  0.6684E+02  0.3461E+03  0.3459E+03
      0.462  0.4716E+02  0.4968E+02  0.3490E+03  0.3490E+03
      0.524  0.6024E+02  0.5638E+02  0.3527E+03  0.3525E+03
      0.586  0.7094E+02  0.7205E+02  0.3571E+03  0.3569E+03
      0.647  0.8545E+02  0.8353E+02  0.3624E+03  0.3621E+03
      0.709  0.5942E+02  0.6104E+02  0.3661E+03  0.3659E+03
      0.771  0.6895E+02  0.6737E+02  0.3704E+03  0.3700E+03
      0.833  0.4614E+02  0.4587E+02  0.3732E+03  0.3729E+03
      0.895  0.6807E+02  0.6925E+02  0.3775E+03  0.3772E+03
      0.957  0.5028E+02  0.4878E+02  0.3806E+03  0.3802E+03
      1.019  0.6656E+02  0.6937E+02  0.3847E+03  0.3845E+03
      1.081  0.6140E+02  0.6073E+02  0.3885E+03  0.3883E+03
      1.143  0.5604E+02  0.5147E+02  0.3920E+03  0.3915E+03
      1.205  0.7825E+02  0.8035E+02  0.3968E+03  0.3964E+03
      1.267  0.6789E+02  0.6489E+02  0.4010E+03  0.4004E+03
      1.329  0.7285E+02  0.8008E+02  0.4055E+03  0.4054E+03
      1.391  0.6272E+02  0.6135E+02  0.4094E+03  0.4092E+03
      1.453  0.7863E+02  0.7513E+02  0.4143E+03  0.4139E+03
      1.515  0.6029E+02  0.6326E+02  0.4180E+03  0.4178E+03
      1.577  0.7618E+02  0.7542E+02  0.4228E+03  0.4225E+03
      1.639  0.5586E+02  0.5424E+02  0.4262E+03  0.4258E+03
      1.701  0.7587E+02  0.7868E+02  0.4309E+03  0.4307E+03
      1.762  0.5816E+02  0.5785E+02  0.4345E+03  0.4343E+03
      1.824  0.8713E+02  0.8049E+02  0.4399E+03  0.4393E+03
      1.886  0.4817E+02  0.5550E+02  0.4429E+03  0.4427E+03
      1.948  0.7575E+02  0.7350E+02  0.4476E+03  0.4473E+03
      2.010  0.8773E+02  0.8790E+02  0.4530E+03  0.4527E+03
      2.072  0.5626E+02  0.5907E+02  0.4565E+03  0.4564E+03
      2.134  0.1004E+03  0.9893E+02  0.4627E+03  0.4625E+03
      2.196  0.5688E+02  0.5794E+02  0.4663E+03  0.4661E+03
      2.258  0.8024E+02  0.7751E+02  0.4712E+03  0.4709E+03
      2.320  0.5852E+02  0.6141E+02  0.4749E+03  0.4747E+03
      2.382  0.8051E+02  0.7543E+02  0.4798E+03  0.4794E+03
      2.444  0.6997E+02  0.7570E+02  0.4842E+03  0.4841E+03
      2.506  0.7222E+02  0.6871E+02  0.4887E+03  0.4883E+03
      2.568  0.9249E+02  0.9188E+02  0.4944E+03  0.4940E+03
      2.630  0.9429E+02  0.9580E+02  0.5002E+03  0.4999E+03
      2.692  0.1036E+03  0.1020E+03  0.5067E+03  0.5063E+03
      2.754  0.9231E+02  0.9221E+02  0.5124E+03  0.5120E+03
      2.816  0.1105E+03  0.1109E+03  0.5192E+03  0.5188E+03
      2.877  0.1009E+03  0.1024E+03  0.5255E+03  0.5252E+03
      2.939  0.7351E+02  0.7312E+02  0.5300E+03  0.5297E+03
      3.001  0.1032E+03  0.9957E+02  0.5364E+03  0.5359E+03
      3.063  0.8688E+02  0.9206E+02  0.5418E+03  0.5416E+03
      3.125  0.1149E+03  0.1118E+03  0.5489E+03  0.5485E+03
      3.187  0.8737E+02  0.9042E+02  0.5543E+03  0.5541E+03
      3.249  0.9847E+02  0.9535E+02  0.5604E+03  0.5600E+03
      3.311  0.1055E+03  0.1080E+03  0.5670E+03  0.5667E+03
      3.373  0.8046E+02  0.7624E+02  0.5720E+03  0.5714E+03
      3.435  0.1116E+03  0.1137E+03  0.5789E+03  0.5785E+03
      3.497  0.1094E+03  0.1105E+03  0.5857E+03  0.5853E+03
      3.559  0.1080E+03  0.1068E+03  0.5923E+03  0.5919E+03
      3.621  0.1079E+03  0.1075E+03  0.5990E+03  0.5986E+03
      3.683  0.1284E+03  0.1273E+03  0.6070E+03  0.6065E+03
      3.745  0.1206E+03  0.1226E+03  0.6145E+03  0.6141E+03
      3.807  0.1021E+03  0.1031E+03  0.6208E+03  0.6205E+03
      3.869  0.1012E+03  0.1002E+03  0.6271E+03  0.6267E+03
      3.931  0.1198E+03  0.1189E+03  0.6345E+03  0.6341E+03
      3.993  0.1042E+03  0.1032E+03  0.6409E+03  0.6405E+03
      4.054  0.1144E+03  0.1155E+03  0.6480E+03  0.6476E+03
      4.116  0.9750E+02  0.9697E+02  0.6541E+03  0.6536E+03
      4.178  0.9981E+02  0.1023E+03  0.6602E+03  0.6600E+03
      4.240  0.9775E+02  0.9951E+02  0.6663E+03  0.6661E+03
      4.302  0.8808E+02  0.8570E+02  0.6718E+03  0.6714E+03
      4.364  0.9885E+02  0.9705E+02  0.6779E+03  0.6774E+03
      4.426  0.1061E+03  0.1073E+03  0.6845E+03  0.6841E+03
      4.488  0.1007E+03  0.9839E+02  0.6907E+03  0.6902E+03
      4.550  0.8549E+02  0.9073E+02  0.6960E+03  0.6958E+03
      4.612  0.1179E+03  0.1173E+03  0.7033E+03  0.7031E+03
      4.674  0.1176E+03  0.1148E+03  0.7106E+03  0.7102E+03
      4.736  0.9273E+02  0.9167E+02  0.7163E+03  0.7159E+03
      4.798  0.8641E+02  0.8995E+02  0.7217E+03  0.7214E+03
      4.860  0.9572E+02  0.9358E+02  0.7276E+03  0.7272E+03
      4.922  0.8402E+02  0.8306E+02  0.7328E+03  0.7324E+03
      4.984  0.8494E+02  0.8692E+02  0.7381E+03  0.7378E+03
      5.046  0.8615E+02  0.8471E+02  0.7434E+03  0.7430E+03
      5.108  0.7004E+02  0.7212E+02  0.7478E+03  0.7475E+03
      5.169  0.8412E+02  0.8408E+02  0.7530E+03  0.7527E+03
      5.231  0.8913E+02  0.9146E+02  0.7585E+03  0.7584E+03
      5.293  0.7440E+02  0.6632E+02  0.7631E+03  0.7625E+03
      5.355  0.6126E+02  0.6807E+02  0.7669E+03  0.7667E+03
      5.417  0.7564E+02  0.7239E+02  0.7716E+03  0.7712E+03
      5.479  0.5539E+02  0.5773E+02  0.7750E+03  0.7748E+03
      5.541  0.6360E+02  0.6622E+02  0.7789E+03  0.7789E+03
      5.603  0.6878E+02  0.6236E+02  0.7832E+03  0.7827E+03
      5.665  0.6480E+02  0.7067E+02  0.7872E+03  0.7871E+03
      5.727  0.5865E+02  0.5488E+02  0.7909E+03  0.7905E+03
      5.789  0.6552E+02  0.6526E+02  0.7949E+03  0.7945E+03
      5.851  0.6458E+02  0.6599E+02  0.7989E+03  0.7986E+03
      5.913  0.6153E+02  0.5794E+02  0.8027E+03  0.8022E+03
      5.975  0.4888E+02  0.4942E+02  0.8058E+03  0.8053E+03
      6.037  0.6574E+02  0.6871E+02  0.8098E+03  0.8095E+03
      6.099  0.4891E+02  0.4765E+02  0.8129E+03  0.8125E+03
      6.161  0.5800E+02  0.4917E+02  0.8165E+03  0.8155E+03
      6.223  0.5789E+02  0.6003E+02  0.8200E+03  0.8193E+03
      6.284  0.6177E+02  0.5930E+02  0.8239E+03  0.8229E+03
      6.346  0.7142E+02  0.7416E+02  0.8283E+03  0.8275E+03
      6.408  0.1033E+03  0.9113E+02  0.8347E+03  0.8332E+03
      6.470  0.8368E+02  0.9865E+02  0.8399E+03  0.8393E+03
      6.532  0.5153E+02  0.5368E+02  0.8431E+03  0.8426E+03
      6.594  0.8099E+02  0.7811E+02  0.8481E+03  0.8474E+03
      6.656  0.8639E+02  0.8080E+02  0.8534E+03  0.8525E+03
      6.718  0.8584E+02  0.9165E+02  0.8588E+03  0.8581E+03
      6.780  0.7102E+02  0.6400E+02  0.8632E+03  0.8621E+03
      6.842  0.1056E+03  0.1088E+03  0.8697E+03  0.8688E+03
      6.904  0.8980E+02  0.8427E+02  0.8753E+03  0.8741E+03
      6.966  0.9984E+02  0.1027E+03  0.8815E+03  0.8804E+03
      7.028  0.9418E+02  0.9609E+02  0.8873E+03  0.8864E+03
      7.090  0.8487E+02  0.8372E+02  0.8926E+03  0.8916E+03
      7.152  0.6712E+02  0.7036E+02  0.8967E+03  0.8959E+03
      7.214  0.9337E+02  0.9885E+02  0.9025E+03  0.9020E+03
      7.276  0.8338E+02  0.7909E+02  0.9077E+03  0.9069E+03
      7.338  0.9078E+02  0.8569E+02  0.9133E+03  0.9123E+03
      7.400  0.8749E+02  0.9300E+02  0.9187E+03  0.9180E+03
      7.461  0.7520E+02  0.7768E+02  0.9234E+03  0.9228E+03
      7.523  0.8962E+02  0.8788E+02  0.9289E+03  0.9283E+03
      7.585  0.1027E+03  0.1032E+03  0.9353E+03  0.9347E+03
      7.647  0.8020E+02  0.8129E+02  0.9402E+03  0.9397E+03
      7.709  0.8387E+02  0.8473E+02  0.9454E+03  0.9450E+03
      7.771  0.8683E+02  0.8414E+02  0.9508E+03  0.9502E+03
      7.833  0.9999E+02  0.1045E+03  0.9570E+03  0.9566E+03
      7.895  0.9252E+02  0.9193E+02  0.9628E+03  0.9623E+03
      7.957  0.1279E+03  0.1269E+03  0.9707E+03  0.9702E+03
      8.019  0.9761E+02  0.9638E+02  0.9767E+03  0.9762E+03
      8.081  0.9521E+02  0.9683E+02  0.9826E+03  0.9822E+03
      8.143  0.8719E+02  0.8170E+02  0.9880E+03  0.9872E+03
      8.205  0.1353E+03  0.1341E+03  0.9964E+03  0.9955E+03
      8.267  0.9908E+02  0.1022E+03  0.1003E+04  0.1002E+04
      8.329  0.1220E+03  0.1229E+03  0.1010E+04  0.1009E+04
      8.391  0.1217E+03  0.1251E+03  0.1018E+04  0.1017E+04
      8.453  0.1244E+03  0.1203E+03  0.1025E+04  0.1025E+04
      8.515  0.1378E+03  0.1380E+03  0.1034E+04  0.1033E+04
      8.576  0.8943E+02  0.9798E+02  0.1039E+04  0.1039E+04
      8.638  0.9042E+01  0.1104E+02  0.1040E+04  0.1040E+04
      8.700  0.0000E+00  0.0000E+00  0.1040E+04  0.1040E+04
      8.762  0.0000E+00  0.0000E+00  0.1040E+04  0.1040E+04
      8.824  0.0000E+00  0.0000E+00  0.1040E+04  0.1040E+04
      8.886  0.0000E+00  0.0000E+00  0.1040E+04  0.1040E+04
      8.948  0.0000E+00  0.0000E+00  0.1040E+04  0.1040E+04
      9.010  0.0000E+00  0.0000E+00  0.1040E+04  0.1040E+04
      9.072  0.0000E+00  0.0000E+00  0.1040E+04  0.1040E+04
      9.134  0.0000E+00  0.0000E+00  0.1040E+04  0.1040E+04
      9.196  0.0000E+00  0.0000E+00  0.1040E+04  0.1040E+04
      9.258  0.0000E+00  0.0000E+00  0.1040E+04  0.1040E+04
      9.320  0.0000E+00  0.0000E+00  0.1040E+04  0.1040E+04
      9.382  0.0000E+00  0.0000E+00  0.1040E+04  0.1040E+04
      9.444  0.0000E+00  0.0000E+00  0.1040E+04  0.1040E+04
