<?xml version="1.0" encoding="ISO-8859-1"?>
<modeling>
 <generator>
  <i name="program" type="string">vasp </i>
  <i name="version" type="string">6.4.3  </i>
  <i name="subversion" type="string">19Mar24 (build Oct 22 2024 11:23:12) complex                          parallel </i>
  <i name="platform" type="string">LinuxIFC </i>
  <i name="date" type="string">2025 06 09 </i>
  <i name="time" type="string">13:30:51 </i>
 </generator>
 <incar>
  <i type="string" name="SYSTEM">Si and Ge interface calculation</i>
  <i type="int" name="ISTART">     0</i>
  <i type="logical" name="ADDGRID"> T  </i>
  <i type="int" name="ISPIN">     2</i>
  <i name="AMIX">      0.60000000</i>
  <i type="int" name="ICHARG">     2</i>
  <i type="int" name="NELM">   100</i>
  <i name="EDIFF">      0.00000010</i>
  <i name="ENCUT">    700.00000000</i>
  <i name="ENAUG">    900.00000000</i>
  <i type="int" name="NBANDS">   519</i>
  <i name="NUPDOWN">      1.00000000</i>
  <i name="NELECT">    864.00000000</i>
  <i type="string" name="LREAL">AUTO</i>
  <i type="int" name="ISMEAR">     0</i>
  <i name="SIGMA">      0.01000000</i>
  <i type="int" name="LMAXMIX">     6</i>
  <i type="logical" name="LWAVE"> F  </i>
  <i type="logical" name="LVTOT"> F  </i>
  <i type="logical" name="LVHAR"> T  </i>
  <i type="logical" name="LASPH"> T  </i>
  <i type="logical" name="LMIXTAU"> T  </i>
 </incar>
 <primitive_cell>
  <structure name="primitive_cell" >
   <crystal>
    <varray name="basis" >
     <v>      -6.48920050       0.00000000       0.00000000 </v>
     <v>       0.00000000       0.00000000      17.71224594 </v>
     <v>       0.00000000      19.46759987       0.00000000 </v>
    </varray>
    <i name="volume">   2237.57313175 </i>
    <varray name="rec_basis" >
     <v>      -0.15410219       0.00000000       0.00000000 </v>
     <v>       0.00000000       0.00000000       0.05645811 </v>
     <v>       0.00000000       0.05136740       0.00000000 </v>
    </varray>
   </crystal>
   <varray name="positions" >
    <v>       0.01489484       0.00000000       0.66666669 </v>
    <v>       0.51489481       0.18318404       0.66666669 </v>
    <v>       0.01489472       0.36636797       0.66666669 </v>
    <v>       0.01489484       0.00000000       0.33333334 </v>
    <v>       0.51489481       0.18318404       0.33333334 </v>
    <v>       0.01489472       0.36636797       0.33333334 </v>
    <v>       0.01489484       0.00000000       0.00000000 </v>
    <v>       0.51489481       0.18318404       0.00000000 </v>
    <v>       0.01489472       0.36636797       0.00000000 </v>
    <v>       0.76489469       0.09159201       0.91666675 </v>
    <v>       0.26489471       0.27477601       0.91666675 </v>
    <v>       0.76489466       0.45796007       0.91666675 </v>
    <v>       0.76489469       0.09159201       0.58333343 </v>
    <v>       0.26489471       0.27477601       0.58333343 </v>
    <v>       0.76489466       0.45796007       0.58333343 </v>
    <v>       0.76489469       0.09159201       0.25000000 </v>
    <v>       0.26489471       0.27477601       0.25000000 </v>
    <v>       0.76489466       0.45796007       0.25000000 </v>
    <v>       0.51489481       0.00000000       0.83333331 </v>
    <v>       0.01489484       0.18318404       0.83333331 </v>
    <v>       0.51489469       0.36636797       0.83333331 </v>
    <v>       0.51489481       0.00000000       0.50000000 </v>
    <v>       0.01489484       0.18318404       0.50000000 </v>
    <v>       0.51489469       0.36636797       0.50000000 </v>
    <v>       0.51489481       0.00000000       0.16666667 </v>
    <v>       0.01489484       0.18318404       0.16666667 </v>
    <v>       0.51489469       0.36636797       0.16666667 </v>
    <v>       0.26489483       0.09159201       0.75000006 </v>
    <v>       0.76489457       0.27477601       0.75000006 </v>
    <v>       0.26489471       0.45796007       0.75000006 </v>
    <v>       0.26489483       0.09159201       0.41666672 </v>
    <v>       0.76489457       0.27477601       0.41666672 </v>
    <v>       0.26489471       0.45796007       0.41666672 </v>
    <v>       0.26489483       0.09159201       0.08333334 </v>
    <v>       0.76489457       0.27477601       0.08333334 </v>
    <v>       0.26489471       0.45796007       0.08333334 </v>
    <v>       0.04296553       0.45796007       0.49999997 </v>
    <v>       0.54296565       0.56636798       0.49999991 </v>
    <v>       0.04296589       0.67477596       0.49999988 </v>
    <v>       0.54296592       0.78318399       0.49999979 </v>
    <v>       0.04296625       0.89159191       0.49999973 </v>
    <v>       0.54296639       0.99999988       0.49999967 </v>
    <v>       0.37629876       0.45796007       0.66666675 </v>
    <v>       0.87629899       0.56636798       0.66666663 </v>
    <v>       0.37629924       0.67477596       0.66666657 </v>
    <v>       0.87629920       0.78318399       0.66666651 </v>
    <v>       0.37629960       0.89159203       0.66666645 </v>
    <v>       0.87629987       0.00000000       0.66666639 </v>
    <v>       0.70963209       0.45796007       0.83333337 </v>
    <v>       0.20963250       0.56636798       0.83333325 </v>
    <v>       0.70963253       0.67477608       0.83333331 </v>
    <v>       0.20963274       0.78318399       0.83333319 </v>
    <v>       0.70963289       0.89159203       0.83333313 </v>
    <v>       0.20963322       0.00000000       0.83333307 </v>
    <v>       0.04296553       0.45796007       0.00000000 </v>
    <v>       0.54296562       0.56636798       0.99999994 </v>
    <v>       0.04296589       0.67477596       0.99999988 </v>
    <v>       0.54296604       0.78318399       0.99999982 </v>
    <v>       0.04296625       0.89159203       0.99999970 </v>
    <v>       0.54296639       0.00000000       0.99999964 </v>
    <v>       0.37629888       0.45796007       0.16666669 </v>
    <v>       0.87629892       0.56636798       0.16666661 </v>
    <v>       0.37629924       0.67477596       0.16666654 </v>
    <v>       0.87629920       0.78318399       0.16666648 </v>
    <v>       0.37629960       0.89159203       0.16666640 </v>
    <v>       0.87629963       0.99999988       0.16666634 </v>
    <v>       0.70963215       0.45796007       0.33333331 </v>
    <v>       0.20963239       0.56636798       0.33333328 </v>
    <v>       0.70963241       0.67477596       0.33333319 </v>
    <v>       0.20963262       0.78318399       0.33333316 </v>
    <v>       0.70963277       0.89159203       0.33333307 </v>
    <v>       0.20963322       0.99999988       0.33333299 </v>
    <v>       0.70963206       0.45796007       0.70833337 </v>
    <v>       0.20963239       0.56636798       0.70833331 </v>
    <v>       0.70963238       0.67477596       0.70833319 </v>
    <v>       0.20963274       0.78318399       0.70833313 </v>
    <v>       0.70963289       0.89159203       0.70833313 </v>
    <v>       0.20963322       0.00000000       0.70833307 </v>
    <v>       0.04296553       0.45796007       0.87500006 </v>
    <v>       0.54296571       0.56636798       0.87500000 </v>
    <v>       0.04296589       0.67477608       0.87500000 </v>
    <v>       0.54296592       0.78318399       0.87499982 </v>
    <v>       0.04296625       0.89159203       0.87499982 </v>
    <v>       0.54296639       0.00000000       0.87499976 </v>
    <v>       0.70963212       0.45796007       0.20833334 </v>
    <v>       0.20963239       0.56636798       0.20833328 </v>
    <v>       0.70963236       0.67477596       0.20833319 </v>
    <v>       0.20963262       0.78318399       0.20833313 </v>
    <v>       0.70963289       0.89159203       0.20833307 </v>
    <v>       0.20963322       0.00000000       0.20833303 </v>
    <v>       0.04296553       0.45796007       0.37500000 </v>
    <v>       0.54296562       0.56636798       0.37499994 </v>
    <v>       0.04296589       0.67477596       0.37499988 </v>
    <v>       0.54296592       0.78318399       0.37499979 </v>
    <v>       0.04296625       0.89159203       0.37499976 </v>
    <v>       0.54296639       0.00000000       0.37499970 </v>
    <v>       0.37629876       0.45796007       0.54166669 </v>
    <v>       0.87629895       0.56636798       0.54166663 </v>
    <v>       0.37629924       0.67477608       0.54166657 </v>
    <v>       0.87629919       0.78318399       0.54166651 </v>
    <v>       0.37629948       0.89159203       0.54166645 </v>
    <v>       0.87629987       0.00000000       0.54166639 </v>
    <v>       0.37629876       0.45796007       0.04166668 </v>
    <v>       0.87629893       0.56636798       0.04166659 </v>
    <v>       0.37629912       0.67477596       0.04166652 </v>
    <v>       0.87629919       0.78318399       0.04166647 </v>
    <v>       0.37629948       0.89159203       0.04166639 </v>
    <v>       0.87629975       0.00000000       0.04166633 </v>
   </varray>
  </structure>
  <varray name="primitive_index" >
   <v type="int" >        1 </v>
   <v type="int" >        2 </v>
   <v type="int" >       12 </v>
   <v type="int" >        4 </v>
   <v type="int" >        5 </v>
   <v type="int" >       15 </v>
   <v type="int" >        7 </v>
   <v type="int" >        8 </v>
   <v type="int" >       18 </v>
   <v type="int" >       19 </v>
   <v type="int" >       20 </v>
   <v type="int" >       30 </v>
   <v type="int" >       22 </v>
   <v type="int" >       23 </v>
   <v type="int" >       33 </v>
   <v type="int" >       25 </v>
   <v type="int" >       26 </v>
   <v type="int" >       36 </v>
   <v type="int" >       46 </v>
   <v type="int" >       38 </v>
   <v type="int" >       39 </v>
   <v type="int" >       49 </v>
   <v type="int" >       41 </v>
   <v type="int" >       42 </v>
   <v type="int" >       52 </v>
   <v type="int" >       44 </v>
   <v type="int" >       45 </v>
   <v type="int" >       64 </v>
   <v type="int" >       56 </v>
   <v type="int" >       57 </v>
   <v type="int" >       67 </v>
   <v type="int" >       59 </v>
   <v type="int" >       60 </v>
   <v type="int" >       70 </v>
   <v type="int" >       62 </v>
   <v type="int" >       63 </v>
   <v type="int" >       73 </v>
   <v type="int" >      122 </v>
   <v type="int" >      123 </v>
   <v type="int" >       76 </v>
   <v type="int" >       77 </v>
   <v type="int" >      126 </v>
   <v type="int" >      127 </v>
   <v type="int" >       80 </v>
   <v type="int" >       81 </v>
   <v type="int" >      130 </v>
   <v type="int" >      131 </v>
   <v type="int" >       84 </v>
   <v type="int" >      109 </v>
   <v type="int" >      110 </v>
   <v type="int" >       87 </v>
   <v type="int" >       88 </v>
   <v type="int" >      113 </v>
   <v type="int" >      114 </v>
   <v type="int" >       91 </v>
   <v type="int" >      134 </v>
   <v type="int" >      135 </v>
   <v type="int" >       94 </v>
   <v type="int" >       95 </v>
   <v type="int" >      138 </v>
   <v type="int" >      139 </v>
   <v type="int" >       98 </v>
   <v type="int" >       99 </v>
   <v type="int" >      142 </v>
   <v type="int" >      143 </v>
   <v type="int" >      102 </v>
   <v type="int" >      115 </v>
   <v type="int" >      116 </v>
   <v type="int" >      105 </v>
   <v type="int" >      106 </v>
   <v type="int" >      119 </v>
   <v type="int" >      120 </v>
   <v type="int" >      145 </v>
   <v type="int" >      146 </v>
   <v type="int" >      201 </v>
   <v type="int" >      202 </v>
   <v type="int" >      149 </v>
   <v type="int" >      150 </v>
   <v type="int" >      181 </v>
   <v type="int" >      152 </v>
   <v type="int" >      153 </v>
   <v type="int" >      184 </v>
   <v type="int" >      185 </v>
   <v type="int" >      156 </v>
   <v type="int" >      157 </v>
   <v type="int" >      158 </v>
   <v type="int" >      213 </v>
   <v type="int" >      214 </v>
   <v type="int" >      161 </v>
   <v type="int" >      162 </v>
   <v type="int" >      187 </v>
   <v type="int" >      164 </v>
   <v type="int" >      165 </v>
   <v type="int" >      190 </v>
   <v type="int" >      191 </v>
   <v type="int" >      168 </v>
   <v type="int" >      169 </v>
   <v type="int" >      194 </v>
   <v type="int" >      195 </v>
   <v type="int" >      172 </v>
   <v type="int" >      173 </v>
   <v type="int" >      198 </v>
   <v type="int" >      175 </v>
   <v type="int" >      206 </v>
   <v type="int" >      207 </v>
   <v type="int" >      178 </v>
   <v type="int" >      179 </v>
   <v type="int" >      210 </v>
  </varray>
 </primitive_cell>
 <kpoints>
  <generation param="Gamma">
   <v type="int" name="divisions">       2        2        2 </v>
   <v name="usershift">      0.00000000       0.00000000       0.00000000 </v>
   <v name="genvec1">      0.50000000       0.00000000       0.00000000 </v>
   <v name="genvec2">      0.00000000       0.50000000       0.00000000 </v>
   <v name="genvec3">      0.00000000       0.00000000       0.50000000 </v>
   <v name="shift">      0.00000000       0.00000000       0.00000000 </v>
  </generation>
  <varray name="kpointlist" >
   <v>       0.00000000       0.00000000       0.00000000 </v>
   <v>       0.50000000       0.00000000       0.00000000 </v>
   <v>       0.00000000       0.50000000       0.00000000 </v>
   <v>       0.50000000       0.50000000       0.00000000 </v>
   <v>       0.00000000       0.00000000       0.50000000 </v>
   <v>       0.50000000       0.00000000       0.50000000 </v>
   <v>       0.00000000       0.50000000       0.50000000 </v>
   <v>       0.50000000       0.50000000       0.50000000 </v>
  </varray>
  <varray name="weights" >
   <v>       0.12500000 </v>
   <v>       0.12500000 </v>
   <v>       0.12500000 </v>
   <v>       0.12500000 </v>
   <v>       0.12500000 </v>
   <v>       0.12500000 </v>
   <v>       0.12500000 </v>
   <v>       0.12500000 </v>
  </varray>
 </kpoints>
 <parameters>
  <separator name="general" >
   <i type="string" name="SYSTEM">Si and Ge interface calculation</i>
   <i type="logical" name="LCOMPAT"> F  </i>
  </separator>
  <separator name="electronic" >
   <i type="string" name="PREC">normal</i>
   <i name="ENMAX">    700.00000000</i>
   <i name="ENAUG">    900.00000000</i>
   <i name="EDIFF">      0.00000010</i>
   <i type="int" name="IALGO">    38</i>
   <i type="int" name="IWAVPR">    10</i>
   <i type="int" name="NBANDS">   520</i>
   <i type="int" name="NBANDSLOW">    -1</i>
   <i type="int" name="NBANDSHIGH">    -1</i>
   <i name="NELECT">    864.00000000</i>
   <i type="int" name="TURBO">     0</i>
   <i type="int" name="IRESTART">     0</i>
   <i type="int" name="NREBOOT">     0</i>
   <i type="int" name="NMIN">     0</i>
   <i name="EREF">      0.00000000</i>
   <separator name="electronic smearing" >
    <i type="int" name="ISMEAR">     0</i>
    <i name="SIGMA">      0.01000000</i>
    <i name="KSPACING">      0.50000000</i>
    <i type="logical" name="KGAMMA"> T  </i>
    <i type="logical" name="KBLOWUP"> T  </i>
   </separator>
   <separator name="electronic projectors" >
    <i type="logical" name="LREAL"> T  </i>
    <v name="ROPT">     -0.00050000     -0.00050000</v>
    <i type="int" name="LMAXPAW">  -100</i>
    <i type="int" name="LMAXMIX">     6</i>
    <i type="logical" name="NLSPLINE"> F  </i>
   </separator>
   <separator name="electronic startup" >
    <i type="int" name="ISTART">     0</i>
    <i type="int" name="ICHARG">     2</i>
    <i type="int" name="INIWAV">     1</i>
   </separator>
   <separator name="electronic spin" >
    <i type="int" name="ISPIN">     2</i>
    <i type="logical" name="LNONCOLLINEAR"> F  </i>
    <v name="MAGMOM">      0.00462963      0.00462963      0.00462963      0.00462963      0.00462963      0.00462963      0.00462963      0.00462963      0.00462963      0.00462963      0.00462963      0.00462963      0.00462963      0.00462963      0.00462963      0.00462963      0.00462963      0.00462963      0.00462963      0.00462963
      0.00462963      0.00462963      0.00462963      0.00462963      0.00462963      0.00462963      0.00462963      0.00462963      0.00462963      0.00462963      0.00462963      0.00462963      0.00462963      0.00462963      0.00462963      0.00462963      0.00462963      0.00462963      0.00462963      0.00462963
      0.00462963      0.00462963      0.00462963      0.00462963      0.00462963      0.00462963      0.00462963      0.00462963      0.00462963      0.00462963      0.00462963      0.00462963      0.00462963      0.00462963      0.00462963      0.00462963      0.00462963      0.00462963      0.00462963      0.00462963
      0.00462963      0.00462963      0.00462963      0.00462963      0.00462963      0.00462963      0.00462963      0.00462963      0.00462963      0.00462963      0.00462963      0.00462963      0.00462963      0.00462963      0.00462963      0.00462963      0.00462963      0.00462963      0.00462963      0.00462963
      0.00462963      0.00462963      0.00462963      0.00462963      0.00462963      0.00462963      0.00462963      0.00462963      0.00462963      0.00462963      0.00462963      0.00462963      0.00462963      0.00462963      0.00462963      0.00462963      0.00462963      0.00462963      0.00462963      0.00462963
      0.00462963      0.00462963      0.00462963      0.00462963      0.00462963      0.00462963      0.00462963      0.00462963      0.00462963      0.00462963      0.00462963      0.00462963      0.00462963      0.00462963      0.00462963      0.00462963      0.00462963      0.00462963      0.00462963      0.00462963
      0.00462963      0.00462963      0.00462963      0.00462963      0.00462963      0.00462963      0.00462963      0.00462963      0.00462963      0.00462963      0.00462963      0.00462963      0.00462963      0.00462963      0.00462963      0.00462963      0.00462963      0.00462963      0.00462963      0.00462963
      0.00462963      0.00462963      0.00462963      0.00462963      0.00462963      0.00462963      0.00462963      0.00462963      0.00462963      0.00462963      0.00462963      0.00462963      0.00462963      0.00462963      0.00462963      0.00462963      0.00462963      0.00462963      0.00462963      0.00462963
      0.00462963      0.00462963      0.00462963      0.00462963      0.00462963      0.00462963      0.00462963      0.00462963      0.00462963      0.00462963      0.00462963      0.00462963      0.00462963      0.00462963      0.00462963      0.00462963      0.00462963      0.00462963      0.00462963      0.00462963
      0.00462963      0.00462963      0.00462963      0.00462963      0.00462963      0.00462963      0.00462963      0.00462963      0.00462963      0.00462963      0.00462963      0.00462963      0.00462963      0.00462963      0.00462963      0.00462963      0.00462963      0.00462963      0.00462963      0.00462963
      0.00462963      0.00462963      0.00462963      0.00462963      0.00462963      0.00462963      0.00462963      0.00462963      0.00462963      0.00462963      0.00462963      0.00462963      0.00462963      0.00462963      0.00462963      0.00462963</v>
    <i name="NUPDOWN">      1.00000000</i>
    <i type="logical" name="LSORBIT"> F  </i>
    <v name="SAXIS">      0.00000000      0.00000000      1.00000000</v>
    <i type="logical" name="LSPIRAL"> F  </i>
    <v name="QSPIRAL">      0.00000000      0.00000000      0.00000000</v>
    <i type="logical" name="LZEROZ"> F  </i>
   </separator>
   <separator name="electronic exchange-correlation" >
    <i type="logical" name="LASPH"> T  </i>
   </separator>
   <separator name="electronic convergence" >
    <i type="int" name="NELM">   100</i>
    <i type="int" name="NELMDL">    -5</i>
    <i type="int" name="NELMIN">     2</i>
    <i name="ENINI">    700.00000000</i>
    <separator name="electronic convergence detail" >
     <i type="logical" name="LDIAG"> T  </i>
     <i type="logical" name="LSUBROT"> F  </i>
     <i name="WEIMIN">      0.00000000</i>
     <i name="EBREAK">      0.00000000</i>
     <i name="DEPER">      0.30000000</i>
     <i type="int" name="NRMM">     4</i>
     <i name="TIME">      0.40000000</i>
    </separator>
   </separator>
   <separator name="electronic mixer" >
    <i name="AMIX">      0.60000000</i>
    <i name="BMIX">      1.00000000</i>
    <i name="AMIN">      0.10000000</i>
    <i name="AMIX_MAG">      2.40000000</i>
    <i name="BMIX_MAG">      1.00000000</i>
    <separator name="electronic mixer details" >
     <i type="int" name="IMIX">     4</i>
     <i type="logical" name="MIXFIRST"> F  </i>
     <i type="int" name="MAXMIX">   -45</i>
     <i name="WC">    100.00000000</i>
     <i type="int" name="INIMIX">     1</i>
     <i type="int" name="MIXPRE">     1</i>
     <i type="int" name="MREMOVE">     5</i>
    </separator>
   </separator>
   <separator name="electronic dipolcorrection" >
    <i type="logical" name="LDIPOL"> F  </i>
    <i type="logical" name="LMONO"> F  </i>
    <i type="int" name="IDIPOL">     0</i>
    <i name="EPSILON">      1.00000000</i>
    <v name="DIPOL">   -100.00000000   -100.00000000   -100.00000000</v>
    <i name="EFIELD">      0.00000000</i>
    <i type="logical" name="LVACPOTAV"> F  </i>
   </separator>
  </separator>
  <separator name="grids" >
   <i type="int" name="NGX">    84</i>
   <i type="int" name="NGY">   126</i>
   <i type="int" name="NGZ">   120</i>
   <i type="int" name="NGXF">   168</i>
   <i type="int" name="NGYF">   252</i>
   <i type="int" name="NGZF">   240</i>
   <i type="logical" name="ADDGRID"> T  </i>
  </separator>
  <separator name="ionic" >
   <i type="int" name="NSW">     0</i>
   <i type="int" name="IBRION">    -1</i>
   <i type="int" name="MDALGO">     0</i>
   <i type="int" name="ISIF">     2</i>
   <i name="PSTRESS">      0.00000000</i>
   <i name="EDIFFG">      0.00000100</i>
   <i type="int" name="NFREE">     0</i>
   <i name="POTIM">      0.50000000</i>
   <i name="SMASS">     -3.00000000</i>
   <i name="SCALEE">      1.00000000</i>
  </separator>
  <separator name="ionic md" >
   <i name="TEBEG">      0.00010000</i>
   <i name="TEEND">      0.00010000</i>
   <i type="int" name="NBLOCK">     1</i>
   <i type="int" name="KBLOCK">     1</i>
   <i type="int" name="NPACO">   256</i>
   <i name="APACO">     10.00000000</i>
  </separator>
  <separator name="symmetry" >
   <i type="int" name="ISYM">     2</i>
   <i name="SYMPREC">      0.00001000</i>
  </separator>
  <separator name="dos" >
   <i type="int" name="LORBIT">     0</i>
   <v name="RWIGS">     -1.00000000     -1.00000000</v>
   <i type="int" name="NEDOS">   301</i>
   <i name="EMIN">     10.00000000</i>
   <i name="EMAX">    -10.00000000</i>
   <i name="EFERMI">      0.00000000</i>
  </separator>
  <separator name="writing" >
   <i type="int" name="NWRITE">     2</i>
   <i type="logical" name="LWAVE"> F  </i>
   <i type="logical" name="LDOWNSAMPLE"> F  </i>
   <i type="logical" name="LCHARG"> T  </i>
   <i type="logical" name="LPARD"> F  </i>
   <i type="logical" name="LVTOT"> F  </i>
   <i type="logical" name="LVHAR"> T  </i>
   <i type="logical" name="LELF"> F  </i>
   <i type="logical" name="LOPTICS"> F  </i>
   <v name="STM">      0.00000000      0.00000000      0.00000000      0.00000000      0.00000000      0.00000000      0.00000000</v>
  </separator>
  <separator name="performance" >
   <i type="int" name="NPAR">     4</i>
   <i type="int" name="NSIM">     4</i>
   <i type="int" name="NBLK">    -1</i>
   <i type="logical" name="LPLANE"> T  </i>
   <i type="logical" name="LSCALAPACK"> T  </i>
   <i type="logical" name="LSCAAWARE"> F  </i>
   <i type="logical" name="LSCALU"> F  </i>
   <i type="logical" name="LASYNC"> F  </i>
   <i type="logical" name="LORBITALREAL"> F  </i>
  </separator>
  <separator name="miscellaneous" >
   <i type="int" name="IDIOT">     3</i>
   <i type="int" name="PHON_NSTRUCT">    -1</i>
   <i type="logical" name="LMUSIC"> F  </i>
   <v name="POMASS">    118.71000000     28.08500000</v>
   <v name="DARWINR">      0.00000000      0.00000000</v>
   <v name="DARWINV">      1.00000000      1.00000000</v>
   <i type="logical" name="LCORR"> T  </i>
  </separator>
  <i type="logical" name="GGA_COMPAT"> T  </i>
  <i type="logical" name="LBERRY"> F  </i>
  <i type="int" name="ICORELEVEL">     0</i>
  <i type="logical" name="LDAU"> F  </i>
  <i type="int" name="I_CONSTRAINED_M">     0</i>
  <separator name="electronic exchange-correlation" >
   <i type="string" name="GGA    ">PE</i>
   <i type="string" name="XC_C">1</i>
   <i type="int" name="VOSKOWN">     0</i>
   <i type="logical" name="LHFCALC"> F  </i>
   <i type="string" name="PRECFOCK"></i>
   <i type="logical" name="LSYMGRAD"> F  </i>
   <i type="logical" name="LHFONE"> F  </i>
   <i type="logical" name="LRHFCALC"> F  </i>
   <i type="logical" name="LTHOMAS"> F  </i>
   <i type="logical" name="LMODELHF"> F  </i>
   <i type="logical" name="LFOCKACE"> F  </i>
   <i name="ENCUT4O">     -1.00000000</i>
   <i type="int" name="EXXOEP">     0</i>
   <i type="int" name="FOURORBIT">     0</i>
   <i name="AEXX">      0.00000000</i>
   <i name="HFALPHA">      0.00000000</i>
   <i name="MCALPHA">      0.00000000</i>
   <i name="ALDAX">      1.00000000</i>
   <i name="AGGAX">      1.00000000</i>
   <i name="AMGGAX">      1.00000000</i>
   <i name="ALDAC">      1.00000000</i>
   <i name="AGGAC">      1.00000000</i>
   <i name="AMGGAC">      1.00000000</i>
   <i type="int" name="NKREDX">     1</i>
   <i type="int" name="NKREDY">     1</i>
   <i type="int" name="NKREDZ">     1</i>
   <i type="logical" name="SHIFTRED"> F  </i>
   <i type="logical" name="ODDONLY"> F  </i>
   <i type="logical" name="EVENONLY"> F  </i>
   <i type="int" name="LMAXFOCK">     0</i>
   <i type="int" name="NMAXFOCKAE">     0</i>
   <i type="logical" name="LFOCKAEDFT"> F  </i>
   <i name="HFSCREEN">      0.00000000</i>
   <i name="HFSCREENC">      0.00000000</i>
   <i type="int" name="NBANDSGWLOW">     0</i>
  </separator>
  <separator name="vdW DFT" >
   <i type="logical" name="LUSE_VDW"> F  </i>
   <i type="int" name="IVDW_NL">    -1</i>
   <i type="logical" name="LSPIN_VDW"> F  </i>
   <i name="ZAB_VDW">     -0.84910000</i>
   <i name="GAMMA_VDW">      1.39626340</i>
   <i name="ALPHA_VDW">      0.00000000</i>
   <i name="PARAM1">      0.12340000</i>
   <i name="PARAM2">      1.00000000</i>
   <i name="BPARAM">      6.30000000</i>
   <i name="CPARAM">      0.00930000</i>
  </separator>
  <separator name="model GW" >
   <i type="int" name="MODEL_GW">     0</i>
   <i name="MODEL_EPS0">     12.43096110</i>
   <i name="MODEL_ALPHA">      1.00000000</i>
  </separator>
  <separator name="linear response parameters" >
   <i type="logical" name="LEPSILON"> F  </i>
   <i type="logical" name="LRPA"> F  </i>
   <i type="logical" name="LNABLA"> F  </i>
   <i type="logical" name="LVEL"> F  </i>
   <i name="CSHIFT">      0.10000000</i>
   <i name="OMEGAMAX">     -1.00000000</i>
   <i name="DEG_THRESHOLD">      0.00200000</i>
   <i name="RTIME">     -0.10000000</i>
   <i name="WPLASMAI">      0.00000000</i>
   <v name="DFIELD">      0.00000000      0.00000000      0.00000000</v>
   <v name="WPLASMA">      0.00000000      0.00000000      0.00000000      0.00000000      0.00000000      0.00000000      0.00000000      0.00000000      0.00000000</v>
  </separator>
  <separator name="orbital magnetization" >
   <i type="logical" name="NUCIND"> F  </i>
   <v name="MAGPOS">      0.00000000      0.00000000      0.00000000</v>
   <i type="logical" name="LNICSALL"> T  </i>
   <i type="logical" name="ORBITALMAG"> F  </i>
   <i type="logical" name="LMAGBLOCH"> F  </i>
   <i type="logical" name="LCHIMAG"> F  </i>
   <i type="logical" name="LGAUGE"> T  </i>
   <i type="int" name="MAGATOM">     0</i>
   <v name="MAGDIPOL">      0.00000000      0.00000000      0.00000000</v>
   <v name="AVECCONST">      0.00000000      0.00000000      0.00000000</v>
  </separator>
  <separator name="response functions" >
   <i type="logical" name="LALL_IN_ONE"> F  </i>
   <i type="int" name="IALL_IN_ONE">    -1</i>
   <i type="int" name="NBANDS_WAVE">    -1</i>
   <i type="logical" name="LFINITE_TEMPERATURE"> F  </i>
   <i type="logical" name="LADDER"> F  </i>
   <i type="logical" name="LRPAFORCE"> F  </i>
   <i type="logical" name="LFXC"> F  </i>
   <i type="logical" name="LHARTREE"> T  </i>
   <i type="int" name="IBSE">     0</i>
   <v type="int" name="KPOINT">    -1     0     0     0</v>
   <i type="logical" name="LTCTC"> F  </i>
   <i type="logical" name="LTCTE"> F  </i>
   <i type="logical" name="LTETE"> F  </i>
   <i type="logical" name="LTRIPLET"> F  </i>
   <i type="logical" name="LFXCEPS"> F  </i>
   <i type="logical" name="LFXHEG"> F  </i>
   <i type="int" name="NATURALO">     2</i>
   <i type="logical" name="LHOLEGF"> F  </i>
   <i type="logical" name="L2ORDER"> F  </i>
   <i type="logical" name="LDMP1"> F  </i>
   <i type="logical" name="LMP2LT"> F  </i>
   <i type="logical" name="LSMP2LT"> F  </i>
   <i type="logical" name="LGWLF"> F  </i>
   <i name="ENCUTGW">     -1.60000002</i>
   <i name="ENCUTGWSOFT">     -1.60000002</i>
   <i name="ENCUTLF">     -1.00000000</i>
   <i type="logical" name="ESF_SPLINES"> F  </i>
   <i name="ESF_CONV">      0.01000000</i>
   <i type="int" name="ESF_NINTER">    15</i>
   <i type="int" name="LMAXMP2">    -1</i>
   <i name="SCISSOR">      0.00000000</i>
   <i type="int" name="NOMEGA">     0</i>
   <i type="int" name="NOMEGAR">     0</i>
   <i type="int" name="NBANDSGW">    -1</i>
   <i type="int" name="NBANDSO">    -1</i>
   <i type="int" name="NBANDSV">    -1</i>
   <i type="int" name="NELMGW">     1</i>
   <i type="int" name="NELMHF">     1</i>
   <i type="int" name="DIM">     3</i>
   <i type="int" name="IESPILON">     4</i>
   <i type="int" name="ANTIRES">     0</i>
   <i name="OMEGAMAX">    -30.00000000</i>
   <i name="OMEGAMIN">    -30.00000000</i>
   <i name="OMEGATL">   -200.00000000</i>
   <i type="int" name="OMEGAGRID">     0</i>
   <i name="CSHIFT">     -0.10000000</i>
   <i type="logical" name="LSELFENERGY"> F  </i>
   <i type="logical" name="LSPECTRAL"> F  </i>
   <i type="logical" name="LSPECTRALGW"> F  </i>
   <i type="logical" name="LSINGLES"> F  </i>
   <i type="logical" name="LFERMIGW"> F  </i>
   <i type="logical" name="ODDONLYGW"> F  </i>
   <i type="logical" name="EVENONLYGW"> F  </i>
   <i type="int" name="NKREDLFX">     1</i>
   <i type="int" name="NKREDLFY">     1</i>
   <i type="int" name="NKREDLFZ">     1</i>
   <i type="int" name="MAXMEM">  2800</i>
   <i type="int" name="TELESCOPE">     0</i>
   <i type="int" name="NTAUPAR">    -1</i>
   <i type="int" name="NOMEGAPAR">    -1</i>
   <i name="DAMP_NEWTON">      0.80000001</i>
   <i name="LAMBDA">      1.00000000</i>
  </separator>
  <separator name="External order field" >
   <i name="OFIELD_KAPPA">      0.00000000</i>
   <v name="OFIELD_K">      0.00000000      0.00000000      0.00000000</v>
   <i name="OFIELD_Q6_NEAR">      0.00000000</i>
   <i name="OFIELD_Q6_FAR">      0.00000000</i>
   <i name="OFIELD_A">      0.00000000</i>
  </separator>
  <separator name="optional k-points parameters" >
   <i type="int" name="KPOINTS_OPT_MODE">     1</i>
   <i type="logical" name="LKPOINTS_OPT"> F  </i>
  </separator>
 </parameters>
 <atominfo>
  <atoms>     216 </atoms>
  <types>       2 </types>
  <array name="atoms" >
   <dimension dim="1">ion</dimension>
   <field type="string">element</field>
   <field type="int">atomtype</field>
   <set>
    <rc><c>Sn</c><c>   1</c></rc>
    <rc><c>Sn</c><c>   1</c></rc>
    <rc><c>Sn</c><c>   1</c></rc>
    <rc><c>Sn</c><c>   1</c></rc>
    <rc><c>Sn</c><c>   1</c></rc>
    <rc><c>Sn</c><c>   1</c></rc>
    <rc><c>Sn</c><c>   1</c></rc>
    <rc><c>Sn</c><c>   1</c></rc>
    <rc><c>Sn</c><c>   1</c></rc>
    <rc><c>Sn</c><c>   1</c></rc>
    <rc><c>Sn</c><c>   1</c></rc>
    <rc><c>Sn</c><c>   1</c></rc>
    <rc><c>Sn</c><c>   1</c></rc>
    <rc><c>Sn</c><c>   1</c></rc>
    <rc><c>Sn</c><c>   1</c></rc>
    <rc><c>Sn</c><c>   1</c></rc>
    <rc><c>Sn</c><c>   1</c></rc>
    <rc><c>Sn</c><c>   1</c></rc>
    <rc><c>Sn</c><c>   1</c></rc>
    <rc><c>Sn</c><c>   1</c></rc>
    <rc><c>Sn</c><c>   1</c></rc>
    <rc><c>Sn</c><c>   1</c></rc>
    <rc><c>Sn</c><c>   1</c></rc>
    <rc><c>Sn</c><c>   1</c></rc>
    <rc><c>Sn</c><c>   1</c></rc>
    <rc><c>Sn</c><c>   1</c></rc>
    <rc><c>Sn</c><c>   1</c></rc>
    <rc><c>Sn</c><c>   1</c></rc>
    <rc><c>Sn</c><c>   1</c></rc>
    <rc><c>Sn</c><c>   1</c></rc>
    <rc><c>Sn</c><c>   1</c></rc>
    <rc><c>Sn</c><c>   1</c></rc>
    <rc><c>Sn</c><c>   1</c></rc>
    <rc><c>Sn</c><c>   1</c></rc>
    <rc><c>Sn</c><c>   1</c></rc>
    <rc><c>Sn</c><c>   1</c></rc>
    <rc><c>Sn</c><c>   1</c></rc>
    <rc><c>Sn</c><c>   1</c></rc>
    <rc><c>Sn</c><c>   1</c></rc>
    <rc><c>Sn</c><c>   1</c></rc>
    <rc><c>Sn</c><c>   1</c></rc>
    <rc><c>Sn</c><c>   1</c></rc>
    <rc><c>Sn</c><c>   1</c></rc>
    <rc><c>Sn</c><c>   1</c></rc>
    <rc><c>Sn</c><c>   1</c></rc>
    <rc><c>Sn</c><c>   1</c></rc>
    <rc><c>Sn</c><c>   1</c></rc>
    <rc><c>Sn</c><c>   1</c></rc>
    <rc><c>Sn</c><c>   1</c></rc>
    <rc><c>Sn</c><c>   1</c></rc>
    <rc><c>Sn</c><c>   1</c></rc>
    <rc><c>Sn</c><c>   1</c></rc>
    <rc><c>Sn</c><c>   1</c></rc>
    <rc><c>Sn</c><c>   1</c></rc>
    <rc><c>Sn</c><c>   1</c></rc>
    <rc><c>Sn</c><c>   1</c></rc>
    <rc><c>Sn</c><c>   1</c></rc>
    <rc><c>Sn</c><c>   1</c></rc>
    <rc><c>Sn</c><c>   1</c></rc>
    <rc><c>Sn</c><c>   1</c></rc>
    <rc><c>Sn</c><c>   1</c></rc>
    <rc><c>Sn</c><c>   1</c></rc>
    <rc><c>Sn</c><c>   1</c></rc>
    <rc><c>Sn</c><c>   1</c></rc>
    <rc><c>Sn</c><c>   1</c></rc>
    <rc><c>Sn</c><c>   1</c></rc>
    <rc><c>Sn</c><c>   1</c></rc>
    <rc><c>Sn</c><c>   1</c></rc>
    <rc><c>Sn</c><c>   1</c></rc>
    <rc><c>Sn</c><c>   1</c></rc>
    <rc><c>Sn</c><c>   1</c></rc>
    <rc><c>Sn</c><c>   1</c></rc>
    <rc><c>Si</c><c>   2</c></rc>
    <rc><c>Si</c><c>   2</c></rc>
    <rc><c>Si</c><c>   2</c></rc>
    <rc><c>Si</c><c>   2</c></rc>
    <rc><c>Si</c><c>   2</c></rc>
    <rc><c>Si</c><c>   2</c></rc>
    <rc><c>Si</c><c>   2</c></rc>
    <rc><c>Si</c><c>   2</c></rc>
    <rc><c>Si</c><c>   2</c></rc>
    <rc><c>Si</c><c>   2</c></rc>
    <rc><c>Si</c><c>   2</c></rc>
    <rc><c>Si</c><c>   2</c></rc>
    <rc><c>Si</c><c>   2</c></rc>
    <rc><c>Si</c><c>   2</c></rc>
    <rc><c>Si</c><c>   2</c></rc>
    <rc><c>Si</c><c>   2</c></rc>
    <rc><c>Si</c><c>   2</c></rc>
    <rc><c>Si</c><c>   2</c></rc>
    <rc><c>Si</c><c>   2</c></rc>
    <rc><c>Si</c><c>   2</c></rc>
    <rc><c>Si</c><c>   2</c></rc>
    <rc><c>Si</c><c>   2</c></rc>
    <rc><c>Si</c><c>   2</c></rc>
    <rc><c>Si</c><c>   2</c></rc>
    <rc><c>Si</c><c>   2</c></rc>
    <rc><c>Si</c><c>   2</c></rc>
    <rc><c>Si</c><c>   2</c></rc>
    <rc><c>Si</c><c>   2</c></rc>
    <rc><c>Si</c><c>   2</c></rc>
    <rc><c>Si</c><c>   2</c></rc>
    <rc><c>Si</c><c>   2</c></rc>
    <rc><c>Si</c><c>   2</c></rc>
    <rc><c>Si</c><c>   2</c></rc>
    <rc><c>Si</c><c>   2</c></rc>
    <rc><c>Si</c><c>   2</c></rc>
    <rc><c>Si</c><c>   2</c></rc>
    <rc><c>Si</c><c>   2</c></rc>
    <rc><c>Si</c><c>   2</c></rc>
    <rc><c>Si</c><c>   2</c></rc>
    <rc><c>Si</c><c>   2</c></rc>
    <rc><c>Si</c><c>   2</c></rc>
    <rc><c>Si</c><c>   2</c></rc>
    <rc><c>Si</c><c>   2</c></rc>
    <rc><c>Si</c><c>   2</c></rc>
    <rc><c>Si</c><c>   2</c></rc>
    <rc><c>Si</c><c>   2</c></rc>
    <rc><c>Si</c><c>   2</c></rc>
    <rc><c>Si</c><c>   2</c></rc>
    <rc><c>Si</c><c>   2</c></rc>
    <rc><c>Si</c><c>   2</c></rc>
    <rc><c>Si</c><c>   2</c></rc>
    <rc><c>Si</c><c>   2</c></rc>
    <rc><c>Si</c><c>   2</c></rc>
    <rc><c>Si</c><c>   2</c></rc>
    <rc><c>Si</c><c>   2</c></rc>
    <rc><c>Si</c><c>   2</c></rc>
    <rc><c>Si</c><c>   2</c></rc>
    <rc><c>Si</c><c>   2</c></rc>
    <rc><c>Si</c><c>   2</c></rc>
    <rc><c>Si</c><c>   2</c></rc>
    <rc><c>Si</c><c>   2</c></rc>
    <rc><c>Si</c><c>   2</c></rc>
    <rc><c>Si</c><c>   2</c></rc>
    <rc><c>Si</c><c>   2</c></rc>
    <rc><c>Si</c><c>   2</c></rc>
    <rc><c>Si</c><c>   2</c></rc>
    <rc><c>Si</c><c>   2</c></rc>
    <rc><c>Si</c><c>   2</c></rc>
    <rc><c>Si</c><c>   2</c></rc>
    <rc><c>Si</c><c>   2</c></rc>
    <rc><c>Si</c><c>   2</c></rc>
    <rc><c>Si</c><c>   2</c></rc>
    <rc><c>Si</c><c>   2</c></rc>
    <rc><c>Si</c><c>   2</c></rc>
    <rc><c>Si</c><c>   2</c></rc>
    <rc><c>Si</c><c>   2</c></rc>
    <rc><c>Si</c><c>   2</c></rc>
    <rc><c>Si</c><c>   2</c></rc>
    <rc><c>Si</c><c>   2</c></rc>
    <rc><c>Si</c><c>   2</c></rc>
    <rc><c>Si</c><c>   2</c></rc>
    <rc><c>Si</c><c>   2</c></rc>
    <rc><c>Si</c><c>   2</c></rc>
    <rc><c>Si</c><c>   2</c></rc>
    <rc><c>Si</c><c>   2</c></rc>
    <rc><c>Si</c><c>   2</c></rc>
    <rc><c>Si</c><c>   2</c></rc>
    <rc><c>Si</c><c>   2</c></rc>
    <rc><c>Si</c><c>   2</c></rc>
    <rc><c>Si</c><c>   2</c></rc>
    <rc><c>Si</c><c>   2</c></rc>
    <rc><c>Si</c><c>   2</c></rc>
    <rc><c>Si</c><c>   2</c></rc>
    <rc><c>Si</c><c>   2</c></rc>
    <rc><c>Si</c><c>   2</c></rc>
    <rc><c>Si</c><c>   2</c></rc>
    <rc><c>Si</c><c>   2</c></rc>
    <rc><c>Si</c><c>   2</c></rc>
    <rc><c>Si</c><c>   2</c></rc>
    <rc><c>Si</c><c>   2</c></rc>
    <rc><c>Si</c><c>   2</c></rc>
    <rc><c>Si</c><c>   2</c></rc>
    <rc><c>Si</c><c>   2</c></rc>
    <rc><c>Si</c><c>   2</c></rc>
    <rc><c>Si</c><c>   2</c></rc>
    <rc><c>Si</c><c>   2</c></rc>
    <rc><c>Si</c><c>   2</c></rc>
    <rc><c>Si</c><c>   2</c></rc>
    <rc><c>Si</c><c>   2</c></rc>
    <rc><c>Si</c><c>   2</c></rc>
    <rc><c>Si</c><c>   2</c></rc>
    <rc><c>Si</c><c>   2</c></rc>
    <rc><c>Si</c><c>   2</c></rc>
    <rc><c>Si</c><c>   2</c></rc>
    <rc><c>Si</c><c>   2</c></rc>
    <rc><c>Si</c><c>   2</c></rc>
    <rc><c>Si</c><c>   2</c></rc>
    <rc><c>Si</c><c>   2</c></rc>
    <rc><c>Si</c><c>   2</c></rc>
    <rc><c>Si</c><c>   2</c></rc>
    <rc><c>Si</c><c>   2</c></rc>
    <rc><c>Si</c><c>   2</c></rc>
    <rc><c>Si</c><c>   2</c></rc>
    <rc><c>Si</c><c>   2</c></rc>
    <rc><c>Si</c><c>   2</c></rc>
    <rc><c>Si</c><c>   2</c></rc>
    <rc><c>Si</c><c>   2</c></rc>
    <rc><c>Si</c><c>   2</c></rc>
    <rc><c>Si</c><c>   2</c></rc>
    <rc><c>Si</c><c>   2</c></rc>
    <rc><c>Si</c><c>   2</c></rc>
    <rc><c>Si</c><c>   2</c></rc>
    <rc><c>Si</c><c>   2</c></rc>
    <rc><c>Si</c><c>   2</c></rc>
    <rc><c>Si</c><c>   2</c></rc>
    <rc><c>Si</c><c>   2</c></rc>
    <rc><c>Si</c><c>   2</c></rc>
    <rc><c>Si</c><c>   2</c></rc>
    <rc><c>Si</c><c>   2</c></rc>
    <rc><c>Si</c><c>   2</c></rc>
    <rc><c>Si</c><c>   2</c></rc>
    <rc><c>Si</c><c>   2</c></rc>
    <rc><c>Si</c><c>   2</c></rc>
    <rc><c>Si</c><c>   2</c></rc>
   </set>
  </array>
  <array name="atomtypes" >
   <dimension dim="1">type</dimension>
   <field type="int">atomspertype</field>
   <field type="string">element</field>
   <field>mass</field>
   <field>valence</field>
   <field type="string">pseudopotential</field>
   <set>
    <rc><c>  72</c><c>Sn</c><c>    118.71000000</c><c>      4.00000000</c><c>  PAW_PBE Sn 08Apr2002                  </c></rc>
    <rc><c> 144</c><c>Si</c><c>     28.08500000</c><c>      4.00000000</c><c>  PAW_PBE Si 05Jan2001                  </c></rc>
   </set>
  </array>
 </atominfo>
 <structure name="initialpos" >
  <crystal>
   <varray name="basis" >
    <v>      12.97840023       0.00000000       0.00000000 </v>
    <v>       0.00000000      19.46759987       0.00000000 </v>
    <v>       0.00000000       0.00000000      17.71224594 </v>
   </varray>
   <i name="volume">   4475.14599499 </i>
   <varray name="rec_basis" >
    <v>       0.07705110       0.00000000       0.00000000 </v>
    <v>       0.00000000       0.05136740       0.00000000 </v>
    <v>       0.00000000       0.00000000       0.05645811 </v>
   </varray>
  </crystal>
  <varray name="positions" >
   <v>       0.99255264       0.66666669       0.00000000 </v>
   <v>       0.74255264       0.66666669       0.18318404 </v>
   <v>       0.49255270       0.66666669       0.36636797 </v>
   <v>       0.99255264       0.33333334       0.00000000 </v>
   <v>       0.74255264       0.33333334       0.18318404 </v>
   <v>       0.49255270       0.33333334       0.36636797 </v>
   <v>       0.99255264       0.00000000       0.00000000 </v>
   <v>       0.74255264       0.00000000       0.18318404 </v>
   <v>       0.49255270       0.00000000       0.36636797 </v>
   <v>       0.49255267       0.66666669       0.00000000 </v>
   <v>       0.24255267       0.66666669       0.18318404 </v>
   <v>       0.99255270       0.66666669       0.36636797 </v>
   <v>       0.49255267       0.33333334       0.00000000 </v>
   <v>       0.24255267       0.33333334       0.18318404 </v>
   <v>       0.99255270       0.33333334       0.36636797 </v>
   <v>       0.49255267       0.00000000       0.00000000 </v>
   <v>       0.24255267       0.00000000       0.18318404 </v>
   <v>       0.99255270       0.00000000       0.36636797 </v>
   <v>       0.11755266       0.91666675       0.09159201 </v>
   <v>       0.86755270       0.91666675       0.27477601 </v>
   <v>       0.61755264       0.91666675       0.45796007 </v>
   <v>       0.11755266       0.58333343       0.09159201 </v>
   <v>       0.86755270       0.58333343       0.27477601 </v>
   <v>       0.61755264       0.58333343       0.45796007 </v>
   <v>       0.11755266       0.25000000       0.09159201 </v>
   <v>       0.86755270       0.25000000       0.27477601 </v>
   <v>       0.61755264       0.25000000       0.45796007 </v>
   <v>       0.61755264       0.91666675       0.09159201 </v>
   <v>       0.36755273       0.91666675       0.27477601 </v>
   <v>       0.11755267       0.91666675       0.45796007 </v>
   <v>       0.61755264       0.58333343       0.09159201 </v>
   <v>       0.36755273       0.58333343       0.27477601 </v>
   <v>       0.11755267       0.58333343       0.45796007 </v>
   <v>       0.61755264       0.25000000       0.09159201 </v>
   <v>       0.36755273       0.25000000       0.27477601 </v>
   <v>       0.11755267       0.25000000       0.45796007 </v>
   <v>       0.24255267       0.83333331       0.00000000 </v>
   <v>       0.99255264       0.83333331       0.18318404 </v>
   <v>       0.74255270       0.83333331       0.36636797 </v>
   <v>       0.24255267       0.50000000       0.00000000 </v>
   <v>       0.99255264       0.50000000       0.18318404 </v>
   <v>       0.74255270       0.50000000       0.36636797 </v>
   <v>       0.24255267       0.16666667       0.00000000 </v>
   <v>       0.99255264       0.16666667       0.18318404 </v>
   <v>       0.74255270       0.16666667       0.36636797 </v>
   <v>       0.74255264       0.83333331       0.00000000 </v>
   <v>       0.49255267       0.83333331       0.18318404 </v>
   <v>       0.24255273       0.83333331       0.36636797 </v>
   <v>       0.74255264       0.50000000       0.00000000 </v>
   <v>       0.49255267       0.50000000       0.18318404 </v>
   <v>       0.24255273       0.50000000       0.36636797 </v>
   <v>       0.74255264       0.16666667       0.00000000 </v>
   <v>       0.49255267       0.16666667       0.18318404 </v>
   <v>       0.24255273       0.16666667       0.36636797 </v>
   <v>       0.36755267       0.75000006       0.09159201 </v>
   <v>       0.11755272       0.75000006       0.27477601 </v>
   <v>       0.86755270       0.75000006       0.45796007 </v>
   <v>       0.36755267       0.41666672       0.09159201 </v>
   <v>       0.11755272       0.41666672       0.27477601 </v>
   <v>       0.86755270       0.41666672       0.45796007 </v>
   <v>       0.36755267       0.08333334       0.09159201 </v>
   <v>       0.11755272       0.08333334       0.27477601 </v>
   <v>       0.86755270       0.08333334       0.45796007 </v>
   <v>       0.86755264       0.75000006       0.09159201 </v>
   <v>       0.61755270       0.75000006       0.27477601 </v>
   <v>       0.36755264       0.75000006       0.45796007 </v>
   <v>       0.86755264       0.41666672       0.09159201 </v>
   <v>       0.61755270       0.41666672       0.27477601 </v>
   <v>       0.36755264       0.41666672       0.45796007 </v>
   <v>       0.86755264       0.08333334       0.09159201 </v>
   <v>       0.61755270       0.08333334       0.27477601 </v>
   <v>       0.36755264       0.08333334       0.45796007 </v>
   <v>       0.97851729       0.49999997       0.45796007 </v>
   <v>       0.72851718       0.49999994       0.56636798 </v>
   <v>       0.47851712       0.49999988       0.67477608 </v>
   <v>       0.22851706       0.49999979       0.78318399 </v>
   <v>       0.97851694       0.49999973       0.89159191 </v>
   <v>       0.72851682       0.49999970       0.00000000 </v>
   <v>       0.31185061       0.66666669       0.45796007 </v>
   <v>       0.06185051       0.66666663       0.56636798 </v>
   <v>       0.81185043       0.66666657       0.67477596 </v>
   <v>       0.56185037       0.66666651       0.78318399 </v>
   <v>       0.31185019       0.66666645       0.89159203 </v>
   <v>       0.06185007       0.66666639       0.00000000 </v>
   <v>       0.64518398       0.83333343       0.45796007 </v>
   <v>       0.39518389       0.83333337       0.56636798 </v>
   <v>       0.14518374       0.83333331       0.67477608 </v>
   <v>       0.89518368       0.83333319       0.78318399 </v>
   <v>       0.64518356       0.83333313       0.89159203 </v>
   <v>       0.39518344       0.83333307       0.00000000 </v>
   <v>       0.97851729       0.00000000       0.45796007 </v>
   <v>       0.72851718       0.99999994       0.56636798 </v>
   <v>       0.47851712       0.99999988       0.67477596 </v>
   <v>       0.22851700       0.99999982       0.78318399 </v>
   <v>       0.97851694       0.99999970       0.89159203 </v>
   <v>       0.72851682       0.99999970       0.00000000 </v>
   <v>       0.31185061       0.16666666       0.45796007 </v>
   <v>       0.06185054       0.16666661       0.56636798 </v>
   <v>       0.81185043       0.16666654       0.67477596 </v>
   <v>       0.56185043       0.16666648       0.78318399 </v>
   <v>       0.31185031       0.16666642       0.89159203 </v>
   <v>       0.06185019       0.16666634       0.99999988 </v>
   <v>       0.64518398       0.33333334       0.45796007 </v>
   <v>       0.39518383       0.33333325       0.56636798 </v>
   <v>       0.14518380       0.33333319       0.67477596 </v>
   <v>       0.89518374       0.33333316       0.78318399 </v>
   <v>       0.64518356       0.33333307       0.89159203 </v>
   <v>       0.39518350       0.33333299       0.99999988 </v>
   <v>       0.14518397       0.83333337       0.45796007 </v>
   <v>       0.89518380       0.83333325       0.56636798 </v>
   <v>       0.64518380       0.83333319       0.67477608 </v>
   <v>       0.39518374       0.83333313       0.78318399 </v>
   <v>       0.14518356       0.83333313       0.89159203 </v>
   <v>       0.89518344       0.83333307       0.00000000 </v>
   <v>       0.14518394       0.33333331       0.45796007 </v>
   <v>       0.89518386       0.33333328       0.56636798 </v>
   <v>       0.64518380       0.33333319       0.67477596 </v>
   <v>       0.39518374       0.33333313       0.78318399 </v>
   <v>       0.14518362       0.33333307       0.89159203 </v>
   <v>       0.89518344       0.33333299       0.99999988 </v>
   <v>       0.47851732       0.50000000       0.45796007 </v>
   <v>       0.22851719       0.49999991       0.56636798 </v>
   <v>       0.97851712       0.49999988       0.67477596 </v>
   <v>       0.72851706       0.49999982       0.78318399 </v>
   <v>       0.47851694       0.49999973       0.89159203 </v>
   <v>       0.22851682       0.49999967       0.99999988 </v>
   <v>       0.81185067       0.66666675       0.45796007 </v>
   <v>       0.56185061       0.66666669       0.56636798 </v>
   <v>       0.31185049       0.66666657       0.67477608 </v>
   <v>       0.06185040       0.66666651       0.78318399 </v>
   <v>       0.81185025       0.66666645       0.89159203 </v>
   <v>       0.56185013       0.66666639       0.00000000 </v>
   <v>       0.47851729       0.00000000       0.45796007 </v>
   <v>       0.22851721       0.99999994       0.56636798 </v>
   <v>       0.97851712       0.99999988       0.67477596 </v>
   <v>       0.72851706       0.99999982       0.78318399 </v>
   <v>       0.47851694       0.99999976       0.89159203 </v>
   <v>       0.22851682       0.99999964       0.00000000 </v>
   <v>       0.81185061       0.16666669       0.45796007 </v>
   <v>       0.56185049       0.16666660       0.56636798 </v>
   <v>       0.31185046       0.16666654       0.67477596 </v>
   <v>       0.06185040       0.16666648       0.78318399 </v>
   <v>       0.81185025       0.16666640       0.89159203 </v>
   <v>       0.56185019       0.16666634       0.00000000 </v>
   <v>       0.14518398       0.70833337       0.45796007 </v>
   <v>       0.89518386       0.70833331       0.56636798 </v>
   <v>       0.64518380       0.70833325       0.67477596 </v>
   <v>       0.39518368       0.70833319       0.78318399 </v>
   <v>       0.14518356       0.70833313       0.89159203 </v>
   <v>       0.89518344       0.70833307       0.00000000 </v>
   <v>       0.47851729       0.87500012       0.45796007 </v>
   <v>       0.22851716       0.87500000       0.56636798 </v>
   <v>       0.97851712       0.87500000       0.67477608 </v>
   <v>       0.72851706       0.87499988       0.78318399 </v>
   <v>       0.47851688       0.87499982       0.89159203 </v>
   <v>       0.22851682       0.87499976       0.00000000 </v>
   <v>       0.14518395       0.20833334       0.45796007 </v>
   <v>       0.89518386       0.20833328       0.56636798 </v>
   <v>       0.64518380       0.20833322       0.67477608 </v>
   <v>       0.39518368       0.20833315       0.78318399 </v>
   <v>       0.14518356       0.20833307       0.89159203 </v>
   <v>       0.89518344       0.20833303       0.00000000 </v>
   <v>       0.47851732       0.37500000       0.45796007 </v>
   <v>       0.22851721       0.37499994       0.56636798 </v>
   <v>       0.97851712       0.37499988       0.67477596 </v>
   <v>       0.72851706       0.37499982       0.78318399 </v>
   <v>       0.47851694       0.37499973       0.89159203 </v>
   <v>       0.22851682       0.37499970       0.00000000 </v>
   <v>       0.81185067       0.54166669       0.45796007 </v>
   <v>       0.56185055       0.54166663       0.56636798 </v>
   <v>       0.31185046       0.54166657       0.67477608 </v>
   <v>       0.06185041       0.54166651       0.78318399 </v>
   <v>       0.81185031       0.54166645       0.89159203 </v>
   <v>       0.56185019       0.54166639       0.00000000 </v>
   <v>       0.81185067       0.04166668       0.45796007 </v>
   <v>       0.56185055       0.04166659       0.56636798 </v>
   <v>       0.31185049       0.04166653       0.67477596 </v>
   <v>       0.06185041       0.04166647       0.78318399 </v>
   <v>       0.81185031       0.04166639       0.89159203 </v>
   <v>       0.56185019       0.04166632       0.00000000 </v>
   <v>       0.97851729       0.87500006       0.45796007 </v>
   <v>       0.72851718       0.87500000       0.56636798 </v>
   <v>       0.47851712       0.87499988       0.67477608 </v>
   <v>       0.22851706       0.87499982       0.78318399 </v>
   <v>       0.97851694       0.87499982       0.89159203 </v>
   <v>       0.72851682       0.87499970       0.00000000 </v>
   <v>       0.97851729       0.37500000       0.45796007 </v>
   <v>       0.72851718       0.37499994       0.56636798 </v>
   <v>       0.47851712       0.37499991       0.67477608 </v>
   <v>       0.22851706       0.37499979       0.78318399 </v>
   <v>       0.97851694       0.37499976       0.89159203 </v>
   <v>       0.72851682       0.37499973       0.00000000 </v>
   <v>       0.31185067       0.54166669       0.45796007 </v>
   <v>       0.06185053       0.54166663       0.56636798 </v>
   <v>       0.81185043       0.54166657       0.67477608 </v>
   <v>       0.56185043       0.54166651       0.78318399 </v>
   <v>       0.31185025       0.54166645       0.89159203 </v>
   <v>       0.06185007       0.54166639       0.00000000 </v>
   <v>       0.64518398       0.70833331       0.45796007 </v>
   <v>       0.39518386       0.70833325       0.56636798 </v>
   <v>       0.14518382       0.70833319       0.67477596 </v>
   <v>       0.89518368       0.70833313       0.78318399 </v>
   <v>       0.64518356       0.70833307       0.89159203 </v>
   <v>       0.39518350       0.70833296       0.00000000 </v>
   <v>       0.31185067       0.04166666       0.45796007 </v>
   <v>       0.06185054       0.04166659       0.56636798 </v>
   <v>       0.81185049       0.04166652       0.67477596 </v>
   <v>       0.56185043       0.04166645       0.78318399 </v>
   <v>       0.31185031       0.04166641       0.89159203 </v>
   <v>       0.06185013       0.04166633       0.00000000 </v>
   <v>       0.64518404       0.20833334       0.45796007 </v>
   <v>       0.39518389       0.20833325       0.56636798 </v>
   <v>       0.14518383       0.20833319       0.67477596 </v>
   <v>       0.89518374       0.20833313       0.78318399 </v>
   <v>       0.64518362       0.20833307       0.89159203 </v>
   <v>       0.39518350       0.20833299       0.00000000 </v>
  </varray>
 </structure>
 <calculation>
  <scstep>
   <time name="dav">   92.57   93.46</time>
   <time name="total">   95.04   95.96</time>
   <energy>
    <i name="alphaZ">    668.69101645 </i>
    <i name="ewald"> -16468.97830224 </i>
    <i name="hartreedc">  -5214.66222981 </i>
    <i name="XCdc">  -9879.08534986 </i>
    <i name="pawpsdc">  26327.73043894 </i>
    <i name="pawaedc"> -14876.82497380 </i>
    <i name="eentropy">     -0.00240527 </i>
    <i name="bandstr">   5341.33758237 </i>
    <i name="atom">  21615.78458279 </i>
    <i name="e_fr_energy">   7513.99035957 </i>
    <i name="e_wo_entrp">   7513.99276484 </i>
    <i name="e_0_energy">   7513.99156221 </i>
   </energy>
  </scstep>
  <scstep>
   <time name="dav">  104.98  106.00</time>
   <time name="total">  104.98  106.00</time>
   <energy>
    <i name="e_fr_energy">   2977.09521486 </i>
    <i name="e_wo_entrp">   2977.09751643 </i>
    <i name="e_0_energy">   2977.09636564 </i>
   </energy>
  </scstep>
  <scstep>
   <time name="dav">  116.55  117.61</time>
   <time name="total">  116.55  117.62</time>
   <energy>
    <i name="e_fr_energy">   2480.20408717 </i>
    <i name="e_wo_entrp">   2480.20777557 </i>
    <i name="e_0_energy">   2480.20593137 </i>
   </energy>
  </scstep>
  <scstep>
   <time name="dav">  133.20  134.52</time>
   <time name="total">  133.20  134.53</time>
   <energy>
    <i name="e_fr_energy">   2444.66636069 </i>
    <i name="e_wo_entrp">   2444.67004857 </i>
    <i name="e_0_energy">   2444.66820463 </i>
   </energy>
  </scstep>
  <scstep>
   <time name="dav">  129.17  130.34</time>
   <time name="total">  133.50  134.72</time>
   <energy>
    <i name="e_fr_energy">   2443.15618396 </i>
    <i name="e_wo_entrp">   2443.16034926 </i>
    <i name="e_0_energy">   2443.15826661 </i>
   </energy>
  </scstep>
  <scstep>
   <time name="dav">  129.23  130.40</time>
   <time name="total">  135.96  137.19</time>
   <energy>
    <i name="e_fr_energy">   2426.94277708 </i>
    <i name="e_wo_entrp">   2426.94729571 </i>
    <i name="e_0_energy">   2426.94503640 </i>
   </energy>
  </scstep>
  <scstep>
   <time name="dav">  160.56  161.97</time>
   <time name="total">  167.30  168.77</time>
   <energy>
    <i name="e_fr_energy">   1545.25248332 </i>
    <i name="e_wo_entrp">   1545.25606764 </i>
    <i name="e_0_energy">   1545.25427548 </i>
   </energy>
  </scstep>
  <scstep>
   <time name="dav">  117.97  119.08</time>
   <time name="total">  124.70  125.87</time>
   <energy>
    <i name="e_fr_energy">   2428.97279862 </i>
    <i name="e_wo_entrp">   2428.97658314 </i>
    <i name="e_0_energy">   2428.97469088 </i>
   </energy>
  </scstep>
  <scstep>
   <time name="dav">  110.87  111.85</time>
   <time name="total">  117.59  118.63</time>
   <energy>
    <i name="e_fr_energy">   2592.82798439 </i>
    <i name="e_wo_entrp">   2592.83070513 </i>
    <i name="e_0_energy">   2592.82934476 </i>
   </energy>
  </scstep>
  <scstep>
   <time name="dav">  108.98  109.99</time>
   <time name="total">  115.69  116.75</time>
   <energy>
    <i name="e_fr_energy">   2564.53779674 </i>
    <i name="e_wo_entrp">   2564.54211483 </i>
    <i name="e_0_energy">   2564.53995578 </i>
   </energy>
  </scstep>
  <scstep>
   <time name="dav">  112.57  113.62</time>
   <time name="total">  119.31  120.42</time>
   <energy>
    <i name="e_fr_energy">   2571.59382865 </i>
    <i name="e_wo_entrp">   2571.59803630 </i>
    <i name="e_0_energy">   2571.59593247 </i>
   </energy>
  </scstep>
  <scstep>
   <time name="dav">  109.52  110.61</time>
   <time name="total">  116.27  117.43</time>
   <energy>
    <i name="e_fr_energy">   2570.77842499 </i>
    <i name="e_wo_entrp">   2570.78380131 </i>
    <i name="e_0_energy">   2570.78111315 </i>
   </energy>
  </scstep>
  <scstep>
   <time name="dav">  104.00  104.98</time>
   <time name="total">  110.75  111.79</time>
   <energy>
    <i name="e_fr_energy">   2571.88908825 </i>
    <i name="e_wo_entrp">   2571.89418474 </i>
    <i name="e_0_energy">   2571.89163649 </i>
   </energy>
  </scstep>
  <scstep>
   <time name="dav">  109.53  110.61</time>
   <time name="total">  116.24  117.38</time>
   <energy>
    <i name="e_fr_energy">   2571.75182910 </i>
    <i name="e_wo_entrp">   2571.75729360 </i>
    <i name="e_0_energy">   2571.75456135 </i>
   </energy>
  </scstep>
  <scstep>
   <time name="dav">  107.75  108.79</time>
   <time name="total">  114.47  115.57</time>
   <energy>
    <i name="e_fr_energy">   2573.05691329 </i>
    <i name="e_wo_entrp">   2573.06186786 </i>
    <i name="e_0_energy">   2573.05939057 </i>
   </energy>
  </scstep>
  <scstep>
   <time name="dav">  105.61  106.58</time>
   <time name="total">  112.36  113.38</time>
   <energy>
    <i name="e_fr_energy">   2573.23582046 </i>
    <i name="e_wo_entrp">   2573.24037307 </i>
    <i name="e_0_energy">   2573.23809677 </i>
   </energy>
  </scstep>
  <scstep>
   <time name="dav">  104.88  105.95</time>
   <time name="total">  111.63  112.75</time>
   <energy>
    <i name="e_fr_energy">   2573.50558082 </i>
    <i name="e_wo_entrp">   2573.51186734 </i>
    <i name="e_0_energy">   2573.50872408 </i>
   </energy>
  </scstep>
  <scstep>
   <time name="dav">  116.77  117.89</time>
   <time name="total">  123.44  124.61</time>
   <energy>
    <i name="e_fr_energy">   2573.46867054 </i>
    <i name="e_wo_entrp">   2573.47494105 </i>
    <i name="e_0_energy">   2573.47180580 </i>
   </energy>
  </scstep>
  <scstep>
   <time name="dav">  119.68  120.90</time>
   <time name="total">  126.35  127.63</time>
   <energy>
    <i name="e_fr_energy">   2573.00424600 </i>
    <i name="e_wo_entrp">   2573.00919203 </i>
    <i name="e_0_energy">   2573.00671902 </i>
   </energy>
  </scstep>
  <scstep>
   <time name="dav">  102.51  103.48</time>
   <time name="total">  109.18  110.21</time>
   <energy>
    <i name="e_fr_energy">   2573.34578572 </i>
    <i name="e_wo_entrp">   2573.35179376 </i>
    <i name="e_0_energy">   2573.34878974 </i>
   </energy>
  </scstep>
  <scstep>
   <time name="dav">  114.39  115.54</time>
   <time name="total">  121.18  122.40</time>
   <energy>
    <i name="e_fr_energy">   2573.39162048 </i>
    <i name="e_wo_entrp">   2573.39756237 </i>
    <i name="e_0_energy">   2573.39459142 </i>
   </energy>
  </scstep>
  <scstep>
   <time name="dav">  117.64  118.79</time>
   <time name="total">  124.44  125.65</time>
   <energy>
    <i name="e_fr_energy">   2573.04311053 </i>
    <i name="e_wo_entrp">   2573.04733552 </i>
    <i name="e_0_energy">   2573.04522303 </i>
   </energy>
  </scstep>
  <scstep>
   <time name="dav">  111.90  112.98</time>
   <time name="total">  118.69  119.82</time>
   <energy>
    <i name="e_fr_energy">   2572.46277034 </i>
    <i name="e_wo_entrp">   2572.46771282 </i>
    <i name="e_0_energy">   2572.46524158 </i>
   </energy>
  </scstep>
  <scstep>
   <time name="dav">  104.46  105.41</time>
   <time name="total">  111.25  112.26</time>
   <energy>
    <i name="e_fr_energy">   2572.36810474 </i>
    <i name="e_wo_entrp">   2572.37279088 </i>
    <i name="e_0_energy">   2572.37044781 </i>
   </energy>
  </scstep>
  <scstep>
   <time name="dav">  120.98  122.05</time>
   <time name="total">  127.77  128.89</time>
   <energy>
    <i name="e_fr_energy">   2572.54598065 </i>
    <i name="e_wo_entrp">   2572.55074512 </i>
    <i name="e_0_energy">   2572.54836288 </i>
   </energy>
  </scstep>
  <scstep>
   <time name="dav">  116.29  117.34</time>
   <time name="total">  123.00  124.10</time>
   <energy>
    <i name="e_fr_energy">   2572.33971300 </i>
    <i name="e_wo_entrp">   2572.34429975 </i>
    <i name="e_0_energy">   2572.34200638 </i>
   </energy>
  </scstep>
  <scstep>
   <time name="dav">  108.95  109.91</time>
   <time name="total">  115.66  116.67</time>
   <energy>
    <i name="e_fr_energy">   2572.48812081 </i>
    <i name="e_wo_entrp">   2572.49247768 </i>
    <i name="e_0_energy">   2572.49029925 </i>
   </energy>
  </scstep>
  <scstep>
   <time name="dav">  111.53  112.66</time>
   <time name="total">  118.22  119.41</time>
   <energy>
    <i name="e_fr_energy">   2572.32002280 </i>
    <i name="e_wo_entrp">   2572.32416953 </i>
    <i name="e_0_energy">   2572.32209616 </i>
   </energy>
  </scstep>
  <scstep>
   <time name="dav">  112.23  113.24</time>
   <time name="total">  118.92  119.99</time>
   <energy>
    <i name="e_fr_energy">   2572.00272967 </i>
    <i name="e_wo_entrp">   2572.00689787 </i>
    <i name="e_0_energy">   2572.00481377 </i>
   </energy>
  </scstep>
  <scstep>
   <time name="dav">  106.75  107.72</time>
   <time name="total">  113.45  114.47</time>
   <energy>
    <i name="e_fr_energy">   2572.34644648 </i>
    <i name="e_wo_entrp">   2572.35066178 </i>
    <i name="e_0_energy">   2572.34855413 </i>
   </energy>
  </scstep>
  <scstep>
   <time name="dav">  117.44  118.50</time>
   <time name="total">  124.17  125.29</time>
   <energy>
    <i name="e_fr_energy">   2572.34213834 </i>
    <i name="e_wo_entrp">   2572.34634663 </i>
    <i name="e_0_energy">   2572.34424249 </i>
   </energy>
  </scstep>
  <scstep>
   <time name="dav">  141.69  143.24</time>
   <time name="total">  148.41  150.09</time>
   <energy>
    <i name="e_fr_energy">   2572.33905237 </i>
    <i name="e_wo_entrp">   2572.34326445 </i>
    <i name="e_0_energy">   2572.34115841 </i>
   </energy>
  </scstep>
  <scstep>
   <time name="dav">  106.03  106.99</time>
   <time name="total">  112.87  114.03</time>
   <energy>
    <i name="e_fr_energy">   2572.44171022 </i>
    <i name="e_wo_entrp">   2572.44595468 </i>
    <i name="e_0_energy">   2572.44383245 </i>
   </energy>
  </scstep>
  <scstep>
   <time name="dav">  108.39  109.37</time>
   <time name="total">  115.18  116.22</time>
   <energy>
    <i name="e_fr_energy">   2572.70765663 </i>
    <i name="e_wo_entrp">   2572.71207589 </i>
    <i name="e_0_energy">   2572.70986626 </i>
   </energy>
  </scstep>
  <scstep>
   <time name="dav">  114.45  115.52</time>
   <time name="total">  121.24  122.37</time>
   <energy>
    <i name="e_fr_energy">   2572.79606758 </i>
    <i name="e_wo_entrp">   2572.80047885 </i>
    <i name="e_0_energy">   2572.79827321 </i>
   </energy>
  </scstep>
  <scstep>
   <time name="dav">  107.12  108.11</time>
   <time name="total">  113.93  114.98</time>
   <energy>
    <i name="e_fr_energy">   2572.98284704 </i>
    <i name="e_wo_entrp">   2572.98745016 </i>
    <i name="e_0_energy">   2572.98514860 </i>
   </energy>
  </scstep>
  <scstep>
   <time name="dav">  110.79  111.88</time>
   <time name="total">  117.59  118.75</time>
   <energy>
    <i name="e_fr_energy">   2573.15264741 </i>
    <i name="e_wo_entrp">   2573.15753641 </i>
    <i name="e_0_energy">   2573.15509191 </i>
   </energy>
  </scstep>
  <scstep>
   <time name="dav">  120.25  121.36</time>
   <time name="total">  127.08  128.25</time>
   <energy>
    <i name="e_fr_energy">   2572.99870280 </i>
    <i name="e_wo_entrp">   2573.00373735 </i>
    <i name="e_0_energy">   2573.00122008 </i>
   </energy>
  </scstep>
  <scstep>
   <time name="dav">  116.70  117.85</time>
   <time name="total">  123.51  124.72</time>
   <energy>
    <i name="e_fr_energy">   2572.92433851 </i>
    <i name="e_wo_entrp">   2572.92939358 </i>
    <i name="e_0_energy">   2572.92686604 </i>
   </energy>
  </scstep>
  <scstep>
   <time name="dav">  110.57  111.62</time>
   <time name="total">  117.39  118.50</time>
   <energy>
    <i name="e_fr_energy">   2572.98299015 </i>
    <i name="e_wo_entrp">   2572.98821432 </i>
    <i name="e_0_energy">   2572.98560223 </i>
   </energy>
  </scstep>
  <scstep>
   <time name="dav">  120.52  121.71</time>
   <time name="total">  127.19  128.44</time>
   <energy>
    <i name="e_fr_energy">   2573.00208310 </i>
    <i name="e_wo_entrp">   2573.00723799 </i>
    <i name="e_0_energy">   2573.00466054 </i>
   </energy>
  </scstep>
  <scstep>
   <time name="dav">  109.39  110.40</time>
   <time name="total">  116.08  117.14</time>
   <energy>
    <i name="e_fr_energy">   2573.03102245 </i>
    <i name="e_wo_entrp">   2573.03606374 </i>
    <i name="e_0_energy">   2573.03354310 </i>
   </energy>
  </scstep>
  <scstep>
   <time name="dav">  119.81  120.92</time>
   <time name="total">  126.48  127.64</time>
   <energy>
    <i name="e_fr_energy">   2573.12975930 </i>
    <i name="e_wo_entrp">   2573.13470536 </i>
    <i name="e_0_energy">   2573.13223233 </i>
   </energy>
  </scstep>
  <scstep>
   <time name="dav">  126.16  127.32</time>
   <time name="total">  132.84  134.06</time>
   <energy>
    <i name="e_fr_energy">   2573.21766546 </i>
    <i name="e_wo_entrp">   2573.22251367 </i>
    <i name="e_0_energy">   2573.22008957 </i>
   </energy>
  </scstep>
  <scstep>
   <time name="dav">  127.97  129.09</time>
   <time name="total">  134.69  135.87</time>
   <energy>
    <i name="e_fr_energy">   2573.34604083 </i>
    <i name="e_wo_entrp">   2573.35075364 </i>
    <i name="e_0_energy">   2573.34839724 </i>
   </energy>
  </scstep>
  <scstep>
   <time name="dav">  128.11  130.33</time>
   <time name="total">  134.86  137.39</time>
   <energy>
    <i name="e_fr_energy">   2573.46884797 </i>
    <i name="e_wo_entrp">   2573.47350690 </i>
    <i name="e_0_energy">   2573.47117743 </i>
   </energy>
  </scstep>
  <scstep>
   <time name="dav">  105.40  106.39</time>
   <time name="total">  112.16  113.20</time>
   <energy>
    <i name="e_fr_energy">   2573.48114022 </i>
    <i name="e_wo_entrp">   2573.48574107 </i>
    <i name="e_0_energy">   2573.48344065 </i>
   </energy>
  </scstep>
  <scstep>
   <time name="dav">  126.57  127.83</time>
   <time name="total">  133.34  134.66</time>
   <energy>
    <i name="e_fr_energy">   2573.60829572 </i>
    <i name="e_wo_entrp">   2573.61298958 </i>
    <i name="e_0_energy">   2573.61064265 </i>
   </energy>
  </scstep>
  <scstep>
   <time name="dav">  128.50  129.71</time>
   <time name="total">  135.14  136.41</time>
   <energy>
    <i name="e_fr_energy">   2573.71297196 </i>
    <i name="e_wo_entrp">   2573.71802184 </i>
    <i name="e_0_energy">   2573.71549690 </i>
   </energy>
  </scstep>
  <scstep>
   <time name="dav">  100.97  101.97</time>
   <time name="total">  107.62  108.68</time>
   <energy>
    <i name="e_fr_energy">   2573.70635100 </i>
    <i name="e_wo_entrp">   2573.71145531 </i>
    <i name="e_0_energy">   2573.70890316 </i>
   </energy>
  </scstep>
  <scstep>
   <time name="dav">  104.27  105.27</time>
   <time name="total">  110.91  111.97</time>
   <energy>
    <i name="e_fr_energy">   2573.67719408 </i>
    <i name="e_wo_entrp">   2573.68315601 </i>
    <i name="e_0_energy">   2573.68017504 </i>
   </energy>
  </scstep>
  <scstep>
   <time name="dav">  113.73  114.80</time>
   <time name="total">  120.36  121.50</time>
   <energy>
    <i name="e_fr_energy">   2573.73967069 </i>
    <i name="e_wo_entrp">   2573.74600396 </i>
    <i name="e_0_energy">   2573.74283732 </i>
   </energy>
  </scstep>
  <scstep>
   <time name="dav">  126.63  127.86</time>
   <time name="total">  133.27  134.56</time>
   <energy>
    <i name="e_fr_energy">   2573.77163776 </i>
    <i name="e_wo_entrp">   2573.77828619 </i>
    <i name="e_0_energy">   2573.77496198 </i>
   </energy>
  </scstep>
  <scstep>
   <time name="dav">  126.31  127.49</time>
   <time name="total">  132.96  134.20</time>
   <energy>
    <i name="e_fr_energy">   2573.78021460 </i>
    <i name="e_wo_entrp">   2573.78699718 </i>
    <i name="e_0_energy">   2573.78360589 </i>
   </energy>
  </scstep>
  <scstep>
   <time name="dav">  119.77  120.93</time>
   <time name="total">  126.41  127.63</time>
   <energy>
    <i name="e_fr_energy">   2573.78758451 </i>
    <i name="e_wo_entrp">   2573.79436074 </i>
    <i name="e_0_energy">   2573.79097262 </i>
   </energy>
  </scstep>
  <scstep>
   <time name="dav">  125.25  126.41</time>
   <time name="total">  131.90  133.12</time>
   <energy>
    <i name="e_fr_energy">   2573.75899688 </i>
    <i name="e_wo_entrp">   2573.76561692 </i>
    <i name="e_0_energy">   2573.76230690 </i>
   </energy>
  </scstep>
  <scstep>
   <time name="dav">  114.02  115.14</time>
   <time name="total">  120.67  121.84</time>
   <energy>
    <i name="e_fr_energy">   2573.76130303 </i>
    <i name="e_wo_entrp">   2573.76786344 </i>
    <i name="e_0_energy">   2573.76458323 </i>
   </energy>
  </scstep>
  <scstep>
   <time name="dav">  127.69  128.87</time>
   <time name="total">  134.33  135.57</time>
   <energy>
    <i name="e_fr_energy">   2573.76816731 </i>
    <i name="e_wo_entrp">   2573.77470174 </i>
    <i name="e_0_energy">   2573.77143453 </i>
   </energy>
  </scstep>
  <scstep>
   <time name="dav">  123.28  124.48</time>
   <time name="total">  129.93  131.20</time>
   <energy>
    <i name="e_fr_energy">   2573.78162289 </i>
    <i name="e_wo_entrp">   2573.78818068 </i>
    <i name="e_0_energy">   2573.78490179 </i>
   </energy>
  </scstep>
  <scstep>
   <time name="dav">  130.30  131.51</time>
   <time name="total">  136.96  138.22</time>
   <energy>
    <i name="e_fr_energy">   2573.78849378 </i>
    <i name="e_wo_entrp">   2573.79509565 </i>
    <i name="e_0_energy">   2573.79179471 </i>
   </energy>
  </scstep>
  <scstep>
   <time name="dav">  125.97  127.20</time>
   <time name="total">  132.62  133.91</time>
   <energy>
    <i name="e_fr_energy">   2573.79194991 </i>
    <i name="e_wo_entrp">   2573.79853315 </i>
    <i name="e_0_energy">   2573.79524153 </i>
   </energy>
  </scstep>
  <scstep>
   <time name="dav">  125.81  127.24</time>
   <time name="total">  132.48  134.01</time>
   <energy>
    <i name="e_fr_energy">   2573.79463221 </i>
    <i name="e_wo_entrp">   2573.80126633 </i>
    <i name="e_0_energy">   2573.79794927 </i>
   </energy>
  </scstep>
  <scstep>
   <time name="dav">  125.43  126.64</time>
   <time name="total">  132.03  133.29</time>
   <energy>
    <i name="e_fr_energy">   2573.79733623 </i>
    <i name="e_wo_entrp">   2573.80396392 </i>
    <i name="e_0_energy">   2573.80065007 </i>
   </energy>
  </scstep>
  <scstep>
   <time name="dav">  129.30  130.45</time>
   <time name="total">  135.92  137.12</time>
   <energy>
    <i name="e_fr_energy">   2573.79831596 </i>
    <i name="e_wo_entrp">   2573.80495519 </i>
    <i name="e_0_energy">   2573.80163557 </i>
   </energy>
  </scstep>
  <scstep>
   <time name="dav">  122.81  123.94</time>
   <time name="total">  129.40  130.59</time>
   <energy>
    <i name="e_fr_energy">   2573.79861561 </i>
    <i name="e_wo_entrp">   2573.80525595 </i>
    <i name="e_0_energy">   2573.80193578 </i>
   </energy>
  </scstep>
  <scstep>
   <time name="dav">  129.06  130.22</time>
   <time name="total">  135.67  136.88</time>
   <energy>
    <i name="e_fr_energy">   2573.79925852 </i>
    <i name="e_wo_entrp">   2573.80589308 </i>
    <i name="e_0_energy">   2573.80257580 </i>
   </energy>
  </scstep>
  <scstep>
   <time name="dav">  128.86  130.08</time>
   <time name="total">  135.47  136.75</time>
   <energy>
    <i name="e_fr_energy">   2573.79950124 </i>
    <i name="e_wo_entrp">   2573.80613715 </i>
    <i name="e_0_energy">   2573.80281920 </i>
   </energy>
  </scstep>
  <scstep>
   <time name="dav">  117.57  118.64</time>
   <time name="total">  124.16  125.28</time>
   <energy>
    <i name="e_fr_energy">   2573.79955202 </i>
    <i name="e_wo_entrp">   2573.80618620 </i>
    <i name="e_0_energy">   2573.80286911 </i>
   </energy>
  </scstep>
  <scstep>
   <time name="dav">  121.88  123.06</time>
   <time name="total">  128.50  129.73</time>
   <energy>
    <i name="e_fr_energy">   2573.79960246 </i>
    <i name="e_wo_entrp">   2573.80623451 </i>
    <i name="e_0_energy">   2573.80291849 </i>
   </energy>
  </scstep>
  <scstep>
   <time name="dav">  133.85  135.13</time>
   <time name="total">  140.48  141.82</time>
   <energy>
    <i name="e_fr_energy">   2573.79964311 </i>
    <i name="e_wo_entrp">   2573.80627408 </i>
    <i name="e_0_energy">   2573.80295859 </i>
   </energy>
  </scstep>
  <scstep>
   <time name="dav">  126.33  127.57</time>
   <time name="total">  132.94  134.24</time>
   <energy>
    <i name="e_fr_energy">   2573.79970118 </i>
    <i name="e_wo_entrp">   2573.80632835 </i>
    <i name="e_0_energy">   2573.80301476 </i>
   </energy>
  </scstep>
  <scstep>
   <time name="dav">  127.95  129.11</time>
   <time name="total">  134.60  135.82</time>
   <energy>
    <i name="e_fr_energy">   2573.79971302 </i>
    <i name="e_wo_entrp">   2573.80634060 </i>
    <i name="e_0_energy">   2573.80302681 </i>
   </energy>
  </scstep>
  <scstep>
   <time name="dav">  128.07  129.24</time>
   <time name="total">  134.65  135.88</time>
   <energy>
    <i name="e_fr_energy">   2573.79972316 </i>
    <i name="e_wo_entrp">   2573.80634981 </i>
    <i name="e_0_energy">   2573.80303649 </i>
   </energy>
  </scstep>
  <scstep>
   <time name="dav">  113.59  114.62</time>
   <time name="total">  120.18  121.26</time>
   <energy>
    <i name="e_fr_energy">   2573.79972320 </i>
    <i name="e_wo_entrp">   2573.80634859 </i>
    <i name="e_0_energy">   2573.80303590 </i>
   </energy>
  </scstep>
  <scstep>
   <time name="dav">  120.12  121.21</time>
   <time name="total">  126.73  127.87</time>
   <energy>
    <i name="e_fr_energy">   2573.79972458 </i>
    <i name="e_wo_entrp">   2573.80635004 </i>
    <i name="e_0_energy">   2573.80303731 </i>
   </energy>
  </scstep>
  <scstep>
   <time name="dav">  122.10  123.73</time>
   <time name="total">  128.69  130.62</time>
   <energy>
    <i name="e_fr_energy">   2573.79972490 </i>
    <i name="e_wo_entrp">   2573.80635001 </i>
    <i name="e_0_energy">   2573.80303745 </i>
   </energy>
  </scstep>
  <scstep>
   <time name="dav">   99.85  100.80</time>
   <time name="total">  102.30  103.26</time>
   <energy>
    <i name="alphaZ">    668.69101645 </i>
    <i name="ewald"> -16468.97830224 </i>
    <i name="hartreedc">  -5670.42367927 </i>
    <i name="XCdc">  -9796.34111913 </i>
    <i name="pawpsdc">3427987.58556966 </i>
    <i name="pawaedc">**************** </i>
    <i name="eentropy">     -0.00662555 </i>
    <i name="bandstr">    913.70382775 </i>
    <i name="atom">  21615.78458279 </i>
    <i name="e_fr_energy">   2573.79972484 </i>
    <i name="e_wo_entrp">   2573.80635039 </i>
    <i name="e_0_energy">   2573.80303761 </i>
   </energy>
  </scstep>
  <structure>
   <crystal>
    <varray name="basis" >
     <v>      12.97840023       0.00000000       0.00000000 </v>
     <v>       0.00000000      19.46759987       0.00000000 </v>
     <v>       0.00000000       0.00000000      17.71224594 </v>
    </varray>
    <i name="volume">   4475.14599499 </i>
    <varray name="rec_basis" >
     <v>       0.07705110       0.00000000       0.00000000 </v>
     <v>       0.00000000       0.05136740       0.00000000 </v>
     <v>       0.00000000       0.00000000       0.05645811 </v>
    </varray>
   </crystal>
   <varray name="positions" >
    <v>       0.99255264       0.66666669       0.00000000 </v>
    <v>       0.74255264       0.66666669       0.18318404 </v>
    <v>       0.49255270       0.66666669       0.36636797 </v>
    <v>       0.99255264       0.33333334       0.00000000 </v>
    <v>       0.74255264       0.33333334       0.18318404 </v>
    <v>       0.49255270       0.33333334       0.36636797 </v>
    <v>       0.99255264       0.00000000       0.00000000 </v>
    <v>       0.74255264       0.00000000       0.18318404 </v>
    <v>       0.49255270       0.00000000       0.36636797 </v>
    <v>       0.49255267       0.66666669       0.00000000 </v>
    <v>       0.24255267       0.66666669       0.18318404 </v>
    <v>       0.99255270       0.66666669       0.36636797 </v>
    <v>       0.49255267       0.33333334       0.00000000 </v>
    <v>       0.24255267       0.33333334       0.18318404 </v>
    <v>       0.99255270       0.33333334       0.36636797 </v>
    <v>       0.49255267       0.00000000       0.00000000 </v>
    <v>       0.24255267       0.00000000       0.18318404 </v>
    <v>       0.99255270       0.00000000       0.36636797 </v>
    <v>       0.11755266       0.91666675       0.09159201 </v>
    <v>       0.86755270       0.91666675       0.27477601 </v>
    <v>       0.61755264       0.91666675       0.45796007 </v>
    <v>       0.11755266       0.58333343       0.09159201 </v>
    <v>       0.86755270       0.58333343       0.27477601 </v>
    <v>       0.61755264       0.58333343       0.45796007 </v>
    <v>       0.11755266       0.25000000       0.09159201 </v>
    <v>       0.86755270       0.25000000       0.27477601 </v>
    <v>       0.61755264       0.25000000       0.45796007 </v>
    <v>       0.61755264       0.91666675       0.09159201 </v>
    <v>       0.36755273       0.91666675       0.27477601 </v>
    <v>       0.11755267       0.91666675       0.45796007 </v>
    <v>       0.61755264       0.58333343       0.09159201 </v>
    <v>       0.36755273       0.58333343       0.27477601 </v>
    <v>       0.11755267       0.58333343       0.45796007 </v>
    <v>       0.61755264       0.25000000       0.09159201 </v>
    <v>       0.36755273       0.25000000       0.27477601 </v>
    <v>       0.11755267       0.25000000       0.45796007 </v>
    <v>       0.24255267       0.83333331       0.00000000 </v>
    <v>       0.99255264       0.83333331       0.18318404 </v>
    <v>       0.74255270       0.83333331       0.36636797 </v>
    <v>       0.24255267       0.50000000       0.00000000 </v>
    <v>       0.99255264       0.50000000       0.18318404 </v>
    <v>       0.74255270       0.50000000       0.36636797 </v>
    <v>       0.24255267       0.16666667       0.00000000 </v>
    <v>       0.99255264       0.16666667       0.18318404 </v>
    <v>       0.74255270       0.16666667       0.36636797 </v>
    <v>       0.74255264       0.83333331       0.00000000 </v>
    <v>       0.49255267       0.83333331       0.18318404 </v>
    <v>       0.24255273       0.83333331       0.36636797 </v>
    <v>       0.74255264       0.50000000       0.00000000 </v>
    <v>       0.49255267       0.50000000       0.18318404 </v>
    <v>       0.24255273       0.50000000       0.36636797 </v>
    <v>       0.74255264       0.16666667       0.00000000 </v>
    <v>       0.49255267       0.16666667       0.18318404 </v>
[...]
       <r>     2.3200    61.4087   474.6883 </r>
       <r>     2.3819    75.4269   479.3618 </r>
       <r>     2.4439    75.6999   484.0528 </r>
       <r>     2.5058    68.7082   488.3094 </r>
       <r>     2.5678    91.8849   494.0018 </r>
       <r>     2.6297    95.7973   499.9362 </r>
       <r>     2.6917   102.0030   506.2548 </r>
       <r>     2.7536    92.2064   511.9688 </r>
       <r>     2.8155   110.9380   518.8418 </r>
       <r>     2.8775   102.3958   525.1862 </r>
       <r>     2.9394    73.1156   529.7178 </r>
       <r>     3.0014    99.5710   535.8867 </r>
       <r>     3.0633    92.0629   541.5900 </r>
       <r>     3.1253   111.8109   548.5178 </r>
       <r>     3.1872    90.4160   554.1197 </r>
       <r>     3.2492    95.3459   560.0268 </r>
       <r>     3.3111   107.9727   566.7157 </r>
       <r>     3.3731    76.2380   571.4385 </r>
       <r>     3.4350   113.7381   578.4878 </r>
       <r>     3.4969   110.4761   585.3313 </r>
       <r>     3.5589   106.8120   591.9495 </r>
       <r>     3.6208   107.4614   598.6093 </r>
       <r>     3.6828   127.3428   606.4977 </r>
       <r>     3.7447   122.6463   614.0966 </r>
       <r>     3.8067   103.1188   620.4844 </r>
       <r>     3.8686   100.2254   626.6936 </r>
       <r>     3.9306   118.8771   634.0583 </r>
       <r>     3.9925   103.2293   640.4540 </r>
       <r>     4.0545   115.5437   647.6132 </r>
       <r>     4.1164    96.9687   653.6203 </r>
       <r>     4.1783   102.2733   659.9562 </r>
       <r>     4.2403    99.5137   666.1208 </r>
       <r>     4.3022    85.6997   671.4306 </r>
       <r>     4.3642    97.0490   677.4430 </r>
       <r>     4.4261   107.3400   684.0923 </r>
       <r>     4.4881    98.3931   690.1876 </r>
       <r>     4.5500    90.7326   695.8103 </r>
       <r>     4.6120   117.2521   703.0747 </r>
       <r>     4.6739   114.7893   710.1872 </r>
       <r>     4.7359    91.6669   715.8657 </r>
       <r>     4.7978    89.9479   721.4383 </r>
       <r>     4.8597    93.5781   727.2358 </r>
       <r>     4.9217    83.0567   732.3815 </r>
       <r>     4.9836    86.9161   737.7659 </r>
       <r>     5.0456    84.7109   743.0143 </r>
       <r>     5.1075    72.1179   747.4837 </r>
       <r>     5.1695    84.0819   752.6932 </r>
       <r>     5.2314    91.4578   758.3622 </r>
       <r>     5.2934    66.3155   762.4712 </r>
       <r>     5.3553    68.0665   766.6903 </r>
       <r>     5.4173    72.3932   771.1761 </r>
       <r>     5.4792    57.7319   774.7524 </r>
       <r>     5.5411    66.2189   778.8546 </r>
       <r>     5.6031    62.3637   782.7180 </r>
       <r>     5.6650    70.6695   787.0963 </r>
       <r>     5.7270    54.8752   790.4958 </r>
       <r>     5.7889    65.2553   794.5384 </r>
       <r>     5.8509    65.9927   798.6273 </r>
       <r>     5.9128    57.9415   802.2170 </r>
       <r>     5.9748    49.4185   805.2783 </r>
       <r>     6.0367    68.7119   809.5361 </r>
       <r>     6.0987    47.6455   812.4875 </r>
       <r>     6.1606    49.1678   815.5351 </r>
       <r>     6.2226    60.0259   819.2540 </r>
       <r>     6.2845    59.2961   822.9271 </r>
       <r>     6.3464    74.1624   827.5212 </r>
       <r>     6.4084    91.1291   833.1683 </r>
       <r>     6.4703    98.6470   839.2795 </r>
       <r>     6.5323    53.6828   842.6053 </r>
       <r>     6.5942    78.1105   847.4471 </r>
       <r>     6.6562    80.8046   852.4527 </r>
       <r>     6.7181    91.6488   858.1302 </r>
       <r>     6.7801    64.0035   862.0960 </r>
       <r>     6.8420   108.8452   868.8385 </r>
       <r>     6.9040    84.2725   874.0592 </r>
       <r>     6.9659   102.6729   880.4215 </r>
       <r>     7.0278    96.0864   886.3768 </r>
       <r>     7.0898    83.7197   891.5629 </r>
       <r>     7.1517    70.3570   895.9226 </r>
       <r>     7.2137    98.8510   902.0475 </r>
       <r>     7.2756    79.0947   906.9498 </r>
       <r>     7.3376    85.6907   912.2580 </r>
       <r>     7.3995    92.9986   918.0192 </r>
       <r>     7.4615    77.6827   922.8314 </r>
       <r>     7.5234    87.8834   928.2754 </r>
       <r>     7.5854   103.2274   934.6704 </r>
       <r>     7.6473    81.2870   939.7076 </r>
       <r>     7.7092    84.7333   944.9564 </r>
       <r>     7.7712    84.1377   950.1685 </r>
       <r>     7.8331   104.5380   956.6444 </r>
       <r>     7.8951    91.9261   962.3390 </r>
       <r>     7.9570   126.9319   970.2033 </r>
       <r>     8.0190    96.3765   976.1761 </r>
       <r>     8.0809    96.8349   982.1767 </r>
       <r>     8.1429    81.6995   987.2384 </r>
       <r>     8.2048   134.0974   995.5461 </r>
       <r>     8.2668   102.2046  1001.8778 </r>
       <r>     8.3287   122.8842  1009.4903 </r>
       <r>     8.3906   125.1239  1017.2428 </r>
       <r>     8.4526   120.3409  1024.6979 </r>
       <r>     8.5145   137.9575  1033.2447 </r>
       <r>     8.5765    97.9774  1039.3156 </r>
       <r>     8.6384    11.0395  1040.0000 </r>
       <r>     8.7004     0.0000  1040.0000 </r>
       <r>     8.7623     0.0000  1040.0000 </r>
       <r>     8.8243     0.0000  1040.0000 </r>
       <r>     8.8862     0.0000  1040.0000 </r>
       <r>     8.9482     0.0000  1040.0000 </r>
       <r>     9.0101     0.0000  1040.0000 </r>
       <r>     9.0720     0.0000  1040.0000 </r>
       <r>     9.1340     0.0000  1040.0000 </r>
       <r>     9.1959     0.0000  1040.0000 </r>
       <r>     9.2579     0.0000  1040.0000 </r>
       <r>     9.3198     0.0000  1040.0000 </r>
       <r>     9.3818     0.0000  1040.0000 </r>
       <r>     9.4437     0.0000  1040.0000 </r>
      </set>
     </set>
    </array>
   </total>
  </dos>
 </calculation>
 <structure name="finalpos" >
  <crystal>
   <varray name="basis" >
    <v>      12.97840023       0.00000000       0.00000000 </v>
    <v>       0.00000000      19.46759987       0.00000000 </v>
    <v>       0.00000000       0.00000000      17.71224594 </v>
   </varray>
   <i name="volume">   4475.14599499 </i>
   <varray name="rec_basis" >
    <v>       0.07705110       0.00000000       0.00000000 </v>
    <v>       0.00000000       0.05136740       0.00000000 </v>
    <v>       0.00000000       0.00000000       0.05645811 </v>
   </varray>
  </crystal>
  <varray name="positions" >
   <v>       0.99255264       0.66666669       0.00000000 </v>
   <v>       0.74255264       0.66666669       0.18318404 </v>
   <v>       0.49255270       0.66666669       0.36636797 </v>
   <v>       0.99255264       0.33333334       0.00000000 </v>
   <v>       0.74255264       0.33333334       0.18318404 </v>
   <v>       0.49255270       0.33333334       0.36636797 </v>
   <v>       0.99255264       0.00000000       0.00000000 </v>
   <v>       0.74255264       0.00000000       0.18318404 </v>
   <v>       0.49255270       0.00000000       0.36636797 </v>
   <v>       0.49255267       0.66666669       0.00000000 </v>
   <v>       0.24255267       0.66666669       0.18318404 </v>
   <v>       0.99255270       0.66666669       0.36636797 </v>
   <v>       0.49255267       0.33333334       0.00000000 </v>
   <v>       0.24255267       0.33333334       0.18318404 </v>
   <v>       0.99255270       0.33333334       0.36636797 </v>
   <v>       0.49255267       0.00000000       0.00000000 </v>
   <v>       0.24255267       0.00000000       0.18318404 </v>
   <v>       0.99255270       0.00000000       0.36636797 </v>
   <v>       0.11755266       0.91666675       0.09159201 </v>
   <v>       0.86755270       0.91666675       0.27477601 </v>
   <v>       0.61755264       0.91666675       0.45796007 </v>
   <v>       0.11755266       0.58333343       0.09159201 </v>
   <v>       0.86755270       0.58333343       0.27477601 </v>
   <v>       0.61755264       0.58333343       0.45796007 </v>
   <v>       0.11755266       0.25000000       0.09159201 </v>
   <v>       0.86755270       0.25000000       0.27477601 </v>
   <v>       0.61755264       0.25000000       0.45796007 </v>
   <v>       0.61755264       0.91666675       0.09159201 </v>
   <v>       0.36755273       0.91666675       0.27477601 </v>
   <v>       0.11755267       0.91666675       0.45796007 </v>
   <v>       0.61755264       0.58333343       0.09159201 </v>
   <v>       0.36755273       0.58333343       0.27477601 </v>
   <v>       0.11755267       0.58333343       0.45796007 </v>
   <v>       0.61755264       0.25000000       0.09159201 </v>
   <v>       0.36755273       0.25000000       0.27477601 </v>
   <v>       0.11755267       0.25000000       0.45796007 </v>
   <v>       0.24255267       0.83333331       0.00000000 </v>
   <v>       0.99255264       0.83333331       0.18318404 </v>
   <v>       0.74255270       0.83333331       0.36636797 </v>
   <v>       0.24255267       0.50000000       0.00000000 </v>
   <v>       0.99255264       0.50000000       0.18318404 </v>
   <v>       0.74255270       0.50000000       0.36636797 </v>
   <v>       0.24255267       0.16666667       0.00000000 </v>
   <v>       0.99255264       0.16666667       0.18318404 </v>
   <v>       0.74255270       0.16666667       0.36636797 </v>
   <v>       0.74255264       0.83333331       0.00000000 </v>
   <v>       0.49255267       0.83333331       0.18318404 </v>
   <v>       0.24255273       0.83333331       0.36636797 </v>
   <v>       0.74255264       0.50000000       0.00000000 </v>
   <v>       0.49255267       0.50000000       0.18318404 </v>
   <v>       0.24255273       0.50000000       0.36636797 </v>
   <v>       0.74255264       0.16666667       0.00000000 </v>
   <v>       0.49255267       0.16666667       0.18318404 </v>
   <v>       0.24255273       0.16666667       0.36636797 </v>
   <v>       0.36755267       0.75000006       0.09159201 </v>
   <v>       0.11755272       0.75000006       0.27477601 </v>
   <v>       0.86755270       0.75000006       0.45796007 </v>
   <v>       0.36755267       0.41666672       0.09159201 </v>
   <v>       0.11755272       0.41666672       0.27477601 </v>
   <v>       0.86755270       0.41666672       0.45796007 </v>
   <v>       0.36755267       0.08333334       0.09159201 </v>
   <v>       0.11755272       0.08333334       0.27477601 </v>
   <v>       0.86755270       0.08333334       0.45796007 </v>
   <v>       0.86755264       0.75000006       0.09159201 </v>
   <v>       0.61755270       0.75000006       0.27477601 </v>
   <v>       0.36755264       0.75000006       0.45796007 </v>
   <v>       0.86755264       0.41666672       0.09159201 </v>
   <v>       0.61755270       0.41666672       0.27477601 </v>
   <v>       0.36755264       0.41666672       0.45796007 </v>
   <v>       0.86755264       0.08333334       0.09159201 </v>
   <v>       0.61755270       0.08333334       0.27477601 </v>
   <v>       0.36755264       0.08333334       0.45796007 </v>
   <v>       0.97851729       0.49999997       0.45796007 </v>
   <v>       0.72851718       0.49999994       0.56636798 </v>
   <v>       0.47851712       0.49999988       0.67477608 </v>
   <v>       0.22851706       0.49999979       0.78318399 </v>
   <v>       0.97851694       0.49999973       0.89159191 </v>
   <v>       0.72851682       0.49999970       0.00000000 </v>
   <v>       0.31185061       0.66666669       0.45796007 </v>
   <v>       0.06185051       0.66666663       0.56636798 </v>
   <v>       0.81185043       0.66666657       0.67477596 </v>
   <v>       0.56185037       0.66666651       0.78318399 </v>
   <v>       0.31185019       0.66666645       0.89159203 </v>
   <v>       0.06185007       0.66666639       0.00000000 </v>
   <v>       0.64518398       0.83333343       0.45796007 </v>
   <v>       0.39518389       0.83333337       0.56636798 </v>
   <v>       0.14518374       0.83333331       0.67477608 </v>
   <v>       0.89518368       0.83333319       0.78318399 </v>
   <v>       0.64518356       0.83333313       0.89159203 </v>
   <v>       0.39518344       0.83333307       0.00000000 </v>
   <v>       0.97851729       0.00000000       0.45796007 </v>
   <v>       0.72851718       0.99999994       0.56636798 </v>
   <v>       0.47851712       0.99999988       0.67477596 </v>
   <v>       0.22851700       0.99999982       0.78318399 </v>
   <v>       0.97851694       0.99999970       0.89159203 </v>
   <v>       0.72851682       0.99999970       0.00000000 </v>
   <v>       0.31185061       0.16666666       0.45796007 </v>
   <v>       0.06185054       0.16666661       0.56636798 </v>
   <v>       0.81185043       0.16666654       0.67477596 </v>
   <v>       0.56185043       0.16666648       0.78318399 </v>
   <v>       0.31185031       0.16666642       0.89159203 </v>
   <v>       0.06185019       0.16666634       0.99999988 </v>
   <v>       0.64518398       0.33333334       0.45796007 </v>
   <v>       0.39518383       0.33333325       0.56636798 </v>
   <v>       0.14518380       0.33333319       0.67477596 </v>
   <v>       0.89518374       0.33333316       0.78318399 </v>
   <v>       0.64518356       0.33333307       0.89159203 </v>
   <v>       0.39518350       0.33333299       0.99999988 </v>
   <v>       0.14518397       0.83333337       0.45796007 </v>
   <v>       0.89518380       0.83333325       0.56636798 </v>
   <v>       0.64518380       0.83333319       0.67477608 </v>
   <v>       0.39518374       0.83333313       0.78318399 </v>
   <v>       0.14518356       0.83333313       0.89159203 </v>
   <v>       0.89518344       0.83333307       0.00000000 </v>
   <v>       0.14518394       0.33333331       0.45796007 </v>
   <v>       0.89518386       0.33333328       0.56636798 </v>
   <v>       0.64518380       0.33333319       0.67477596 </v>
   <v>       0.39518374       0.33333313       0.78318399 </v>
   <v>       0.14518362       0.33333307       0.89159203 </v>
   <v>       0.89518344       0.33333299       0.99999988 </v>
   <v>       0.47851732       0.50000000       0.45796007 </v>
   <v>       0.22851719       0.49999991       0.56636798 </v>
   <v>       0.97851712       0.49999988       0.67477596 </v>
   <v>       0.72851706       0.49999982       0.78318399 </v>
   <v>       0.47851694       0.49999973       0.89159203 </v>
   <v>       0.22851682       0.49999967       0.99999988 </v>
   <v>       0.81185067       0.66666675       0.45796007 </v>
   <v>       0.56185061       0.66666669       0.56636798 </v>
   <v>       0.31185049       0.66666657       0.67477608 </v>
   <v>       0.06185040       0.66666651       0.78318399 </v>
   <v>       0.81185025       0.66666645       0.89159203 </v>
   <v>       0.56185013       0.66666639       0.00000000 </v>
   <v>       0.47851729       0.00000000       0.45796007 </v>
   <v>       0.22851721       0.99999994       0.56636798 </v>
   <v>       0.97851712       0.99999988       0.67477596 </v>
   <v>       0.72851706       0.99999982       0.78318399 </v>
   <v>       0.47851694       0.99999976       0.89159203 </v>
   <v>       0.22851682       0.99999964       0.00000000 </v>
   <v>       0.81185061       0.16666669       0.45796007 </v>
   <v>       0.56185049       0.16666660       0.56636798 </v>
   <v>       0.31185046       0.16666654       0.67477596 </v>
   <v>       0.06185040       0.16666648       0.78318399 </v>
   <v>       0.81185025       0.16666640       0.89159203 </v>
   <v>       0.56185019       0.16666634       0.00000000 </v>
   <v>       0.14518398       0.70833337       0.45796007 </v>
   <v>       0.89518386       0.70833331       0.56636798 </v>
   <v>       0.64518380       0.70833325       0.67477596 </v>
   <v>       0.39518368       0.70833319       0.78318399 </v>
   <v>       0.14518356       0.70833313       0.89159203 </v>
   <v>       0.89518344       0.70833307       0.00000000 </v>
   <v>       0.47851729       0.87500012       0.45796007 </v>
   <v>       0.22851716       0.87500000       0.56636798 </v>
   <v>       0.97851712       0.87500000       0.67477608 </v>
   <v>       0.72851706       0.87499988       0.78318399 </v>
   <v>       0.47851688       0.87499982       0.89159203 </v>
   <v>       0.22851682       0.87499976       0.00000000 </v>
   <v>       0.14518395       0.20833334       0.45796007 </v>
   <v>       0.89518386       0.20833328       0.56636798 </v>
   <v>       0.64518380       0.20833322       0.67477608 </v>
   <v>       0.39518368       0.20833315       0.78318399 </v>
   <v>       0.14518356       0.20833307       0.89159203 </v>
   <v>       0.89518344       0.20833303       0.00000000 </v>
   <v>       0.47851732       0.37500000       0.45796007 </v>
   <v>       0.22851721       0.37499994       0.56636798 </v>
   <v>       0.97851712       0.37499988       0.67477596 </v>
   <v>       0.72851706       0.37499982       0.78318399 </v>
   <v>       0.47851694       0.37499973       0.89159203 </v>
   <v>       0.22851682       0.37499970       0.00000000 </v>
   <v>       0.81185067       0.54166669       0.45796007 </v>
   <v>       0.56185055       0.54166663       0.56636798 </v>
   <v>       0.31185046       0.54166657       0.67477608 </v>
   <v>       0.06185041       0.54166651       0.78318399 </v>
   <v>       0.81185031       0.54166645       0.89159203 </v>
   <v>       0.56185019       0.54166639       0.00000000 </v>
   <v>       0.81185067       0.04166668       0.45796007 </v>
   <v>       0.56185055       0.04166659       0.56636798 </v>
   <v>       0.31185049       0.04166653       0.67477596 </v>
   <v>       0.06185041       0.04166647       0.78318399 </v>
   <v>       0.81185031       0.04166639       0.89159203 </v>
   <v>       0.56185019       0.04166632       0.00000000 </v>
   <v>       0.97851729       0.87500006       0.45796007 </v>
   <v>       0.72851718       0.87500000       0.56636798 </v>
   <v>       0.47851712       0.87499988       0.67477608 </v>
   <v>       0.22851706       0.87499982       0.78318399 </v>
   <v>       0.97851694       0.87499982       0.89159203 </v>
   <v>       0.72851682       0.87499970       0.00000000 </v>
   <v>       0.97851729       0.37500000       0.45796007 </v>
   <v>       0.72851718       0.37499994       0.56636798 </v>
   <v>       0.47851712       0.37499991       0.67477608 </v>
   <v>       0.22851706       0.37499979       0.78318399 </v>
   <v>       0.97851694       0.37499976       0.89159203 </v>
   <v>       0.72851682       0.37499973       0.00000000 </v>
   <v>       0.31185067       0.54166669       0.45796007 </v>
   <v>       0.06185053       0.54166663       0.56636798 </v>
   <v>       0.81185043       0.54166657       0.67477608 </v>
   <v>       0.56185043       0.54166651       0.78318399 </v>
   <v>       0.31185025       0.54166645       0.89159203 </v>
   <v>       0.06185007       0.54166639       0.00000000 </v>
   <v>       0.64518398       0.70833331       0.45796007 </v>
   <v>       0.39518386       0.70833325       0.56636798 </v>
   <v>       0.14518382       0.70833319       0.67477596 </v>
   <v>       0.89518368       0.70833313       0.78318399 </v>
   <v>       0.64518356       0.70833307       0.89159203 </v>
   <v>       0.39518350       0.70833296       0.00000000 </v>
   <v>       0.31185067       0.04166666       0.45796007 </v>
   <v>       0.06185054       0.04166659       0.56636798 </v>
   <v>       0.81185049       0.04166652       0.67477596 </v>
   <v>       0.56185043       0.04166645       0.78318399 </v>
   <v>       0.31185031       0.04166641       0.89159203 </v>
   <v>       0.06185013       0.04166633       0.00000000 </v>
   <v>       0.64518404       0.20833334       0.45796007 </v>
   <v>       0.39518389       0.20833325       0.56636798 </v>
   <v>       0.14518383       0.20833319       0.67477596 </v>
   <v>       0.89518374       0.20833313       0.78318399 </v>
   <v>       0.64518362       0.20833307       0.89159203 </v>
   <v>       0.39518350       0.20833299       0.00000000 </v>
  </varray>
 </structure>
</modeling>
