  48  48   0   0
  0.2323126E+02  0.1265123E-08  0.1265123E-08  0.1161174E-08  0.5000000E-15
  1.000000000000000E-004
  CAR 
 Si and Ge interface calculation         
      6.77113969    -11.90524823  301      3.46078666      1.00000000
    -11.905  0.0000E+00  0.0000E+00  0.0000E+00  0.0000E+00
    -11.843  0.0000E+00  0.0000E+00  0.0000E+00  0.0000E+00
    -11.781  0.0000E+00  0.0000E+00  0.0000E+00  0.0000E+00
    -11.718  0.0000E+00  0.0000E+00  0.0000E+00  0.0000E+00
    -11.656  0.0000E+00  0.0000E+00  0.0000E+00  0.0000E+00
    -11.594  0.0000E+00  0.0000E+00  0.0000E+00  0.0000E+00
    -11.532  0.0000E+00  0.0000E+00  0.0000E+00  0.0000E+00
    -11.469  0.0000E+00  0.0000E+00  0.0000E+00  0.0000E+00
    -11.407  0.0000E+00  0.0000E+00  0.0000E+00  0.0000E+00
    -11.345  0.0000E+00  0.0000E+00  0.0000E+00  0.0000E+00
    -11.283  0.0000E+00  0.0000E+00  0.0000E+00  0.0000E+00
    -11.220  0.0000E+00  0.0000E+00  0.0000E+00  0.0000E+00
    -11.158  0.0000E+00  0.0000E+00  0.0000E+00  0.0000E+00
    -11.096  0.3597E-07  0.1755E-12  0.2240E-08  0.1093E-13
    -11.034  0.8022E+01  0.7148E+01  0.4994E+00  0.4450E+00
    -10.971  0.5169E+00  0.8859E+00  0.5322E+00  0.5001E+00
    -10.909  0.1555E+02  0.1606E+02  0.1500E+01  0.1500E+01
    -10.847  0.0000E+00  0.0000E+00  0.1500E+01  0.1500E+01
    -10.785  0.0000E+00  0.0000E+00  0.1500E+01  0.1500E+01
    -10.722  0.9998E-03  0.1726E-06  0.1500E+01  0.1500E+01
    -10.660  0.1606E+02  0.1605E+02  0.2500E+01  0.2499E+01
    -10.598  0.0000E+00  0.0000E+00  0.2500E+01  0.2500E+01
    -10.536  0.0000E+00  0.0000E+00  0.2500E+01  0.2500E+01
    -10.473  0.0000E+00  0.0000E+00  0.2500E+01  0.2500E+01
    -10.411  0.1916E-06  0.2327E-11  0.2500E+01  0.2500E+01
    -10.349  0.1605E+02  0.1498E+02  0.3499E+01  0.3433E+01
    -10.287  0.0000E+00  0.1079E+01  0.3500E+01  0.3500E+01
    -10.224  0.1541E+00  0.6815E-03  0.3510E+01  0.3500E+01
    -10.162  0.7877E+01  0.8031E+01  0.4000E+01  0.4000E+01
    -10.100  0.0000E+00  0.0000E+00  0.4000E+01  0.4000E+01
    -10.038  0.0000E+00  0.0000E+00  0.4000E+01  0.4000E+01
     -9.975  0.0000E+00  0.0000E+00  0.4000E+01  0.4000E+01
     -9.913  0.0000E+00  0.0000E+00  0.4000E+01  0.4000E+01
     -9.851  0.1228E+00  0.4514E-11  0.4008E+01  0.4000E+01
     -9.789  0.7909E+01  0.7102E+01  0.4500E+01  0.4442E+01
     -9.726  0.3890E-01  0.9291E+00  0.4502E+01  0.4500E+01
     -9.664  0.1602E+02  0.1159E+02  0.5500E+01  0.5222E+01
     -9.602  0.0000E+00  0.4473E+01  0.5500E+01  0.5500E+01
     -9.540  0.0000E+00  0.0000E+00  0.5500E+01  0.5500E+01
     -9.477  0.0000E+00  0.0000E+00  0.5500E+01  0.5500E+01
     -9.415  0.0000E+00  0.0000E+00  0.5500E+01  0.5500E+01
     -9.353  0.7369E-02  0.2452E-14  0.5500E+01  0.5500E+01
     -9.291  0.1606E+02  0.9403E+01  0.6500E+01  0.6085E+01
     -9.228  0.0000E+00  0.6660E+01  0.6500E+01  0.6500E+01
     -9.166  0.0000E+00  0.0000E+00  0.6500E+01  0.6500E+01
     -9.104  0.0000E+00  0.0000E+00  0.6500E+01  0.6500E+01
     -9.042  0.0000E+00  0.0000E+00  0.6500E+01  0.6500E+01
     -8.979  0.0000E+00  0.0000E+00  0.6500E+01  0.6500E+01
     -8.917  0.0000E+00  0.0000E+00  0.6500E+01  0.6500E+01
     -8.855  0.2229E-15  0.0000E+00  0.6500E+01  0.6500E+01
     -8.793  0.1854E+01  0.2801E+00  0.6615E+01  0.6517E+01
     -8.730  0.2093E+02  0.1222E+02  0.7919E+01  0.7278E+01
     -8.668  0.6639E+01  0.1268E+02  0.8332E+01  0.8068E+01
     -8.606  0.1190E+02  0.1254E+02  0.9073E+01  0.8848E+01
     -8.543  0.6751E+01  0.9785E+01  0.9493E+01  0.9458E+01
     -8.481  0.4864E+01  0.3381E+01  0.9796E+01  0.9669E+01
     -8.419  0.8475E+01  0.8930E+01  0.1032E+02  0.1022E+02
     -8.357  0.8025E+01  0.5042E+01  0.1082E+02  0.1054E+02
     -8.294  0.1450E+02  0.1540E+02  0.1173E+02  0.1150E+02
     -8.232  0.8687E+01  0.1118E+02  0.1227E+02  0.1219E+02
     -8.170  0.1129E+02  0.1127E+02  0.1297E+02  0.1289E+02
     -8.108  0.9667E+01  0.9850E+01  0.1357E+02  0.1351E+02
     -8.045  0.8715E+01  0.7613E+01  0.1411E+02  0.1398E+02
     -7.983  0.5926E+01  0.5332E+01  0.1448E+02  0.1431E+02
     -7.921  0.2624E+01  0.5007E+01  0.1465E+02  0.1463E+02
     -7.859  0.3624E+01  0.2947E+01  0.1487E+02  0.1481E+02
     -7.796  0.7847E+01  0.3729E+01  0.1536E+02  0.1504E+02
     -7.734  0.1776E+02  0.1997E+02  0.1647E+02  0.1628E+02
     -7.672  0.1762E+02  0.1632E+02  0.1756E+02  0.1730E+02
     -7.610  0.1010E+02  0.1098E+02  0.1819E+02  0.1798E+02
     -7.547  0.1108E+02  0.1289E+02  0.1888E+02  0.1879E+02
     -7.485  0.7201E+01  0.5707E+01  0.1933E+02  0.1914E+02
     -7.423  0.1543E+02  0.1633E+02  0.2029E+02  0.2016E+02
     -7.361  0.1437E+02  0.1374E+02  0.2119E+02  0.2101E+02
     -7.298  0.1626E+02  0.1690E+02  0.2220E+02  0.2207E+02
     -7.236  0.1583E+02  0.1357E+02  0.2318E+02  0.2291E+02
     -7.174  0.1108E+02  0.1457E+02  0.2387E+02  0.2382E+02
     -7.112  0.2046E+02  0.1606E+02  0.2515E+02  0.2482E+02
     -7.049  0.1023E+02  0.1376E+02  0.2579E+02  0.2568E+02
     -6.987  0.1582E+02  0.1018E+02  0.2677E+02  0.2631E+02
     -6.925  0.2111E+02  0.2522E+02  0.2809E+02  0.2788E+02
     -6.863  0.1528E+02  0.1551E+02  0.2904E+02  0.2885E+02
     -6.800  0.2043E+02  0.2094E+02  0.3031E+02  0.3015E+02
     -6.738  0.1244E+02  0.1214E+02  0.3108E+02  0.3091E+02
     -6.676  0.8395E+01  0.8748E+01  0.3161E+02  0.3145E+02
     -6.614  0.1075E+02  0.1131E+02  0.3228E+02  0.3215E+02
     -6.551  0.1025E+02  0.9118E+01  0.3291E+02  0.3272E+02
     -6.489  0.1248E+02  0.1287E+02  0.3369E+02  0.3352E+02
     -6.427  0.9727E+01  0.1158E+02  0.3430E+02  0.3424E+02
     -6.365  0.8252E+01  0.6096E+01  0.3481E+02  0.3462E+02
     -6.302  0.5044E+01  0.6974E+01  0.3513E+02  0.3506E+02
     -6.240  0.9978E+01  0.9497E+01  0.3575E+02  0.3565E+02
     -6.178  0.1047E+02  0.4512E+01  0.3640E+02  0.3593E+02
     -6.116  0.3592E+02  0.3539E+02  0.3863E+02  0.3813E+02
     -6.053  0.1645E+02  0.2041E+02  0.3966E+02  0.3941E+02
     -5.991  0.2665E+02  0.2572E+02  0.4132E+02  0.4101E+02
     -5.929  0.1193E+02  0.1345E+02  0.4206E+02  0.4184E+02
     -5.867  0.1358E+02  0.1276E+02  0.4291E+02  0.4264E+02
     -5.804  0.7136E+01  0.9226E+01  0.4335E+02  0.4321E+02
     -5.742  0.3668E+01  0.4850E+01  0.4358E+02  0.4352E+02
     -5.680  0.1658E+01  0.1795E+01  0.4368E+02  0.4363E+02
     -5.618  0.6357E+01  0.5658E+01  0.4408E+02  0.4398E+02
     -5.555  0.9447E+01  0.9910E+01  0.4467E+02  0.4460E+02
     -5.493  0.1509E+02  0.1216E+02  0.4561E+02  0.4535E+02
     -5.431  0.1273E+02  0.1327E+02  0.4640E+02  0.4618E+02
     -5.369  0.1432E+02  0.1255E+02  0.4729E+02  0.4696E+02
     -5.306  0.1736E+02  0.1860E+02  0.4837E+02  0.4812E+02
     -5.244  0.9943E+01  0.1137E+02  0.4899E+02  0.4883E+02
     -5.182  0.8528E+01  0.9361E+01  0.4952E+02  0.4941E+02
     -5.119  0.1179E+02  0.9540E+01  0.5026E+02  0.5000E+02
     -5.057  0.8234E+01  0.9278E+01  0.5077E+02  0.5058E+02
     -4.995  0.1804E+02  0.1503E+02  0.5189E+02  0.5152E+02
     -4.933  0.2047E+02  0.2113E+02  0.5317E+02  0.5283E+02
     -4.870  0.1546E+02  0.1831E+02  0.5413E+02  0.5397E+02
     -4.808  0.2298E+01  0.3832E+01  0.5427E+02  0.5421E+02
     -4.746  0.1743E+02  0.1245E+02  0.5536E+02  0.5499E+02
     -4.684  0.2036E+02  0.2429E+02  0.5663E+02  0.5650E+02
     -4.621  0.7648E+01  0.6723E+01  0.5710E+02  0.5692E+02
     -4.559  0.4305E+01  0.6460E+01  0.5737E+02  0.5732E+02
     -4.497  0.1705E+02  0.1479E+02  0.5843E+02  0.5824E+02
     -4.435  0.1405E+02  0.1339E+02  0.5931E+02  0.5907E+02
     -4.372  0.1567E+02  0.1616E+02  0.6028E+02  0.6008E+02
     -4.310  0.1511E+02  0.1349E+02  0.6122E+02  0.6092E+02
     -4.248  0.1363E+02  0.1324E+02  0.6207E+02  0.6175E+02
     -4.186  0.9171E+01  0.1110E+02  0.6264E+02  0.6244E+02
     -4.123  0.1235E+02  0.1286E+02  0.6341E+02  0.6324E+02
     -4.061  0.1999E+02  0.1671E+02  0.6466E+02  0.6428E+02
     -3.999  0.9559E+01  0.1214E+02  0.6525E+02  0.6503E+02
     -3.937  0.8764E+01  0.1048E+02  0.6580E+02  0.6569E+02
     -3.874  0.2037E+02  0.1887E+02  0.6707E+02  0.6686E+02
     -3.812  0.1852E+02  0.1774E+02  0.6822E+02  0.6797E+02
     -3.750  0.1129E+02  0.1351E+02  0.6892E+02  0.6881E+02
     -3.688  0.1437E+02  0.1103E+02  0.6982E+02  0.6949E+02
     -3.625  0.2045E+02  0.1627E+02  0.7109E+02  0.7051E+02
     -3.563  0.2009E+02  0.2622E+02  0.7234E+02  0.7214E+02
     -3.501  0.9896E+01  0.1238E+02  0.7296E+02  0.7291E+02
     -3.439  0.1312E+02  0.1042E+02  0.7377E+02  0.7356E+02
     -3.376  0.1068E+02  0.1090E+02  0.7444E+02  0.7424E+02
     -3.314  0.1024E+02  0.1062E+02  0.7508E+02  0.7490E+02
     -3.252  0.1191E+02  0.1016E+02  0.7582E+02  0.7553E+02
     -3.190  0.1187E+02  0.1116E+02  0.7656E+02  0.7623E+02
     -3.127  0.5424E+01  0.9726E+01  0.7690E+02  0.7683E+02
     -3.065  0.1099E+02  0.9524E+01  0.7758E+02  0.7743E+02
     -3.003  0.9910E+01  0.5997E+01  0.7820E+02  0.7780E+02
     -2.941  0.9378E+01  0.1276E+02  0.7878E+02  0.7859E+02
     -2.878  0.1207E+02  0.1104E+02  0.7953E+02  0.7928E+02
     -2.816  0.1024E+02  0.1251E+02  0.8017E+02  0.8006E+02
     -2.754  0.1133E+02  0.9402E+01  0.8087E+02  0.8065E+02
     -2.692  0.1318E+02  0.1228E+02  0.8170E+02  0.8141E+02
     -2.629  0.1024E+02  0.1112E+02  0.8233E+02  0.8210E+02
     -2.567  0.1418E+02  0.1483E+02  0.8322E+02  0.8303E+02
     -2.505  0.6597E+01  0.9609E+01  0.8363E+02  0.8362E+02
     -2.443  0.7275E+01  0.5683E+01  0.8408E+02  0.8398E+02
     -2.380  0.1312E+02  0.1068E+02  0.8490E+02  0.8464E+02
     -2.318  0.8752E+01  0.1042E+02  0.8544E+02  0.8529E+02
     -2.256  0.1597E+02  0.1103E+02  0.8644E+02  0.8598E+02
     -2.194  0.7223E+01  0.1142E+02  0.8689E+02  0.8669E+02
     -2.131  0.1004E+02  0.1019E+02  0.8751E+02  0.8732E+02
     -2.069  0.5329E+01  0.7510E+01  0.8784E+02  0.8779E+02
     -2.007  0.7338E+01  0.5741E+01  0.8830E+02  0.8815E+02
     -1.945  0.1467E+02  0.1014E+02  0.8921E+02  0.8878E+02
     -1.882  0.8768E+01  0.1217E+02  0.8976E+02  0.8954E+02
     -1.820  0.7592E+01  0.8956E+01  0.9023E+02  0.9010E+02
     -1.758  0.6207E+01  0.7389E+01  0.9062E+02  0.9056E+02
     -1.695  0.2253E+01  0.2437E+01  0.9076E+02  0.9071E+02
     -1.633  0.6012E+01  0.4741E+01  0.9113E+02  0.9100E+02
     -1.571  0.9431E+01  0.8885E+01  0.9172E+02  0.9156E+02
     -1.509  0.2106E+02  0.1677E+02  0.9303E+02  0.9260E+02
     -1.446  0.1336E+02  0.1740E+02  0.9386E+02  0.9368E+02
     -1.384  0.7778E+01  0.7263E+01  0.9435E+02  0.9414E+02
     -1.322  0.8110E+01  0.1091E+02  0.9485E+02  0.9482E+02
     -1.260  0.1040E+02  0.8887E+01  0.9550E+02  0.9537E+02
     -1.197  0.7069E+01  0.6327E+01  0.9594E+02  0.9576E+02
     -1.135  0.8983E+01  0.1069E+02  0.9650E+02  0.9643E+02
     -1.073  0.8704E+01  0.6114E+01  0.9704E+02  0.9681E+02
     -1.011  0.1251E+02  0.1026E+02  0.9782E+02  0.9745E+02
     -0.948  0.2056E+02  0.2186E+02  0.9910E+02  0.9881E+02
     -0.886  0.7216E+01  0.1000E+02  0.9955E+02  0.9943E+02
     -0.824  0.6814E+01  0.6810E+01  0.9997E+02  0.9986E+02
     -0.762  0.1377E+02  0.8603E+01  0.1008E+03  0.1004E+03
     -0.699  0.1628E+02  0.1777E+02  0.1018E+03  0.1015E+03
     -0.637  0.2342E+02  0.2261E+02  0.1033E+03  0.1029E+03
     -0.575  0.1903E+02  0.1853E+02  0.1045E+03  0.1041E+03
     -0.513  0.1869E+02  0.1957E+02  0.1057E+03  0.1053E+03
     -0.450  0.2740E+02  0.2588E+02  0.1074E+03  0.1069E+03
     -0.388  0.2387E+02  0.2579E+02  0.1088E+03  0.1085E+03
     -0.326  0.1997E+02  0.1782E+02  0.1101E+03  0.1096E+03
     -0.264  0.1903E+02  0.2008E+02  0.1113E+03  0.1109E+03
     -0.201  0.3214E+02  0.2701E+02  0.1133E+03  0.1125E+03
     -0.139  0.2267E+02  0.2991E+02  0.1147E+03  0.1144E+03
     -0.077  0.3359E+02  0.2946E+02  0.1168E+03  0.1162E+03
     -0.015  0.2342E+02  0.2522E+02  0.1182E+03  0.1178E+03
      0.048  0.2151E+02  0.2291E+02  0.1196E+03  0.1192E+03
      0.110  0.2278E+02  0.2150E+02  0.1210E+03  0.1206E+03
      0.172  0.2351E+02  0.2199E+02  0.1225E+03  0.1219E+03
      0.234  0.3056E+02  0.3195E+02  0.1244E+03  0.1239E+03
      0.297  0.2701E+02  0.2692E+02  0.1260E+03  0.1256E+03
      0.359  0.1948E+02  0.1853E+02  0.1273E+03  0.1268E+03
      0.421  0.3066E+02  0.2951E+02  0.1292E+03  0.1286E+03
      0.483  0.2932E+02  0.3013E+02  0.1310E+03  0.1305E+03
      0.546  0.2689E+02  0.2902E+02  0.1327E+03  0.1323E+03
      0.608  0.2953E+02  0.2946E+02  0.1345E+03  0.1341E+03
      0.670  0.1685E+02  0.1941E+02  0.1356E+03  0.1353E+03
      0.732  0.1832E+02  0.1847E+02  0.1367E+03  0.1365E+03
      0.795  0.2459E+02  0.2196E+02  0.1382E+03  0.1378E+03
      0.857  0.2107E+02  0.2345E+02  0.1395E+03  0.1393E+03
      0.919  0.2566E+02  0.2348E+02  0.1411E+03  0.1408E+03
      0.981  0.2531E+02  0.2503E+02  0.1427E+03  0.1423E+03
      1.044  0.2991E+02  0.2821E+02  0.1446E+03  0.1441E+03
      1.106  0.1953E+02  0.2421E+02  0.1458E+03  0.1456E+03
      1.168  0.2485E+02  0.1810E+02  0.1473E+03  0.1467E+03
      1.230  0.2984E+02  0.3571E+02  0.1492E+03  0.1489E+03
      1.293  0.2856E+02  0.2239E+02  0.1510E+03  0.1503E+03
      1.355  0.1775E+02  0.2457E+02  0.1521E+03  0.1519E+03
      1.417  0.2567E+02  0.2323E+02  0.1537E+03  0.1533E+03
      1.479  0.2573E+02  0.2830E+02  0.1553E+03  0.1551E+03
      1.542  0.2547E+02  0.1887E+02  0.1569E+03  0.1562E+03
      1.604  0.2581E+02  0.2942E+02  0.1585E+03  0.1581E+03
      1.666  0.2200E+02  0.2441E+02  0.1598E+03  0.1596E+03
      1.729  0.2482E+02  0.1979E+02  0.1614E+03  0.1608E+03
      1.791  0.3402E+02  0.3318E+02  0.1635E+03  0.1629E+03
      1.853  0.2106E+02  0.2566E+02  0.1648E+03  0.1645E+03
      1.915  0.1381E+02  0.1568E+02  0.1657E+03  0.1655E+03
      1.978  0.1295E+02  0.1162E+02  0.1665E+03  0.1662E+03
      2.040  0.2264E+02  0.2235E+02  0.1679E+03  0.1676E+03
      2.102  0.2486E+02  0.2165E+02  0.1694E+03  0.1689E+03
      2.164  0.1560E+02  0.1828E+02  0.1704E+03  0.1701E+03
      2.227  0.2492E+02  0.2146E+02  0.1720E+03  0.1714E+03
      2.289  0.2081E+02  0.2543E+02  0.1733E+03  0.1730E+03
      2.351  0.1418E+02  0.1531E+02  0.1741E+03  0.1739E+03
      2.413  0.1405E+02  0.1086E+02  0.1750E+03  0.1746E+03
      2.476  0.1832E+02  0.2192E+02  0.1762E+03  0.1760E+03
      2.538  0.2352E+02  0.1600E+02  0.1776E+03  0.1770E+03
      2.600  0.1408E+02  0.1985E+02  0.1785E+03  0.1782E+03
      2.662  0.1593E+02  0.1113E+02  0.1795E+03  0.1789E+03
      2.725  0.1432E+02  0.1441E+02  0.1804E+03  0.1798E+03
      2.787  0.1864E+02  0.1767E+02  0.1815E+03  0.1809E+03
      2.849  0.1294E+02  0.1528E+02  0.1824E+03  0.1819E+03
      2.911  0.2026E+02  0.1437E+02  0.1836E+03  0.1828E+03
      2.974  0.1467E+02  0.1945E+02  0.1845E+03  0.1840E+03
      3.036  0.1289E+02  0.1589E+02  0.1853E+03  0.1850E+03
      3.098  0.1701E+02  0.1429E+02  0.1864E+03  0.1858E+03
      3.160  0.2347E+02  0.1897E+02  0.1879E+03  0.1870E+03
      3.223  0.1394E+02  0.2115E+02  0.1887E+03  0.1883E+03
      3.285  0.9062E+01  0.1205E+02  0.1893E+03  0.1891E+03
      3.347  0.1079E+02  0.7299E+01  0.1900E+03  0.1895E+03
      3.409  0.1302E+02  0.1257E+02  0.1908E+03  0.1903E+03
      3.472  0.1809E+02  0.1624E+02  0.1919E+03  0.1913E+03
      3.534  0.2008E+02  0.1615E+02  0.1931E+03  0.1923E+03
      3.596  0.1429E+02  0.2061E+02  0.1940E+03  0.1936E+03
      3.658  0.1860E+02  0.1630E+02  0.1952E+03  0.1946E+03
      3.721  0.1912E+02  0.1768E+02  0.1964E+03  0.1957E+03
      3.783  0.1335E+02  0.1692E+02  0.1972E+03  0.1968E+03
      3.845  0.1331E+02  0.1275E+02  0.1980E+03  0.1976E+03
      3.907  0.1865E+02  0.1560E+02  0.1992E+03  0.1986E+03
      3.970  0.2343E+02  0.2331E+02  0.2007E+03  0.2000E+03
      4.032  0.1978E+02  0.2037E+02  0.2019E+03  0.2013E+03
      4.094  0.2099E+02  0.2036E+02  0.2032E+03  0.2026E+03
      4.156  0.7871E+01  0.1568E+02  0.2037E+03  0.2035E+03
      4.219  0.1417E+02  0.9207E+01  0.2046E+03  0.2041E+03
      4.281  0.2679E+02  0.2641E+02  0.2062E+03  0.2057E+03
      4.343  0.2041E+02  0.2180E+02  0.2075E+03  0.2071E+03
      4.405  0.1942E+02  0.1798E+02  0.2087E+03  0.2082E+03
      4.468  0.1160E+02  0.1431E+02  0.2094E+03  0.2091E+03
      4.530  0.2945E+02  0.2023E+02  0.2113E+03  0.2104E+03
      4.592  0.1704E+02  0.2629E+02  0.2123E+03  0.2120E+03
      4.654  0.2076E+02  0.1939E+02  0.2136E+03  0.2132E+03
      4.717  0.2570E+02  0.1867E+02  0.2152E+03  0.2144E+03
      4.779  0.1806E+02  0.2575E+02  0.2164E+03  0.2160E+03
      4.841  0.2106E+02  0.2045E+02  0.2177E+03  0.2173E+03
      4.904  0.1897E+02  0.1975E+02  0.2189E+03  0.2185E+03
      4.966  0.1180E+02  0.9715E+01  0.2196E+03  0.2191E+03
      5.028  0.2129E+02  0.2181E+02  0.2209E+03  0.2205E+03
      5.090  0.2872E+02  0.2635E+02  0.2227E+03  0.2221E+03
      5.153  0.1950E+02  0.2282E+02  0.2239E+03  0.2235E+03
      5.215  0.3079E+02  0.2673E+02  0.2258E+03  0.2252E+03
      5.277  0.2255E+02  0.2549E+02  0.2272E+03  0.2268E+03
      5.339  0.1693E+02  0.2316E+02  0.2283E+03  0.2282E+03
      5.402  0.1041E+02  0.8066E+01  0.2289E+03  0.2287E+03
      5.464  0.1700E+02  0.1664E+02  0.2300E+03  0.2297E+03
      5.526  0.1340E+02  0.1493E+02  0.2308E+03  0.2307E+03
      5.588  0.9600E+01  0.9540E+01  0.2314E+03  0.2313E+03
      5.651  0.4808E+01  0.6330E+01  0.2317E+03  0.2317E+03
      5.713  0.1695E+01  0.2712E+01  0.2318E+03  0.2318E+03
      5.775  0.3784E+00  0.2042E-01  0.2319E+03  0.2318E+03
      5.837  0.2299E+01  0.1339E+01  0.2320E+03  0.2319E+03
      5.900  0.0000E+00  0.9150E-03  0.2320E+03  0.2319E+03
      5.962  0.0000E+00  0.1338E+01  0.2320E+03  0.2320E+03
      6.024  0.0000E+00  0.0000E+00  0.2320E+03  0.2320E+03
      6.086  0.0000E+00  0.0000E+00  0.2320E+03  0.2320E+03
      6.149  0.0000E+00  0.0000E+00  0.2320E+03  0.2320E+03
      6.211  0.0000E+00  0.0000E+00  0.2320E+03  0.2320E+03
      6.273  0.0000E+00  0.0000E+00  0.2320E+03  0.2320E+03
      6.335  0.0000E+00  0.0000E+00  0.2320E+03  0.2320E+03
      6.398  0.0000E+00  0.0000E+00  0.2320E+03  0.2320E+03
      6.460  0.0000E+00  0.0000E+00  0.2320E+03  0.2320E+03
      6.522  0.0000E+00  0.0000E+00  0.2320E+03  0.2320E+03
      6.584  0.0000E+00  0.0000E+00  0.2320E+03  0.2320E+03
      6.647  0.0000E+00  0.0000E+00  0.2320E+03  0.2320E+03
      6.709  0.0000E+00  0.0000E+00  0.2320E+03  0.2320E+03
      6.771  0.0000E+00  0.0000E+00  0.2320E+03  0.2320E+03
