<?xml version="1.0" encoding="ISO-8859-1"?>
<modeling>
 <generator>
  <i name="program" type="string">vasp </i>
  <i name="version" type="string">6.4.3  </i>
  <i name="subversion" type="string">19Mar24 (build Oct 22 2024 11:23:12) complex                          parallel </i>
  <i name="platform" type="string">LinuxIFC </i>
  <i name="date" type="string">2025 06 04 </i>
  <i name="time" type="string">03:20:03 </i>
 </generator>
 <incar>
  <i type="string" name="SYSTEM">Si and Ge interface calculation</i>
  <i type="int" name="ISTART">     0</i>
  <i type="logical" name="ADDGRID"> T  </i>
  <i type="int" name="ISPIN">     2</i>
  <i name="AMIX">      0.60000000</i>
  <i type="int" name="ICHARG">     2</i>
  <i type="int" name="NELM">   100</i>
  <i name="EDIFF">      0.00000010</i>
  <i name="ENCUT">    700.00000000</i>
  <i name="ENAUG">    900.00000000</i>
  <i type="int" name="NBANDS">   173</i>
  <i name="NUPDOWN">      1.00000000</i>
  <i name="NELECT">    288.00000000</i>
  <i type="string" name="LREAL">AUTO</i>
  <i type="int" name="ISMEAR">     0</i>
  <i name="SIGMA">      0.01000000</i>
  <i type="int" name="LMAXMIX">     6</i>
  <i type="logical" name="LWAVE"> F  </i>
  <i type="logical" name="LVTOT"> F  </i>
  <i type="logical" name="LVHAR"> T  </i>
  <i type="logical" name="LASPH"> T  </i>
  <i type="logical" name="LMIXTAU"> T  </i>
 </incar>
 <primitive_cell>
  <structure name="primitive_cell" >
   <crystal>
    <varray name="basis" >
     <v>      -4.00066686      -0.00000190      -0.00000159 </v>
     <v>       0.00000000       0.00000000      13.26432228 </v>
     <v>       0.00000000      16.00267601       0.00000000 </v>
    </varray>
    <i name="volume">    849.20015823 </i>
    <varray name="rec_basis" >
     <v>      -0.24995833       0.00000000       0.00000000 </v>
     <v>      -0.00000003       0.00000000       0.07539021 </v>
     <v>      -0.00000003       0.06248955       0.00000000 </v>
    </varray>
   </crystal>
   <varray name="positions" >
    <v>       0.98291654       1.00000000       0.99572915 </v>
    <v>       0.48291632       0.21327129       0.87072909 </v>
    <v>       0.98291682       0.42654276       0.74572921 </v>
    <v>       0.98291656       1.00000000       0.24572913 </v>
    <v>       0.48291632       0.21327129       0.12072907 </v>
    <v>       0.98291682       0.42654276       0.99572915 </v>
    <v>       0.98291651       1.00000000       0.49572909 </v>
    <v>       0.48291632       0.21327129       0.37072906 </v>
    <v>       0.98291658       0.42654276       0.24572916 </v>
    <v>       0.98291651       1.00000000       0.74572915 </v>
    <v>       0.48291638       0.21327129       0.62072909 </v>
    <v>       0.98291658       0.42654276       0.49572912 </v>
    <v>       0.98291658       0.10663567       0.12072915 </v>
    <v>       0.48291632       0.31990701       0.99572909 </v>
    <v>       0.98291658       0.53317845       0.87072915 </v>
    <v>       0.98291658       0.10663567       0.37072912 </v>
    <v>       0.48291655       0.31990701       0.24572906 </v>
    <v>       0.98291658       0.53317845       0.12072913 </v>
    <v>       0.98291682       0.10663567       0.62072909 </v>
    <v>       0.48291655       0.31990701       0.49572903 </v>
    <v>       0.98291658       0.53317845       0.37072909 </v>
    <v>       0.98291682       0.10663567       0.87072909 </v>
    <v>       0.48291655       0.31990701       0.74572903 </v>
    <v>       0.98291658       0.53317845       0.62072915 </v>
    <v>       0.22879935       0.64595523       0.47817042 </v>
    <v>       0.72880015       0.69420895       0.08928176 </v>
    <v>       0.22879911       0.74246230       0.70039263 </v>
    <v>       0.72879991       0.79071596       0.31150385 </v>
    <v>       0.22879839       0.83896920       0.92261454 </v>
    <v>       0.72879944       0.88722285       0.53372571 </v>
    <v>       0.72879991       0.64595541       0.22817072 </v>
    <v>       0.22879911       0.69420877       0.83928153 </v>
    <v>       0.72879991       0.74246242       0.45039281 </v>
    <v>       0.22879863       0.79071578       0.06150356 </v>
    <v>       0.72879967       0.83896938       0.67261472 </v>
    <v>       0.22879863       0.88722273       0.28372553 </v>
   </varray>
  </structure>
  <varray name="primitive_index" >
   <v type="int" >        1 </v>
   <v type="int" >        2 </v>
   <v type="int" >       27 </v>
   <v type="int" >       28 </v>
   <v type="int" >       29 </v>
   <v type="int" >        6 </v>
   <v type="int" >        7 </v>
   <v type="int" >        8 </v>
   <v type="int" >       33 </v>
   <v type="int" >       34 </v>
   <v type="int" >       35 </v>
   <v type="int" >       12 </v>
   <v type="int" >       13 </v>
   <v type="int" >       14 </v>
   <v type="int" >       39 </v>
   <v type="int" >       40 </v>
   <v type="int" >       41 </v>
   <v type="int" >       18 </v>
   <v type="int" >       19 </v>
   <v type="int" >       20 </v>
   <v type="int" >       45 </v>
   <v type="int" >       46 </v>
   <v type="int" >       47 </v>
   <v type="int" >       24 </v>
   <v type="int" >       67 </v>
   <v type="int" >       68 </v>
   <v type="int" >       51 </v>
   <v type="int" >       52 </v>
   <v type="int" >       71 </v>
   <v type="int" >       72 </v>
   <v type="int" >       55 </v>
   <v type="int" >       62 </v>
   <v type="int" >       63 </v>
   <v type="int" >       58 </v>
   <v type="int" >       59 </v>
   <v type="int" >       66 </v>
  </varray>
 </primitive_cell>
 <kpoints>
  <generation param="Gamma">
   <v type="int" name="divisions">       4        2        2 </v>
   <v name="usershift">      0.00000000       0.00000000       0.00000000 </v>
   <v name="genvec1">      0.25000000       0.00000000       0.00000000 </v>
   <v name="genvec2">      0.00000000       0.50000000       0.00000000 </v>
   <v name="genvec3">      0.00000000       0.00000000       0.50000000 </v>
   <v name="shift">      0.00000000       0.00000000       0.00000000 </v>
  </generation>
  <varray name="kpointlist" >
   <v>       0.00000000       0.00000000       0.00000000 </v>
   <v>       0.25000000       0.00000000       0.00000000 </v>
   <v>       0.50000000       0.00000000       0.00000000 </v>
   <v>       0.00000000       0.50000000       0.00000000 </v>
   <v>       0.25000000       0.50000000       0.00000000 </v>
   <v>       0.50000000       0.50000000       0.00000000 </v>
   <v>       0.00000000       0.00000000       0.50000000 </v>
   <v>       0.25000000       0.00000000       0.50000000 </v>
   <v>       0.50000000       0.00000000       0.50000000 </v>
   <v>       0.00000000       0.50000000       0.50000000 </v>
   <v>       0.25000000       0.50000000       0.50000000 </v>
   <v>       0.50000000       0.50000000       0.50000000 </v>
  </varray>
  <varray name="weights" >
   <v>       0.06250000 </v>
   <v>       0.12500000 </v>
   <v>       0.06250000 </v>
   <v>       0.06250000 </v>
   <v>       0.12500000 </v>
   <v>       0.06250000 </v>
   <v>       0.06250000 </v>
   <v>       0.12500000 </v>
   <v>       0.06250000 </v>
   <v>       0.06250000 </v>
   <v>       0.12500000 </v>
   <v>       0.06250000 </v>
  </varray>
 </kpoints>
 <parameters>
  <separator name="general" >
   <i type="string" name="SYSTEM">Si and Ge interface calculation</i>
   <i type="logical" name="LCOMPAT"> F  </i>
  </separator>
  <separator name="electronic" >
   <i type="string" name="PREC">normal</i>
   <i name="ENMAX">    700.00000000</i>
   <i name="ENAUG">    900.00000000</i>
   <i name="EDIFF">      0.00000010</i>
   <i type="int" name="IALGO">    38</i>
   <i type="int" name="IWAVPR">    10</i>
   <i type="int" name="NBANDS">   176</i>
   <i type="int" name="NBANDSLOW">    -1</i>
   <i type="int" name="NBANDSHIGH">    -1</i>
   <i name="NELECT">    288.00000000</i>
   <i type="int" name="TURBO">     0</i>
   <i type="int" name="IRESTART">     0</i>
   <i type="int" name="NREBOOT">     0</i>
   <i type="int" name="NMIN">     0</i>
   <i name="EREF">      0.00000000</i>
   <separator name="electronic smearing" >
    <i type="int" name="ISMEAR">     0</i>
    <i name="SIGMA">      0.01000000</i>
    <i name="KSPACING">      0.50000000</i>
    <i type="logical" name="KGAMMA"> T  </i>
    <i type="logical" name="KBLOWUP"> T  </i>
   </separator>
   <separator name="electronic projectors" >
    <i type="logical" name="LREAL"> T  </i>
    <v name="ROPT">     -0.00050000     -0.00050000</v>
    <i type="int" name="LMAXPAW">  -100</i>
    <i type="int" name="LMAXMIX">     6</i>
    <i type="logical" name="NLSPLINE"> F  </i>
   </separator>
   <separator name="electronic startup" >
    <i type="int" name="ISTART">     0</i>
    <i type="int" name="ICHARG">     2</i>
    <i type="int" name="INIWAV">     1</i>
   </separator>
   <separator name="electronic spin" >
    <i type="int" name="ISPIN">     2</i>
    <i type="logical" name="LNONCOLLINEAR"> F  </i>
    <v name="MAGMOM">      0.01388889      0.01388889      0.01388889      0.01388889      0.01388889      0.01388889      0.01388889      0.01388889      0.01388889      0.01388889      0.01388889      0.01388889      0.01388889      0.01388889      0.01388889      0.01388889      0.01388889      0.01388889      0.01388889      0.01388889
      0.01388889      0.01388889      0.01388889      0.01388889      0.01388889      0.01388889      0.01388889      0.01388889      0.01388889      0.01388889      0.01388889      0.01388889      0.01388889      0.01388889      0.01388889      0.01388889      0.01388889      0.01388889      0.01388889      0.01388889
      0.01388889      0.01388889      0.01388889      0.01388889      0.01388889      0.01388889      0.01388889      0.01388889      0.01388889      0.01388889      0.01388889      0.01388889      0.01388889      0.01388889      0.01388889      0.01388889      0.01388889      0.01388889      0.01388889      0.01388889
      0.01388889      0.01388889      0.01388889      0.01388889      0.01388889      0.01388889      0.01388889      0.01388889      0.01388889      0.01388889      0.01388889      0.01388889</v>
    <i name="NUPDOWN">      1.00000000</i>
    <i type="logical" name="LSORBIT"> F  </i>
    <v name="SAXIS">      0.00000000      0.00000000      1.00000000</v>
    <i type="logical" name="LSPIRAL"> F  </i>
    <v name="QSPIRAL">      0.00000000      0.00000000      0.00000000</v>
    <i type="logical" name="LZEROZ"> F  </i>
   </separator>
   <separator name="electronic exchange-correlation" >
    <i type="logical" name="LASPH"> T  </i>
   </separator>
   <separator name="electronic convergence" >
    <i type="int" name="NELM">   100</i>
    <i type="int" name="NELMDL">    -5</i>
    <i type="int" name="NELMIN">     2</i>
    <i name="ENINI">    700.00000000</i>
    <separator name="electronic convergence detail" >
     <i type="logical" name="LDIAG"> T  </i>
     <i type="logical" name="LSUBROT"> F  </i>
     <i name="WEIMIN">      0.00000000</i>
     <i name="EBREAK">      0.00000000</i>
     <i name="DEPER">      0.30000000</i>
     <i type="int" name="NRMM">     4</i>
     <i name="TIME">      0.40000000</i>
    </separator>
   </separator>
   <separator name="electronic mixer" >
    <i name="AMIX">      0.60000000</i>
    <i name="BMIX">      1.00000000</i>
    <i name="AMIN">      0.10000000</i>
    <i name="AMIX_MAG">      2.40000000</i>
    <i name="BMIX_MAG">      1.00000000</i>
    <separator name="electronic mixer details" >
     <i type="int" name="IMIX">     4</i>
     <i type="logical" name="MIXFIRST"> F  </i>
     <i type="int" name="MAXMIX">   -45</i>
     <i name="WC">    100.00000000</i>
     <i type="int" name="INIMIX">     1</i>
     <i type="int" name="MIXPRE">     1</i>
     <i type="int" name="MREMOVE">     5</i>
    </separator>
   </separator>
   <separator name="electronic dipolcorrection" >
    <i type="logical" name="LDIPOL"> F  </i>
    <i type="logical" name="LMONO"> F  </i>
    <i type="int" name="IDIPOL">     0</i>
    <i name="EPSILON">      1.00000000</i>
    <v name="DIPOL">   -100.00000000   -100.00000000   -100.00000000</v>
    <i name="EFIELD">      0.00000000</i>
    <i type="logical" name="LVACPOTAV"> F  </i>
   </separator>
  </separator>
  <separator name="grids" >
   <i type="int" name="NGX">    54</i>
   <i type="int" name="NGY">   108</i>
   <i type="int" name="NGZ">    90</i>
   <i type="int" name="NGXF">   108</i>
   <i type="int" name="NGYF">   216</i>
   <i type="int" name="NGZF">   180</i>
   <i type="logical" name="ADDGRID"> T  </i>
  </separator>
  <separator name="ionic" >
   <i type="int" name="NSW">     0</i>
   <i type="int" name="IBRION">    -1</i>
   <i type="int" name="MDALGO">     0</i>
   <i type="int" name="ISIF">     2</i>
   <i name="PSTRESS">      0.00000000</i>
   <i name="EDIFFG">      0.00000100</i>
   <i type="int" name="NFREE">     0</i>
   <i name="POTIM">      0.50000000</i>
   <i name="SMASS">     -3.00000000</i>
   <i name="SCALEE">      1.00000000</i>
  </separator>
  <separator name="ionic md" >
   <i name="TEBEG">      0.00010000</i>
   <i name="TEEND">      0.00010000</i>
   <i type="int" name="NBLOCK">     1</i>
   <i type="int" name="KBLOCK">     1</i>
   <i type="int" name="NPACO">   256</i>
   <i name="APACO">     10.00000000</i>
  </separator>
  <separator name="symmetry" >
   <i type="int" name="ISYM">     2</i>
   <i name="SYMPREC">      0.00001000</i>
  </separator>
  <separator name="dos" >
   <i type="int" name="LORBIT">     0</i>
   <v name="RWIGS">     -1.00000000     -1.00000000</v>
   <i type="int" name="NEDOS">   301</i>
   <i name="EMIN">     10.00000000</i>
   <i name="EMAX">    -10.00000000</i>
   <i name="EFERMI">      0.00000000</i>
  </separator>
  <separator name="writing" >
   <i type="int" name="NWRITE">     2</i>
   <i type="logical" name="LWAVE"> F  </i>
   <i type="logical" name="LDOWNSAMPLE"> F  </i>
   <i type="logical" name="LCHARG"> T  </i>
   <i type="logical" name="LPARD"> F  </i>
   <i type="logical" name="LVTOT"> F  </i>
   <i type="logical" name="LVHAR"> T  </i>
   <i type="logical" name="LELF"> F  </i>
   <i type="logical" name="LOPTICS"> F  </i>
   <v name="STM">      0.00000000      0.00000000      0.00000000      0.00000000      0.00000000      0.00000000      0.00000000</v>
  </separator>
  <separator name="performance" >
   <i type="int" name="NPAR">     4</i>
   <i type="int" name="NSIM">     4</i>
   <i type="int" name="NBLK">    -1</i>
   <i type="logical" name="LPLANE"> T  </i>
   <i type="logical" name="LSCALAPACK"> T  </i>
   <i type="logical" name="LSCAAWARE"> F  </i>
   <i type="logical" name="LSCALU"> F  </i>
   <i type="logical" name="LASYNC"> F  </i>
   <i type="logical" name="LORBITALREAL"> F  </i>
  </separator>
  <separator name="miscellaneous" >
   <i type="int" name="IDIOT">     3</i>
   <i type="int" name="PHON_NSTRUCT">    -1</i>
   <i type="logical" name="LMUSIC"> F  </i>
   <v name="POMASS">     72.61000000     28.08500000</v>
   <v name="DARWINR">      0.00000000      0.00000000</v>
   <v name="DARWINV">      1.00000000      1.00000000</v>
   <i type="logical" name="LCORR"> T  </i>
  </separator>
  <i type="logical" name="GGA_COMPAT"> T  </i>
  <i type="logical" name="LBERRY"> F  </i>
  <i type="int" name="ICORELEVEL">     0</i>
  <i type="logical" name="LDAU"> F  </i>
  <i type="int" name="I_CONSTRAINED_M">     0</i>
  <separator name="electronic exchange-correlation" >
   <i type="string" name="GGA    ">PE</i>
   <i type="string" name="XC_C">1</i>
   <i type="int" name="VOSKOWN">     0</i>
   <i type="logical" name="LHFCALC"> F  </i>
   <i type="string" name="PRECFOCK"></i>
   <i type="logical" name="LSYMGRAD"> F  </i>
   <i type="logical" name="LHFONE"> F  </i>
   <i type="logical" name="LRHFCALC"> F  </i>
   <i type="logical" name="LTHOMAS"> F  </i>
   <i type="logical" name="LMODELHF"> F  </i>
   <i type="logical" name="LFOCKACE"> F  </i>
   <i name="ENCUT4O">     -1.00000000</i>
   <i type="int" name="EXXOEP">     0</i>
   <i type="int" name="FOURORBIT">     0</i>
   <i name="AEXX">      0.00000000</i>
   <i name="HFALPHA">      0.00000000</i>
   <i name="MCALPHA">      0.00000000</i>
   <i name="ALDAX">      1.00000000</i>
   <i name="AGGAX">      1.00000000</i>
   <i name="AMGGAX">      1.00000000</i>
   <i name="ALDAC">      1.00000000</i>
   <i name="AGGAC">      1.00000000</i>
   <i name="AMGGAC">      1.00000000</i>
   <i type="int" name="NKREDX">     1</i>
   <i type="int" name="NKREDY">     1</i>
   <i type="int" name="NKREDZ">     1</i>
   <i type="logical" name="SHIFTRED"> F  </i>
   <i type="logical" name="ODDONLY"> F  </i>
   <i type="logical" name="EVENONLY"> F  </i>
   <i type="int" name="LMAXFOCK">     0</i>
   <i type="int" name="NMAXFOCKAE">     0</i>
   <i type="logical" name="LFOCKAEDFT"> F  </i>
   <i name="HFSCREEN">      0.00000000</i>
   <i name="HFSCREENC">      0.00000000</i>
   <i type="int" name="NBANDSGWLOW">     0</i>
  </separator>
  <separator name="vdW DFT" >
   <i type="logical" name="LUSE_VDW"> F  </i>
   <i type="int" name="IVDW_NL">    -1</i>
   <i type="logical" name="LSPIN_VDW"> F  </i>
   <i name="ZAB_VDW">     -0.84910000</i>
   <i name="GAMMA_VDW">      1.39626340</i>
   <i name="ALPHA_VDW">      0.00000000</i>
   <i name="PARAM1">      0.12340000</i>
   <i name="PARAM2">      1.00000000</i>
   <i name="BPARAM">      6.30000000</i>
   <i name="CPARAM">      0.00930000</i>
  </separator>
  <separator name="model GW" >
   <i type="int" name="MODEL_GW">     0</i>
   <i name="MODEL_EPS0">     14.15334356</i>
   <i name="MODEL_ALPHA">      1.00000000</i>
  </separator>
  <separator name="linear response parameters" >
   <i type="logical" name="LEPSILON"> F  </i>
   <i type="logical" name="LRPA"> F  </i>
   <i type="logical" name="LNABLA"> F  </i>
   <i type="logical" name="LVEL"> F  </i>
   <i name="CSHIFT">      0.10000000</i>
   <i name="OMEGAMAX">     -1.00000000</i>
   <i name="DEG_THRESHOLD">      0.00200000</i>
   <i name="RTIME">     -0.10000000</i>
   <i name="WPLASMAI">      0.00000000</i>
   <v name="DFIELD">      0.00000000      0.00000000      0.00000000</v>
   <v name="WPLASMA">      0.00000000      0.00000000      0.00000000      0.00000000      0.00000000      0.00000000      0.00000000      0.00000000      0.00000000</v>
  </separator>
  <separator name="orbital magnetization" >
   <i type="logical" name="NUCIND"> F  </i>
   <v name="MAGPOS">      0.00000000      0.00000000      0.00000000</v>
   <i type="logical" name="LNICSALL"> T  </i>
   <i type="logical" name="ORBITALMAG"> F  </i>
   <i type="logical" name="LMAGBLOCH"> F  </i>
   <i type="logical" name="LCHIMAG"> F  </i>
   <i type="logical" name="LGAUGE"> T  </i>
   <i type="int" name="MAGATOM">     0</i>
   <v name="MAGDIPOL">      0.00000000      0.00000000      0.00000000</v>
   <v name="AVECCONST">      0.00000000      0.00000000      0.00000000</v>
  </separator>
  <separator name="response functions" >
   <i type="logical" name="LALL_IN_ONE"> F  </i>
   <i type="int" name="IALL_IN_ONE">    -1</i>
   <i type="int" name="NBANDS_WAVE">    -1</i>
   <i type="logical" name="LFINITE_TEMPERATURE"> F  </i>
   <i type="logical" name="LADDER"> F  </i>
   <i type="logical" name="LRPAFORCE"> F  </i>
   <i type="logical" name="LFXC"> F  </i>
   <i type="logical" name="LHARTREE"> T  </i>
   <i type="int" name="IBSE">     0</i>
   <v type="int" name="KPOINT">    -1     0     0     0</v>
   <i type="logical" name="LTCTC"> F  </i>
   <i type="logical" name="LTCTE"> F  </i>
   <i type="logical" name="LTETE"> F  </i>
   <i type="logical" name="LTRIPLET"> F  </i>
   <i type="logical" name="LFXCEPS"> F  </i>
   <i type="logical" name="LFXHEG"> F  </i>
   <i type="int" name="NATURALO">     2</i>
   <i type="logical" name="LHOLEGF"> F  </i>
   <i type="logical" name="L2ORDER"> F  </i>
   <i type="logical" name="LDMP1"> F  </i>
   <i type="logical" name="LMP2LT"> F  </i>
   <i type="logical" name="LSMP2LT"> F  </i>
   <i type="logical" name="LGWLF"> F  </i>
   <i name="ENCUTGW">     -1.60000002</i>
   <i name="ENCUTGWSOFT">     -1.60000002</i>
   <i name="ENCUTLF">     -1.00000000</i>
   <i type="logical" name="ESF_SPLINES"> F  </i>
   <i name="ESF_CONV">      0.01000000</i>
   <i type="int" name="ESF_NINTER">    15</i>
   <i type="int" name="LMAXMP2">    -1</i>
   <i name="SCISSOR">      0.00000000</i>
   <i type="int" name="NOMEGA">     0</i>
   <i type="int" name="NOMEGAR">     0</i>
   <i type="int" name="NBANDSGW">    -1</i>
   <i type="int" name="NBANDSO">    -1</i>
   <i type="int" name="NBANDSV">    -1</i>
   <i type="int" name="NELMGW">     1</i>
   <i type="int" name="NELMHF">     1</i>
   <i type="int" name="DIM">     3</i>
   <i type="int" name="IESPILON">     4</i>
   <i type="int" name="ANTIRES">     0</i>
   <i name="OMEGAMAX">    -30.00000000</i>
   <i name="OMEGAMIN">    -30.00000000</i>
   <i name="OMEGATL">   -200.00000000</i>
   <i type="int" name="OMEGAGRID">     0</i>
   <i name="CSHIFT">     -0.10000000</i>
   <i type="logical" name="LSELFENERGY"> F  </i>
   <i type="logical" name="LSPECTRAL"> F  </i>
   <i type="logical" name="LSPECTRALGW"> F  </i>
   <i type="logical" name="LSINGLES"> F  </i>
   <i type="logical" name="LFERMIGW"> F  </i>
   <i type="logical" name="ODDONLYGW"> F  </i>
   <i type="logical" name="EVENONLYGW"> F  </i>
   <i type="int" name="NKREDLFX">     1</i>
   <i type="int" name="NKREDLFY">     1</i>
   <i type="int" name="NKREDLFZ">     1</i>
   <i type="int" name="MAXMEM">  2800</i>
   <i type="int" name="TELESCOPE">     0</i>
   <i type="int" name="NTAUPAR">    -1</i>
   <i type="int" name="NOMEGAPAR">    -1</i>
   <i name="DAMP_NEWTON">      0.80000001</i>
   <i name="LAMBDA">      1.00000000</i>
  </separator>
  <separator name="External order field" >
   <i name="OFIELD_KAPPA">      0.00000000</i>
   <v name="OFIELD_K">      0.00000000      0.00000000      0.00000000</v>
   <i name="OFIELD_Q6_NEAR">      0.00000000</i>
   <i name="OFIELD_Q6_FAR">      0.00000000</i>
   <i name="OFIELD_A">      0.00000000</i>
  </separator>
  <separator name="optional k-points parameters" >
   <i type="int" name="KPOINTS_OPT_MODE">     1</i>
   <i type="logical" name="LKPOINTS_OPT"> F  </i>
  </separator>
 </parameters>
 <atominfo>
  <atoms>      72 </atoms>
  <types>       2 </types>
  <array name="atoms" >
   <dimension dim="1">ion</dimension>
   <field type="string">element</field>
   <field type="int">atomtype</field>
   <set>
    <rc><c>Ge</c><c>   1</c></rc>
    <rc><c>Ge</c><c>   1</c></rc>
    <rc><c>Ge</c><c>   1</c></rc>
    <rc><c>Ge</c><c>   1</c></rc>
    <rc><c>Ge</c><c>   1</c></rc>
    <rc><c>Ge</c><c>   1</c></rc>
    <rc><c>Ge</c><c>   1</c></rc>
    <rc><c>Ge</c><c>   1</c></rc>
    <rc><c>Ge</c><c>   1</c></rc>
    <rc><c>Ge</c><c>   1</c></rc>
    <rc><c>Ge</c><c>   1</c></rc>
    <rc><c>Ge</c><c>   1</c></rc>
    <rc><c>Ge</c><c>   1</c></rc>
    <rc><c>Ge</c><c>   1</c></rc>
    <rc><c>Ge</c><c>   1</c></rc>
    <rc><c>Ge</c><c>   1</c></rc>
    <rc><c>Ge</c><c>   1</c></rc>
    <rc><c>Ge</c><c>   1</c></rc>
    <rc><c>Ge</c><c>   1</c></rc>
    <rc><c>Ge</c><c>   1</c></rc>
    <rc><c>Ge</c><c>   1</c></rc>
    <rc><c>Ge</c><c>   1</c></rc>
    <rc><c>Ge</c><c>   1</c></rc>
    <rc><c>Ge</c><c>   1</c></rc>
    <rc><c>Ge</c><c>   1</c></rc>
    <rc><c>Ge</c><c>   1</c></rc>
    <rc><c>Ge</c><c>   1</c></rc>
    <rc><c>Ge</c><c>   1</c></rc>
    <rc><c>Ge</c><c>   1</c></rc>
    <rc><c>Ge</c><c>   1</c></rc>
    <rc><c>Ge</c><c>   1</c></rc>
    <rc><c>Ge</c><c>   1</c></rc>
    <rc><c>Ge</c><c>   1</c></rc>
    <rc><c>Ge</c><c>   1</c></rc>
    <rc><c>Ge</c><c>   1</c></rc>
    <rc><c>Ge</c><c>   1</c></rc>
    <rc><c>Ge</c><c>   1</c></rc>
    <rc><c>Ge</c><c>   1</c></rc>
    <rc><c>Ge</c><c>   1</c></rc>
    <rc><c>Ge</c><c>   1</c></rc>
    <rc><c>Ge</c><c>   1</c></rc>
    <rc><c>Ge</c><c>   1</c></rc>
    <rc><c>Ge</c><c>   1</c></rc>
    <rc><c>Ge</c><c>   1</c></rc>
    <rc><c>Ge</c><c>   1</c></rc>
    <rc><c>Ge</c><c>   1</c></rc>
    <rc><c>Ge</c><c>   1</c></rc>
    <rc><c>Ge</c><c>   1</c></rc>
    <rc><c>Si</c><c>   2</c></rc>
    <rc><c>Si</c><c>   2</c></rc>
    <rc><c>Si</c><c>   2</c></rc>
    <rc><c>Si</c><c>   2</c></rc>
    <rc><c>Si</c><c>   2</c></rc>
    <rc><c>Si</c><c>   2</c></rc>
    <rc><c>Si</c><c>   2</c></rc>
    <rc><c>Si</c><c>   2</c></rc>
    <rc><c>Si</c><c>   2</c></rc>
    <rc><c>Si</c><c>   2</c></rc>
    <rc><c>Si</c><c>   2</c></rc>
    <rc><c>Si</c><c>   2</c></rc>
    <rc><c>Si</c><c>   2</c></rc>
    <rc><c>Si</c><c>   2</c></rc>
    <rc><c>Si</c><c>   2</c></rc>
    <rc><c>Si</c><c>   2</c></rc>
    <rc><c>Si</c><c>   2</c></rc>
    <rc><c>Si</c><c>   2</c></rc>
    <rc><c>Si</c><c>   2</c></rc>
    <rc><c>Si</c><c>   2</c></rc>
    <rc><c>Si</c><c>   2</c></rc>
    <rc><c>Si</c><c>   2</c></rc>
    <rc><c>Si</c><c>   2</c></rc>
    <rc><c>Si</c><c>   2</c></rc>
   </set>
  </array>
  <array name="atomtypes" >
   <dimension dim="1">type</dimension>
   <field type="int">atomspertype</field>
   <field type="string">element</field>
   <field>mass</field>
   <field>valence</field>
   <field type="string">pseudopotential</field>
   <set>
    <rc><c>  48</c><c>Ge</c><c>     72.61000000</c><c>      4.00000000</c><c>  PAW_PBE Ge 05Jan2001                  </c></rc>
    <rc><c>  24</c><c>Si</c><c>     28.08500000</c><c>      4.00000000</c><c>  PAW_PBE Si 05Jan2001                  </c></rc>
   </set>
  </array>
 </atominfo>
 <structure name="initialpos" >
  <crystal>
   <varray name="basis" >
    <v>       8.00133800       0.00000000       0.00000000 </v>
    <v>       0.00000000      16.00267601       0.00000000 </v>
    <v>       0.00000000       0.00000000      13.26432228 </v>
   </varray>
   <i name="volume">   1698.40122681 </i>
   <varray name="rec_basis" >
    <v>       0.12497910       0.00000000       0.00000000 </v>
    <v>       0.00000000       0.06248955       0.00000000 </v>
    <v>       0.00000000       0.00000000       0.07539021 </v>
   </varray>
  </crystal>
  <varray name="positions" >
   <v>       0.00854173       0.99572915       0.00000000 </v>
   <v>       0.25854170       0.87072915       0.21327135 </v>
   <v>       0.50854170       0.74572915       0.42654276 </v>
   <v>       0.50854170       0.24572912       0.00000000 </v>
   <v>       0.75854164       0.12072913       0.21327135 </v>
   <v>       0.00854158       0.99572915       0.42654276 </v>
   <v>       0.00854174       0.49572909       0.00000000 </v>
   <v>       0.25854170       0.37072912       0.21327135 </v>
   <v>       0.50854170       0.24572912       0.42654276 </v>
   <v>       0.50854170       0.74572909       0.00000000 </v>
   <v>       0.75854164       0.62072909       0.21327135 </v>
   <v>       0.00854170       0.49572912       0.42654276 </v>
   <v>       0.00854170       0.12072916       0.10663567 </v>
   <v>       0.25854170       0.99572915       0.31990707 </v>
   <v>       0.50854170       0.87072915       0.53317845 </v>
   <v>       0.50854176       0.37072912       0.10663567 </v>
   <v>       0.75854170       0.24572915       0.31990707 </v>
   <v>       0.00854170       0.12072913       0.53317845 </v>
   <v>       0.00854158       0.62072909       0.10663567 </v>
   <v>       0.25854158       0.49572909       0.31990707 </v>
   <v>       0.50854158       0.37072906       0.53317845 </v>
   <v>       0.50854170       0.87072915       0.10663567 </v>
   <v>       0.75854170       0.74572915       0.31990707 </v>
   <v>       0.00854170       0.62072915       0.53317845 </v>
   <v>       0.50854170       0.99572915       0.00000000 </v>
   <v>       0.75854164       0.87072915       0.21327135 </v>
   <v>       0.00854158       0.74572921       0.42654276 </v>
   <v>       0.00854172       0.24572913       0.00000000 </v>
   <v>       0.25854170       0.12072913       0.21327135 </v>
   <v>       0.50854170       0.99572915       0.42654276 </v>
   <v>       0.50854170       0.49572915       0.00000000 </v>
   <v>       0.75854170       0.37072915       0.21327135 </v>
   <v>       0.00854170       0.24572916       0.42654276 </v>
   <v>       0.00854174       0.74572915       0.00000000 </v>
   <v>       0.25854167       0.62072915       0.21327135 </v>
   <v>       0.50854170       0.49572915       0.42654276 </v>
   <v>       0.50854170       0.12072913       0.10663567 </v>
   <v>       0.75854170       0.99572915       0.31990707 </v>
   <v>       0.00854170       0.87072915       0.53317845 </v>
   <v>       0.00854170       0.37072912       0.10663567 </v>
   <v>       0.25854158       0.24572912       0.31990707 </v>
   <v>       0.50854170       0.12072911       0.53317845 </v>
   <v>       0.50854170       0.62072909       0.10663567 </v>
   <v>       0.75854164       0.49572912       0.31990707 </v>
   <v>       0.00854170       0.37072909       0.53317845 </v>
   <v>       0.00854158       0.87072909       0.10663567 </v>
   <v>       0.25854158       0.74572909       0.31990707 </v>
   <v>       0.50854158       0.62072909       0.53317845 </v>
   <v>       0.38559988       0.47817063       0.64595544 </v>
   <v>       0.63559997       0.08928180       0.69420898 </v>
   <v>       0.88559997       0.70039284       0.74246252 </v>
   <v>       0.13559997       0.31150389       0.79071599 </v>
   <v>       0.38560006       0.92261487       0.83896953 </v>
   <v>       0.63560021       0.53372550       0.88722289 </v>
   <v>       0.13559997       0.22817075       0.64595544 </v>
   <v>       0.38559994       0.83928168       0.69420898 </v>
   <v>       0.63559997       0.45039284       0.74246246 </v>
   <v>       0.88560021       0.06150377       0.79071599 </v>
   <v>       0.13560009       0.67261475       0.83896941 </v>
   <v>       0.38560030       0.28372574       0.88722295 </v>
   <v>       0.63559997       0.22817075       0.64595544 </v>
   <v>       0.88559997       0.83928174       0.69420898 </v>
   <v>       0.13559997       0.45039284       0.74246246 </v>
   <v>       0.38560006       0.06150377       0.79071599 </v>
   <v>       0.63560009       0.67261475       0.83896941 </v>
   <v>       0.88560021       0.28372574       0.88722295 </v>
   <v>       0.88559985       0.47817063       0.64595544 </v>
   <v>       0.13559985       0.08928180       0.69420898 </v>
   <v>       0.38559994       0.70039284       0.74246252 </v>
   <v>       0.63559997       0.31150389       0.79071599 </v>
   <v>       0.88560033       0.92261475       0.83896941 </v>
   <v>       0.13560021       0.53372574       0.88722289 </v>
  </varray>
 </structure>
 <calculation>
  <scstep>
   <time name="dav">   13.59   13.74</time>
   <time name="total">   18.63   18.80</time>
   <energy>
    <i name="alphaZ">    423.17631592 </i>
    <i name="ewald">  -7550.28313236 </i>
    <i name="hartreedc">   -663.85618987 </i>
    <i name="XCdc">   -591.89185688 </i>
    <i name="pawpsdc">   6345.93939393 </i>
    <i name="pawaedc">  -5228.29706555 </i>
    <i name="eentropy">     -0.00122835 </i>
    <i name="bandstr">   1025.38757300 </i>
    <i name="atom">   7513.40264132 </i>
    <i name="e_fr_energy">   1273.57645116 </i>
    <i name="e_wo_entrp">   1273.57767952 </i>
    <i name="e_0_energy">   1273.57706534 </i>
   </energy>
  </scstep>
  <scstep>
   <time name="dav">   16.93   17.07</time>
   <time name="total">   16.93   17.07</time>
   <energy>
    <i name="e_fr_energy">   -168.72179591 </i>
    <i name="e_wo_entrp">   -168.72070212 </i>
    <i name="e_0_energy">   -168.72124902 </i>
   </energy>
  </scstep>
  <scstep>
   <time name="dav">   17.72   17.89</time>
   <time name="total">   17.73   17.89</time>
   <energy>
    <i name="e_fr_energy">   -309.12868054 </i>
    <i name="e_wo_entrp">   -309.12663698 </i>
    <i name="e_0_energy">   -309.12765876 </i>
   </energy>
  </scstep>
  <scstep>
   <time name="dav">   15.43   15.56</time>
   <time name="total">   15.43   15.56</time>
   <energy>
    <i name="e_fr_energy">   -314.51836461 </i>
    <i name="e_wo_entrp">   -314.51627800 </i>
    <i name="e_0_energy">   -314.51732131 </i>
   </energy>
  </scstep>
  <scstep>
   <time name="dav">   16.87   17.03</time>
   <time name="total">   17.69   17.85</time>
   <energy>
    <i name="e_fr_energy">   -314.72216462 </i>
    <i name="e_wo_entrp">   -314.72007932 </i>
    <i name="e_0_energy">   -314.72112197 </i>
   </energy>
  </scstep>
  <scstep>
   <time name="dav">   15.50   15.64</time>
   <time name="total">   17.40   17.55</time>
   <energy>
    <i name="e_fr_energy">   -309.34382337 </i>
    <i name="e_wo_entrp">   -309.34235866 </i>
    <i name="e_0_energy">   -309.34309102 </i>
   </energy>
  </scstep>
  <scstep>
   <time name="dav">   16.01   16.18</time>
   <time name="total">   19.37   19.56</time>
   <energy>
    <i name="e_fr_energy">   -309.62694680 </i>
    <i name="e_wo_entrp">   -309.62478862 </i>
    <i name="e_0_energy">   -309.62586771 </i>
   </energy>
  </scstep>
  <scstep>
   <time name="dav">   15.97   16.12</time>
   <time name="total">   17.86   18.03</time>
   <energy>
    <i name="e_fr_energy">   -308.61270291 </i>
    <i name="e_wo_entrp">   -308.61036611 </i>
    <i name="e_0_energy">   -308.61153451 </i>
   </energy>
  </scstep>
  <scstep>
   <time name="dav">   15.45   15.59</time>
   <time name="total">   18.60   18.75</time>
   <energy>
    <i name="e_fr_energy">   -308.50390081 </i>
    <i name="e_wo_entrp">   -308.50265463 </i>
    <i name="e_0_energy">   -308.50327772 </i>
   </energy>
  </scstep>
  <scstep>
   <time name="dav">   15.18   15.34</time>
   <time name="total">   20.30   20.48</time>
   <energy>
    <i name="e_fr_energy">   -308.49248665 </i>
    <i name="e_wo_entrp">   -308.49086562 </i>
    <i name="e_0_energy">   -308.49167613 </i>
   </energy>
  </scstep>
  <scstep>
   <time name="dav">   15.21   15.35</time>
   <time name="total">   18.13   18.28</time>
   <energy>
    <i name="e_fr_energy">   -308.48904931 </i>
    <i name="e_wo_entrp">   -308.48794927 </i>
    <i name="e_0_energy">   -308.48849929 </i>
   </energy>
  </scstep>
  <scstep>
   <time name="dav">   15.34   15.48</time>
   <time name="total">   19.27   19.43</time>
   <energy>
    <i name="e_fr_energy">   -308.48913120 </i>
    <i name="e_wo_entrp">   -308.48794716 </i>
    <i name="e_0_energy">   -308.48853918 </i>
   </energy>
  </scstep>
  <scstep>
   <time name="dav">   15.33   15.50</time>
   <time name="total">   19.06   19.24</time>
   <energy>
    <i name="e_fr_energy">   -308.48900536 </i>
    <i name="e_wo_entrp">   -308.48788459 </i>
    <i name="e_0_energy">   -308.48844498 </i>
   </energy>
  </scstep>
  <scstep>
   <time name="dav">   15.31   15.45</time>
   <time name="total">   19.32   19.47</time>
   <energy>
    <i name="e_fr_energy">   -308.48901591 </i>
    <i name="e_wo_entrp">   -308.48791054 </i>
    <i name="e_0_energy">   -308.48846323 </i>
   </energy>
  </scstep>
  <scstep>
   <time name="dav">   15.03   15.19</time>
   <time name="total">   19.06   19.24</time>
   <energy>
    <i name="e_fr_energy">   -308.48904909 </i>
    <i name="e_wo_entrp">   -308.48796798 </i>
    <i name="e_0_energy">   -308.48850853 </i>
   </energy>
  </scstep>
  <scstep>
   <time name="dav">   15.44   15.61</time>
   <time name="total">   17.32   17.51</time>
   <energy>
    <i name="e_fr_energy">   -308.48906161 </i>
    <i name="e_wo_entrp">   -308.48797509 </i>
    <i name="e_0_energy">   -308.48851835 </i>
   </energy>
  </scstep>
  <scstep>
   <time name="dav">   15.10   15.23</time>
   <time name="total">   18.90   19.05</time>
   <energy>
    <i name="e_fr_energy">   -308.48906708 </i>
    <i name="e_wo_entrp">   -308.48798428 </i>
    <i name="e_0_energy">   -308.48852568 </i>
   </energy>
  </scstep>
  <scstep>
   <time name="dav">   15.57   15.70</time>
   <time name="total">   23.85   24.03</time>
   <energy>
    <i name="e_fr_energy">   -308.48906996 </i>
    <i name="e_wo_entrp">   -308.48799014 </i>
    <i name="e_0_energy">   -308.48853005 </i>
   </energy>
  </scstep>
  <scstep>
   <time name="dav">   15.68   15.83</time>
   <time name="total">   17.57   17.72</time>
   <energy>
    <i name="e_fr_energy">   -308.48907134 </i>
    <i name="e_wo_entrp">   -308.48799224 </i>
    <i name="e_0_energy">   -308.48853179 </i>
   </energy>
  </scstep>
  <scstep>
   <time name="dav">   13.86   13.98</time>
   <time name="total">   19.40   19.55</time>
   <energy>
    <i name="e_fr_energy">   -308.48907210 </i>
    <i name="e_wo_entrp">   -308.48799388 </i>
    <i name="e_0_energy">   -308.48853299 </i>
   </energy>
  </scstep>
  <scstep>
   <time name="dav">   11.89   12.02</time>
   <time name="total">   13.79   13.92</time>
   <energy>
    <i name="e_fr_energy">   -308.48907252 </i>
    <i name="e_wo_entrp">   -308.48799486 </i>
    <i name="e_0_energy">   -308.48853369 </i>
   </energy>
  </scstep>
  <scstep>
   <time name="dav">    9.67    9.76</time>
   <time name="total">   10.76   10.85</time>
   <energy>
    <i name="alphaZ">    423.17631592 </i>
    <i name="ewald">  -7550.28313236 </i>
    <i name="hartreedc">   -765.07813538 </i>
    <i name="XCdc">   -574.38316490 </i>
    <i name="pawpsdc">  18834.33346675 </i>
    <i name="pawaedc"> -17726.30469207 </i>
    <i name="eentropy">     -0.00107727 </i>
    <i name="bandstr">   -463.35129462 </i>
    <i name="atom">   7513.40264132 </i>
    <i name="e_fr_energy">   -308.48907260 </i>
    <i name="e_wo_entrp">   -308.48799533 </i>
    <i name="e_0_energy">   -308.48853397 </i>
   </energy>
  </scstep>
  <structure>
   <crystal>
    <varray name="basis" >
     <v>       8.00133800       0.00000000       0.00000000 </v>
     <v>       0.00000000      16.00267601       0.00000000 </v>
     <v>       0.00000000       0.00000000      13.26432228 </v>
    </varray>
    <i name="volume">   1698.40122681 </i>
    <varray name="rec_basis" >
     <v>       0.12497910       0.00000000       0.00000000 </v>
     <v>       0.00000000       0.06248955       0.00000000 </v>
     <v>       0.00000000       0.00000000       0.07539021 </v>
    </varray>
   </crystal>
   <varray name="positions" >
    <v>       0.00854173       0.99572915       0.00000000 </v>
    <v>       0.25854170       0.87072915       0.21327135 </v>
    <v>       0.50854170       0.74572915       0.42654276 </v>
    <v>       0.50854170       0.24572912       0.00000000 </v>
    <v>       0.75854164       0.12072913       0.21327135 </v>
    <v>       0.00854158       0.99572915       0.42654276 </v>
    <v>       0.00854174       0.49572909       0.00000000 </v>
    <v>       0.25854170       0.37072912       0.21327135 </v>
    <v>       0.50854170       0.24572912       0.42654276 </v>
    <v>       0.50854170       0.74572909       0.00000000 </v>
    <v>       0.75854164       0.62072909       0.21327135 </v>
    <v>       0.00854170       0.49572912       0.42654276 </v>
    <v>       0.00854170       0.12072916       0.10663567 </v>
    <v>       0.25854170       0.99572915       0.31990707 </v>
    <v>       0.50854170       0.87072915       0.53317845 </v>
    <v>       0.50854176       0.37072912       0.10663567 </v>
    <v>       0.75854170       0.24572915       0.31990707 </v>
    <v>       0.00854170       0.12072913       0.53317845 </v>
    <v>       0.00854158       0.62072909       0.10663567 </v>
    <v>       0.25854158       0.49572909       0.31990707 </v>
    <v>       0.50854158       0.37072906       0.53317845 </v>
    <v>       0.50854170       0.87072915       0.10663567 </v>
    <v>       0.75854170       0.74572915       0.31990707 </v>
    <v>       0.00854170       0.62072915       0.53317845 </v>
    <v>       0.50854170       0.99572915       0.00000000 </v>
    <v>       0.75854164       0.87072915       0.21327135 </v>
    <v>       0.00854158       0.74572921       0.42654276 </v>
    <v>       0.00854172       0.24572913       0.00000000 </v>
    <v>       0.25854170       0.12072913       0.21327135 </v>
    <v>       0.50854170       0.99572915       0.42654276 </v>
    <v>       0.50854170       0.49572915       0.00000000 </v>
    <v>       0.75854170       0.37072915       0.21327135 </v>
    <v>       0.00854170       0.24572916       0.42654276 </v>
    <v>       0.00854174       0.74572915       0.00000000 </v>
    <v>       0.25854167       0.62072915       0.21327135 </v>
    <v>       0.50854170       0.49572915       0.42654276 </v>
    <v>       0.50854170       0.12072913       0.10663567 </v>
    <v>       0.75854170       0.99572915       0.31990707 </v>
    <v>       0.00854170       0.87072915       0.53317845 </v>
    <v>       0.00854170       0.37072912       0.10663567 </v>
    <v>       0.25854158       0.24572912       0.31990707 </v>
    <v>       0.50854170       0.12072911       0.53317845 </v>
    <v>       0.50854170       0.62072909       0.10663567 </v>
    <v>       0.75854164       0.49572912       0.31990707 </v>
    <v>       0.00854170       0.37072909       0.53317845 </v>
    <v>       0.00854158       0.87072909       0.10663567 </v>
    <v>       0.25854158       0.74572909       0.31990707 </v>
    <v>       0.50854158       0.62072909       0.53317845 </v>
    <v>       0.38559988       0.47817063       0.64595544 </v>
    <v>       0.63559997       0.08928180       0.69420898 </v>
    <v>       0.88559997       0.70039284       0.74246252 </v>
    <v>       0.13559997       0.31150389       0.79071599 </v>
    <v>       0.38560006       0.92261487       0.83896953 </v>
    <v>       0.63560021       0.53372550       0.88722289 </v>
    <v>       0.13559997       0.22817075       0.64595544 </v>
    <v>       0.38559994       0.83928168       0.69420898 </v>
    <v>       0.63559997       0.45039284       0.74246246 </v>
    <v>       0.88560021       0.06150377       0.79071599 </v>
    <v>       0.13560009       0.67261475       0.83896941 </v>
    <v>       0.38560030       0.28372574       0.88722295 </v>
    <v>       0.63559997       0.22817075       0.64595544 </v>
    <v>       0.88559997       0.83928174       0.69420898 </v>
    <v>       0.13559997       0.45039284       0.74246246 </v>
    <v>       0.38560006       0.06150377       0.79071599 </v>
    <v>       0.63560009       0.67261475       0.83896941 </v>
    <v>       0.88560021       0.28372574       0.88722295 </v>
    <v>       0.88559985       0.47817063       0.64595544 </v>
    <v>       0.13559985       0.08928180       0.69420898 </v>
    <v>       0.38559994       0.70039284       0.74246252 </v>
    <v>       0.63559997       0.31150389       0.79071599 </v>
    <v>       0.88560033       0.92261475       0.83896941 </v>
    <v>       0.13560021       0.53372574       0.88722289 </v>
   </varray>
  </structure>
  <varray name="forces" >
   <v>       0.09776486      -0.57825210      -1.24005889 </v>
   <v>      -0.09813389      -0.12984180       0.09607814 </v>
   <v>      -0.28376562       0.15530849       0.00424791 </v>
   <v>       5.34987912      -3.58299177       7.96867191 </v>
   <v>      -0.11084939      -0.02006826       0.10026020 </v>
   <v>      -0.12067948       0.00268482       0.12455350 </v>
   <v>      -5.37404931      -2.76390184       7.31988056 </v>
   <v>       0.02139510       0.07557938       0.11867444 </v>
   <v>      -0.15196371       0.16459950      -0.23182532 </v>
   <v>       0.05961715      -0.36186453      -1.15998389 </v>
   <v>       0.10975631      -0.00378165       0.10874176 </v>
   <v>       0.33601324       0.01827263      -0.36940858 </v>
   <v>      -0.10911728       0.12706266       0.02505040 </v>
   <v>       0.05659153      -0.10267977      -0.16604310 </v>
   <v>       0.29837431      -0.26610393       0.74502717 </v>
   <v>       0.08356187       0.03984139      -0.16076587 </v>
   <v>      -0.02093118       0.02656144      -0.27831159 </v>
   <v>      -0.62111898      -0.45839184       0.02362748 </v>
   <v>      -0.21425863       0.07983515       0.13617682 </v>
   <v>      -0.00670323       0.07505609      -0.16489286 </v>
   <v>      -0.10548169      -0.22060706       0.72556211 </v>
   <v>       0.22574484       0.15244714      -0.00153173 </v>
   <v>       0.01724628      -0.05507281      -0.11167598 </v>
   <v>       0.11354292      -0.31771543       1.66343471 </v>
   <v>       0.09776486      -0.57825210      -1.24005889 </v>
   <v>      -0.09813389      -0.12984180       0.09607814 </v>
   <v>      -0.28376562       0.15530849       0.00424791 </v>
   <v>       5.34987912      -3.58299177       7.96867191 </v>
   <v>      -0.11084939      -0.02006826       0.10026020 </v>
   <v>      -0.12067948       0.00268482       0.12455350 </v>
   <v>      -5.37404931      -2.76390184       7.31988056 </v>
   <v>       0.02139510       0.07557938       0.11867444 </v>
   <v>      -0.15196371       0.16459950      -0.23182532 </v>
   <v>       0.05961715      -0.36186453      -1.15998389 </v>
   <v>       0.10975631      -0.00378165       0.10874176 </v>
   <v>       0.33601324       0.01827263      -0.36940858 </v>
   <v>      -0.10911728       0.12706266       0.02505040 </v>
   <v>       0.05659153      -0.10267977      -0.16604310 </v>
   <v>       0.29837431      -0.26610393       0.74502717 </v>
   <v>       0.08356187       0.03984139      -0.16076587 </v>
   <v>      -0.02093118       0.02656144      -0.27831159 </v>
   <v>      -0.62111898      -0.45839184       0.02362748 </v>
   <v>      -0.21425863       0.07983515       0.13617682 </v>
   <v>      -0.00670323       0.07505609      -0.16489286 </v>
   <v>      -0.10548169      -0.22060706       0.72556211 </v>
   <v>       0.22574484       0.15244714      -0.00153173 </v>
   <v>       0.01724628      -0.05507281      -0.11167598 </v>
   <v>       0.11354292      -0.31771543       1.66343471 </v>
   <v>      -0.02826500      -0.07427947      -0.03185829 </v>
   <v>       0.03816156      -0.28416403       0.64720854 </v>
   <v>       0.26461204      -0.59752757      -0.40714045 </v>
   <v>      -0.03205934      -0.12826779       0.51862423 </v>
   <v>      -0.11639209       0.27503363       0.60192766 </v>
   <v>       5.41615028       2.48889638      -7.57040917 </v>
   <v>       0.42871397       1.02451087       0.42403227 </v>
   <v>      -0.23842764       0.31142360      -0.29863735 </v>
   <v>       0.17252639       0.49953358      -0.20297859 </v>
   <v>       0.24674339       0.31154513      -0.41408642 </v>
   <v>      -0.21772441       0.91311939       0.29520498 </v>
   <v>      -5.48647427       3.20420039      -8.83737673 </v>
   <v>       0.42871397       1.02451087       0.42403227 </v>
   <v>      -0.23842764       0.31142360      -0.29863735 </v>
   <v>       0.17252639       0.49953358      -0.20297859 </v>
   <v>       0.24674339       0.31154513      -0.41408642 </v>
   <v>      -0.21772441       0.91311939       0.29520498 </v>
   <v>      -5.48647427       3.20420039      -8.83737673 </v>
   <v>      -0.02826500      -0.07427947      -0.03185829 </v>
   <v>       0.03816156      -0.28416403       0.64720854 </v>
   <v>       0.26461204      -0.59752757      -0.40714045 </v>
   <v>      -0.03205934      -0.12826779       0.51862423 </v>
   <v>      -0.11639209       0.27503363       0.60192766 </v>
   <v>       5.41615028       2.48889638      -7.57040917 </v>
  </varray>
  <varray name="stress" >
   <v>      12.21491390       4.70595726       4.19329198 </v>
   <v>       4.70595471      36.80162549     -16.36888690 </v>
   <v>       4.19328983     -16.36887410      73.41234442 </v>
  </varray>
  <energy>
   <i name="e_fr_energy">   -308.48907260 </i>
   <i name="e_wo_entrp">   -308.48799533 </i>
   <i name="e_0_energy">   -308.48853397 </i>
  </energy>
  <time name="totalsc">  428.63  432.69</time>
  <eigenvalues>
   <array>
    <dimension dim="1">band</dimension>
    <dimension dim="2">kpoint</dimension>
    <dimension dim="3">spin</dimension>
    <field>eigene</field>
    <field>occ</field>
    <set>
     <set comment="spin 1">
      <set comment="kpoint 1">
       <r>   -8.8570    1.0000 </r>
       <r>   -8.3965    1.0000 </r>
       <r>   -8.3324    1.0000 </r>
       <r>   -8.1194    1.0000 </r>
       <r>   -7.8302    1.0000 </r>
       <r>   -7.7307    1.0000 </r>
       <r>   -7.7226    1.0000 </r>
       <r>   -7.4300    1.0000 </r>
       <r>   -7.4202    1.0000 </r>
       <r>   -7.3355    1.0000 </r>
       <r>   -7.2611    1.0000 </r>
       <r>   -7.0889    1.0000 </r>
       <r>   -7.0558    1.0000 </r>
       <r>   -7.0294    1.0000 </r>
       <r>   -6.9176    1.0000 </r>
       <r>   -6.7644    1.0000 </r>
       <r>   -6.7381    1.0000 </r>
       <r>   -6.5502    1.0000 </r>
       <r>   -6.5451    1.0000 </r>
       <r>   -6.5375    1.0000 </r>
       <r>   -6.5132    1.0000 </r>
       <r>   -6.0654    1.0000 </r>
       <r>   -5.9827    1.0000 </r>
       <r>   -5.9347    1.0000 </r>
       <r>   -5.7790    1.0000 </r>
       <r>   -5.6880    1.0000 </r>
       <r>   -5.6448    1.0000 </r>
       <r>   -5.5169    1.0000 </r>
       <r>   -5.3533    1.0000 </r>
       <r>   -5.2669    1.0000 </r>
       <r>   -5.2301    1.0000 </r>
       <r>   -5.2186    1.0000 </r>
       <r>   -5.1363    1.0000 </r>
       <r>   -5.1021    1.0000 </r>
       <r>   -5.0951    1.0000 </r>
       <r>   -5.0254    1.0000 </r>
       <r>   -4.8316    1.0000 </r>
       <r>   -4.8017    1.0000 </r>
       <r>   -4.7670    1.0000 </r>
       <r>   -4.5929    1.0000 </r>
       <r>   -4.4306    1.0000 </r>
       <r>   -4.1644    1.0000 </r>
       <r>   -4.1509    1.0000 </r>
       <r>   -3.7214    1.0000 </r>
       <r>   -3.6700    1.0000 </r>
       <r>   -3.6500    1.0000 </r>
       <r>   -3.4617    1.0000 </r>
       <r>   -3.4426    1.0000 </r>
       <r>   -3.3636    1.0000 </r>
       <r>   -3.2931    1.0000 </r>
       <r>   -3.2361    1.0000 </r>
       <r>   -3.0795    1.0000 </r>
       <r>   -3.0180    1.0000 </r>
       <r>   -2.9243    1.0000 </r>
       <r>   -2.8984    1.0000 </r>
       <r>   -2.8245    1.0000 </r>
       <r>   -2.7748    1.0000 </r>
       <r>   -2.7265    1.0000 </r>
       <r>   -2.7072    1.0000 </r>
       <r>   -2.5695    1.0000 </r>
       <r>   -2.4761    1.0000 </r>
       <r>   -2.1393    1.0000 </r>
       <r>   -2.1003    1.0000 </r>
       <r>   -1.6428    1.0000 </r>
       <r>   -1.4957    1.0000 </r>
       <r>   -1.3720    1.0000 </r>
       <r>   -1.2396    1.0000 </r>
       <r>   -1.0135    1.0000 </r>
       <r>   -0.8669    1.0000 </r>
       <r>   -0.5954    1.0000 </r>
       <r>   -0.5090    1.0000 </r>
       <r>   -0.5036    1.0000 </r>
       <r>   -0.3316    1.0000 </r>
       <r>   -0.2352    1.0000 </r>
       <r>   -0.1818    1.0000 </r>
       <r>   -0.1177    1.0000 </r>
       <r>   -0.1074    1.0000 </r>
       <r>   -0.0532    1.0000 </r>
       <r>   -0.0269    1.0000 </r>
       <r>   -0.0063    1.0000 </r>
       <r>    0.0324    1.0000 </r>
       <r>    0.0769    1.0000 </r>
       <r>    0.1587    1.0000 </r>
       <r>    0.1996    1.0000 </r>
       <r>    0.2640    1.0000 </r>
       <r>    0.2646    1.0000 </r>
       <r>    0.3105    1.0000 </r>
       <r>    0.3901    1.0000 </r>
       <r>    0.3964    1.0000 </r>
       <r>    0.4629    1.0000 </r>
       <r>    0.5230    1.0000 </r>
       <r>    0.6197    1.0000 </r>
       <r>    0.6796    1.0000 </r>
       <r>    0.7814    1.0000 </r>
       <r>    0.8312    1.0000 </r>
       <r>    0.9008    1.0000 </r>
       <r>    0.9345    1.0000 </r>
       <r>    0.9877    1.0000 </r>
       <r>    1.0653    1.0000 </r>
       <r>    1.1791    1.0000 </r>
       <r>    1.1989    1.0000 </r>
       <r>    1.2234    1.0000 </r>
       <r>    1.2253    1.0000 </r>
       <r>    1.3112    1.0000 </r>
       <r>    1.3935    1.0000 </r>
       <r>    1.4167    1.0000 </r>
       <r>    1.4555    1.0000 </r>
       <r>    1.4782    1.0000 </r>
       <r>    1.4833    1.0000 </r>
       <r>    1.5370    1.0000 </r>
       <r>    1.6245    1.0000 </r>
       <r>    1.7003    1.0000 </r>
       <r>    1.7176    1.0000 </r>
       <r>    1.7613    1.0000 </r>
       <r>    1.7775    1.0000 </r>
       <r>    2.0054    1.0000 </r>
       <r>    2.0109    1.0000 </r>
       <r>    2.0151    1.0000 </r>
       <r>    2.0557    1.0000 </r>
       <r>    2.1011    1.0000 </r>
       <r>    2.1735    1.0000 </r>
       <r>    2.1884    1.0000 </r>
       <r>    2.2456    1.0000 </r>
       <r>    2.2695    1.0000 </r>
       <r>    2.2944    1.0000 </r>
       <r>    2.3474    1.0000 </r>
       <r>    2.3514    1.0000 </r>
       <r>    2.4075    1.0000 </r>
       <r>    2.4353    1.0000 </r>
       <r>    2.5180    1.0000 </r>
       <r>    2.5847    1.0000 </r>
       <r>    2.7142    1.0000 </r>
       <r>    2.7772    1.0000 </r>
       <r>    2.8475    1.0000 </r>
       <r>    2.9046    1.0000 </r>
       <r>    2.9397    1.0000 </r>
       <r>    3.1344    1.0000 </r>
       <r>    3.2126    1.0000 </r>
       <r>    3.2670    1.0000 </r>
       <r>    3.3934    1.0000 </r>
       <r>    3.4325    1.0000 </r>
       <r>    3.4579    1.0000 </r>
       <r>    3.5295    1.0000 </r>
       <r>    3.5914    1.0000 </r>
       <r>    3.6218    0.8837 </r>
       <r>    3.7645    0.0000 </r>
       <r>    3.8675    0.0000 </r>
       <r>    3.8810    0.0000 </r>
       <r>    3.9553    0.0000 </r>
       <r>    4.0476    0.0000 </r>
       <r>    4.1337    0.0000 </r>
       <r>    4.1547    0.0000 </r>
       <r>    4.2992    0.0000 </r>
       <r>    4.2995    0.0000 </r>
       <r>    4.3973    0.0000 </r>
       <r>    4.4212    0.0000 </r>
       <r>    4.4550    0.0000 </r>
       <r>    4.5074    0.0000 </r>
       <r>    4.6286    0.0000 </r>
       <r>    4.6655    0.0000 </r>
       <r>    4.6783    0.0000 </r>
       <r>    4.7496    0.0000 </r>
       <r>    4.8113    0.0000 </r>
       <r>    4.8798    0.0000 </r>
       <r>    4.9394    0.0000 </r>
       <r>    4.9672    0.0000 </r>
       <r>    5.0458    0.0000 </r>
       <r>    5.0469    0.0000 </r>
       <r>    5.0864    0.0000 </r>
       <r>    5.1783    0.0000 </r>
       <r>    5.2675    0.0000 </r>
       <r>    5.2891    0.0000 </r>
       <r>    5.3756    0.0000 </r>
       <r>    5.4275    0.0000 </r>
       <r>    5.4345    0.0000 </r>
       <r>    5.4609    0.0000 </r>
      </set>
      <set comment="kpoint 2">
       <r>   -8.7446    1.0000 </r>
       <r>   -8.2899    1.0000 </r>
       <r>   -8.2181    1.0000 </r>
       <r>   -8.0203    1.0000 </r>
       <r>   -7.9794    1.0000 </r>
       <r>   -7.7395    1.0000 </r>
       <r>   -7.6439    1.0000 </r>
       <r>   -7.6284    1.0000 </r>
       <r>   -7.4547    1.0000 </r>
       <r>   -7.3274    1.0000 </r>
       <r>   -7.3209    1.0000 </r>
       <r>   -7.2323    1.0000 </r>
       <r>   -7.1351    1.0000 </r>
       <r>   -6.9623    1.0000 </r>
       <r>   -6.9578    1.0000 </r>
       <r>   -6.9031    1.0000 </r>
       <r>   -6.8184    1.0000 </r>
       <r>   -6.6961    1.0000 </r>
       <r>   -6.6041    1.0000 </r>
       <r>   -6.4489    1.0000 </r>
       <r>   -6.3891    1.0000 </r>
       <r>   -6.0139    1.0000 </r>
       <r>   -5.9961    1.0000 </r>
       <r>   -5.9578    1.0000 </r>
       <r>   -5.9172    1.0000 </r>
       <r>   -5.8642    1.0000 </r>
       <r>   -5.7528    1.0000 </r>
       <r>   -5.6215    1.0000 </r>
       <r>   -5.5892    1.0000 </r>
       <r>   -5.4853    1.0000 </r>
       <r>   -5.3191    1.0000 </r>
       <r>   -5.2574    1.0000 </r>
       <r>   -5.1992    1.0000 </r>
       <r>   -5.0877    1.0000 </r>
       <r>   -4.9392    1.0000 </r>
       <r>   -4.7502    1.0000 </r>
       <r>   -4.6975    1.0000 </r>
       <r>   -4.6860    1.0000 </r>
       <r>   -4.5369    1.0000 </r>
       <r>   -4.3174    1.0000 </r>
       <r>   -4.2090    1.0000 </r>
       <r>   -4.1034    1.0000 </r>
       <r>   -4.0888    1.0000 </r>
       <r>   -3.9530    1.0000 </r>
       <r>   -3.7539    1.0000 </r>
       <r>   -3.4744    1.0000 </r>
       <r>   -3.4711    1.0000 </r>
       <r>   -3.3322    1.0000 </r>
       <r>   -3.1653    1.0000 </r>
       <r>   -3.1637    1.0000 </r>
       <r>   -3.1130    1.0000 </r>
       <r>   -2.9990    1.0000 </r>
       <r>   -2.9916    1.0000 </r>
       <r>   -2.8578    1.0000 </r>
       <r>   -2.8504    1.0000 </r>
       <r>   -2.7781    1.0000 </r>
       <r>   -2.5376    1.0000 </r>
       <r>   -2.4721    1.0000 </r>
       <r>   -2.4552    1.0000 </r>
       <r>   -2.2460    1.0000 </r>
       <r>   -2.2265    1.0000 </r>
       <r>   -2.1569    1.0000 </r>
       <r>   -1.9563    1.0000 </r>
       <r>   -1.5272    1.0000 </r>
       <r>   -1.4774    1.0000 </r>
       <r>   -1.4338    1.0000 </r>
       <r>   -1.2460    1.0000 </r>
       <r>   -0.9581    1.0000 </r>
       <r>   -0.9543    1.0000 </r>
       <r>   -0.6255    1.0000 </r>
       <r>   -0.6078    1.0000 </r>
       <r>   -0.5463    1.0000 </r>
       <r>   -0.3749    1.0000 </r>
       <r>   -0.3406    1.0000 </r>
       <r>   -0.2445    1.0000 </r>
       <r>   -0.2352    1.0000 </r>
       <r>   -0.1709    1.0000 </r>
       <r>   -0.1443    1.0000 </r>
       <r>   -0.1039    1.0000 </r>
       <r>   -0.0768    1.0000 </r>
       <r>   -0.0072    1.0000 </r>
       <r>    0.0294    1.0000 </r>
       <r>    0.0996    1.0000 </r>
       <r>    0.1377    1.0000 </r>
       <r>    0.1802    1.0000 </r>
       <r>    0.3024    1.0000 </r>
       <r>    0.3725    1.0000 </r>
       <r>    0.4075    1.0000 </r>
       <r>    0.4287    1.0000 </r>
       <r>    0.5104    1.0000 </r>
       <r>    0.5597    1.0000 </r>
       <r>    0.5681    1.0000 </r>
       <r>    0.6651    1.0000 </r>
       <r>    0.6693    1.0000 </r>
       <r>    0.7372    1.0000 </r>
       <r>    0.7478    1.0000 </r>
       <r>    0.8217    1.0000 </r>
       <r>    0.8428    1.0000 </r>
       <r>    0.8963    1.0000 </r>
       <r>    0.9675    1.0000 </r>
       <r>    1.0213    1.0000 </r>
       <r>    1.0575    1.0000 </r>
       <r>    1.0985    1.0000 </r>
       <r>    1.1166    1.0000 </r>
       <r>    1.2042    1.0000 </r>
       <r>    1.2436    1.0000 </r>
       <r>    1.2587    1.0000 </r>
       <r>    1.3139    1.0000 </r>
       <r>    1.3324    1.0000 </r>
       <r>    1.3571    1.0000 </r>
       <r>    1.3714    1.0000 </r>
       <r>    1.5012    1.0000 </r>
       <r>    1.5343    1.0000 </r>
       <r>    1.5756    1.0000 </r>
       <r>    1.5780    1.0000 </r>
       <r>    1.6232    1.0000 </r>
       <r>    1.7242    1.0000 </r>
       <r>    1.7400    1.0000 </r>
       <r>    1.8073    1.0000 </r>
       <r>    1.8433    1.0000 </r>
       <r>    1.9760    1.0000 </r>
       <r>    1.9960    1.0000 </r>
       <r>    2.1138    1.0000 </r>
       <r>    2.1911    1.0000 </r>
       <r>    2.2450    1.0000 </r>
       <r>    2.2513    1.0000 </r>
       <r>    2.4130    1.0000 </r>
       <r>    2.4251    1.0000 </r>
       <r>    2.4718    1.0000 </r>
       <r>    2.5765    1.0000 </r>
       <r>    2.5993    1.0000 </r>
       <r>    2.6539    1.0000 </r>
       <r>    2.8058    1.0000 </r>
       <r>    2.9045    1.0000 </r>
       <r>    2.9315    1.0000 </r>
       <r>    3.0228    1.0000 </r>
       <r>    3.0238    1.0000 </r>
       <r>    3.1136    1.0000 </r>
       <r>    3.2493    1.0000 </r>
       <r>    3.3284    1.0000 </r>
       <r>    3.3364    1.0000 </r>
       <r>    3.3563    1.0000 </r>
       <r>    3.4178    1.0000 </r>
       <r>    3.5614    1.0000 </r>
       <r>    3.6042    0.9999 </r>
       <r>    3.6873    0.0000 </r>
       <r>    3.8549    0.0000 </r>
       <r>    3.9470    0.0000 </r>
       <r>    4.0582    0.0000 </r>
       <r>    4.0915    0.0000 </r>
       <r>    4.1268    0.0000 </r>
       <r>    4.2310    0.0000 </r>
       <r>    4.3576    0.0000 </r>
       <r>    4.3973    0.0000 </r>
       <r>    4.4317    0.0000 </r>
       <r>    4.4893    0.0000 </r>
       <r>    4.5303    0.0000 </r>
       <r>    4.5519    0.0000 </r>
       <r>    4.6653    0.0000 </r>
       <r>    4.7957    0.0000 </r>
       <r>    4.7987    0.0000 </r>
       <r>    4.9224    0.0000 </r>
       <r>    4.9479    0.0000 </r>
       <r>    5.0437    0.0000 </r>
       <r>    5.0706    0.0000 </r>
       <r>    5.1474    0.0000 </r>
       <r>    5.1706    0.0000 </r>
       <r>    5.2475    0.0000 </r>
       <r>    5.3316    0.0000 </r>
       <r>    5.4069    0.0000 </r>
       <r>    5.5044    0.0000 </r>
       <r>    5.5365    0.0000 </r>
       <r>    5.6072    0.0000 </r>
       <r>    5.6382    0.0000 </r>
       <r>    5.7306    0.0000 </r>
       <r>    5.7943    0.0000 </r>
      </set>
      <set comment="kpoint 3">
       <r>   -8.4243    1.0000 </r>
       <r>   -8.4243    1.0000 </r>
       <r>   -8.0006    1.0000 </r>
       <r>   -8.0006    1.0000 </r>
       <r>   -7.8918    1.0000 </r>
       <r>   -7.8918    1.0000 </r>
       <r>   -7.7358    1.0000 </r>
       <r>   -7.7358    1.0000 </r>
       <r>   -7.4929    1.0000 </r>
       <r>   -7.4929    1.0000 </r>
       <r>   -7.3390    1.0000 </r>
       <r>   -7.3390    1.0000 </r>
       <r>   -7.0450    1.0000 </r>
       <r>   -7.0450    1.0000 </r>
       <r>   -6.9490    1.0000 </r>
       <r>   -6.9490    1.0000 </r>
       <r>   -6.6125    1.0000 </r>
       <r>   -6.6125    1.0000 </r>
       <r>   -6.5437    1.0000 </r>
       <r>   -6.5437    1.0000 </r>
       <r>   -6.5204    1.0000 </r>
       <r>   -6.5204    1.0000 </r>
       <r>   -6.1708    1.0000 </r>
       <r>   -6.1708    1.0000 </r>
       <r>   -5.9098    1.0000 </r>
       <r>   -5.9098    1.0000 </r>
       <r>   -5.6600    1.0000 </r>
       <r>   -5.6600    1.0000 </r>
       <r>   -5.4352    1.0000 </r>
       <r>   -5.4352    1.0000 </r>
       <r>   -5.2930    1.0000 </r>
       <r>   -5.2930    1.0000 </r>
       <r>   -5.1746    1.0000 </r>
       <r>   -5.1746    1.0000 </r>
       <r>   -4.9130    1.0000 </r>
       <r>   -4.9130    1.0000 </r>
       <r>   -4.5772    1.0000 </r>
       <r>   -4.5772    1.0000 </r>
       <r>   -4.4741    1.0000 </r>
       <r>   -4.4741    1.0000 </r>
       <r>   -3.9652    1.0000 </r>
       <r>   -3.9652    1.0000 </r>
       <r>   -3.6736    1.0000 </r>
       <r>   -3.6736    1.0000 </r>
       <r>   -3.5876    1.0000 </r>
       <r>   -3.5876    1.0000 </r>
       <r>   -3.4651    1.0000 </r>
       <r>   -3.4651    1.0000 </r>
       <r>   -3.1117    1.0000 </r>
       <r>   -3.1117    1.0000 </r>
       <r>   -2.9642    1.0000 </r>
       <r>   -2.9642    1.0000 </r>
       <r>   -2.8892    1.0000 </r>
       <r>   -2.8892    1.0000 </r>
       <r>   -2.5907    1.0000 </r>
       <r>   -2.5907    1.0000 </r>
       <r>   -2.5250    1.0000 </r>
       <r>   -2.5250    1.0000 </r>
       <r>   -1.8750    1.0000 </r>
       <r>   -1.8750    1.0000 </r>
       <r>   -1.7966    1.0000 </r>
       <r>   -1.7966    1.0000 </r>
       <r>   -1.5406    1.0000 </r>
       <r>   -1.5406    1.0000 </r>
       <r>   -1.3351    1.0000 </r>
       <r>   -1.3351    1.0000 </r>
       <r>   -1.2102    1.0000 </r>
       <r>   -1.2102    1.0000 </r>
       <r>   -1.0220    1.0000 </r>
       <r>   -1.0220    1.0000 </r>
       <r>   -0.7458    1.0000 </r>
       <r>   -0.7458    1.0000 </r>
       <r>   -0.4757    1.0000 </r>
       <r>   -0.4757    1.0000 </r>
       <r>   -0.3827    1.0000 </r>
       <r>   -0.3827    1.0000 </r>
       <r>   -0.3032    1.0000 </r>
       <r>   -0.3032    1.0000 </r>
       <r>   -0.1729    1.0000 </r>
       <r>   -0.1729    1.0000 </r>
       <r>   -0.1000    1.0000 </r>
       <r>   -0.1000    1.0000 </r>
       <r>    0.0436    1.0000 </r>
       <r>    0.0436    1.0000 </r>
       <r>    0.1328    1.0000 </r>
       <r>    0.1328    1.0000 </r>
       <r>    0.1974    1.0000 </r>
       <r>    0.1974    1.0000 </r>
       <r>    0.2811    1.0000 </r>
       <r>    0.2811    1.0000 </r>
       <r>    0.3590    1.0000 </r>
       <r>    0.3590    1.0000 </r>
       <r>    0.5749    1.0000 </r>
       <r>    0.5749    1.0000 </r>
       <r>    0.6455    1.0000 </r>
       <r>    0.6455    1.0000 </r>
       <r>    0.7312    1.0000 </r>
       <r>    0.7312    1.0000 </r>
       <r>    0.7850    1.0000 </r>
       <r>    0.7850    1.0000 </r>
       <r>    0.9654    1.0000 </r>
       <r>    0.9654    1.0000 </r>
       <r>    1.0460    1.0000 </r>
       <r>    1.0460    1.0000 </r>
       <r>    1.1560    1.0000 </r>
       <r>    1.1560    1.0000 </r>
       <r>    1.2220    1.0000 </r>
       <r>    1.2220    1.0000 </r>
       <r>    1.3348    1.0000 </r>
       <r>    1.3348    1.0000 </r>
       <r>    1.3569    1.0000 </r>
       <r>    1.3569    1.0000 </r>
       <r>    1.3905    1.0000 </r>
       <r>    1.3905    1.0000 </r>
       <r>    1.6306    1.0000 </r>
       <r>    1.6307    1.0000 </r>
       <r>    1.6557    1.0000 </r>
       <r>    1.6557    1.0000 </r>
       <r>    1.7834    1.0000 </r>
       <r>    1.7834    1.0000 </r>
       <r>    1.9202    1.0000 </r>
       <r>    1.9202    1.0000 </r>
       <r>    2.0717    1.0000 </r>
       <r>    2.0717    1.0000 </r>
       <r>    2.1813    1.0000 </r>
       <r>    2.1813    1.0000 </r>
       <r>    2.3651    1.0000 </r>
       <r>    2.3651    1.0000 </r>
       <r>    2.5692    1.0000 </r>
       <r>    2.5692    1.0000 </r>
       <r>    2.6466    1.0000 </r>
       <r>    2.6466    1.0000 </r>
       <r>    2.7282    1.0000 </r>
       <r>    2.7282    1.0000 </r>
       <r>    2.9562    1.0000 </r>
       <r>    2.9562    1.0000 </r>
       <r>    3.0630    1.0000 </r>
       <r>    3.0630    1.0000 </r>
       <r>    3.1594    1.0000 </r>
       <r>    3.1594    1.0000 </r>
       <r>    3.3623    1.0000 </r>
       <r>    3.3623    1.0000 </r>
       <r>    3.4749    1.0000 </r>
       <r>    3.4749    1.0000 </r>
       <r>    3.6493    0.0036 </r>
       <r>    3.6493    0.0036 </r>
       <r>    3.8007    0.0000 </r>
       <r>    3.8007    0.0000 </r>
       <r>    3.9265    0.0000 </r>
       <r>    3.9265    0.0000 </r>
       <r>    4.0896    0.0000 </r>
       <r>    4.0897    0.0000 </r>
       <r>    4.2925    0.0000 </r>
       <r>    4.2925    0.0000 </r>
       <r>    4.4307    0.0000 </r>
       <r>    4.4307    0.0000 </r>
       <r>    4.5715    0.0000 </r>
       <r>    4.5715    0.0000 </r>
       <r>    4.6987    0.0000 </r>
       <r>    4.6987    0.0000 </r>
       <r>    4.7855    0.0000 </r>
       <r>    4.7855    0.0000 </r>
       <r>    4.9929    0.0000 </r>
       <r>    4.9929    0.0000 </r>
       <r>    5.1976    0.0000 </r>
       <r>    5.1976    0.0000 </r>
       <r>    5.3982    0.0000 </r>
       <r>    5.3982    0.0000 </r>
       <r>    5.4486    0.0000 </r>
       <r>    5.4486    0.0000 </r>
       <r>    5.5922    0.0000 </r>
       <r>    5.5922    0.0000 </r>
       <r>    5.6852    0.0000 </r>
       <r>    5.6852    0.0000 </r>
       <r>    5.9749    0.0000 </r>
       <r>    5.9783    0.0000 </r>
      </set>
      <set comment="kpoint 4">
       <r>   -8.8053    1.0000 </r>
       <r>   -8.6220    1.0000 </r>
       <r>   -8.1776    1.0000 </r>
       <r>   -7.9471    1.0000 </r>
       <r>   -7.8432    1.0000 </r>
       <r>   -7.7193    1.0000 </r>
       <r>   -7.7136    1.0000 </r>
       <r>   -7.6121    1.0000 </r>
       <r>   -7.4116    1.0000 </r>
       <r>   -7.4025    1.0000 </r>
       <r>   -7.2904    1.0000 </r>
       <r>   -7.1975    1.0000 </r>
       <r>   -6.9664    1.0000 </r>
       <r>   -6.9535    1.0000 </r>
       <r>   -6.9422    1.0000 </r>
       <r>   -6.8696    1.0000 </r>
       <r>   -6.6748    1.0000 </r>
       <r>   -6.6281    1.0000 </r>
       <r>   -6.5530    1.0000 </r>
       <r>   -6.3438    1.0000 </r>
       <r>   -6.0678    1.0000 </r>
       <r>   -6.0589    1.0000 </r>
       <r>   -5.9798    1.0000 </r>
       <r>   -5.9161    1.0000 </r>
       <r>   -5.8923    1.0000 </r>
       <r>   -5.8200    1.0000 </r>
       <r>   -5.7858    1.0000 </r>
       <r>   -5.6580    1.0000 </r>
       <r>   -5.6464    1.0000 </r>
       <r>   -5.5678    1.0000 </r>
       <r>   -5.3330    1.0000 </r>
       <r>   -5.1849    1.0000 </r>
       <r>   -5.1011    1.0000 </r>
       <r>   -4.9684    1.0000 </r>
       <r>   -4.9438    1.0000 </r>
       <r>   -4.8058    1.0000 </r>
       <r>   -4.7748    1.0000 </r>
       <r>   -4.6570    1.0000 </r>
       <r>   -4.5612    1.0000 </r>
       <r>   -4.2872    1.0000 </r>
       <r>   -4.2640    1.0000 </r>
       <r>   -4.2382    1.0000 </r>
       <r>   -4.1476    1.0000 </r>
       <r>   -4.0751    1.0000 </r>
       <r>   -3.7305    1.0000 </r>
       <r>   -3.7071    1.0000 </r>
       <r>   -3.5932    1.0000 </r>
       <r>   -3.5031    1.0000 </r>
       <r>   -3.4657    1.0000 </r>
       <r>   -3.4151    1.0000 </r>
       <r>   -3.3612    1.0000 </r>
       <r>   -3.3546    1.0000 </r>
       <r>   -2.9458    1.0000 </r>
       <r>   -2.8867    1.0000 </r>
       <r>   -2.7580    1.0000 </r>
       <r>   -2.7054    1.0000 </r>
       <r>   -2.6572    1.0000 </r>
       <r>   -2.6533    1.0000 </r>
       <r>   -2.6003    1.0000 </r>
       <r>   -2.4967    1.0000 </r>
       <r>   -2.2553    1.0000 </r>
       <r>   -2.1684    1.0000 </r>
       <r>   -2.0784    1.0000 </r>
       <r>   -1.9984    1.0000 </r>
       <r>   -1.5377    1.0000 </r>
       <r>   -1.4464    1.0000 </r>
       <r>   -1.1912    1.0000 </r>
       <r>   -1.1620    1.0000 </r>
       <r>   -0.8009    1.0000 </r>
       <r>   -0.7386    1.0000 </r>
       <r>   -0.5204    1.0000 </r>
       <r>   -0.3468    1.0000 </r>
       <r>   -0.3358    1.0000 </r>
       <r>   -0.2693    1.0000 </r>
       <r>   -0.2099    1.0000 </r>
       <r>   -0.1477    1.0000 </r>
       <r>   -0.1353    1.0000 </r>
       <r>   -0.0226    1.0000 </r>
       <r>    0.0276    1.0000 </r>
       <r>    0.0764    1.0000 </r>
       <r>    0.1768    1.0000 </r>
       <r>    0.2202    1.0000 </r>
       <r>    0.2472    1.0000 </r>
       <r>    0.2582    1.0000 </r>
       <r>    0.3174    1.0000 </r>
       <r>    0.3669    1.0000 </r>
       <r>    0.3981    1.0000 </r>
       <r>    0.4902    1.0000 </r>
       <r>    0.4911    1.0000 </r>
       <r>    0.5502    1.0000 </r>
       <r>    0.6338    1.0000 </r>
       <r>    0.6620    1.0000 </r>
       <r>    0.6651    1.0000 </r>
       <r>    0.8022    1.0000 </r>
       <r>    0.8260    1.0000 </r>
       <r>    0.9375    1.0000 </r>
       <r>    0.9653    1.0000 </r>
       <r>    1.0156    1.0000 </r>
       <r>    1.0414    1.0000 </r>
       <r>    1.1137    1.0000 </r>
       <r>    1.1139    1.0000 </r>
       <r>    1.1573    1.0000 </r>
       <r>    1.1825    1.0000 </r>
       <r>    1.1880    1.0000 </r>
       <r>    1.3176    1.0000 </r>
       <r>    1.3873    1.0000 </r>
       <r>    1.4019    1.0000 </r>
       <r>    1.4817    1.0000 </r>
       <r>    1.4859    1.0000 </r>
       <r>    1.5691    1.0000 </r>
       <r>    1.6277    1.0000 </r>
       <r>    1.6351    1.0000 </r>
       <r>    1.6945    1.0000 </r>
       <r>    1.7179    1.0000 </r>
       <r>    1.7654    1.0000 </r>
       <r>    1.8452    1.0000 </r>
       <r>    1.8668    1.0000 </r>
       <r>    1.8918    1.0000 </r>
       <r>    1.8968    1.0000 </r>
       <r>    1.9715    1.0000 </r>
       <r>    1.9953    1.0000 </r>
       <r>    2.0424    1.0000 </r>
       <r>    2.0888    1.0000 </r>
       <r>    2.1732    1.0000 </r>
       <r>    2.1977    1.0000 </r>
       <r>    2.2975    1.0000 </r>
       <r>    2.4088    1.0000 </r>
       <r>    2.4358    1.0000 </r>
       <r>    2.4711    1.0000 </r>
       <r>    2.5525    1.0000 </r>
       <r>    2.6655    1.0000 </r>
       <r>    2.6979    1.0000 </r>
       <r>    2.7516    1.0000 </r>
       <r>    2.8840    1.0000 </r>
       <r>    2.8954    1.0000 </r>
       <r>    2.9918    1.0000 </r>
       <r>    3.1437    1.0000 </r>
       <r>    3.1596    1.0000 </r>
       <r>    3.2559    1.0000 </r>
       <r>    3.3733    1.0000 </r>
       <r>    3.4477    1.0000 </r>
       <r>    3.4993    1.0000 </r>
       <r>    3.5687    1.0000 </r>
       <r>    3.6498    0.0029 </r>
       <r>    3.6579    0.0000 </r>
       <r>    3.7676    0.0000 </r>
       <r>    3.8167    0.0000 </r>
       <r>    3.8739    0.0000 </r>
       <r>    4.1221    0.0000 </r>
       <r>    4.1369    0.0000 </r>
       <r>    4.1896    0.0000 </r>
       <r>    4.2185    0.0000 </r>
       <r>    4.2320    0.0000 </r>
       <r>    4.3543    0.0000 </r>
       <r>    4.4546    0.0000 </r>
       <r>    4.4845    0.0000 </r>
       <r>    4.5633    0.0000 </r>
       <r>    4.6050    0.0000 </r>
       <r>    4.6279    0.0000 </r>
       <r>    4.6853    0.0000 </r>
       <r>    4.8482    0.0000 </r>
       <r>    4.8550    0.0000 </r>
       <r>    4.8763    0.0000 </r>
       <r>    4.9561    0.0000 </r>
       <r>    4.9645    0.0000 </r>
       <r>    5.0364    0.0000 </r>
       <r>    5.0826    0.0000 </r>
       <r>    5.1874    0.0000 </r>
       <r>    5.2724    0.0000 </r>
       <r>    5.2741    0.0000 </r>
       <r>    5.3068    0.0000 </r>
       <r>    5.3972    0.0000 </r>
       <r>    5.4109    0.0000 </r>
       <r>    5.4704    0.0000 </r>
       <r>    5.4871    0.0000 </r>
       <r>    5.5316    0.0000 </r>
      </set>
      <set comment="kpoint 5">
       <r>   -8.6944    1.0000 </r>
       <r>   -8.5058    1.0000 </r>
       <r>   -8.0859    1.0000 </r>
       <r>   -7.9525    1.0000 </r>
       <r>   -7.8543    1.0000 </r>
       <r>   -7.7425    1.0000 </r>
       <r>   -7.7005    1.0000 </r>
       <r>   -7.6020    1.0000 </r>
       <r>   -7.4978    1.0000 </r>
       <r>   -7.4950    1.0000 </r>
       <r>   -7.3014    1.0000 </r>
       <r>   -7.2975    1.0000 </r>
       <r>   -7.0985    1.0000 </r>
       <r>   -7.0935    1.0000 </r>
       <r>   -6.8647    1.0000 </r>
       <r>   -6.8433    1.0000 </r>
       <r>   -6.6461    1.0000 </r>
       <r>   -6.5742    1.0000 </r>
       <r>   -6.5736    1.0000 </r>
       <r>   -6.5097    1.0000 </r>
       <r>   -6.4586    1.0000 </r>
       <r>   -6.2213    1.0000 </r>
       <r>   -5.9858    1.0000 </r>
       <r>   -5.9721    1.0000 </r>
       <r>   -5.9219    1.0000 </r>
       <r>   -5.9036    1.0000 </r>
       <r>   -5.7282    1.0000 </r>
       <r>   -5.6796    1.0000 </r>
       <r>   -5.6039    1.0000 </r>
       <r>   -5.5440    1.0000 </r>
       <r>   -5.2782    1.0000 </r>
       <r>   -5.1124    1.0000 </r>
       <r>   -5.0922    1.0000 </r>
       <r>   -4.9562    1.0000 </r>
       <r>   -4.8849    1.0000 </r>
       <r>   -4.8825    1.0000 </r>
       <r>   -4.7691    1.0000 </r>
       <r>   -4.6162    1.0000 </r>
       <r>   -4.5723    1.0000 </r>
       <r>   -4.3656    1.0000 </r>
       <r>   -4.2056    1.0000 </r>
       <r>   -4.0929    1.0000 </r>
       <r>   -4.0029    1.0000 </r>
       <r>   -3.7251    1.0000 </r>
       <r>   -3.7219    1.0000 </r>
       <r>   -3.6046    1.0000 </r>
       <r>   -3.5128    1.0000 </r>
       <r>   -3.4872    1.0000 </r>
       <r>   -3.3575    1.0000 </r>
       <r>   -3.3158    1.0000 </r>
       <r>   -3.3033    1.0000 </r>
       <r>   -3.0325    1.0000 </r>
       <r>   -2.8750    1.0000 </r>
       <r>   -2.7840    1.0000 </r>
       <r>   -2.6699    1.0000 </r>
       <r>   -2.6236    1.0000 </r>
       <r>   -2.5274    1.0000 </r>
       <r>   -2.3825    1.0000 </r>
       <r>   -2.2927    1.0000 </r>
       <r>   -2.2864    1.0000 </r>
       <r>   -2.2376    1.0000 </r>
       <r>   -2.1419    1.0000 </r>
       <r>   -2.0703    1.0000 </r>
       <r>   -1.9229    1.0000 </r>
       <r>   -1.5765    1.0000 </r>
       <r>   -1.3117    1.0000 </r>
       <r>   -1.2193    1.0000 </r>
       <r>   -1.1192    1.0000 </r>
       <r>   -0.8023    1.0000 </r>
       <r>   -0.7333    1.0000 </r>
       <r>   -0.5456    1.0000 </r>
       <r>   -0.4892    1.0000 </r>
       <r>   -0.3582    1.0000 </r>
       <r>   -0.3035    1.0000 </r>
       <r>   -0.2681    1.0000 </r>
       <r>   -0.1934    1.0000 </r>
       <r>   -0.1073    1.0000 </r>
       <r>   -0.0963    1.0000 </r>
       <r>   -0.0244    1.0000 </r>
       <r>    0.0078    1.0000 </r>
       <r>    0.0935    1.0000 </r>
       <r>    0.1555    1.0000 </r>
       <r>    0.2126    1.0000 </r>
       <r>    0.2736    1.0000 </r>
       <r>    0.2904    1.0000 </r>
       <r>    0.3307    1.0000 </r>
       <r>    0.3745    1.0000 </r>
       <r>    0.3907    1.0000 </r>
       <r>    0.4564    1.0000 </r>
       <r>    0.4745    1.0000 </r>
       <r>    0.5272    1.0000 </r>
       <r>    0.5874    1.0000 </r>
       <r>    0.6103    1.0000 </r>
       <r>    0.6851    1.0000 </r>
       <r>    0.6863    1.0000 </r>
       <r>    0.7849    1.0000 </r>
       <r>    0.8289    1.0000 </r>
       <r>    0.8717    1.0000 </r>
       <r>    0.9210    1.0000 </r>
       <r>    0.9320    1.0000 </r>
       <r>    1.0060    1.0000 </r>
       <r>    1.0153    1.0000 </r>
       <r>    1.0368    1.0000 </r>
       <r>    1.0636    1.0000 </r>
       <r>    1.1516    1.0000 </r>
       <r>    1.2048    1.0000 </r>
       <r>    1.2733    1.0000 </r>
       <r>    1.3390    1.0000 </r>
       <r>    1.3409    1.0000 </r>
       <r>    1.3929    1.0000 </r>
       <r>    1.4372    1.0000 </r>
       <r>    1.4517    1.0000 </r>
       <r>    1.5341    1.0000 </r>
       <r>    1.5615    1.0000 </r>
       <r>    1.5806    1.0000 </r>
       <r>    1.6372    1.0000 </r>
       <r>    1.6770    1.0000 </r>
       <r>    1.7152    1.0000 </r>
       <r>    1.7382    1.0000 </r>
       <r>    1.7892    1.0000 </r>
       <r>    1.8199    1.0000 </r>
       <r>    1.8576    1.0000 </r>
       <r>    1.9433    1.0000 </r>
       <r>    2.0047    1.0000 </r>
       <r>    2.1436    1.0000 </r>
       <r>    2.1842    1.0000 </r>
       <r>    2.2297    1.0000 </r>
       <r>    2.3261    1.0000 </r>
       <r>    2.3745    1.0000 </r>
       <r>    2.4944    1.0000 </r>
       <r>    2.5999    1.0000 </r>
       <r>    2.6542    1.0000 </r>
       <r>    2.6565    1.0000 </r>
       <r>    2.9020    1.0000 </r>
       <r>    2.9345    1.0000 </r>
       <r>    3.0152    1.0000 </r>
       <r>    3.0695    1.0000 </r>
       <r>    3.1114    1.0000 </r>
       <r>    3.2025    1.0000 </r>
       <r>    3.3336    1.0000 </r>
       <r>    3.4257    1.0000 </r>
       <r>    3.5190    1.0000 </r>
       <r>    3.6066    0.9996 </r>
       <r>    3.6170    0.9701 </r>
       <r>    3.6585    0.0000 </r>
       <r>    3.7508    0.0000 </r>
       <r>    3.7812    0.0000 </r>
       <r>    3.9820    0.0000 </r>
       <r>    3.9933    0.0000 </r>
       <r>    4.2059    0.0000 </r>
       <r>    4.2500    0.0000 </r>
       <r>    4.2664    0.0000 </r>
       <r>    4.3135    0.0000 </r>
       <r>    4.4716    0.0000 </r>
       <r>    4.5048    0.0000 </r>
       <r>    4.5549    0.0000 </r>
       <r>    4.6698    0.0000 </r>
       <r>    4.7530    0.0000 </r>
       <r>    4.7925    0.0000 </r>
       <r>    4.8406    0.0000 </r>
       <r>    4.8661    0.0000 </r>
       <r>    4.9732    0.0000 </r>
       <r>    5.0011    0.0000 </r>
       <r>    5.0860    0.0000 </r>
       <r>    5.2341    0.0000 </r>
       <r>    5.2717    0.0000 </r>
       <r>    5.3265    0.0000 </r>
       <r>    5.4112    0.0000 </r>
       <r>    5.4828    0.0000 </r>
       <r>    5.5783    0.0000 </r>
       <r>    5.6045    0.0000 </r>
       <r>    5.6210    0.0000 </r>
       <r>    5.7060    0.0000 </r>
       <r>    5.7349    0.0000 </r>
       <r>    5.7661    0.0000 </r>
[...]
       <r>    -9.6016     0.0000     0.0000 </r>
       <r>    -9.5470     0.0000     0.0000 </r>
       <r>    -9.4924     0.0000     0.0000 </r>
       <r>    -9.4378     0.0000     0.0000 </r>
       <r>    -9.3832     0.0000     0.0000 </r>
       <r>    -9.3286     0.0000     0.0000 </r>
       <r>    -9.2740     0.0000     0.0000 </r>
       <r>    -9.2194     0.0000     0.0000 </r>
       <r>    -9.1648     0.0000     0.0000 </r>
       <r>    -9.1102     0.0000     0.0000 </r>
       <r>    -9.0556     0.0000     0.0000 </r>
       <r>    -9.0010     0.0000     0.0000 </r>
       <r>    -8.9464     0.0000     0.0000 </r>
       <r>    -8.8918     0.0000     0.0000 </r>
       <r>    -8.8372     2.1723     0.1186 </r>
       <r>    -8.7826     4.6306     0.3715 </r>
       <r>    -8.7280     6.2541     0.7129 </r>
       <r>    -8.6734     9.5050     1.2319 </r>
       <r>    -8.6188     5.0317     1.5067 </r>
       <r>    -8.5642     4.4561     1.7500 </r>
       <r>    -8.5096     0.2461     1.7634 </r>
       <r>    -8.4550    11.1458     2.3720 </r>
       <r>    -8.4004     4.7077     2.6291 </r>
       <r>    -8.3458    18.1946     3.6226 </r>
       <r>    -8.2912     9.1480     4.1221 </r>
       <r>    -8.2366     9.6801     4.6507 </r>
       <r>    -8.1820     6.9272     5.0289 </r>
       <r>    -8.1274    15.6492     5.8834 </r>
       <r>    -8.0727    14.3456     6.6667 </r>
       <r>    -8.0181     3.5733     6.8618 </r>
       <r>    -7.9635    17.7107     7.8289 </r>
       <r>    -7.9089    18.5273     8.8405 </r>
       <r>    -7.8543    10.6554     9.4223 </r>
       <r>    -7.7997    22.0072    10.6240 </r>
       <r>    -7.7451     7.1232    11.0129 </r>
       <r>    -7.6905    38.6031    13.1208 </r>
       <r>    -7.6359    15.6839    13.9771 </r>
       <r>    -7.5813    20.8847    15.1175 </r>
       <r>    -7.5267    14.1474    15.8900 </r>
       <r>    -7.4721    17.6274    16.8525 </r>
       <r>    -7.4175    17.8641    17.8279 </r>
       <r>    -7.3629    13.6875    18.5753 </r>
       <r>    -7.3083    21.7455    19.7627 </r>
       <r>    -7.2537    31.7371    21.4956 </r>
       <r>    -7.1991    16.6925    22.4071 </r>
       <r>    -7.1445    19.1273    23.4515 </r>
       <r>    -7.0899    15.4494    24.2950 </r>
       <r>    -7.0353    17.6557    25.2591 </r>
       <r>    -6.9807    27.3900    26.7547 </r>
       <r>    -6.9261    41.2538    29.0072 </r>
       <r>    -6.8715    23.7388    30.3034 </r>
       <r>    -6.8169    17.1045    31.2374 </r>
       <r>    -6.7623    11.5009    31.8653 </r>
       <r>    -6.7077    25.3667    33.2504 </r>
       <r>    -6.6531    17.2070    34.1900 </r>
       <r>    -6.5985    24.9643    35.5531 </r>
       <r>    -6.5439    30.6255    37.2253 </r>
       <r>    -6.4893    52.7793    40.1072 </r>
       <r>    -6.4347    13.6551    40.8528 </r>
       <r>    -6.3801    12.5829    41.5399 </r>
       <r>    -6.3255    15.3868    42.3800 </r>
       <r>    -6.2709    10.4873    42.9526 </r>
       <r>    -6.2163     6.1876    43.2905 </r>
       <r>    -6.1617    12.2971    43.9620 </r>
       <r>    -6.1071    23.7357    45.2580 </r>
       <r>    -6.0525    17.4120    46.2087 </r>
       <r>    -5.9979    11.6962    46.8474 </r>
       <r>    -5.9433    39.9595    49.0293 </r>
       <r>    -5.8887    38.7881    51.1472 </r>
       <r>    -5.8340    23.2202    52.4151 </r>
       <r>    -5.7794    13.5772    53.1564 </r>
       <r>    -5.7248    19.1216    54.2005 </r>
       <r>    -5.6702    18.7702    55.2254 </r>
       <r>    -5.6156    18.7798    56.2508 </r>
       <r>    -5.5610    17.8423    57.2251 </r>
       <r>    -5.5064    19.9640    58.3152 </r>
       <r>    -5.4518    10.2496    58.8748 </r>
       <r>    -5.3972     6.2260    59.2148 </r>
       <r>    -5.3426    12.3668    59.8900 </r>
       <r>    -5.2880    14.0028    60.6546 </r>
       <r>    -5.2334    17.7174    61.6220 </r>
       <r>    -5.1788    23.1286    62.8849 </r>
       <r>    -5.1242    16.4490    63.7831 </r>
       <r>    -5.0696    29.8665    65.4139 </r>
       <r>    -5.0150     7.5155    65.8243 </r>
       <r>    -4.9604     4.1197    66.0492 </r>
       <r>    -4.9058    24.7464    67.4004 </r>
       <r>    -4.8512    26.7958    68.8635 </r>
       <r>    -4.7966    13.0885    69.5782 </r>
       <r>    -4.7420    22.4175    70.8023 </r>
       <r>    -4.6874    23.4951    72.0852 </r>
       <r>    -4.6328    20.9044    73.2266 </r>
       <r>    -4.5782    21.6004    74.4060 </r>
       <r>    -4.5236    32.8251    76.1984 </r>
       <r>    -4.4690     8.3749    76.6557 </r>
       <r>    -4.4144    22.3490    77.8760 </r>
       <r>    -4.3598     3.5352    78.0690 </r>
       <r>    -4.3052    19.9854    79.1602 </r>
       <r>    -4.2506    18.9032    80.1924 </r>
       <r>    -4.1960    22.1110    81.3997 </r>
       <r>    -4.1414     9.2309    81.9037 </r>
       <r>    -4.0868    24.6015    83.2470 </r>
       <r>    -4.0322    25.1209    84.6187 </r>
       <r>    -3.9776    23.4428    85.8988 </r>
       <r>    -3.9230    14.3900    86.6845 </r>
       <r>    -3.8684     6.2682    87.0268 </r>
       <r>    -3.8138    12.2820    87.6974 </r>
       <r>    -3.7592     7.8392    88.1255 </r>
       <r>    -3.7046    32.5729    89.9040 </r>
       <r>    -3.6500    16.7338    90.8177 </r>
       <r>    -3.5953    14.7116    91.6210 </r>
       <r>    -3.5407    26.6047    93.0737 </r>
       <r>    -3.4861    16.0834    93.9519 </r>
       <r>    -3.4315    43.1515    96.3081 </r>
       <r>    -3.3769    18.1586    97.2996 </r>
       <r>    -3.3223    26.7956    98.7627 </r>
       <r>    -3.2677    23.7214   100.0580 </r>
       <r>    -3.2131    13.3674   100.7879 </r>
       <r>    -3.1585     9.1323   101.2865 </r>
       <r>    -3.1039    11.7604   101.9287 </r>
       <r>    -3.0493    20.9161   103.0708 </r>
       <r>    -2.9947    17.3226   104.0166 </r>
       <r>    -2.9401    26.6462   105.4716 </r>
       <r>    -2.8855    17.6383   106.4347 </r>
       <r>    -2.8309    27.4219   107.9320 </r>
       <r>    -2.7763    16.6345   108.8403 </r>
       <r>    -2.7217    17.7553   109.8097 </r>
       <r>    -2.6671    15.3130   110.6459 </r>
       <r>    -2.6125    15.8307   111.5103 </r>
       <r>    -2.5579    20.1630   112.6112 </r>
       <r>    -2.5033    26.9885   114.0849 </r>
       <r>    -2.4487    14.1030   114.8549 </r>
       <r>    -2.3941    16.5327   115.7576 </r>
       <r>    -2.3395    23.0227   117.0147 </r>
       <r>    -2.2849    14.8427   117.8252 </r>
       <r>    -2.2303    18.1007   118.8135 </r>
       <r>    -2.1757    18.1736   119.8058 </r>
       <r>    -2.1211    16.5802   120.7112 </r>
       <r>    -2.0665     6.7533   121.0799 </r>
       <r>    -2.0119     9.3359   121.5897 </r>
       <r>    -1.9573    19.2778   122.6423 </r>
       <r>    -1.9027    12.6999   123.3357 </r>
       <r>    -1.8481     9.7352   123.8673 </r>
       <r>    -1.7935     6.1413   124.2026 </r>
       <r>    -1.7389    26.8849   125.6706 </r>
       <r>    -1.6843    11.6396   126.3062 </r>
       <r>    -1.6297     8.4851   126.7695 </r>
       <r>    -1.5751    15.3268   127.6064 </r>
       <r>    -1.5205    17.9759   128.5879 </r>
       <r>    -1.4659    18.5115   129.5987 </r>
       <r>    -1.4113    11.6081   130.2325 </r>
       <r>    -1.3566    13.6936   130.9802 </r>
       <r>    -1.3020    11.4110   131.6033 </r>
       <r>    -1.2474    16.8859   132.5253 </r>
       <r>    -1.1928    18.5448   133.5379 </r>
       <r>    -1.1382    15.4189   134.3798 </r>
       <r>    -1.0836     9.3059   134.8879 </r>
       <r>    -1.0290    10.8984   135.4830 </r>
       <r>    -0.9744    13.8766   136.2407 </r>
       <r>    -0.9198    13.4676   136.9760 </r>
       <r>    -0.8652    18.9323   138.0098 </r>
       <r>    -0.8106     8.9717   138.4997 </r>
       <r>    -0.7560    13.1265   139.2164 </r>
       <r>    -0.7014    17.0153   140.1455 </r>
       <r>    -0.6468    11.6146   140.7797 </r>
       <r>    -0.5922    12.2667   141.4495 </r>
       <r>    -0.5376    24.5683   142.7910 </r>
       <r>    -0.4830    20.8788   143.9310 </r>
       <r>    -0.4284    23.3247   145.2046 </r>
       <r>    -0.3738    10.0093   145.7511 </r>
       <r>    -0.3192    44.4193   148.1765 </r>
       <r>    -0.2646    21.1392   149.3308 </r>
       <r>    -0.2100    36.2450   151.3099 </r>
       <r>    -0.1554    32.0732   153.0611 </r>
       <r>    -0.1008    36.1359   155.0343 </r>
       <r>    -0.0462    50.1311   157.7716 </r>
       <r>     0.0084    37.4251   159.8151 </r>
       <r>     0.0630    42.0327   162.1101 </r>
       <r>     0.1176    33.9129   163.9619 </r>
       <r>     0.1722    33.9337   165.8147 </r>
       <r>     0.2268    42.8987   168.1571 </r>
       <r>     0.2814    48.8974   170.8270 </r>
       <r>     0.3360    47.2699   173.4081 </r>
       <r>     0.3906    39.7636   175.5793 </r>
       <r>     0.4452    50.5459   178.3392 </r>
       <r>     0.4998    34.8917   180.2444 </r>
       <r>     0.5544    38.5485   182.3492 </r>
       <r>     0.6090    45.3226   184.8240 </r>
       <r>     0.6636    32.2738   186.5862 </r>
       <r>     0.7182    52.9560   189.4777 </r>
       <r>     0.7728    31.7900   191.2135 </r>
       <r>     0.8274    41.9504   193.5041 </r>
       <r>     0.8820    37.7826   195.5672 </r>
       <r>     0.9367    40.4697   197.7769 </r>
       <r>     0.9913    40.9491   200.0128 </r>
       <r>     1.0459    50.4169   202.7657 </r>
       <r>     1.1005    38.0855   204.8454 </r>
       <r>     1.1551    50.0487   207.5782 </r>
       <r>     1.2097    40.0839   209.7669 </r>
       <r>     1.2643    45.7580   212.2654 </r>
       <r>     1.3189    37.3882   214.3069 </r>
       <r>     1.3735    47.4478   216.8976 </r>
       <r>     1.4281    58.1128   220.0708 </r>
       <r>     1.4827    44.9313   222.5242 </r>
       <r>     1.5373    26.3444   223.9626 </r>
       <r>     1.5919    41.7546   226.2426 </r>
       <r>     1.6465    42.5118   228.5638 </r>
       <r>     1.7011    46.5703   231.1067 </r>
       <r>     1.7557    42.1511   233.4082 </r>
       <r>     1.8103    36.5654   235.4048 </r>
       <r>     1.8649    38.5431   237.5094 </r>
       <r>     1.9195    29.6909   239.1306 </r>
       <r>     1.9741    30.4801   240.7949 </r>
       <r>     2.0287    24.2831   242.1209 </r>
       <r>     2.0833    39.7331   244.2904 </r>
       <r>     2.1379    31.3366   246.0014 </r>
       <r>     2.1925    26.3337   247.4393 </r>
       <r>     2.2471    32.0695   249.1904 </r>
       <r>     2.3017    52.1342   252.0371 </r>
       <r>     2.3563    25.3930   253.4236 </r>
       <r>     2.4109    29.1606   255.0158 </r>
       <r>     2.4655    34.5187   256.9007 </r>
       <r>     2.5201    28.7640   258.4713 </r>
       <r>     2.5747    13.7204   259.2205 </r>
       <r>     2.6293    23.1351   260.4837 </r>
       <r>     2.6839    45.0854   262.9455 </r>
       <r>     2.7385    19.5911   264.0152 </r>
       <r>     2.7931    16.6398   264.9238 </r>
       <r>     2.8477    28.9023   266.5019 </r>
       <r>     2.9023    16.4739   267.4015 </r>
       <r>     2.9569    38.9816   269.5299 </r>
       <r>     3.0115    21.9049   270.7260 </r>
       <r>     3.0661    34.1758   272.5921 </r>
       <r>     3.1207    26.1188   274.0183 </r>
       <r>     3.1754    29.7701   275.6438 </r>
       <r>     3.2300    22.4191   276.8679 </r>
       <r>     3.2846    21.5730   278.0459 </r>
       <r>     3.3392    23.6078   279.3349 </r>
       <r>     3.3938    34.4899   281.2182 </r>
       <r>     3.4484    22.8732   282.4671 </r>
       <r>     3.5030    36.2824   284.4482 </r>
       <r>     3.5576    21.4577   285.6198 </r>
       <r>     3.6122    27.5480   287.1240 </r>
       <r>     3.6668    39.8304   289.2989 </r>
       <r>     3.7214    22.3809   290.5209 </r>
       <r>     3.7760    25.8410   291.9319 </r>
       <r>     3.8306    28.9176   293.5109 </r>
       <r>     3.8852     9.3843   294.0233 </r>
       <r>     3.9398    29.6975   295.6449 </r>
       <r>     3.9944    20.5326   296.7660 </r>
       <r>     4.0490    26.0377   298.1877 </r>
       <r>     4.1036    16.1765   299.0710 </r>
       <r>     4.1582    26.1863   300.5008 </r>
       <r>     4.2128    22.0724   301.7060 </r>
       <r>     4.2674    35.2402   303.6302 </r>
       <r>     4.3220    30.6672   305.3048 </r>
       <r>     4.3766    38.8278   307.4248 </r>
       <r>     4.4312    22.8012   308.6699 </r>
       <r>     4.4858    30.8021   310.3517 </r>
       <r>     4.5404    28.6036   311.9136 </r>
       <r>     4.5950    26.9926   313.3874 </r>
       <r>     4.6496    31.8984   315.1292 </r>
       <r>     4.7042    34.1375   316.9931 </r>
       <r>     4.7588    23.6782   318.2860 </r>
       <r>     4.8134    27.9825   319.8139 </r>
       <r>     4.8680    34.6585   321.7064 </r>
       <r>     4.9226    23.7564   323.0035 </r>
       <r>     4.9772    33.1110   324.8115 </r>
       <r>     5.0318    37.4828   326.8582 </r>
       <r>     5.0864    34.3789   328.7354 </r>
       <r>     5.1410    22.1386   329.9442 </r>
       <r>     5.1956    30.3673   331.6023 </r>
       <r>     5.2502    23.4154   332.8809 </r>
       <r>     5.3048    39.5956   335.0429 </r>
       <r>     5.3594    30.0031   336.6812 </r>
       <r>     5.4141    29.0692   338.2684 </r>
       <r>     5.4687    37.1037   340.2944 </r>
       <r>     5.5233    33.9009   342.1455 </r>
       <r>     5.5779    19.9953   343.2373 </r>
       <r>     5.6325    32.9102   345.0342 </r>
       <r>     5.6871    17.4302   345.9860 </r>
       <r>     5.7417    34.6569   347.8783 </r>
       <r>     5.7963    19.4703   348.9414 </r>
       <r>     5.8509    17.7407   349.9101 </r>
       <r>     5.9055    19.4364   350.9714 </r>
       <r>     5.9601     5.1017   351.2500 </r>
       <r>     6.0147     9.0394   351.7436 </r>
       <r>     6.0693     4.6955   352.0000 </r>
       <r>     6.1239     0.0000   352.0000 </r>
       <r>     6.1785     0.0000   352.0000 </r>
       <r>     6.2331     0.0000   352.0000 </r>
       <r>     6.2877     0.0000   352.0000 </r>
       <r>     6.3423     0.0000   352.0000 </r>
       <r>     6.3969     0.0000   352.0000 </r>
       <r>     6.4515     0.0000   352.0000 </r>
       <r>     6.5061     0.0000   352.0000 </r>
       <r>     6.5607     0.0000   352.0000 </r>
       <r>     6.6153     0.0000   352.0000 </r>
       <r>     6.6699     0.0000   352.0000 </r>
       <r>     6.7245     0.0000   352.0000 </r>
       <r>     6.7791     0.0000   352.0000 </r>
      </set>
     </set>
    </array>
   </total>
  </dos>
 </calculation>
 <structure name="finalpos" >
  <crystal>
   <varray name="basis" >
    <v>       8.00133800       0.00000000       0.00000000 </v>
    <v>       0.00000000      16.00267601       0.00000000 </v>
    <v>       0.00000000       0.00000000      13.26432228 </v>
   </varray>
   <i name="volume">   1698.40122681 </i>
   <varray name="rec_basis" >
    <v>       0.12497910       0.00000000       0.00000000 </v>
    <v>       0.00000000       0.06248955       0.00000000 </v>
    <v>       0.00000000       0.00000000       0.07539021 </v>
   </varray>
  </crystal>
  <varray name="positions" >
   <v>       0.00854173       0.99572915       0.00000000 </v>
   <v>       0.25854170       0.87072915       0.21327135 </v>
   <v>       0.50854170       0.74572915       0.42654276 </v>
   <v>       0.50854170       0.24572912       0.00000000 </v>
   <v>       0.75854164       0.12072913       0.21327135 </v>
   <v>       0.00854158       0.99572915       0.42654276 </v>
   <v>       0.00854174       0.49572909       0.00000000 </v>
   <v>       0.25854170       0.37072912       0.21327135 </v>
   <v>       0.50854170       0.24572912       0.42654276 </v>
   <v>       0.50854170       0.74572909       0.00000000 </v>
   <v>       0.75854164       0.62072909       0.21327135 </v>
   <v>       0.00854170       0.49572912       0.42654276 </v>
   <v>       0.00854170       0.12072916       0.10663567 </v>
   <v>       0.25854170       0.99572915       0.31990707 </v>
   <v>       0.50854170       0.87072915       0.53317845 </v>
   <v>       0.50854176       0.37072912       0.10663567 </v>
   <v>       0.75854170       0.24572915       0.31990707 </v>
   <v>       0.00854170       0.12072913       0.53317845 </v>
   <v>       0.00854158       0.62072909       0.10663567 </v>
   <v>       0.25854158       0.49572909       0.31990707 </v>
   <v>       0.50854158       0.37072906       0.53317845 </v>
   <v>       0.50854170       0.87072915       0.10663567 </v>
   <v>       0.75854170       0.74572915       0.31990707 </v>
   <v>       0.00854170       0.62072915       0.53317845 </v>
   <v>       0.50854170       0.99572915       0.00000000 </v>
   <v>       0.75854164       0.87072915       0.21327135 </v>
   <v>       0.00854158       0.74572921       0.42654276 </v>
   <v>       0.00854172       0.24572913       0.00000000 </v>
   <v>       0.25854170       0.12072913       0.21327135 </v>
   <v>       0.50854170       0.99572915       0.42654276 </v>
   <v>       0.50854170       0.49572915       0.00000000 </v>
   <v>       0.75854170       0.37072915       0.21327135 </v>
   <v>       0.00854170       0.24572916       0.42654276 </v>
   <v>       0.00854174       0.74572915       0.00000000 </v>
   <v>       0.25854167       0.62072915       0.21327135 </v>
   <v>       0.50854170       0.49572915       0.42654276 </v>
   <v>       0.50854170       0.12072913       0.10663567 </v>
   <v>       0.75854170       0.99572915       0.31990707 </v>
   <v>       0.00854170       0.87072915       0.53317845 </v>
   <v>       0.00854170       0.37072912       0.10663567 </v>
   <v>       0.25854158       0.24572912       0.31990707 </v>
   <v>       0.50854170       0.12072911       0.53317845 </v>
   <v>       0.50854170       0.62072909       0.10663567 </v>
   <v>       0.75854164       0.49572912       0.31990707 </v>
   <v>       0.00854170       0.37072909       0.53317845 </v>
   <v>       0.00854158       0.87072909       0.10663567 </v>
   <v>       0.25854158       0.74572909       0.31990707 </v>
   <v>       0.50854158       0.62072909       0.53317845 </v>
   <v>       0.38559988       0.47817063       0.64595544 </v>
   <v>       0.63559997       0.08928180       0.69420898 </v>
   <v>       0.88559997       0.70039284       0.74246252 </v>
   <v>       0.13559997       0.31150389       0.79071599 </v>
   <v>       0.38560006       0.92261487       0.83896953 </v>
   <v>       0.63560021       0.53372550       0.88722289 </v>
   <v>       0.13559997       0.22817075       0.64595544 </v>
   <v>       0.38559994       0.83928168       0.69420898 </v>
   <v>       0.63559997       0.45039284       0.74246246 </v>
   <v>       0.88560021       0.06150377       0.79071599 </v>
   <v>       0.13560009       0.67261475       0.83896941 </v>
   <v>       0.38560030       0.28372574       0.88722295 </v>
   <v>       0.63559997       0.22817075       0.64595544 </v>
   <v>       0.88559997       0.83928174       0.69420898 </v>
   <v>       0.13559997       0.45039284       0.74246246 </v>
   <v>       0.38560006       0.06150377       0.79071599 </v>
   <v>       0.63560009       0.67261475       0.83896941 </v>
   <v>       0.88560021       0.28372574       0.88722295 </v>
   <v>       0.88559985       0.47817063       0.64595544 </v>
   <v>       0.13559985       0.08928180       0.69420898 </v>
   <v>       0.38559994       0.70039284       0.74246252 </v>
   <v>       0.63559997       0.31150389       0.79071599 </v>
   <v>       0.88560033       0.92261475       0.83896941 </v>
   <v>       0.13560021       0.53372574       0.88722289 </v>
  </varray>
 </structure>
</modeling>
