 264 264   0   0
  0.2774202E+02  0.1958175E-08  0.1958175E-08  0.1910025E-08  0.5000000E-15
  1.000000000000000E-004
  CAR 
 Si and Ge interface calculation         
      6.64618928     -9.02119001  301      4.04625714      1.00000000
     -9.021  0.0000E+00  0.0000E+00  0.0000E+00  0.0000E+00
     -8.969  0.0000E+00  0.0000E+00  0.0000E+00  0.0000E+00
     -8.917  0.0000E+00  0.0000E+00  0.0000E+00  0.0000E+00
     -8.865  0.0000E+00  0.0000E+00  0.0000E+00  0.0000E+00
     -8.812  0.0000E+00  0.0000E+00  0.0000E+00  0.0000E+00
     -8.760  0.0000E+00  0.0000E+00  0.0000E+00  0.0000E+00
     -8.708  0.0000E+00  0.0000E+00  0.0000E+00  0.0000E+00
     -8.656  0.0000E+00  0.0000E+00  0.0000E+00  0.0000E+00
     -8.603  0.0000E+00  0.0000E+00  0.0000E+00  0.0000E+00
     -8.551  0.0000E+00  0.0000E+00  0.0000E+00  0.0000E+00
     -8.499  0.0000E+00  0.0000E+00  0.0000E+00  0.0000E+00
     -8.447  0.0000E+00  0.0000E+00  0.0000E+00  0.0000E+00
     -8.394  0.0000E+00  0.0000E+00  0.0000E+00  0.0000E+00
     -8.342  0.1226E-04  0.3885E-05  0.6404E-06  0.2029E-06
     -8.290  0.9720E+01  0.9607E+01  0.5076E+00  0.5017E+00
     -8.238  0.1896E+02  0.1904E+02  0.1498E+01  0.1496E+01
     -8.186  0.2122E+02  0.2036E+02  0.2606E+01  0.2559E+01
     -8.133  0.1720E+02  0.1803E+02  0.3504E+01  0.3501E+01
     -8.081  0.9489E+01  0.9557E+01  0.4000E+01  0.4000E+01
     -8.029  0.9957E+01  0.9569E+01  0.4520E+01  0.4500E+01
     -7.977  0.2725E+02  0.2717E+02  0.5943E+01  0.5919E+01
     -7.924  0.2039E+02  0.1928E+02  0.7008E+01  0.6926E+01
     -7.872  0.9452E+01  0.1101E+02  0.7501E+01  0.7501E+01
     -7.820  0.1705E+02  0.1564E+02  0.8392E+01  0.8317E+01
     -7.768  0.2123E+02  0.2265E+02  0.9501E+01  0.9500E+01
     -7.716  0.1913E+02  0.1914E+02  0.1050E+02  0.1050E+02
     -7.663  0.4360E-01  0.2480E-01  0.1050E+02  0.1050E+02
     -7.611  0.2981E+02  0.2838E+02  0.1206E+02  0.1198E+02
     -7.559  0.5345E+02  0.5364E+02  0.1485E+02  0.1478E+02
     -7.507  0.3403E+01  0.4457E+01  0.1503E+02  0.1502E+02
     -7.454  0.2641E+02  0.2561E+02  0.1641E+02  0.1635E+02
     -7.402  0.1441E+02  0.1471E+02  0.1716E+02  0.1712E+02
     -7.350  0.1656E+02  0.1706E+02  0.1803E+02  0.1801E+02
     -7.298  0.1868E+02  0.1890E+02  0.1900E+02  0.1900E+02
     -7.246  0.3772E+02  0.3656E+02  0.2097E+02  0.2091E+02
     -7.193  0.3226E+02  0.3194E+02  0.2266E+02  0.2258E+02
     -7.141  0.2796E+02  0.2737E+02  0.2412E+02  0.2401E+02
     -7.089  0.4279E+02  0.4339E+02  0.2635E+02  0.2627E+02
     -7.037  0.3440E+02  0.3514E+02  0.2815E+02  0.2811E+02
     -6.984  0.2591E+02  0.2664E+02  0.2950E+02  0.2950E+02
     -6.932  0.3839E+02  0.3822E+02  0.3150E+02  0.3150E+02
     -6.880  0.2870E+02  0.2882E+02  0.3300E+02  0.3300E+02
     -6.828  0.5489E+02  0.5251E+02  0.3587E+02  0.3574E+02
     -6.776  0.4549E+02  0.4660E+02  0.3825E+02  0.3818E+02
     -6.723  0.4205E+02  0.4281E+02  0.4044E+02  0.4041E+02
     -6.671  0.4434E+02  0.4326E+02  0.4276E+02  0.4267E+02
     -6.619  0.5949E+02  0.5991E+02  0.4586E+02  0.4580E+02
     -6.567  0.2871E+02  0.2834E+02  0.4736E+02  0.4728E+02
     -6.514  0.2871E+02  0.2951E+02  0.4886E+02  0.4882E+02
     -6.462  0.4286E+02  0.4213E+02  0.5110E+02  0.5102E+02
     -6.410  0.3205E+02  0.3100E+02  0.5277E+02  0.5264E+02
     -6.358  0.4860E+02  0.4957E+02  0.5531E+02  0.5523E+02
     -6.306  0.3215E+02  0.3239E+02  0.5699E+02  0.5692E+02
     -6.253  0.7536E+02  0.7487E+02  0.6093E+02  0.6083E+02
     -6.201  0.4009E+02  0.4092E+02  0.6302E+02  0.6297E+02
     -6.149  0.6730E+02  0.6637E+02  0.6654E+02  0.6644E+02
     -6.097  0.6967E+02  0.7060E+02  0.7017E+02  0.7012E+02
     -6.044  0.7035E+02  0.6808E+02  0.7385E+02  0.7368E+02
     -5.992  0.6582E+02  0.6630E+02  0.7729E+02  0.7714E+02
     -5.940  0.7704E+02  0.7744E+02  0.8131E+02  0.8119E+02
     -5.888  0.5680E+02  0.5597E+02  0.8427E+02  0.8411E+02
     -5.835  0.7612E+02  0.7446E+02  0.8825E+02  0.8800E+02
     -5.783  0.8825E+02  0.8830E+02  0.9286E+02  0.9261E+02
     -5.731  0.9621E+02  0.9860E+02  0.9788E+02  0.9776E+02
     -5.679  0.7040E+02  0.6890E+02  0.1016E+03  0.1014E+03
     -5.627  0.7757E+02  0.7858E+02  0.1056E+03  0.1055E+03
     -5.574  0.7407E+02  0.7541E+02  0.1095E+03  0.1094E+03
     -5.522  0.5772E+02  0.5653E+02  0.1125E+03  0.1124E+03
     -5.470  0.7826E+02  0.7769E+02  0.1166E+03  0.1164E+03
     -5.418  0.4887E+02  0.4892E+02  0.1191E+03  0.1190E+03
     -5.365  0.9307E+02  0.9122E+02  0.1240E+03  0.1237E+03
     -5.313  0.7208E+02  0.7476E+02  0.1278E+03  0.1276E+03
     -5.261  0.7287E+02  0.7197E+02  0.1316E+03  0.1314E+03
     -5.209  0.5885E+02  0.5841E+02  0.1346E+03  0.1344E+03
     -5.157  0.7938E+02  0.7935E+02  0.1388E+03  0.1386E+03
     -5.104  0.8379E+02  0.8388E+02  0.1432E+03  0.1430E+03
     -5.052  0.7442E+02  0.7424E+02  0.1470E+03  0.1468E+03
     -5.000  0.5944E+02  0.6010E+02  0.1501E+03  0.1500E+03
     -4.948  0.7054E+02  0.7065E+02  0.1538E+03  0.1537E+03
     -4.895  0.7335E+02  0.7461E+02  0.1577E+03  0.1576E+03
     -4.843  0.7395E+02  0.7261E+02  0.1615E+03  0.1614E+03
     -4.791  0.8552E+02  0.8338E+02  0.1660E+03  0.1657E+03
     -4.739  0.1170E+03  0.1157E+03  0.1721E+03  0.1718E+03
     -4.687  0.1326E+03  0.1346E+03  0.1790E+03  0.1788E+03
     -4.634  0.1010E+03  0.9820E+02  0.1843E+03  0.1839E+03
     -4.582  0.9122E+02  0.9329E+02  0.1891E+03  0.1888E+03
     -4.530  0.1187E+03  0.1173E+03  0.1953E+03  0.1949E+03
     -4.478  0.9902E+02  0.9933E+02  0.2004E+03  0.2001E+03
     -4.425  0.1088E+03  0.1083E+03  0.2061E+03  0.2058E+03
     -4.373  0.7750E+02  0.7912E+02  0.2102E+03  0.2099E+03
     -4.321  0.7995E+02  0.8159E+02  0.2143E+03  0.2141E+03
     -4.269  0.6997E+02  0.6964E+02  0.2180E+03  0.2178E+03
     -4.217  0.7351E+02  0.7143E+02  0.2218E+03  0.2215E+03
     -4.164  0.9384E+02  0.9473E+02  0.2267E+03  0.2265E+03
     -4.112  0.8436E+02  0.8450E+02  0.2311E+03  0.2309E+03
     -4.060  0.7577E+02  0.7620E+02  0.2351E+03  0.2349E+03
     -4.008  0.7177E+02  0.7394E+02  0.2388E+03  0.2387E+03
     -3.955  0.4995E+02  0.4725E+02  0.2415E+03  0.2412E+03
     -3.903  0.3032E+02  0.2942E+02  0.2430E+03  0.2427E+03
     -3.851  0.5912E+02  0.6168E+02  0.2461E+03  0.2459E+03
     -3.799  0.5865E+02  0.5915E+02  0.2492E+03  0.2490E+03
     -3.747  0.6702E+02  0.6289E+02  0.2527E+03  0.2523E+03
     -3.694  0.6498E+02  0.6652E+02  0.2561E+03  0.2558E+03
     -3.642  0.7150E+02  0.7265E+02  0.2598E+03  0.2596E+03
     -3.590  0.7019E+02  0.6969E+02  0.2635E+03  0.2632E+03
     -3.538  0.4676E+02  0.4609E+02  0.2659E+03  0.2656E+03
     -3.485  0.8518E+02  0.8608E+02  0.2704E+03  0.2701E+03
     -3.433  0.6667E+02  0.6769E+02  0.2739E+03  0.2737E+03
     -3.381  0.6906E+02  0.6564E+02  0.2775E+03  0.2771E+03
     -3.329  0.9455E+02  0.9777E+02  0.2824E+03  0.2822E+03
     -3.276  0.7960E+02  0.7676E+02  0.2866E+03  0.2862E+03
     -3.224  0.6646E+02  0.6875E+02  0.2900E+03  0.2898E+03
     -3.172  0.6721E+02  0.6855E+02  0.2935E+03  0.2934E+03
     -3.120  0.7841E+02  0.7376E+02  0.2976E+03  0.2972E+03
     -3.068  0.6927E+02  0.6735E+02  0.3012E+03  0.3007E+03
     -3.015  0.7351E+02  0.7916E+02  0.3051E+03  0.3049E+03
     -2.963  0.7017E+02  0.6903E+02  0.3088E+03  0.3085E+03
     -2.911  0.1304E+03  0.1272E+03  0.3156E+03  0.3151E+03
     -2.859  0.7525E+02  0.7626E+02  0.3195E+03  0.3191E+03
     -2.806  0.8310E+02  0.8164E+02  0.3238E+03  0.3234E+03
     -2.754  0.1269E+03  0.1312E+03  0.3305E+03  0.3302E+03
     -2.702  0.9366E+02  0.9436E+02  0.3353E+03  0.3352E+03
     -2.650  0.1035E+03  0.1040E+03  0.3408E+03  0.3406E+03
     -2.598  0.8538E+02  0.8313E+02  0.3452E+03  0.3449E+03
     -2.545  0.1210E+03  0.1202E+03  0.3515E+03  0.3512E+03
     -2.493  0.1081E+03  0.1085E+03  0.3572E+03  0.3569E+03
     -2.441  0.1006E+03  0.1009E+03  0.3624E+03  0.3621E+03
     -2.389  0.8682E+02  0.8377E+02  0.3670E+03  0.3665E+03
     -2.336  0.1001E+03  0.1045E+03  0.3722E+03  0.3720E+03
     -2.284  0.1138E+03  0.1110E+03  0.3781E+03  0.3778E+03
     -2.232  0.8311E+02  0.8553E+02  0.3825E+03  0.3822E+03
     -2.180  0.3444E+02  0.3873E+02  0.3843E+03  0.3843E+03
     -2.128  0.3393E+02  0.3022E+02  0.3860E+03  0.3858E+03
     -2.075  0.7691E+02  0.7656E+02  0.3901E+03  0.3898E+03
     -2.023  0.9292E+02  0.8981E+02  0.3949E+03  0.3945E+03
     -1.971  0.7633E+02  0.7693E+02  0.3989E+03  0.3985E+03
     -1.919  0.9737E+02  0.9743E+02  0.4040E+03  0.4036E+03
     -1.866  0.9057E+02  0.9485E+02  0.4087E+03  0.4086E+03
     -1.814  0.5086E+02  0.4890E+02  0.4114E+03  0.4111E+03
     -1.762  0.1103E+03  0.1068E+03  0.4171E+03  0.4167E+03
     -1.710  0.9666E+02  0.9969E+02  0.4222E+03  0.4219E+03
     -1.658  0.9820E+02  0.9634E+02  0.4273E+03  0.4270E+03
     -1.605  0.5890E+02  0.6106E+02  0.4304E+03  0.4301E+03
     -1.553  0.9924E+02  0.9763E+02  0.4356E+03  0.4352E+03
     -1.501  0.5803E+02  0.5993E+02  0.4386E+03  0.4384E+03
     -1.449  0.5638E+02  0.5796E+02  0.4415E+03  0.4414E+03
     -1.396  0.5651E+02  0.5306E+02  0.4445E+03  0.4442E+03
     -1.344  0.7322E+02  0.7273E+02  0.4483E+03  0.4480E+03
     -1.292  0.4201E+02  0.4711E+02  0.4505E+03  0.4504E+03
     -1.240  0.5741E+02  0.5202E+02  0.4535E+03  0.4531E+03
     -1.188  0.5881E+02  0.6302E+02  0.4566E+03  0.4564E+03
     -1.135  0.5217E+02  0.5151E+02  0.4593E+03  0.4591E+03
     -1.083  0.3802E+02  0.3986E+02  0.4613E+03  0.4612E+03
     -1.031  0.5473E+02  0.5285E+02  0.4642E+03  0.4640E+03
     -0.979  0.5717E+02  0.5942E+02  0.4671E+03  0.4671E+03
     -0.926  0.2629E+02  0.2594E+02  0.4685E+03  0.4684E+03
     -0.874  0.6106E+02  0.5553E+02  0.4717E+03  0.4713E+03
     -0.822  0.6946E+02  0.7148E+02  0.4753E+03  0.4751E+03
     -0.770  0.6349E+02  0.6615E+02  0.4786E+03  0.4785E+03
     -0.717  0.3605E+02  0.3441E+02  0.4805E+03  0.4803E+03
     -0.665  0.8693E+02  0.8514E+02  0.4851E+03  0.4848E+03
     -0.613  0.4613E+02  0.5098E+02  0.4875E+03  0.4874E+03
     -0.561  0.2779E+02  0.2726E+02  0.4889E+03  0.4888E+03
     -0.509  0.2302E+02  0.2284E+02  0.4901E+03  0.4900E+03
     -0.456  0.2385E+02  0.2418E+02  0.4914E+03  0.4913E+03
     -0.404  0.3736E+02  0.3780E+02  0.4933E+03  0.4933E+03
     -0.352  0.3507E+02  0.3309E+02  0.4952E+03  0.4950E+03
     -0.300  0.7337E+02  0.7340E+02  0.4990E+03  0.4988E+03
     -0.247  0.8539E+02  0.8371E+02  0.5035E+03  0.5032E+03
     -0.195  0.7660E+02  0.7664E+02  0.5075E+03  0.5072E+03
     -0.143  0.1089E+03  0.1095E+03  0.5131E+03  0.5129E+03
     -0.091  0.1045E+03  0.1024E+03  0.5186E+03  0.5183E+03
     -0.039  0.1221E+03  0.1229E+03  0.5250E+03  0.5247E+03
      0.014  0.1105E+03  0.1097E+03  0.5307E+03  0.5304E+03
      0.066  0.1468E+03  0.1453E+03  0.5384E+03  0.5380E+03
      0.118  0.1256E+03  0.1243E+03  0.5450E+03  0.5445E+03
      0.170  0.1037E+03  0.1100E+03  0.5504E+03  0.5502E+03
      0.223  0.6957E+02  0.6806E+02  0.5540E+03  0.5538E+03
      0.275  0.9037E+02  0.8918E+02  0.5587E+03  0.5585E+03
      0.327  0.9383E+02  0.9512E+02  0.5636E+03  0.5634E+03
      0.379  0.7879E+02  0.7799E+02  0.5678E+03  0.5675E+03
      0.431  0.1178E+03  0.1193E+03  0.5739E+03  0.5737E+03
      0.484  0.7560E+02  0.7663E+02  0.5779E+03  0.5777E+03
      0.536  0.9808E+02  0.9560E+02  0.5830E+03  0.5827E+03
      0.588  0.1311E+03  0.1310E+03  0.5898E+03  0.5896E+03
      0.640  0.1186E+03  0.1178E+03  0.5960E+03  0.5957E+03
      0.693  0.1511E+03  0.1489E+03  0.6039E+03  0.6035E+03
      0.745  0.1288E+03  0.1328E+03  0.6106E+03  0.6104E+03
      0.797  0.1272E+03  0.1244E+03  0.6173E+03  0.6169E+03
      0.849  0.9816E+02  0.1012E+03  0.6224E+03  0.6222E+03
      0.901  0.1067E+03  0.1041E+03  0.6280E+03  0.6276E+03
      0.954  0.1083E+03  0.1104E+03  0.6336E+03  0.6334E+03
      1.006  0.1285E+03  0.1286E+03  0.6403E+03  0.6401E+03
      1.058  0.1256E+03  0.1191E+03  0.6469E+03  0.6464E+03
      1.110  0.1803E+03  0.1818E+03  0.6563E+03  0.6558E+03
      1.163  0.1693E+03  0.1710E+03  0.6652E+03  0.6648E+03
      1.215  0.1744E+03  0.1725E+03  0.6743E+03  0.6738E+03
      1.267  0.1886E+03  0.1887E+03  0.6841E+03  0.6836E+03
      1.319  0.1836E+03  0.1813E+03  0.6937E+03  0.6931E+03
      1.372  0.1779E+03  0.1821E+03  0.7030E+03  0.7026E+03
      1.424  0.1416E+03  0.1423E+03  0.7104E+03  0.7101E+03
      1.476  0.1501E+03  0.1447E+03  0.7182E+03  0.7176E+03
      1.528  0.2154E+03  0.2174E+03  0.7295E+03  0.7290E+03
      1.580  0.1904E+03  0.1906E+03  0.7394E+03  0.7389E+03
      1.633  0.1807E+03  0.1809E+03  0.7489E+03  0.7484E+03
      1.685  0.1852E+03  0.1839E+03  0.7585E+03  0.7580E+03
      1.737  0.1893E+03  0.1907E+03  0.7684E+03  0.7679E+03
      1.789  0.1824E+03  0.1843E+03  0.7779E+03  0.7775E+03
      1.842  0.1715E+03  0.1699E+03  0.7869E+03  0.7864E+03
      1.894  0.1457E+03  0.1450E+03  0.7945E+03  0.7940E+03
      1.946  0.2184E+03  0.2161E+03  0.8059E+03  0.8053E+03
      1.998  0.1752E+03  0.1784E+03  0.8151E+03  0.8146E+03
      2.050  0.1738E+03  0.1709E+03  0.8241E+03  0.8235E+03
      2.103  0.1877E+03  0.1857E+03  0.8339E+03  0.8332E+03
      2.155  0.1979E+03  0.1991E+03  0.8443E+03  0.8436E+03
      2.207  0.1486E+03  0.1536E+03  0.8520E+03  0.8516E+03
      2.259  0.1630E+03  0.1606E+03  0.8606E+03  0.8600E+03
      2.312  0.1541E+03  0.1548E+03  0.8686E+03  0.8681E+03
      2.364  0.1646E+03  0.1616E+03  0.8772E+03  0.8766E+03
      2.416  0.2080E+03  0.2102E+03  0.8881E+03  0.8875E+03
      2.468  0.1286E+03  0.1317E+03  0.8948E+03  0.8944E+03
      2.520  0.1438E+03  0.1433E+03  0.9023E+03  0.9019E+03
      2.573  0.1354E+03  0.1342E+03  0.9094E+03  0.9089E+03
      2.625  0.1375E+03  0.1376E+03  0.9165E+03  0.9161E+03
      2.677  0.1234E+03  0.1229E+03  0.9230E+03  0.9225E+03
      2.729  0.1418E+03  0.1378E+03  0.9304E+03  0.9297E+03
      2.782  0.1556E+03  0.1611E+03  0.9385E+03  0.9381E+03
      2.834  0.1450E+03  0.1394E+03  0.9461E+03  0.9454E+03
      2.886  0.1435E+03  0.1433E+03  0.9536E+03  0.9529E+03
      2.938  0.1131E+03  0.1201E+03  0.9595E+03  0.9592E+03
      2.990  0.1250E+03  0.1171E+03  0.9660E+03  0.9653E+03
      3.043  0.1488E+03  0.1530E+03  0.9738E+03  0.9733E+03
      3.095  0.1064E+03  0.1063E+03  0.9793E+03  0.9788E+03
      3.147  0.1115E+03  0.1095E+03  0.9852E+03  0.9845E+03
      3.199  0.1151E+03  0.1159E+03  0.9912E+03  0.9906E+03
      3.252  0.1084E+03  0.1050E+03  0.9968E+03  0.9961E+03
      3.304  0.1145E+03  0.1155E+03  0.1003E+04  0.1002E+04
      3.356  0.1128E+03  0.1103E+03  0.1009E+04  0.1008E+04
      3.408  0.5548E+02  0.6581E+02  0.1012E+04  0.1011E+04
      3.460  0.8784E+02  0.8222E+02  0.1016E+04  0.1016E+04
      3.513  0.1072E+03  0.1068E+03  0.1022E+04  0.1021E+04
      3.565  0.8256E+02  0.8252E+02  0.1026E+04  0.1025E+04
      3.617  0.1027E+03  0.1067E+03  0.1031E+04  0.1031E+04
      3.669  0.5673E+02  0.5512E+02  0.1034E+04  0.1034E+04
      3.722  0.5919E+02  0.6385E+02  0.1038E+04  0.1037E+04
      3.774  0.4550E+02  0.4063E+02  0.1040E+04  0.1039E+04
      3.826  0.4658E+02  0.4716E+02  0.1042E+04  0.1042E+04
      3.878  0.3486E+02  0.3905E+02  0.1044E+04  0.1044E+04
      3.931  0.4587E+02  0.4487E+02  0.1047E+04  0.1046E+04
      3.983  0.7314E+02  0.7110E+02  0.1050E+04  0.1050E+04
      4.035  0.8851E+02  0.7678E+02  0.1055E+04  0.1054E+04
      4.087  0.1267E+03  0.1232E+03  0.1062E+04  0.1060E+04
      4.139  0.9069E+02  0.1011E+03  0.1066E+04  0.1066E+04
      4.192  0.8816E+02  0.8798E+02  0.1071E+04  0.1070E+04
      4.244  0.9225E+02  0.8800E+02  0.1076E+04  0.1075E+04
      4.296  0.9517E+02  0.9730E+02  0.1081E+04  0.1080E+04
      4.348  0.1137E+03  0.1056E+03  0.1087E+04  0.1085E+04
      4.401  0.1278E+03  0.1374E+03  0.1093E+04  0.1093E+04
      4.453  0.1184E+03  0.1159E+03  0.1100E+04  0.1099E+04
      4.505  0.1261E+03  0.1300E+03  0.1106E+04  0.1105E+04
      4.557  0.8614E+02  0.8928E+02  0.1111E+04  0.1110E+04
      4.609  0.9674E+02  0.9066E+02  0.1116E+04  0.1115E+04
      4.662  0.1115E+03  0.1130E+03  0.1121E+04  0.1121E+04
      4.714  0.1170E+03  0.1133E+03  0.1128E+04  0.1127E+04
      4.766  0.1174E+03  0.1256E+03  0.1134E+04  0.1133E+04
      4.818  0.1181E+03  0.1134E+03  0.1140E+04  0.1139E+04
      4.871  0.1255E+03  0.1245E+03  0.1146E+04  0.1146E+04
      4.923  0.1169E+03  0.1218E+03  0.1153E+04  0.1152E+04
      4.975  0.1183E+03  0.1130E+03  0.1159E+04  0.1158E+04
      5.027  0.1218E+03  0.1190E+03  0.1165E+04  0.1164E+04
      5.079  0.1403E+03  0.1445E+03  0.1172E+04  0.1172E+04
      5.132  0.1047E+03  0.1067E+03  0.1178E+04  0.1177E+04
      5.184  0.1080E+03  0.1111E+03  0.1184E+04  0.1183E+04
      5.236  0.1116E+03  0.1093E+03  0.1189E+04  0.1189E+04
      5.288  0.1003E+03  0.1007E+03  0.1195E+04  0.1194E+04
      5.341  0.1172E+03  0.1158E+03  0.1201E+04  0.1200E+04
      5.393  0.1116E+03  0.1104E+03  0.1207E+04  0.1206E+04
      5.445  0.1410E+03  0.1456E+03  0.1214E+04  0.1213E+04
      5.497  0.1600E+03  0.1526E+03  0.1222E+04  0.1221E+04
      5.549  0.1506E+03  0.1526E+03  0.1230E+04  0.1229E+04
      5.602  0.1401E+03  0.1428E+03  0.1237E+04  0.1237E+04
      5.654  0.1220E+03  0.1216E+03  0.1244E+04  0.1243E+04
      5.706  0.1089E+03  0.1082E+03  0.1249E+04  0.1249E+04
      5.758  0.1174E+03  0.1219E+03  0.1256E+04  0.1255E+04
      5.811  0.1274E+03  0.1296E+03  0.1262E+04  0.1262E+04
      5.863  0.1174E+03  0.1146E+03  0.1268E+04  0.1268E+04
      5.915  0.5800E+02  0.7094E+02  0.1271E+04  0.1272E+04
      5.967  0.1066E+02  0.6110E+01  0.1272E+04  0.1272E+04
      6.019  0.0000E+00  0.0000E+00  0.1272E+04  0.1272E+04
      6.072  0.0000E+00  0.0000E+00  0.1272E+04  0.1272E+04
      6.124  0.0000E+00  0.0000E+00  0.1272E+04  0.1272E+04
      6.176  0.0000E+00  0.0000E+00  0.1272E+04  0.1272E+04
      6.228  0.0000E+00  0.0000E+00  0.1272E+04  0.1272E+04
      6.281  0.0000E+00  0.0000E+00  0.1272E+04  0.1272E+04
      6.333  0.0000E+00  0.0000E+00  0.1272E+04  0.1272E+04
      6.385  0.0000E+00  0.0000E+00  0.1272E+04  0.1272E+04
      6.437  0.0000E+00  0.0000E+00  0.1272E+04  0.1272E+04
      6.490  0.0000E+00  0.0000E+00  0.1272E+04  0.1272E+04
      6.542  0.0000E+00  0.0000E+00  0.1272E+04  0.1272E+04
      6.594  0.0000E+00  0.0000E+00  0.1272E+04  0.1272E+04
      6.646  0.0000E+00  0.0000E+00  0.1272E+04  0.1272E+04
