 vasp.6.4.3 19Mar24 (build Oct 22 2024 11:23:12) complex                        
  
 executed on             LinuxIFC date 2025.06.11  06:34:48
 running   64 mpi-ranks, on    4 nodes
 distrk:  each k-point on   64 cores,    1 groups
 distr:  one band on NCORE=  16 cores,    4 groups


--------------------------------------------------------------------------------------------------------


 INCAR:
   SYSTEM = Si and Ge interface calculation
   ISTART = 0
   ICHARG = 2
   LWAVE = .FALSE.
   LREAL = AUTO
   ENCUT = 700
   ENAUG = 900
   ADDGRID = .TRUE.
   LMAXMIX = 6
   LASPH = .TRUE.
   LMIXTAU = .TRUE.
   NCORE = 16
   NELM = 100
   NBANDS = 634
   EDIFF = 1d-7
   AMIX = 0.6
   ISMEAR = 0
   SIGMA = 0.01
   NELECT = 1056
   ISPIN = 2
   NUPDOWN = 1
   LVTOT = .FALSE.
   LVHAR = .TRUE.

 POTCAR:    PAW_PBE Sn 08Apr2002                  
 POTCAR:    PAW_PBE Si 05Jan2001                  
 -----------------------------------------------------------------------------
|                                                                             |
|           W    W    AA    RRRRR   N    N  II  N    N   GGGG   !!!           |
|           W    W   A  A   R    R  NN   N  II  NN   N  G    G  !!!           |
|           W    W  A    A  R    R  N N  N  II  N N  N  G       !!!           |
|           W WW W  AAAAAA  RRRRR   N  N N  II  N  N N  G  GGG   !            |
|           WW  WW  A    A  R   R   N   NN  II  N   NN  G    G                |
|           W    W  A    A  R    R  N    N  II  N    N   GGGG   !!!           |
|                                                                             |
|     You use a magnetic or noncollinear calculation, but did not specify     |
|     the initial magnetic moment with the MAGMOM tag. Note that a            |
|     default of 3.788e-3 will be used for all atoms. This ferromagnetic      |
|     setup may break the symmetry of the crystal, in particular it may       |
|     rule out finding an antiferromagnetic solution. Thence, we              |
|     recommend setting the initial magnetic moment manually or verifying     |
|     carefully that this magnetic setup is desired.                          |
|                                                                             |
 -----------------------------------------------------------------------------

 POTCAR:    PAW_PBE Sn 08Apr2002                  
   VRHFIN =Sn: s2p2                                                                                 
   LEXCH  = PE                                                                                      
   EATOM  =    94.0860 eV,    6.9151 Ry                                                             
                                                                                                    
   TITEL  = PAW_PBE Sn 08Apr2002                                                                    
   LULTRA =        F    use ultrasoft PP ?                                                          
   IUNSCR =        1    unscreen: 0-lin 1-nonlin 2-no                                               
   RPACOR =    2.000    partial core radius                                                         
   POMASS =  118.710; ZVAL   =    4.000    mass and valenz                                          
   RCORE  =    3.000    outmost cutoff radius                                                       
   RWIGS  =    2.960; RWIGS  =    1.566    wigner-seitz radius (au A)                               
   ENMAX  =  103.236; ENMIN  =   77.427 eV                                                          
   ICORE  =        3    local potential                                                             
   LCOR   =        T    correct aug charges                                                         
   LPAW   =        T    paw PP                                                                      
   EAUG   =  263.585                                                                                
   DEXC   =    0.000                                                                                
   RMAX   =    3.078    core radius for proj-oper                                                   
   RAUG   =    1.300    factor for augmentation sphere                                              
   RDEP   =    3.022    radius for radial grids                                                     
   RDEPT  =    2.655    core radius for aug-charge                                                  
                                                                                                    
   Atomic configuration                                                                             
   13 entries                                                                                       
     n  l   j            E        occ.                                                              
     1  0  0.50    -29007.2859   2.0000                                                             
     2  0  0.50     -4378.8056   2.0000                                                             
     2  1  1.50     -3930.4293   6.0000                                                             
     3  0  0.50      -845.0264   2.0000                                                             
     3  1  1.50      -698.5725   6.0000                                                             
     3  2  2.50      -473.2839  10.0000                                                             
     4  0  0.50      -133.9036   2.0000                                                             
     4  1  1.50       -89.6752   6.0000                                                             
     4  2  2.50       -25.8375  10.0000                                                             
     5  0  0.50       -10.5484   2.0000                                                             
     5  1  0.50        -3.6940   2.0000                                                             
     5  2  1.50        -1.3606   0.0000                                                             
     4  3  2.50        -4.0817   0.0000                                                             
   Description                                                                                      
     l       E           TYP  RCUT    TYP  RCUT                                                     
     0    -10.5483727     23  3.000                                                                 
     0     27.2116520     23  3.000                                                                 
     1     -3.6939829     23  3.000                                                                 
     1      1.9821976     23  3.000                                                                 
     2     -1.3605826     23  3.000                                                                 
     3     -2.7211652     23  3.000                                                                 
  local pseudopotential read in
  partial core-charges read in
  partial kinetic energy density read in
  atomic valenz-charges read in
  non local Contribution for L=           0  read in
    real space projection operators read in
  non local Contribution for L=           0  read in
    real space projection operators read in
  non local Contribution for L=           1  read in
    real space projection operators read in
  non local Contribution for L=           1  read in
    real space projection operators read in
  non local Contribution for L=           2  read in
    real space projection operators read in
    PAW grid and wavefunctions read in
 
   number of l-projection  operators is LMAX  =           5
   number of lm-projection operators is LMMAX =          13
 
 POTCAR:    PAW_PBE Si 05Jan2001                  
   VRHFIN =Si: s2p2                                                                                 
   LEXCH  = PE                                                                                      
   EATOM  =   103.0669 eV,    7.5752 Ry                                                             
                                                                                                    
   TITEL  = PAW_PBE Si 05Jan2001                                                                    
   LULTRA =        F    use ultrasoft PP ?                                                          
   IUNSCR =        1    unscreen: 0-lin 1-nonlin 2-no                                               
   RPACOR =    1.500    partial core radius                                                         
   POMASS =   28.085; ZVAL   =    4.000    mass and valenz                                          
   RCORE  =    1.900    outmost cutoff radius                                                       
   RWIGS  =    2.480; RWIGS  =    1.312    wigner-seitz radius (au A)                               
   ENMAX  =  245.345; ENMIN  =  184.009 eV                                                          
   ICORE  =        2    local potential                                                             
   LCOR   =        T    correct aug charges                                                         
   LPAW   =        T    paw PP                                                                      
   EAUG   =  322.069                                                                                
   DEXC   =    0.000                                                                                
   RMAX   =    1.950    core radius for proj-oper                                                   
   RAUG   =    1.300    factor for augmentation sphere                                              
   RDEP   =    1.993    radius for radial grids                                                     
   RDEPT  =    1.837    core radius for aug-charge                                                  
                                                                                                    
   Atomic configuration                                                                             
    6 entries                                                                                       
     n  l   j            E        occ.                                                              
     1  0  0.50     -1785.8828   2.0000                                                             
     2  0  0.50      -139.4969   2.0000                                                             
     2  1  1.50       -95.5546   6.0000                                                             
     3  0  0.50       -10.8127   2.0000                                                             
     3  1  0.50        -4.0811   2.0000                                                             
     3  2  1.50        -4.0817   0.0000                                                             
   Description                                                                                      
     l       E           TYP  RCUT    TYP  RCUT                                                     
     0    -10.8127223     23  1.900                                                                 
     0     -7.6451159     23  1.900                                                                 
     1     -4.0811372     23  1.900                                                                 
     1      2.4879257     23  1.900                                                                 
     2     -4.0817478      7  1.900                                                                 
  local pseudopotential read in
  partial core-charges read in
  partial kinetic energy density read in
  atomic valenz-charges read in
  non local Contribution for L=           0  read in
    real space projection operators read in
  non local Contribution for L=           0  read in
    real space projection operators read in
  non local Contribution for L=           1  read in
    real space projection operators read in
  non local Contribution for L=           1  read in
    real space projection operators read in
    PAW grid and wavefunctions read in
 
   number of l-projection  operators is LMAX  =           4
   number of lm-projection operators is LMMAX =           8
 
 Optimization of the real space projectors (new method)

 maximal supplied QI-value         = 12.47
 optimisation between [QCUT,QGAM] = [ 12.47, 27.06] = [ 43.56,205.12] Ry 
 Optimized for a Real-space Cutoff    1.58 Angstroem

   l    n(q)    QCUT    max X(q) W(low)/X(q) W(high)/X(q)  e(spline) 
   0     13    12.472    14.688    0.45E-04    0.45E-04    0.25E-05
   0     13    12.472     7.308    0.94E-04    0.11E-03    0.61E-05
   1     12    12.472    45.102    0.34E-03    0.14E-03    0.21E-05
   1     12    12.472    30.691    0.31E-03    0.13E-03    0.20E-05
   2     12    12.472     7.156    0.86E-04    0.11E-03    0.17E-05
 WARNING: PSMAXN for non-local potential too small
          PSMAXN should be >   13.5545592237991       NTYP=           1
 Optimization of the real space projectors (new method)

 maximal supplied QI-value         = 19.84
 optimisation between [QCUT,QGAM] = [ 13.49, 26.99] = [ 50.98,203.92] Ry 
 Optimized for a Real-space Cutoff    1.07 Angstroem

   l    n(q)    QCUT    max X(q) W(low)/X(q) W(high)/X(q)  e(spline) 
   0      9    13.493   159.560    0.22E-03    0.15E-03    0.72E-07
   0      9    13.493   115.863    0.21E-03    0.15E-03    0.71E-07
   1      8    13.493    88.339    0.15E-03    0.11E-03    0.13E-06
   1      8    13.493    48.592    0.15E-03    0.10E-03    0.13E-06
  PAW_PBE Sn 08Apr2002                  :
 energy of atom  1       EATOM=  -94.0860
 kinetic energy error for atom=    0.0000 (will be added to EATOM!!)
  PAW_PBE Si 05Jan2001                  :
 energy of atom  2       EATOM= -103.0669
 kinetic energy error for atom=    0.0003 (will be added to EATOM!!)
 
 
 POSCAR: Sn+Si
  positions in direct lattice
  No initial velocities read in


 exchange-correlation table for PE
   RHO(1)=    0.500       N(1)  =     2000
   RHO(2)=  100.500       N(2)  =     4000
 


--------------------------------------------------------------------------------------------------------


 ion  position               nearest neighbor table
   1  0.995  0.667  0.000-  89 1.48 120 2.27 243 2.58  31 2.81 100 2.81 230 3.04 201 3.10 204 3.19
                            52 3.42
   2  0.495  0.167  0.000- 252 1.48 210 2.27 180 2.58  43 2.81  97 2.81 167 3.04 138 3.10 141 3.19
                           168 3.42
   3  0.912  0.417  0.544-  21 0.61 262 1.88  60 2.81 199 2.81 178 2.86 112 3.21
   4  0.995  0.333  0.000- 106 1.37 123 2.24 153 2.66  34 2.81  61 2.81 152 3.09 192 3.11 195 3.20
                           165 3.43
   5  0.765  0.843  0.544-  30 1.48  57 2.05 256 2.34 184 2.34  84 3.38  25 3.74
   6  0.727  0.651  0.544-  33 1.37  87 2.08 175 2.34 259 2.34 102 3.47
   7  0.995  0.000  0.000- 117 1.36 228 1.88 107 1.94  28 2.81 234 2.81 227 3.29 158 3.35
   8  0.828  0.833  0.000- 159 0.66 111 1.84 100 2.81  46 2.81 201 2.91  62 3.16
   9  0.662  0.000  0.436- 127 2.38  96 2.81  30 2.81 156 2.81  53 2.81 211 3.28 169 3.29  78 3.30

  10  0.328  0.667  0.000- 216 1.83  91 2.24  88 2.29 245 2.80  40 2.81  22 2.81 135 2.93 246 3.21
                            50 3.24
  11  0.162  0.667  0.218-  41 2.81  31 2.81  83 2.81  22 2.81
  12  0.995  0.667  0.436- 145 2.44  77 2.81  32 2.81  83 2.81  84 2.81 223 3.23 190 3.32 148 3.33

  13  0.912  0.250  0.327- 255 2.81 142 2.81 199 2.81  63 2.81  23 3.54
  14  0.162  0.333  0.218-  67 2.81  44 2.81  34 2.81  85 2.81 165 3.30
  15  0.188  0.959  0.544-  39 2.29 241 2.34 157 2.34  99 2.66  66 2.98 109 3.27  38 3.52
  16  0.328  0.000  0.000- 240 1.46 129 2.30 168 2.57  37 2.81 258 2.81 239 3.07 210 3.12  49 3.15

  17  0.162  0.000  0.218-  38 2.81  28 2.81 162 2.81 258 2.81 107 3.54
  18  0.412  0.583  0.544- 163 1.89 121 2.30 205 2.34 134 2.78 220 2.81 214 2.81 244 2.84 202 3.13
                           133 3.16
  19  0.912  0.917  0.327-  73 2.81  51 2.81  56 2.81  57 2.81
  20  0.495  0.667  0.218-  92 2.81  40 2.81 177 2.81 174 2.81  88 3.52
  21  0.881  0.420  0.544-   3 0.61 178 2.34 262 2.34  60 2.46 199 3.24
  22  0.245  0.750  0.109-  91 1.62  55 2.81 118 2.81  10 2.81  11 2.81
  23  0.842  0.228  0.544-  36 1.94  63 2.03 250 2.34  75 2.34  90 3.13  13 3.54
  24  0.328  0.333  0.436- 193 2.05  26 2.81  47 2.81  44 2.81 115 2.81 124 3.04 235 3.05
  25  0.745  0.750  0.327-  74 2.81  57 2.81  70 2.81  93 2.81  87 2.81   5 3.74
  26  0.412  0.250  0.544- 124 1.39 235 2.21 104 2.68  24 2.81  81 2.81 125 3.07 166 3.16 154 3.18
                           193 3.38
  27  0.996  0.997  0.544-  51 1.62  39 2.24 253 2.34 157 2.34  90 2.34
  28  0.078  0.917  0.109- 107 2.03  17 2.81   7 2.81  55 2.81  56 2.81 243 3.06  49 3.76
  29  0.662  0.667  0.000- 186 0.61 225 1.88 198 2.81 174 2.81 144 2.86  52 3.21
  30  0.745  0.917  0.544-   5 1.48 256 2.27 211 2.58   9 2.81  57 2.81 212 3.04 169 3.10 184 3.19
                            78 3.42
  31  0.078  0.583  0.109-  89 2.05  11 2.81   1 2.81  58 2.81  59 2.81 246 3.04 204 3.05
  32  0.912  0.583  0.327-  70 2.81  93 2.81  12 2.81  59 2.81  60 2.81 145 3.30
  33  0.745  0.583  0.544-   6 1.37 259 2.24 136 2.66  87 2.81  60 2.81 146 3.09 175 3.11 178 3.20
                           145 3.43
  34  0.078  0.250  0.109-  94 2.46  14 2.81 103 2.81   4 2.81 255 2.81 165 3.25 153 3.27 195 3.32

  35  0.328  0.333  0.000- 249 0.66 207 1.84  43 2.81  85 2.81 138 2.91 165 3.16
  36  0.745  0.250  0.544- 250 1.36 208 1.88  23 1.94 217 2.81  63 2.81 221 3.29 140 3.35
  37  0.412  0.917  0.109-  16 2.81  54 2.81  64 2.81 118 2.81 240 3.00 129 3.04
  38  0.245  0.917  0.327-  17 2.81 109 2.81 118 2.81  66 2.81  15 3.52
  39  0.078  0.917  0.544- 157 1.83  27 2.24  15 2.29 200 2.80  51 2.81  66 2.81 229 2.93 223 3.21
                            65 3.24
  40  0.412  0.583  0.109-  50 2.09  10 2.81  20 2.81  86 2.81  68 2.81  88 2.98
  41  0.245  0.583  0.327-  11 2.81 220 2.81  68 2.81  69 2.81
  42  0.662  0.500  0.218- 196 2.81 237 2.81 177 2.81 198 2.81
  43  0.412  0.250  0.109- 249 2.38  35 2.81   2 2.81  71 2.81 139 2.81 180 3.28 138 3.29 168 3.30

  44  0.245  0.250  0.327-  71 2.81  14 2.81  72 2.81  24 2.81
  45  0.078  0.250  0.544- 187 1.46 226 2.30 112 2.57 199 2.81  72 2.81 194 3.07 151 3.12  75 3.15
                            95 3.47
  46  0.745  0.917  0.109-  62 2.44  73 2.81 101 2.81  74 2.81   8 2.81 183 3.23 159 3.32 111 3.33

  47  0.245  0.417  0.544- 193 1.48 151 2.27 121 2.58  69 2.81  24 2.81 122 3.04 232 3.10 235 3.19
                           112 3.42
  48  0.662  0.167  0.218- 171 0.00 156 2.81 108 2.81 231 2.81  97 2.81
  49  0.188  0.959  0.909- 242 2.34 155 2.34 240 2.34 107 2.34  55 2.84  16 3.15  28 3.76
  50  0.400  0.516  0.000-  86 1.88  40 2.09 219 2.34 135 2.34  10 3.24  68 3.54
  51  0.995  0.000  0.436-  27 1.62  39 2.81  19 2.81 162 2.81  90 2.81
  52  0.823  0.632  0.000- 225 2.34 120 2.34 198 2.41  76 2.57  29 3.21 100 3.30  70 3.32  93 3.32
                             1 3.42
  53  0.578  0.083  0.544- 127 0.66 238 1.84  81 2.81   9 2.81 169 2.91 104 3.16
  54  0.495  0.000  0.218-  98 2.81  37 2.81  96 2.81  97 2.81
  55  0.162  0.833  0.000- 132 1.89 243 2.30  91 2.34 242 2.78  22 2.81  28 2.81  49 2.84 107 3.13
                           240 3.16
  56  0.995  0.833  0.218- 100 2.81  83 2.81  19 2.81  28 2.81
  57  0.828  0.833  0.436-   5 2.05  84 2.81  25 2.81  30 2.81  19 2.81 223 3.04 184 3.05
  58  0.162  0.500  0.000- 246 1.39 204 2.21 165 2.68  85 2.81  31 2.81 233 3.07 135 3.16 123 3.18
                            89 3.38
  59  0.995  0.500  0.218-  61 2.81  67 2.81  32 2.81  31 2.81  89 3.74
  60  0.828  0.500  0.436-  21 2.46   3 2.81 196 2.81  33 2.81  32 2.81 145 3.25 136 3.27 178 3.32

  61  0.912  0.417  0.109- 106 2.08  76 2.81  59 2.81 142 2.81   4 2.81 150 3.00 192 3.04
  62  0.669  0.863  0.000- 111 2.34 213 2.34  46 2.44 101 2.68   8 3.16 174 3.25  74 3.30  64 3.43

  63  0.828  0.167  0.436-  23 2.03  90 2.81  36 2.81  13 2.81 156 2.81 211 3.06  75 3.76
  64  0.495  0.833  0.000- 213 2.24  88 2.66 174 2.81  37 2.81 257 3.09 129 3.11 144 3.20  62 3.43

  65  0.150  0.766  0.544-  66 2.09 160 2.34 229 2.34  39 3.24  83 3.54
  66  0.162  0.833  0.436-  65 2.09  83 2.81  39 2.81  38 2.81  15 2.98
  67  0.078  0.417  0.327-  59 2.81  14 2.81  69 2.81 199 2.81 112 3.32
  68  0.328  0.500  0.218-  85 2.81 115 2.81  41 2.81  40 2.81  50 3.54
  69  0.162  0.500  0.436- 190 2.38  67 2.81  47 2.81  77 2.81  41 2.81 121 3.28 232 3.29 112 3.30

  70  0.828  0.667  0.218-  93 0.00 198 2.81  32 2.81  25 2.81 100 2.81  52 3.32
  71  0.328  0.167  0.218-  44 2.81 258 2.81  43 2.81  98 2.81 168 3.32
  72  0.162  0.167  0.436-  95 2.08 162 2.81  45 2.81  99 2.81  44 2.81 187 3.00 226 3.04
  73  0.828  0.000  0.218-  46 2.81  19 2.81 156 2.81 234 2.81
  74  0.662  0.833  0.218-  25 2.81 174 2.81  96 2.81  46 2.81  62 3.30
  75  0.938  0.209  0.636- 187 2.34 113 2.34  23 2.34 188 2.34  90 2.84  45 3.15  63 3.76
  76  0.828  0.500  0.000- 150 1.46 192 2.30  52 2.57  61 2.81 198 2.81 149 3.07 120 3.12 147 3.15
                           106 3.47
  77  0.078  0.583  0.544- 190 0.66 148 1.84  12 2.81  69 2.81 232 2.91 145 3.16
  78  0.573  0.882  0.544- 172 2.34 256 2.34 181 2.41 102 2.57  80 3.21   9 3.30  96 3.32  30 3.42

  79  0.828  0.167  0.000- 114 1.83 264 2.24 153 2.29 182 2.80 234 2.81 231 2.81 189 2.93 183 3.21
                           228 3.24
  80  0.412  0.917  0.544- 130 0.61 172 1.88 109 2.81 181 2.81 241 2.86  78 3.21
  81  0.495  0.167  0.436- 104 2.44  53 2.81  98 2.81 108 2.81  26 2.81 124 3.23 127 3.32 238 3.33

  82  0.662  0.333  0.000- 222 1.89 180 2.30 264 2.34 179 2.78 237 2.81 231 2.81 147 2.84 261 3.13
                           150 3.16
  83  0.078  0.750  0.327-  56 2.81  66 2.81  11 2.81  12 2.81  65 3.54
  84  0.912  0.750  0.544- 223 1.39 184 2.21 145 2.68  57 2.81  12 2.81 224 3.07 229 3.16 259 3.18
                             5 3.38
  85  0.245  0.417  0.109- 165 2.44  58 2.81  68 2.81  35 2.81  14 2.81 246 3.23 249 3.32 207 3.33

  86  0.495  0.500  0.000- 219 1.36  50 1.88 261 1.94 237 2.81  40 2.81 176 3.29 248 3.35
  87  0.662  0.667  0.436-   6 2.08 177 2.81  33 2.81  25 2.81 102 2.81 133 3.00 175 3.04
  88  0.438  0.709  0.000-  10 2.29 216 2.34 144 2.34  64 2.66  40 2.98 174 3.27  20 3.52
  89  0.015  0.593  0.000-   1 1.48  31 2.05 120 2.34 204 2.34  58 3.38  59 3.74
  90  0.912  0.083  0.544- 253 1.89 211 2.30  27 2.34 188 2.78  63 2.81  51 2.81  75 2.84  23 3.13
                           187 3.16
  91  0.246  0.747  0.000-  22 1.62  10 2.24 216 2.34 132 2.34  55 2.34
  92  0.412  0.750  0.327-  20 2.81 118 2.81 181 2.81 220 2.81
  93  0.828  0.667  0.218-  70 0.00 198 2.81  32 2.81  25 2.81 100 2.81  52 3.32
  94  0.131  0.170  0.000- 103 0.61 195 2.34 126 2.34  34 2.46 258 3.24
  95  0.227  0.151  0.544-  99 1.37  72 2.08 226 2.34 154 2.34  45 3.47
  96  0.578  0.917  0.327-   9 2.81  54 2.81  74 2.81 181 2.81  78 3.32
  97  0.578  0.083  0.109- 252 2.05 101 2.81   2 2.81 171 2.81  48 2.81  54 2.81 183 3.04 141 3.05

  98  0.412  0.083  0.327-  54 2.81  71 2.81  81 2.81 109 2.81 104 3.30
  99  0.245  0.083  0.544-  95 1.37 154 2.24  15 2.66 109 2.81  72 2.81 197 3.09 226 3.11 241 3.20
                           104 3.43
 100  0.912  0.750  0.109- 159 2.38   8 2.81  56 2.81  93 2.81  70 2.81   1 2.81 243 3.28 201 3.29
                            52 3.30
 101  0.662  0.000  0.000- 183 1.39 141 2.21  62 2.68  46 2.81  97 2.81 170 3.07 189 3.16 213 3.18
                           252 3.38
 102  0.578  0.750  0.544- 133 1.46 175 2.30  78 2.57 181 2.81  87 2.81 143 3.07 256 3.12 244 3.15
                             6 3.47
 103  0.162  0.167  0.000-  94 0.61 126 1.88 258 2.81  34 2.81 195 2.86 168 3.21
 104  0.419  0.113  0.544- 238 2.34 154 2.34  81 2.44  26 2.68  53 3.16 109 3.25  98 3.30  99 3.43

 105  0.578  0.417  0.544- 247 1.83 205 2.24 136 2.29 137 2.80 214 2.81 217 2.81 166 2.93 124 3.21
                           208 3.24
 106  0.977  0.401  0.000-   4 1.37  61 2.08 192 2.34 123 2.34  76 3.47
 107  0.092  0.978  0.000-   7 1.94  28 2.03 117 2.34  49 2.34  55 3.13  17 3.54
 108  0.578  0.250  0.327- 217 2.81 171 2.81  48 2.81  81 2.81 139 2.81
 109  0.328  0.000  0.436- 130 2.46  80 2.81  38 2.81  99 2.81  98 2.81 104 3.25  15 3.27
 110  0.881  0.920  0.727- 184 2.34 254 2.34 158 2.34 253 2.34
 111  0.765  0.843  0.909-   8 1.84 185 2.34 254 2.34 159 2.34  62 2.34  46 3.33
 112  0.073  0.382  0.544- 151 2.34 262 2.34 199 2.41  45 2.57   3 3.21  69 3.30  67 3.32  47 3.42

 113  0.957  0.305  0.727-  75 2.34 152 2.34 263 2.34 262 2.34
 114  0.842  0.228  0.909-  79 1.83 182 2.34 263 2.34 153 2.34 264 2.34
 115  0.412  0.417  0.327- 139 2.81  68 2.81 214 2.81  24 2.81
 116  0.111  0.074  0.727- 157 2.34 155 2.34 227 2.34 226 2.34
 117  0.996  0.997  0.909-   7 1.36 158 2.34 227 2.34 107 2.34 228 2.34
 118  0.328  0.833  0.218-  22 2.81  92 2.81  38 2.81  37 2.81
 119  0.034  0.690  0.727- 230 2.34 148 2.34 161 2.34 229 2.34
 120  0.919  0.613  0.909-   1 2.27 149 2.34 230 2.34  52 2.34  89 2.34  76 3.12
 121  0.304  0.536  0.544-  18 2.30 163 2.34 232 2.34  47 2.58 220 3.06  69 3.28
 122  0.188  0.459  0.727- 151 2.34 233 2.34 164 2.34 232 2.34  47 3.04
 123  0.073  0.382  0.909-   4 2.24 152 2.34 233 2.34 165 2.34 106 2.34  58 3.18
 124  0.457  0.305  0.544-  26 1.39 235 2.34 166 2.34  24 3.04 105 3.21  81 3.23
 125  0.342  0.228  0.727- 154 2.34 236 2.34 167 2.34 235 2.34  26 3.07
 126  0.227  0.151  0.909- 103 1.88 155 2.34 236 2.34 168 2.34  94 2.34
 127  0.611  0.074  0.544-  53 0.66 238 2.34 169 2.34   9 2.38  81 3.32
 128  0.496  0.997  0.727- 172 2.34 239 2.34 170 2.34 238 2.34
 129  0.381  0.920  0.909-  16 2.30 173 2.34 239 2.34 240 2.34  37 3.04  64 3.11
 130  0.381  0.920  0.544-  80 0.61 241 2.34 172 2.34 109 2.46
 131  0.265  0.843  0.727- 242 2.34 160 2.34 173 2.34 241 2.34
 132  0.150  0.766  0.909-  55 1.89 161 2.34 242 2.34  91 2.34 243 2.34
 133  0.534  0.690  0.544- 102 1.46 244 2.34 175 2.34  87 3.00  18 3.16
 134  0.419  0.613  0.727- 163 2.34 245 2.34 176 2.34 244 2.34  18 2.78
 135  0.304  0.536  0.909- 164 2.34 245 2.34 246 2.34  50 2.34  10 2.93  58 3.16
 136  0.688  0.459  0.544- 105 2.29 247 2.34 178 2.34  33 2.66 217 2.98  60 3.27
 137  0.573  0.382  0.727- 248 2.34 166 2.34 179 2.34 247 2.34 105 2.80
 138  0.457  0.305  0.909- 167 2.34 249 2.34 248 2.34 180 2.34  35 2.91   2 3.10  43 3.29
 139  0.495  0.333  0.218- 115 2.81  43 2.81 108 2.81 237 2.81
 140  0.727  0.151  0.727- 169 2.34 182 2.34 251 2.34 250 2.34  36 3.35
 141  0.611  0.074  0.909- 101 2.21 170 2.34 252 2.34 251 2.34 183 2.34  97 3.05   2 3.19
 142  0.828  0.333  0.218- 231 2.81  13 2.81 196 2.81  61 2.81
 143  0.650  0.766  0.727- 175 2.34 257 2.34 185 2.34 256 2.34 102 3.07
 144  0.534  0.690  0.909- 176 2.34 186 2.34  88 2.34 257 2.34  29 2.86  64 3.20
 145  0.919  0.613  0.544- 148 2.34 259 2.34  12 2.44  84 2.68  77 3.16  60 3.25  32 3.30  33 3.43

 146  0.804  0.536  0.727- 178 2.34 149 2.34 260 2.34 259 2.34  33 3.09
 147  0.688  0.459  0.909- 179 2.34 260 2.34 150 2.34 261 2.34  82 2.84  76 3.15
 148  0.015  0.593  0.636-  77 1.84 145 2.34 190 2.34 119 2.34 191 2.34  12 3.33
 149  0.900  0.516  0.818- 191 2.34 146 2.34 120 2.34 192 2.34  76 3.07
 150  0.784  0.440  0.000-  76 1.46 147 2.34 192 2.34  61 3.00  82 3.16
 151  0.169  0.363  0.636-  47 2.27 122 2.34 112 2.34 193 2.34 194 2.34  45 3.12
 152  0.054  0.286  0.818- 123 2.34 113 2.34 195 2.34 194 2.34   4 3.09
 153  0.938  0.209  0.000-  79 2.29 114 2.34 195 2.34   4 2.66 234 2.98  34 3.27
 154  0.323  0.132  0.636-  99 2.24 125 2.34  95 2.34 104 2.34 197 2.34  26 3.18
 155  0.207  0.055  0.818- 126 2.34 116 2.34 197 2.34  49 2.34
 156  0.745  0.083  0.327-  48 2.81 171 2.81  73 2.81   9 2.81  63 2.81
 157  0.092  0.978  0.636-  39 1.83 116 2.34  27 2.34  15 2.34 200 2.34
 158  0.977  0.901  0.818- 117 2.34 110 2.34 200 2.34 201 2.34   7 3.35
 159  0.861  0.824  0.000-   8 0.66 111 2.34 201 2.34 100 2.38  46 3.32
 160  0.246  0.747  0.636-  65 2.34 202 2.34 131 2.34 203 2.34
 161  0.131  0.670  0.818- 132 2.34 203 2.34 119 2.34 204 2.34
 162  0.078  0.083  0.327-  17 2.81 255 2.81  72 2.81  51 2.81
 163  0.400  0.516  0.636-  18 1.89 134 2.34 205 2.34 121 2.34 206 2.34
 164  0.284  0.440  0.818- 135 2.34 206 2.34 122 2.34 207 2.34
 165  0.169  0.363  0.000- 207 2.34 123 2.34  85 2.44  58 2.68  35 3.16  34 3.25  14 3.30   4 3.43

 166  0.554  0.286  0.636- 137 2.34 208 2.34 124 2.34 209 2.34 105 2.93  26 3.16
 167  0.438  0.209  0.818- 138 2.34 125 2.34 210 2.34 209 2.34   2 3.04
 168  0.323  0.132  0.000- 126 2.34 210 2.34 258 2.41  16 2.57 103 3.21  43 3.30  71 3.32   2 3.42

 169  0.707  0.055  0.636- 140 2.34 211 2.34 127 2.34 212 2.34  53 2.91  30 3.10   9 3.29
 170  0.592  0.978  0.818- 141 2.34 212 2.34 128 2.34 213 2.34 101 3.07
 171  0.662  0.167  0.218-  48 0.00 156 2.81 108 2.81 231 2.81  97 2.81
 172  0.477  0.901  0.636-  80 1.88 128 2.34  78 2.34 130 2.34 215 2.34
 173  0.361  0.824  0.818- 129 2.34 215 2.34 131 2.34 216 2.34
 174  0.578  0.750  0.109- 186 2.46  64 2.81  74 2.81  29 2.81  20 2.81  62 3.25  88 3.27
 175  0.631  0.670  0.636- 102 2.30 143 2.34   6 2.34 133 2.34 218 2.34  87 3.04  33 3.11
 176  0.515  0.593  0.818- 144 2.34 218 2.34 134 2.34 219 2.34  86 3.29
 177  0.578  0.583  0.327-  87 2.81  20 2.81  42 2.81 214 2.81
 178  0.784  0.440  0.636-  21 2.34 146 2.34 221 2.34 136 2.34   3 2.86  33 3.20  60 3.32
 179  0.669  0.363  0.818- 147 2.34 221 2.34 222 2.34 137 2.34  82 2.78
 180  0.554  0.286  0.000-  82 2.30 222 2.34 138 2.34   2 2.58 237 3.06  43 3.28
 181  0.495  0.833  0.436-  78 2.41 102 2.81  92 2.81  96 2.81  80 2.81
 182  0.823  0.132  0.818- 114 2.34 188 2.34 140 2.34 189 2.34  79 2.80
 183  0.707  0.055  0.000- 101 1.39 189 2.34 141 2.34  97 3.04  79 3.21  46 3.23
 184  0.861  0.824  0.636-  84 2.21 110 2.34 223 2.34   5 2.34 224 2.34  57 3.05  30 3.19
 185  0.746  0.747  0.818- 111 2.34 224 2.34 143 2.34 225 2.34
 186  0.631  0.670  0.000-  29 0.61 225 2.34 144 2.34 174 2.46
 187  0.034  0.190  0.544-  45 1.46  75 2.34 226 2.34  72 3.00  90 3.16
 188  0.919  0.113  0.727- 182 2.34 253 2.34 227 2.34  75 2.34  90 2.78
 189  0.804  0.036  0.909- 254 2.34 182 2.34 183 2.34 228 2.34  79 2.93 101 3.16
 190  0.111  0.574  0.544-  77 0.66 148 2.34 232 2.34  69 2.38  12 3.32
 191  0.996  0.497  0.727- 262 2.34 149 2.34 233 2.34 148 2.34
 192  0.881  0.420  0.909-  76 2.30 263 2.34 149 2.34 150 2.34 106 2.34  61 3.04   4 3.11
 193  0.265  0.343  0.544-  47 1.48  24 2.05 235 2.34 151 2.34  26 3.38
 194  0.150  0.266  0.727- 226 2.34 236 2.34 151 2.34 152 2.34  45 3.07
 195  0.034  0.190  0.909- 227 2.34 152 2.34  94 2.34 153 2.34 103 2.86   4 3.20  34 3.32
 196  0.745  0.417  0.327-  42 2.81 142 2.81  60 2.81 217 2.81
 197  0.304  0.036  0.727- 241 2.34 155 2.34 239 2.34 154 2.34  99 3.09
 198  0.745  0.583  0.109-  52 2.41  70 2.81  93 2.81  29 2.81  42 2.81  76 2.81
 199  0.995  0.333  0.436- 112 2.41  45 2.81  13 2.81  67 2.81   3 2.81  21 3.24
 200  0.073  0.882  0.727- 229 2.34 158 2.34 242 2.34 157 2.34  39 2.80
 201  0.957  0.805  0.909- 230 2.34 158 2.34 159 2.34 243 2.34   8 2.91   1 3.10 100 3.29
 202  0.342  0.728  0.544- 220 2.03 244 2.34 160 2.34  18 3.13
 203  0.227  0.651  0.727- 232 2.34 161 2.34 245 2.34 160 2.34
 204  0.111  0.574  0.909-  58 2.21 233 2.34 161 2.34 246 2.34  89 2.34  31 3.05   1 3.19
 205  0.496  0.497  0.544- 214 1.62 105 2.24 163 2.34 247 2.34  18 2.34
 206  0.381  0.420  0.727- 235 2.34 164 2.34 248 2.34 163 2.34
 207  0.265  0.343  0.909-  35 1.84 236 2.34 164 2.34 165 2.34 249 2.34  85 3.33
 208  0.650  0.266  0.544-  36 1.88 217 2.09 166 2.34 250 2.34 105 3.24
 209  0.534  0.190  0.727- 251 2.34 238 2.34 166 2.34 167 2.34
 210  0.419  0.113  0.909-   2 2.27 239 2.34 167 2.34 252 2.34 168 2.34  16 3.12
 211  0.804  0.036  0.544-  90 2.30 169 2.34 253 2.34  30 2.58  63 3.06   9 3.28
 212  0.688  0.959  0.727- 256 2.34 170 2.34 254 2.34 169 2.34  30 3.04
 213  0.573  0.882  0.909-  64 2.24 257 2.34 170 2.34  62 2.34 101 3.18
 214  0.495  0.500  0.436- 205 1.62 105 2.81 115 2.81 177 2.81  18 2.81
 215  0.457  0.805  0.727- 244 2.34 173 2.34 257 2.34 172 2.34
 216  0.342  0.728  0.909-  10 1.83 245 2.34  91 2.34 173 2.34  88 2.34
 217  0.662  0.333  0.436- 208 2.09 108 2.81  36 2.81 196 2.81 105 2.81 136 2.98
 218  0.611  0.574  0.727- 247 2.34 176 2.34 260 2.34 175 2.34
 219  0.496  0.497  0.909-  86 1.36 248 2.34  50 2.34 176 2.34 261 2.34
 220  0.328  0.667  0.436- 202 2.03  18 2.81  41 2.81  92 2.81 121 3.06
 221  0.765  0.343  0.727- 263 2.34 179 2.34 250 2.34 178 2.34  36 3.29
 222  0.650  0.266  0.909-  82 1.89 179 2.34 251 2.34 264 2.34 180 2.34
 223  0.957  0.805  0.544-  84 1.39 229 2.34 184 2.34  57 3.04  39 3.21  12 3.23
 224  0.842  0.728  0.727- 259 2.34 185 2.34 230 2.34 184 2.34  84 3.07
 225  0.727  0.651  0.909-  29 1.88 260 2.34  52 2.34 185 2.34 186 2.34
 226  0.131  0.170  0.636-  45 2.30 194 2.34  95 2.34 187 2.34 116 2.34  72 3.04  99 3.11
 227  0.015  0.093  0.818- 195 2.34 188 2.34 116 2.34 117 2.34   7 3.29
 228  0.900  0.016  0.000-   7 1.88 234 2.09 117 2.34 189 2.34  79 3.24
 229  0.054  0.786  0.636- 200 2.34 223 2.34  65 2.34 119 2.34  39 2.93  84 3.16
 230  0.938  0.709  0.818- 201 2.34 224 2.34 119 2.34 120 2.34   1 3.04
 231  0.745  0.250  0.109- 264 1.62 142 2.81 171 2.81  48 2.81  79 2.81  82 2.81
 232  0.207  0.555  0.636- 203 2.34 190 2.34 121 2.34 122 2.34  77 2.91  47 3.10  69 3.29
 233  0.092  0.478  0.818- 204 2.34 122 2.34 191 2.34 123 2.34  58 3.07
 234  0.912  0.083  0.109- 228 2.09  79 2.81 255 2.81  73 2.81   7 2.81 153 2.98
 235  0.361  0.324  0.636-  26 2.21 206 2.34 193 2.34 124 2.34 125 2.34  24 3.05  47 3.19
 236  0.246  0.247  0.818- 207 2.34 125 2.34 194 2.34 126 2.34
 237  0.578  0.417  0.109- 261 2.03  86 2.81  42 2.81  82 2.81 139 2.81 180 3.06
 238  0.515  0.093  0.636-  53 1.84 209 2.34 127 2.34 104 2.34 128 2.34  81 3.33
 239  0.400  0.016  0.818- 210 2.34 128 2.34 197 2.34 129 2.34  16 3.07
 240  0.284  0.940  0.000-  16 1.46 129 2.34  49 2.34  37 3.00  55 3.16
 241  0.284  0.940  0.636- 197 2.34 130 2.34  15 2.34 131 2.34  80 2.86  99 3.20
 242  0.169  0.863  0.818-  49 2.34 131 2.34 200 2.34 132 2.34  55 2.78
 243  0.054  0.786  0.000-  55 2.30 132 2.34 201 2.34   1 2.58  28 3.06 100 3.28
 244  0.438  0.709  0.636- 215 2.34 202 2.34 133 2.34 134 2.34  18 2.84 102 3.15
 245  0.323  0.632  0.818- 216 2.34 203 2.34 134 2.34 135 2.34  10 2.80
 246  0.207  0.555  0.000-  58 1.39 204 2.34 135 2.34  31 3.04  10 3.21  85 3.23
 247  0.592  0.478  0.636- 105 1.83 218 2.34 136 2.34 205 2.34 137 2.34
 248  0.477  0.401  0.818- 219 2.34 137 2.34 206 2.34 138 2.34  86 3.35
 249  0.361  0.324  0.000-  35 0.66 138 2.34 207 2.34  43 2.38  85 3.32
 250  0.746  0.247  0.636-  36 1.36  23 2.34 221 2.34 208 2.34 140 2.34
 251  0.631  0.170  0.818- 209 2.34 222 2.34 140 2.34 141 2.34
 252  0.515  0.093  0.000-   2 1.48  97 2.05 141 2.34 210 2.34 101 3.38
 253  0.900  0.016  0.636-  90 1.89  27 2.34 188 2.34 211 2.34 110 2.34
 254  0.784  0.940  0.818- 189 2.34 110 2.34 212 2.34 111 2.34
 255  0.995  0.167  0.218-  13 2.81 234 2.81 162 2.81  34 2.81
 256  0.669  0.863  0.636-  30 2.27 212 2.34   5 2.34  78 2.34 143 2.34 102 3.12
 257  0.554  0.786  0.818- 213 2.34 143 2.34 215 2.34 144 2.34  64 3.09
 258  0.245  0.083  0.109- 168 2.41 103 2.81  71 2.81  16 2.81  17 2.81  94 3.24
 259  0.823  0.632  0.636-  33 2.24 224 2.34 145 2.34   6 2.34 146 2.34  84 3.18
 260  0.707  0.555  0.818- 225 2.34 146 2.34 218 2.34 147 2.34
 261  0.592  0.478  0.000-  86 1.94 237 2.03 219 2.34 147 2.34  82 3.13
 262  0.977  0.401  0.636-   3 1.88 191 2.34  21 2.34 112 2.34 113 2.34
 263  0.861  0.324  0.818- 221 2.34 192 2.34 113 2.34 114 2.34
 264  0.746  0.247  0.000- 231 1.62  79 2.24 222 2.34 114 2.34  82 2.34
 
 -----------------------------------------------------------------------------
|                                                                             |
|           W    W    AA    RRRRR   N    N  II  N    N   GGGG   !!!           |
|           W    W   A  A   R    R  NN   N  II  NN   N  G    G  !!!           |
|           W    W  A    A  R    R  N N  N  II  N N  N  G       !!!           |
|           W WW W  AAAAAA  RRRRR   N  N N  II  N  N N  G  GGG   !            |
|           WW  WW  A    A  R   R   N   NN  II  N   NN  G    G                |
|           W    W  A    A  R    R  N    N  II  N    N   GGGG   !!!           |
|                                                                             |
|     The distance between some ions is very small. Please check the          |
|     nearest-neighbor list in the OUTCAR file.                               |
|     I HOPE YOU KNOW WHAT YOU ARE DOING!                                     |
|                                                                             |
 -----------------------------------------------------------------------------

  LATTYP: Found a simple tetragonal cell.
 ALAT       =    19.4675998690
 C/A-ratio  =     0.7653871812
  
  Lattice vectors:
  
 A1 = (  19.4675998690,   0.0000000000,   0.0000000000)
 A2 = (   0.0000000000,  19.4675998690,   0.0000000000)
 A3 = (   0.0000000000,   0.0000000000,  14.9002513890)


Analysis of symmetry for initial positions (statically):
=====================================================================
 Subroutine PRICEL returns:
 Original cell was already a primitive cell.
 

 Routine SETGRP: Setting up the symmetry group for a 
 simple tetragonal supercell.


 Subroutine GETGRP returns: Found  1 space group operations
 (whereof  1 operations were pure point group operations)
 out of a pool of 16 trial point group operations.


The static configuration has the point symmetry C_1 .


Analysis of symmetry for dynamics (positions and initial velocities):
=====================================================================
 Subroutine PRICEL returns:
 Original cell was already a primitive cell.
 

 Routine SETGRP: Setting up the symmetry group for a 
 simple tetragonal supercell.


 Subroutine GETGRP returns: Found  1 space group operations
 (whereof  1 operations were pure point group operations)
 out of a pool of 16 trial point group operations.


The dynamic configuration has the point symmetry C_1 .


Analysis of structural, dynamic, and magnetic symmetry:
=====================================================================
 Subroutine PRICEL returns:
 Original cell was already a primitive cell.
 

 Routine SETGRP: Setting up the symmetry group for a 
 simple tetragonal supercell.


 Subroutine GETGRP returns: Found  1 space group operations
 (whereof  1 operations were pure point group operations)
 out of a pool of 16 trial point group operations.


The overall configuration has the point symmetry C_1 .


 Subroutine INISYM returns: Found  1 space group operations
 (whereof  1 operations are pure point group operations),
 and found     1 'primitive' translations


----------------------------------------------------------------------------------------

                                     Primitive cell                                     

  volume of cell :    5647.0082

  direct lattice vectors                    reciprocal lattice vectors
    19.467599869  0.000000000  0.000000000     0.051367401  0.000000000  0.000000000
     0.000000000 19.467599869  0.000000000     0.000000000  0.051367401  0.000000000
     0.000000000  0.000000000 14.900251389     0.000000000  0.000000000  0.067112962

  length of vectors
    19.467599869 19.467599869 14.900251389     0.051367401  0.051367401  0.067112962

  position of ions in fractional coordinates (direct lattice)
     0.995035112  0.666666687  0.000000000
     0.495035112  0.166666672  0.000000000
     0.911701739  0.416666716  0.544386804
     0.995035112  0.333333343  0.000000000
     0.765123904  0.843415856  0.544386804
     0.726662338  0.651108146  0.544386804
     0.995035112  0.000000000  0.000000000
     0.828368545  0.833333313  0.000000000
     0.661701739  0.000000000  0.435509443
     0.328368455  0.666666687  0.000000000
     0.161701739  0.666666687  0.217754737
     0.995035112  0.666666687  0.435509443
     0.911701798  0.250000000  0.326632023
     0.161701739  0.333333343  0.217754737
     0.188200757  0.958800435  0.544386804
     0.328368455  0.000000000  0.000000000
     0.161701739  0.000000000  0.217754737
     0.411701798  0.583333433  0.544386804
     0.911701798  0.916666746  0.326632023
     0.495035112  0.666666687  0.217754737
     0.880508482  0.420338988  0.544386804
     0.245035097  0.750000060  0.108877368
     0.842046916  0.228031188  0.544386804
     0.328368455  0.333333343  0.435509443
     0.745035052  0.750000060  0.326632023
     0.411701798  0.250000000  0.544386804
     0.995893002  0.997262001  0.544386804
     0.078368433  0.916666746  0.108877368
     0.661701798  0.666666687  0.000000000
     0.745035052  0.916666746  0.544386804
     0.078368433  0.583333433  0.108877368
     0.911701798  0.583333433  0.326632023
     0.745035052  0.583333433  0.544386804
     0.078368433  0.250000000  0.108877368
     0.328368455  0.333333343  0.000000000
     0.745035052  0.250000000  0.544386804
     0.411701769  0.916666746  0.108877368
     0.245035097  0.916666746  0.326632023
     0.078368381  0.916666746  0.544386804
     0.411701769  0.583333433  0.108877368
     0.245035097  0.583333433  0.326632023
     0.661701858  0.500000000  0.217754737
     0.411701769  0.250000000  0.108877368
     0.245035097  0.250000000  0.326632023
     0.078368381  0.250000000  0.544386804
     0.745035172  0.916666746  0.108877368
     0.245035127  0.416666716  0.544386804
     0.661701858  0.166666672  0.217754737
     0.188200638  0.958800316  0.908877313
     0.399739146  0.516492665  0.000000238
     0.995035112  0.000000000  0.435509443
     0.822816014  0.631877303  0.000000238
     0.578368366  0.083333343  0.544386804
     0.495035112  0.000000000  0.217754737
     0.161701769  0.833333313  0.000000000
     0.995035052  0.833333313  0.217754737
     0.828368425  0.833333313  0.435509443
     0.161701769  0.500000000  0.000000000
     0.995035052  0.500000000  0.217754737
     0.828368425  0.500000000  0.435509443
     0.911701739  0.416666716  0.108877368
     0.668969929  0.862646520  0.000000238
     0.828368425  0.166666672  0.435509443
     0.495035112  0.833333313  0.000000000
     0.149739221  0.766492844  0.544386804
     0.161701754  0.833333313  0.435509443
     0.078368433  0.416666716  0.326632023
     0.328368425  0.500000000  0.217754737
     0.161701754  0.500000000  0.435509443
     0.828368425  0.666666687  0.217754737
     0.328368425  0.166666672  0.217754737
     0.161701754  0.166666672  0.435509443
     0.828368425  0.000000000  0.217754737
     0.661701858  0.833333313  0.217754737
     0.938200831  0.208800495  0.635509431
     0.828368545  0.500000000  0.000000000
     0.078368381  0.583333433  0.544386804
     0.572816133  0.881877363  0.544386804
     0.828368545  0.166666672  0.000000000
     0.411701798  0.916666746  0.544386804
     0.495035201  0.166666672  0.435509443
     0.661701798  0.333333343  0.000000000
     0.078368433  0.750000060  0.326632023
     0.911701739  0.750000060  0.544386804
     0.245035097  0.416666716  0.108877368
     0.495035112  0.500000000  0.000000000
     0.661701739  0.666666687  0.435509443
     0.438200712  0.708800495  0.000000238
     0.015123715  0.593415797  0.000000238
     0.911701739  0.083333343  0.544386804
     0.245893002  0.747261941  0.000000238
     0.411701858  0.750000060  0.326632023
     0.828368425  0.666666687  0.217754737
     0.130508333  0.170338854  0.000000238
     0.226662278  0.151108176  0.544386804
     0.578368545  0.916666746  0.326632023
     0.578368485  0.083333343  0.108877368
     0.411701858  0.083333343  0.326632023
     0.245035127  0.083333343  0.544386804
     0.911701739  0.750000060  0.108877368
     0.661701798  0.000000000  0.000000000
     0.578368366  0.750000060  0.544386804
     0.161701769  0.166666672  0.000000000
     0.418969989  0.112646602  0.544386804
     0.578368366  0.416666716  0.544386804
     0.976662159  0.401108086  0.000000238
     0.092046767  0.978031158  0.000000238
     0.578368545  0.250000000  0.326632023
     0.328368455  0.000000000  0.435509443
     0.880508363  0.920338869  0.726632059
     0.765123725  0.843415737  0.908877313
     0.072816126  0.381877452  0.544386804
     0.957431436  0.304954290  0.726632059
     0.842046797  0.228031158  0.908877313
     0.411701858  0.416666716  0.326632023
     0.111277618  0.074185051  0.726632059
     0.995892942  0.997261941  0.908877313
     0.328368425  0.833333313  0.217754737
     0.034354534  0.689569712  0.726632059
     0.918969870  0.612646580  0.908877313
     0.303585410  0.535723567  0.544386804
     0.188200727  0.458800435  0.726632059
     0.072816066  0.381877303  0.908877313
     0.457431555  0.304954350  0.544386804
     0.342046857  0.228031203  0.726632059
     0.226662204  0.151108071  0.908877313
     0.611277699  0.074185103  0.544386804
     0.495893002  0.997261941  0.726632059
     0.380508363  0.920338809  0.908877313
     0.380508512  0.920339048  0.544386804
     0.265123844  0.843415916  0.726632059
     0.149739176  0.766492724  0.908877313
     0.534354627  0.689569712  0.544386804
     0.418969929  0.612646580  0.726632059
     0.303585261  0.535723448  0.908877313
     0.688200712  0.458800495  0.544386804
     0.572816074  0.381877363  0.726632059
     0.457431376  0.304954231  0.908877313
     0.495035112  0.333333343  0.217754737
     0.726662278  0.151108041  0.726632059
     0.611277580  0.074184909  0.908877313
     0.828368425  0.333333343  0.217754737
     0.649739265  0.766492724  0.726632059
     0.534354568  0.689569592  0.908877313
     0.918970048  0.612646639  0.544386804
     0.803585410  0.535723507  0.726632059
     0.688200712  0.458800375  0.908877313
     0.015123837  0.593415856  0.635509431
     0.899739206  0.516492724  0.817754686
     0.784354508  0.439569622  0.000000238
     0.168969959  0.362646669  0.635509431
     0.053585295  0.285723537  0.817754686
     0.938200593  0.208800375  0.000000238
     0.322816133  0.131877407  0.635509431
     0.207431450  0.054954268  0.817754686
     0.745035052  0.083333343  0.326632023
     0.092046887  0.978031278  0.635509431
     0.976662219  0.901108146  0.817754686
     0.861277521  0.824185014  0.000000238
     0.245893061  0.747262061  0.635509431
     0.130508408  0.670338929  0.817754686
     0.078368433  0.083333343  0.326632023
     0.399739265  0.516492844  0.635509431
     0.284354597  0.439569682  0.817754686
     0.168969929  0.362646550  0.000000238
     0.553585410  0.285723537  0.635509431
     0.438200712  0.208800390  0.817754686
     0.322816044  0.131877258  0.000000238
     0.707431555  0.054954302  0.635509431
     0.592046857  0.978031158  0.817754686
     0.661701858  0.166666672  0.217754737
     0.476662397  0.901108205  0.635509431
     0.361277699  0.824185073  0.817754686
     0.578368485  0.750000060  0.108877368
     0.630508542  0.670338988  0.635509431
     0.515123844  0.593415797  0.817754686
     0.578368545  0.583333433  0.326632023
     0.784354687  0.439569712  0.635509431
     0.668969989  0.362646550  0.817754686
     0.553585291  0.285723418  0.000000238
     0.495035201  0.833333313  0.435509443
     0.822816133  0.131877348  0.817754686
     0.707431436  0.054954205  0.000000238
     0.861277878  0.824185133  0.635509431
     0.745893180  0.747262001  0.817754686
     0.630508423  0.670338809  0.000000238
     0.034354586  0.189569741  0.544386804
     0.918969929  0.112646602  0.726632059
     0.803585231  0.035723470  0.908877313
     0.111277662  0.574185073  0.544386804
     0.995893002  0.497262001  0.726632059
     0.880508304  0.420338839  0.908877313
     0.265123844  0.343415916  0.544386804
     0.149739191  0.266492784  0.726632059
     0.034354493  0.189569652  0.908877313
     0.745035052  0.416666716  0.326632023
     0.303585321  0.035723474  0.726632059
     0.745035172  0.583333433  0.108877368
     0.995035112  0.333333343  0.435509443
     0.072816059  0.881877303  0.726632059
     0.957431376  0.804954231  0.908877313
     0.342046916  0.728031278  0.544386804
     0.226662233  0.651108146  0.726632059
     0.111277573  0.574185014  0.908877313
     0.495893091  0.497262001  0.544386804
     0.380508423  0.420338869  0.726632059
     0.265123725  0.343415737  0.908877313
     0.649739265  0.266492784  0.544386804
     0.534354627  0.189569652  0.726632059
     0.418969929  0.112646520  0.908877313
     0.803585410  0.035723574  0.544386804
     0.688200712  0.958800435  0.726632059
     0.572816074  0.881877303  0.908877313
     0.495035201  0.500000000  0.435509443
     0.457431436  0.804954290  0.726632059
     0.342046797  0.728031099  0.908877313
     0.661701739  0.333333343  0.435509443
     0.611277640  0.574185014  0.726632059
     0.495892942  0.497261852  0.908877313
     0.328368455  0.666666687  0.435509443
     0.765123844  0.343415856  0.726632059
     0.649739146  0.266492724  0.908877313
     0.957431614  0.804954290  0.544386804
     0.842046916  0.728031158  0.726632059
     0.726662278  0.651108027  0.908877313
     0.130508438  0.170338959  0.635509431
     0.015123768  0.093415834  0.817754686
     0.899739087  0.016492693  0.000000238
     0.053585343  0.785723627  0.635509431
     0.938200712  0.708800435  0.817754686
     0.745035172  0.250000000  0.108877368
     0.207431525  0.554954410  0.635509431
     0.092046872  0.478031248  0.817754686
     0.911701739  0.083333343  0.108877368
     0.361277699  0.324185133  0.635509431
     0.245893031  0.247262001  0.817754686
     0.578368485  0.416666716  0.108877368
     0.515123844  0.093415849  0.635509431
     0.399739206  0.016492724  0.817754686
     0.284354508  0.939569533  0.000000238
     0.284354657  0.939569831  0.635509431
     0.168969989  0.862646639  0.817754686
     0.053585291  0.785723507  0.000000238
     0.438200772  0.708800614  0.635509431
     0.322816074  0.631877422  0.817754686
     0.207431406  0.554954290  0.000000238
     0.592046976  0.478031278  0.635509431
     0.476662278  0.401108146  0.817754686
     0.361277610  0.324185014  0.000000238
     0.745893121  0.247262001  0.635509431
     0.630508423  0.170338869  0.817754686
     0.515123785  0.093415722  0.000000238
     0.899739265  0.016492788  0.635509431
     0.784354568  0.939569652  0.817754686
     0.995035052  0.166666672  0.217754737
     0.668970108  0.862646759  0.635509431
     0.553585410  0.785723627  0.817754686
     0.245035097  0.083333343  0.108877368
     0.822816253  0.631877422  0.635509431
     0.707431555  0.554954290  0.817754686
     0.592046797  0.478031129  0.000000238
     0.976662278  0.401108235  0.635509431
     0.861277580  0.324185073  0.817754686
     0.745892882  0.247261927  0.000000238

  ion indices of the primitive-cell ions
   primitive index   ion index
                 1           1
                 2           2
                 3           3
                 4           4
                 5           5
                 6           6
                 7           7
                 8           8
                 9           9
                10          10
                11          11
                12          12
                13          13
                14          14
                15          15
                16          16
                17          17
                18          18
                19          19
                20          20
                21          21
                22          22
                23          23
                24          24
                25          25
                26          26
                27          27
                28          28
                29          29
                30          30
                31          31
                32          32
                33          33
                34          34
                35          35
                36          36
                37          37
                38          38
                39          39
                40          40
                41          41
                42          42
                43          43
                44          44
                45          45
                46          46
                47          47
                48          48
                49          49
                50          50
                51          51
                52          52
                53          53
                54          54
                55          55
                56          56
                57          57
                58          58
                59          59
                60          60
                61          61
                62          62
                63          63
                64          64
                65          65
                66          66
                67          67
                68          68
                69          69
                70          70
                71          71
                72          72
                73          73
                74          74
                75          75
                76          76
                77          77
                78          78
                79          79
                80          80
                81          81
                82          82
                83          83
                84          84
                85          85
                86          86
                87          87
                88          88
                89          89
                90          90
                91          91
                92          92
                93          93
                94          94
                95          95
                96          96
                97          97
                98          98
                99          99
               100         100
               101         101
               102         102
               103         103
               104         104
               105         105
               106         106
               107         107
               108         108
               109         109
               110         110
               111         111
               112         112
               113         113
               114         114
               115         115
               116         116
               117         117
               118         118
               119         119
               120         120
               121         121
               122         122
               123         123
               124         124
               125         125
               126         126
               127         127
               128         128
               129         129
               130         130
               131         131
               132         132
               133         133
               134         134
               135         135
               136         136
               137         137
               138         138
               139         139
               140         140
               141         141
               142         142
               143         143
               144         144
               145         145
               146         146
               147         147
               148         148
               149         149
               150         150
               151         151
               152         152
               153         153
               154         154
               155         155
               156         156
               157         157
               158         158
               159         159
               160         160
               161         161
               162         162
               163         163
               164         164
               165         165
               166         166
               167         167
               168         168
               169         169
               170         170
               171         171
               172         172
               173         173
               174         174
               175         175
               176         176
               177         177
               178         178
               179         179
               180         180
               181         181
               182         182
               183         183
               184         184
               185         185
               186         186
               187         187
               188         188
               189         189
               190         190
               191         191
               192         192
               193         193
               194         194
               195         195
               196         196
               197         197
               198         198
               199         199
               200         200
               201         201
               202         202
               203         203
               204         204
               205         205
               206         206
               207         207
               208         208
               209         209
               210         210
               211         211
               212         212
               213         213
               214         214
               215         215
               216         216
               217         217
               218         218
               219         219
               220         220
               221         221
               222         222
               223         223
               224         224
               225         225
               226         226
               227         227
               228         228
               229         229
               230         230
               231         231
               232         232
               233         233
               234         234
               235         235
               236         236
               237         237
               238         238
               239         239
               240         240
               241         241
               242         242
               243         243
               244         244
               245         245
               246         246
               247         247
               248         248
               249         249
               250         250
               251         251
               252         252
               253         253
               254         254
               255         255
               256         256
               257         257
               258         258
               259         259
               260         260
               261         261
               262         262
               263         263
               264         264

----------------------------------------------------------------------------------------

 
 
 KPOINTS: Automatic KPOINTS generated             

Automatic generation of k-mesh.
 Grid dimensions read from file:
 generate k-points for:    2    2    2

 Generating k-lattice:

  Cartesian coordinates                     Fractional coordinates (reciprocal lattice)
     0.025683700  0.000000000  0.000000000     0.500000000  0.000000000  0.000000000
     0.000000000  0.025683700  0.000000000     0.000000000  0.500000000  0.000000000
     0.000000000  0.000000000  0.033556481     0.000000000  0.000000000  0.500000000

  Length of vectors
     0.025683700  0.025683700  0.033556481

  Shift w.r.t. Gamma in fractional coordinates (k-lattice)
     0.000000000  0.000000000  0.000000000

 
 Subroutine IBZKPT returns following result:
 ===========================================
 
 Found      8 irreducible k-points:
 
 Following reciprocal coordinates:
            Coordinates               Weight
  0.000000  0.000000  0.000000      1.000000
  0.500000  0.000000  0.000000      1.000000
  0.000000  0.500000  0.000000      1.000000
  0.500000  0.500000  0.000000      1.000000
  0.000000  0.000000  0.500000      1.000000
  0.500000  0.000000  0.500000      1.000000
  0.000000  0.500000  0.500000      1.000000
  0.500000  0.500000  0.500000      1.000000
 
 Following cartesian coordinates:
            Coordinates               Weight
  0.000000  0.000000  0.000000      1.000000
  0.025684  0.000000  0.000000      1.000000
  0.000000  0.025684  0.000000      1.000000
  0.025684  0.025684  0.000000      1.000000
  0.000000  0.000000  0.033556      1.000000
  0.025684  0.000000  0.033556      1.000000
  0.000000  0.025684  0.033556      1.000000
  0.025684  0.025684  0.033556      1.000000
 
 -----------------------------------------------------------------------------
|                                                                             |
|           W    W    AA    RRRRR   N    N  II  N    N   GGGG   !!!           |
|           W    W   A  A   R    R  NN   N  II  NN   N  G    G  !!!           |
|           W    W  A    A  R    R  N N  N  II  N N  N  G       !!!           |
|           W WW W  AAAAAA  RRRRR   N  N N  II  N  N N  G  GGG   !            |
|           WW  WW  A    A  R   R   N   NN  II  N   NN  G    G                |
|           W    W  A    A  R    R  N    N  II  N    N   GGGG   !!!           |
|                                                                             |
|     The number of bands has been changed from the values supplied in        |
|     the INCAR file. This is a result of running the parallel version.       |
|     The orbitals not found in the WAVECAR file will be initialized with     |
|     random numbers, which is usually adequate. For correlated               |
|     calculations, however, you should redo the groundstate calculation.     |
|     I found NBANDS = 634. Now, NBANDS = 636.                                |
|                                                                             |
 -----------------------------------------------------------------------------



--------------------------------------------------------------------------------------------------------




 Dimension of arrays:
   k-points           NKPTS =      8   k-points in BZ     NKDIM =      8   number of bands    NBANDS=    636
   number of dos      NEDOS =    301   number of ions     NIONS =    264
   non local maximal  LDIM  =      5   non local SUM 2l+1 LMDIM =     13
   total plane-waves  NPLWV = ******
   max r-space proj   IRMAX =   4496   max aug-charges    IRDMAX= 208011
   dimension x,y,z NGX =   126 NGY =  126 NGZ =   96
   dimension x,y,z NGXF=   252 NGYF=  252 NGZF=  192
   support grid    NGXF=   504 NGYF=  504 NGZF=  384
   ions per type =             108 156
   NGX,Y,Z   is equivalent  to a cutoff of  10.76, 10.76, 10.71 a.u.
   NGXF,Y,Z  is equivalent  to a cutoff of  21.52, 21.52, 21.42 a.u.

 SYSTEM =  Si and Ge interface calculation         
 POSCAR =  Sn+Si                                   

 Startparameter for this run:
   NWRITE =      2    write-flag & timer
   PREC   = normal    normal or accurate (medium, high low for compatibility)
   ISTART =      0    job   : 0-new  1-cont  2-samecut
   ICHARG =      2    charge: 1-file 2-atom 10-const
   ISPIN  =      2    spin polarized calculation?
   LNONCOLLINEAR =      F non collinear calculations
   LSORBIT =      F    spin-orbit coupling
   INIWAV =      1    electr: 0-lowe 1-rand  2-diag
   LASPH  =      T    aspherical Exc in radial PAW
 Electronic Relaxation 1
   ENCUT  =  700.0 eV  51.45 Ry    7.17 a.u.  42.00 42.00 32.14*2*pi/ulx,y,z
   ENINI  =  700.0     initial cutoff
   ENAUG  =  900.0 eV  augmentation charge cutoff
   NELM   =    100;   NELMIN=  2; NELMDL= -5     # of ELM steps 
   EDIFF  = 0.1E-06   stopping-criterion for ELM
   LREAL  =      T    real-space projection
   NLSPLINE    = F    spline interpolate recip. space projectors
   LCOMPAT=      F    compatible to vasp.4.4
   GGA_COMPAT  = T    GGA compatible to vasp.4.4-vasp.4.6
   LMAXPAW     = -100 max onsite density
   LMAXMIX     =    6 max onsite mixed and CHGCAR
   VOSKOWN=      0    Vosko Wilk Nusair interpolation
   ROPT   =   -0.00050  -0.00050
 Ionic relaxation
   EDIFFG = 0.1E-05   stopping-criterion for IOM
   NSW    =      0    number of steps for IOM
   NBLOCK =      1;   KBLOCK =      1    inner block; outer block 
   IBRION =     -1    ionic relax: 0-MD 1-quasi-New 2-CG
   NFREE  =      0    steps in history (QN), initial steepest desc. (CG)
   ISIF   =      2    stress and relaxation
   IWAVPR =     10    prediction:  0-non 1-charg 2-wave 3-comb
   ISYM   =      2    0-nonsym 1-usesym 2-fastsym
   LCORR  =      T    Harris-Foulkes like correction to forces

   POTIM  = 0.5000    time-step for ionic-motion
   TEIN   =    0.0    initial temperature
   TEBEG  =    0.0;   TEEND  =   0.0 temperature during run
   SMASS  =  -3.00    Nose mass-parameter (am)
   estimated Nose-frequenzy (Omega)   =  0.10E-29 period in steps = 0.13E+47 mass=  -0.866E-26a.u.
   SCALEE = 1.0000    scale energy and forces
   NPACO  =    256;   APACO  = 10.0  distance and # of slots for P.C.
   PSTRESS=    0.0 pullay stress

  Mass of Ions in am
   POMASS = 118.71 28.09
  Ionic Valenz
   ZVAL   =   4.00  4.00
  Atomic Wigner-Seitz radii
   RWIGS  =  -1.00 -1.00
  virtual crystal weights 
   VCA    =   1.00  1.00
   NELECT =    1056.0000    total number of electrons
   NUPDOWN=       1.0000    fix difference up-down

 DOS related values:
   EMIN   =  10.00;   EMAX   =-10.00  energy-range for DOS
   EFERMI =   0.00;   METHOD = LEGACY      
   ISMEAR =     0;   SIGMA  =   0.01  broadening in eV -4-tet -1-fermi 0-gaus

 Electronic relaxation 2 (details)
   IALGO  =     38    algorithm
   LDIAG  =      T    sub-space diagonalisation (order eigenvalues)
   LSUBROT=      F    optimize rotation matrix (better conditioning)
   TURBO    =      0    0=normal 1=particle mesh
   IRESTART =      0    0=no restart 2=restart with 2 vectors
   NREBOOT  =      0    no. of reboots
   NMIN     =      0    reboot dimension
   EREF     =   0.00    reference energy to select bands
   IMIX   =      4    mixing-type and parameters
     AMIX     =   0.60;   BMIX     =  1.00
     AMIX_MAG =   2.40;   BMIX_MAG =  1.00
     AMIN     =   0.10
     WC   =   100.;   INIMIX=   1;  MIXPRE=   1;  MAXMIX= -45

 Intra band minimization:
   WEIMIN = 0.0000     energy-eigenvalue tresh-hold
   EBREAK =  0.39E-10  absolut break condition
   DEPER  =   0.30     relativ break condition  

   TIME   =   0.40     timestep for ELM

  volume/ion in A,a.u.               =      21.39       144.35
  Fermi-wavevector in a.u.,A,eV,Ry     =   0.936174  1.769113 11.924447  0.876422
  Thomas-Fermi vector in A             =   2.063157
 
 Write flags
   LWAVE        =      F    write WAVECAR
   LDOWNSAMPLE  =      F    k-point downsampling of WAVECAR
   LCHARG       =      T    write CHGCAR
   LVTOT        =      F    write LOCPOT, total local potential
   LVHAR        =      T    write LOCPOT, Hartree potential only
   WRT_POTENTIAL=  hartree ionic  ! write potential to hdf5 file
   LELF         =      F    write electronic localiz. function (ELF)
   LORBIT       =      0    0 simple, 1 ext, 2 COOP (PROOUT), +10 PAW based schemes


 Dipole corrections
   LMONO      =      F    monopole corrections only (constant potential shift)
   LDIPOL     =      F    correct potential (dipole corrections)
   IDIPOL     =      0    1-x, 2-y, 3-z, 4-all directions 
   EPSILON    =  1.0000000 bulk dielectric constant
   LVACPOTAV  =      F  vacuum potentials using an averaging scheme for the charge density
   VACPOTFLAT =  0.1000000 required flatness to determine vacuum potential
 Exchange correlation treatment:
   GGA     = PE    functional components
   XC_C    = 1    coefficients multiplying the functional components
   LIBXC   =     F    Libxc                    
   VOSKOWN =     0    Vosko Wilk Nusair interpolation
   LHFCALC =     F    Hartree Fock is set to
   LHFONE  =     F    Hartree Fock one center treatment
   AEXX    =    0.0000 exact exchange contribution

 Parameters of functionals:
   PE:
     No parameter
 
 Van der Waals corrections
   IVDW    =     0    specifies the selected vdW correction

 Linear response parameters
   LEPSILON=     F    determine dielectric tensor
   LRPA    =     F    only Hartree local field effects (RPA)
   LNABLA  =     F    use nabla operator in PAW spheres
   LVEL    =     F    velocity operator in full k-point grid
   CSHIFT  =0.1000    complex shift for real part using Kramers Kronig
   OMEGAMAX=  -1.0    maximum frequency
   DEG_THRESHOLD= 0.2000000E-02 threshold for treating states as degnerate
   RTIME   =   -0.100 relaxation time in fs
  (WPLASMAI=    0.000 imaginary part of plasma frequency in eV, 0.658/RTIME)
   DFIELD  = 0.0000000 0.0000000 0.0000000 field for delta impulse in time
 
  Optional k-point grid parameters
   LKPOINTS_OPT  =     F    use optional k-point grid
   KPOINTS_OPT_MODE=     1    mode for optional k-point grid
 
 Orbital magnetization related:
   ORBITALMAG=     F  switch on orbital magnetization
   LCHIMAG   =     F  perturbation theory with respect to B field
   DQ        =  0.001000  dq finite difference perturbation B field
   LLRAUG    =     F  two centre corrections for induced B field
   LBONE     =     F  B-component reconstruction in AE one-centre
   LVGVCALC  =     T  calculate vGv susceptibility
   LVGVAPPL  =     F  apply vGv susceptibility instead of pGv for G=0

 Random number generation:
   RANDOM_GENERATOR = DEFAULT
   PCG_SEED         = not used


--------------------------------------------------------------------------------------------------------


 Static calculation
 charge density and potential will be updated during run
 spin polarized calculation
 Variant of blocked Davidson
 Davidson routine will perform the subspace rotation
 perform sub-space diagonalisation
    after iterative eigenvector-optimisation
 modified Broyden-mixing scheme, WC =      100.0
 initial mixing is a Kerker type mixing with AMIX =  0.6000 and BMIX =      1.0000
 Hartree-type preconditioning will be used
 using additional bands          108
 real space projection scheme for non local part
 use partial core corrections
 calculate Harris-corrections to forces 
   (improved forces if not selfconsistent)
 use gradient corrections 
 use of overlap-Matrix (Vanderbilt PP)
 Gauss-broadening in eV      SIGMA  =   0.01


--------------------------------------------------------------------------------------------------------


  energy-cutoff  :      700.00
  volume of cell :     5647.01
      direct lattice vectors                 reciprocal lattice vectors
    19.467599869  0.000000000  0.000000000     0.051367401  0.000000000  0.000000000
     0.000000000 19.467599869  0.000000000     0.000000000  0.051367401  0.000000000
     0.000000000  0.000000000 14.900251389     0.000000000  0.000000000  0.067112962

  length of vectors
    19.467599869 19.467599869 14.900251389     0.051367401  0.051367401  0.067112962


 
 k-points in units of 2pi/SCALE and weight: Automatic KPOINTS generated             
   0.00000000  0.00000000  0.00000000       0.125
   0.02568370  0.00000000  0.00000000       0.125
   0.00000000  0.02568370  0.00000000       0.125
   0.02568370  0.02568370  0.00000000       0.125
   0.00000000  0.00000000  0.03355648       0.125
   0.02568370  0.00000000  0.03355648       0.125
   0.00000000  0.02568370  0.03355648       0.125
   0.02568370  0.02568370  0.03355648       0.125
 
 k-points in reciprocal lattice and weights: Automatic KPOINTS generated             
   0.00000000  0.00000000  0.00000000       0.125
   0.50000000  0.00000000  0.00000000       0.125
   0.00000000  0.50000000  0.00000000       0.125
   0.50000000  0.50000000  0.00000000       0.125
   0.00000000  0.00000000  0.50000000       0.125
   0.50000000  0.00000000  0.50000000       0.125
   0.00000000  0.50000000  0.50000000       0.125
   0.50000000  0.50000000  0.50000000       0.125
 
 position of ions in fractional coordinates (direct lattice) 
   0.99503511  0.66666669  0.00000000
   0.49503511  0.16666667  0.00000000
   0.91170174  0.41666672  0.54438680
   0.99503511  0.33333334  0.00000000
   0.76512390  0.84341586  0.54438680
   0.72666234  0.65110815  0.54438680
   0.99503511  0.00000000  0.00000000
   0.82836855  0.83333331  0.00000000
   0.66170174  0.00000000  0.43550944
   0.32836846  0.66666669  0.00000000
   0.16170174  0.66666669  0.21775474
   0.99503511  0.66666669  0.43550944
   0.91170180  0.25000000  0.32663202
   0.16170174  0.33333334  0.21775474
   0.18820076  0.95880044  0.54438680
   0.32836846  0.00000000  0.00000000
   0.16170174  0.00000000  0.21775474
   0.41170180  0.58333343  0.54438680
   0.91170180  0.91666675  0.32663202
   0.49503511  0.66666669  0.21775474
   0.88050848  0.42033899  0.54438680
   0.24503510  0.75000006  0.10887737
   0.84204692  0.22803119  0.54438680
   0.32836846  0.33333334  0.43550944
   0.74503505  0.75000006  0.32663202
   0.41170180  0.25000000  0.54438680
   0.99589300  0.99726200  0.54438680
   0.07836843  0.91666675  0.10887737
   0.66170180  0.66666669  0.00000000
   0.74503505  0.91666675  0.54438680
   0.07836843  0.58333343  0.10887737
   0.91170180  0.58333343  0.32663202
   0.74503505  0.58333343  0.54438680
   0.07836843  0.25000000  0.10887737
   0.32836846  0.33333334  0.00000000
   0.74503505  0.25000000  0.54438680
   0.41170177  0.91666675  0.10887737
   0.24503510  0.91666675  0.32663202
   0.07836838  0.91666675  0.54438680
   0.41170177  0.58333343  0.10887737
   0.24503510  0.58333343  0.32663202
   0.66170186  0.50000000  0.21775474
   0.41170177  0.25000000  0.10887737
   0.24503510  0.25000000  0.32663202
   0.07836838  0.25000000  0.54438680
   0.74503517  0.91666675  0.10887737
   0.24503513  0.41666672  0.54438680
   0.66170186  0.16666667  0.21775474
   0.18820064  0.95880032  0.90887731
   0.39973915  0.51649267  0.00000024
   0.99503511  0.00000000  0.43550944
   0.82281601  0.63187730  0.00000024
   0.57836837  0.08333334  0.54438680
   0.49503511  0.00000000  0.21775474
   0.16170177  0.83333331  0.00000000
   0.99503505  0.83333331  0.21775474
   0.82836843  0.83333331  0.43550944
   0.16170177  0.50000000  0.00000000
   0.99503505  0.50000000  0.21775474
   0.82836843  0.50000000  0.43550944
   0.91170174  0.41666672  0.10887737
   0.66896993  0.86264652  0.00000024
   0.82836843  0.16666667  0.43550944
   0.49503511  0.83333331  0.00000000
   0.14973922  0.76649284  0.54438680
   0.16170175  0.83333331  0.43550944
   0.07836843  0.41666672  0.32663202
   0.32836843  0.50000000  0.21775474
   0.16170175  0.50000000  0.43550944
   0.82836843  0.66666669  0.21775474
   0.32836843  0.16666667  0.21775474
   0.16170175  0.16666667  0.43550944
   0.82836843  0.00000000  0.21775474
   0.66170186  0.83333331  0.21775474
   0.93820083  0.20880049  0.63550943
   0.82836855  0.50000000  0.00000000
   0.07836838  0.58333343  0.54438680
   0.57281613  0.88187736  0.54438680
   0.82836855  0.16666667  0.00000000
   0.41170180  0.91666675  0.54438680
   0.49503520  0.16666667  0.43550944
   0.66170180  0.33333334  0.00000000
   0.07836843  0.75000006  0.32663202
   0.91170174  0.75000006  0.54438680
   0.24503510  0.41666672  0.10887737
   0.49503511  0.50000000  0.00000000
   0.66170174  0.66666669  0.43550944
   0.43820071  0.70880049  0.00000024
   0.01512372  0.59341580  0.00000024
   0.91170174  0.08333334  0.54438680
   0.24589300  0.74726194  0.00000024
   0.41170186  0.75000006  0.32663202
   0.82836843  0.66666669  0.21775474
   0.13050833  0.17033885  0.00000024
   0.22666228  0.15110818  0.54438680
   0.57836855  0.91666675  0.32663202
   0.57836848  0.08333334  0.10887737
   0.41170186  0.08333334  0.32663202
   0.24503513  0.08333334  0.54438680
   0.91170174  0.75000006  0.10887737
   0.66170180  0.00000000  0.00000000
   0.57836837  0.75000006  0.54438680
   0.16170177  0.16666667  0.00000000
   0.41896999  0.11264660  0.54438680
   0.57836837  0.41666672  0.54438680
   0.97666216  0.40110809  0.00000024
   0.09204677  0.97803116  0.00000024
   0.57836855  0.25000000  0.32663202
   0.32836846  0.00000000  0.43550944
   0.88050836  0.92033887  0.72663206
   0.76512373  0.84341574  0.90887731
   0.07281613  0.38187745  0.54438680
   0.95743144  0.30495429  0.72663206
   0.84204680  0.22803116  0.90887731
   0.41170186  0.41666672  0.32663202
   0.11127762  0.07418505  0.72663206
   0.99589294  0.99726194  0.90887731
   0.32836843  0.83333331  0.21775474
   0.03435453  0.68956971  0.72663206
   0.91896987  0.61264658  0.90887731
   0.30358541  0.53572357  0.54438680
   0.18820073  0.45880044  0.72663206
   0.07281607  0.38187730  0.90887731
   0.45743155  0.30495435  0.54438680
   0.34204686  0.22803120  0.72663206
   0.22666220  0.15110807  0.90887731
   0.61127770  0.07418510  0.54438680
   0.49589300  0.99726194  0.72663206
   0.38050836  0.92033881  0.90887731
   0.38050851  0.92033905  0.54438680
   0.26512384  0.84341592  0.72663206
   0.14973918  0.76649272  0.90887731
   0.53435463  0.68956971  0.54438680
   0.41896993  0.61264658  0.72663206
   0.30358526  0.53572345  0.90887731
   0.68820071  0.45880049  0.54438680
   0.57281607  0.38187736  0.72663206
   0.45743138  0.30495423  0.90887731
   0.49503511  0.33333334  0.21775474
   0.72666228  0.15110804  0.72663206
   0.61127758  0.07418491  0.90887731
   0.82836843  0.33333334  0.21775474
   0.64973927  0.76649272  0.72663206
   0.53435457  0.68956959  0.90887731
   0.91897005  0.61264664  0.54438680
   0.80358541  0.53572351  0.72663206
   0.68820071  0.45880038  0.90887731
   0.01512384  0.59341586  0.63550943
   0.89973921  0.51649272  0.81775469
   0.78435451  0.43956962  0.00000024
   0.16896996  0.36264667  0.63550943
   0.05358529  0.28572354  0.81775469
   0.93820059  0.20880038  0.00000024
   0.32281613  0.13187741  0.63550943
   0.20743145  0.05495427  0.81775469
   0.74503505  0.08333334  0.32663202
   0.09204689  0.97803128  0.63550943
   0.97666222  0.90110815  0.81775469
   0.86127752  0.82418501  0.00000024
   0.24589306  0.74726206  0.63550943
   0.13050841  0.67033893  0.81775469
   0.07836843  0.08333334  0.32663202
   0.39973927  0.51649284  0.63550943
   0.28435460  0.43956968  0.81775469
   0.16896993  0.36264655  0.00000024
   0.55358541  0.28572354  0.63550943
   0.43820071  0.20880039  0.81775469
   0.32281604  0.13187726  0.00000024
   0.70743155  0.05495430  0.63550943
   0.59204686  0.97803116  0.81775469
   0.66170186  0.16666667  0.21775474
   0.47666240  0.90110820  0.63550943
   0.36127770  0.82418507  0.81775469
   0.57836848  0.75000006  0.10887737
   0.63050854  0.67033899  0.63550943
   0.51512384  0.59341580  0.81775469
   0.57836855  0.58333343  0.32663202
   0.78435469  0.43956971  0.63550943
   0.66896999  0.36264655  0.81775469
   0.55358529  0.28572342  0.00000024
   0.49503520  0.83333331  0.43550944
   0.82281613  0.13187735  0.81775469
   0.70743144  0.05495421  0.00000024
   0.86127788  0.82418513  0.63550943
   0.74589318  0.74726200  0.81775469
   0.63050842  0.67033881  0.00000024
   0.03435459  0.18956974  0.54438680
   0.91896993  0.11264660  0.72663206
   0.80358523  0.03572347  0.90887731
[...]
     11.25944      1.62230      8.11150      -470.691665    133.249034    -15.590869
      9.63715      0.00000      3.24460        -0.080140     -0.104638      0.386082
      3.14795     16.22300      0.00000         0.770477     18.985486     15.103214
     19.37094     16.22300      3.24460        -0.022186      0.002950     -0.061588
     16.12635     16.22300      6.48920        13.008658     -3.249814    -20.105145
      3.14795      9.73380      0.00000       -55.073818    -73.939592      3.067090
     19.37094      9.73380      3.24460         0.073491     -0.060840      0.757205
     16.12635      9.73380      6.48920        -3.700578      3.616142     -5.500170
     17.74864      8.11150      1.62230       -12.448785      3.496355     18.857953
     13.02324     16.79366      0.00000        -3.680963     -4.317023     -0.386847
     16.12635      3.24460      6.48920        -3.146948    -14.606980    -20.573280
      9.63715     16.22300      0.00000        -2.980653     -0.077127      3.462860
      2.91506     14.92178      8.11150        -1.157248    -12.202145     10.929667
      3.14795     16.22300      6.48920         2.507838      9.947961    -14.643448
      1.52565      8.11150      4.86690        -0.717173     -0.621688      0.193870
      6.39255      9.73380      3.24460         0.510462     -0.540011      1.167830
      3.14795      9.73380      6.48920         0.407980     -1.051857     -1.762007
     16.12635     12.97840      3.24460        -0.873829     -1.182672     -1.204839
      6.39255      3.24460      3.24460        -0.786717     -0.564990     -0.102972
      3.14795      3.24460      6.48920       -12.348783      3.625326    -18.827261
     16.12635      0.00000      3.24460        -0.012044      1.363377      0.330178
     12.88175     16.22300      3.24460        -0.655402     -0.755007      0.111288
     18.26452      4.06484      9.46925         2.639353      0.851606      3.580294
     16.12635      9.73380      0.00000        43.331196     64.560333      2.856473
      1.52564     11.35610      8.11150      -470.817724    132.956846    -15.730676
     11.15136     17.16804      8.11150         1.717187      3.886576     -1.393083
     16.12635      3.24460      0.00000        -3.809381    -21.262770     20.095102
      8.01485     17.84530      8.11150       582.568998    -67.622474    -14.737421
      9.63715      3.24460      6.48920         3.919318      1.027111     -4.612918
     12.88175      6.48920      0.00000         3.462919     17.419700     15.785499
      1.52565     14.60070      4.86690        -0.139967      0.208851     -0.493625
     17.74864     14.60070      8.11150       -54.987924    -74.033686     -3.160786
      4.77025      8.11150      1.62230         2.062730     -0.336853      2.632093
      9.63715      9.73380      0.00000        21.710481     -0.123975     97.571123
     12.88174     12.97840      6.48920       -12.569227      3.439903    -18.679580
      8.53072     13.79864      0.00000         8.298835      2.999897      3.022519
      0.29442     11.55238      0.00000        14.420553    -93.750526    -13.425465
     17.74864      1.62230      8.11150         0.753137     18.940945    -15.186071
      4.78695     14.54740      0.00000        -1.587031     -0.401750    -72.516625
      8.01485     14.60070      4.86690        -0.832952      0.405148      0.376772
     16.12635     12.97840      3.24460        -0.873829     -1.182672     -1.204839
      2.54068      3.31609      0.00000      -562.829146     64.084177      4.940740
      4.41257      2.94171      8.11150       -21.088182    112.522775     10.877398
     11.25945     17.84530      4.86690        -0.796983     -0.459135     -0.097960
     11.25945      1.62230      1.62230         5.563036     -1.383397     10.704706
      8.01485      1.62230      4.86690        -0.534675     -0.782039     -0.170686
      4.77025      1.62230      8.11150        29.910828   -118.196883     -2.905165
     17.74864     14.60070      1.62230         1.968208      0.501572      1.212075
     12.88175      0.00000      0.00000       -55.186291    -72.068375      3.078507
     11.25944     14.60070      8.11150        43.271461     64.579620     -2.774478
      3.14795      3.24460      0.00000       547.643516    -64.544968     14.870199
      8.15634      2.19296      8.11150        -3.511307     -4.412353      0.284626
     11.25944      8.11150      8.11150        -3.817336    -21.251979    -20.182003
     19.01327      7.80861      0.00000       -21.216374    112.444415    -11.008807
      1.79193     19.03992      0.00000        31.645581      7.920997    -11.990597
     11.25945      4.86690      4.86690        -0.111865      1.385714     -0.327962
      6.39255      0.00000      6.48920         0.658600     -0.686919      0.420427
     17.14138     17.91679     10.82700         0.198156     -0.065900      0.424969
     14.89512     16.41928     13.54250       -13.714550      2.015579    -19.744489
      1.41756      7.43424      8.11150         0.726476      1.184735      0.110678
     18.63889      5.93673     10.82700         0.623252      2.363998      2.327022
     16.39263      4.43922     13.54250         3.555781     16.327002    -19.031900
      8.01485      8.11150      4.86690         0.897110      0.112838     -0.117549
      2.16631      1.44420     10.82700        -0.043527      0.176074      0.459709
     19.38765     19.41430     13.54250        -2.137581     -2.934514   -101.340659
      6.39255     16.22300      3.24460        -0.230250     -0.060911      0.106771
      0.66880     13.42427     10.82700        -0.275031     -0.033766      0.648215
     17.89014     11.92676     13.54250        -3.991021     -1.811042     -6.900402
      5.91008     10.42925      8.11150        -3.867578     -1.091166     -0.579282
      3.66382      8.93174     10.82700         0.034380      0.244070      0.624726
      1.41755      7.43423     13.54250         7.465846      1.647450     -6.203999
      8.90509      5.93673      8.11150        58.515019     70.806911      0.449256
      6.65883      4.43922     10.82700        -0.306613      0.179300      0.810488
      4.41257      2.94171     13.54250        22.144449     -4.918118    -21.530832
     11.90011      1.44421      8.11150       487.865989   -135.024318     -0.245498
      9.65385     19.41430     10.82700         0.027274      0.013942      0.498077
      7.40758     17.91679     13.54250         2.435353     -3.352143     -2.653431
      7.40759     17.91679      8.11150      -598.775608     71.771471     -2.375367
      5.16132     16.41928     10.82700         0.102959     -0.302913      0.098896
      2.91506     14.92177     13.54250        -4.692831    -13.028896    -16.768191
     10.40260     13.42427      8.11150       -46.605126    -64.402220      0.404058
      8.15634     11.92676     10.82700        -0.072310      0.066537      1.308771
      5.91008     10.42925     13.54250        -1.880601      0.109494     -2.070990
     13.39762      8.93174      8.11150         4.127593      1.650964     -0.720304
     11.15135      7.43424     10.82700         0.056842     -0.167826      1.287836
      8.90509      5.93673     13.54250        -0.977274      0.777413      0.132234
      9.63715      6.48920      3.24460        -0.161804      0.727676      0.162440
     14.14637      2.94171     10.82700        -0.254058      0.023940      0.464909
     11.90011      1.44420     13.54250        -2.610625      3.743847     -4.697866
     16.12635      6.48920      3.24460        -0.939349      0.039447      0.085111
     12.64886     14.92177     10.82700         0.354203     -0.264423      0.761388
     10.40260     13.42426     13.54250         3.299054     -1.192693     -1.278540
     17.89014     11.92676      8.11150        -1.617551     -1.990353      1.407919
     15.64388     10.42925     10.82700        -0.126047     -0.255114      0.680989
     13.39762      8.93174     13.54250        -0.212426      0.373532     -0.821413
      0.29442     11.55238      9.46925       -16.022031      2.554830     17.893897
     17.51576     10.05487     12.18475         0.300240     -0.230954     -0.799204
     15.26950      8.55737      0.00000       -46.512147    -64.475142     -0.334819
      3.28944      7.05986      9.46925        -3.582124     -2.337397      3.190267
      1.04318      5.56235     12.18475        -0.077094     -0.230244     -0.607069
     18.26451      4.06484      0.00000         4.037611      1.645855      0.696412
      6.28446      2.56734      9.46925         5.051529      1.914676      7.688216
      4.03819      1.06983     12.18475         0.584070      2.305171     -2.353729
     14.50404      1.62230      4.86690        -0.312053      0.526116     -0.743990
      1.79193     19.03992      9.46925         3.260250     15.960510     22.958777
     19.01327     17.54241     12.18475        -0.230457     -0.011867     -0.424784
     16.76701     16.04490      0.00000       488.639819   -134.927880      0.091433
      4.78695     14.54740      9.46925         2.225735     -0.566229      1.844357
      2.54069     13.04989     12.18475         0.246943     -0.066205     -0.456210
      1.52565      1.62230      4.86690        -0.679046      0.242016     -0.575579
      7.78196     10.05488      9.46925        -2.341845    -13.387964     14.683567
      5.53570      8.55737     12.18475        -0.208200     -0.041372     -0.583885
      3.28944      7.05986      0.00000        -1.592098     -1.974983     -1.423873
     10.77698      5.56235      9.46925         0.308826     -0.262454      0.648893
      8.53072      4.06484     12.18475         0.023753      0.249872     -0.674249
      6.28445      2.56733      0.00000         0.676395      1.205719     -0.105207
     13.77199      1.06983      9.46925        -1.049513      0.723057     -0.132995
     11.52573     19.03992     12.18475        -0.532628      0.053287     -0.644657
     12.88175      3.24460      3.24460         0.972242      0.106999      0.132041
      9.27947     17.54241      9.46925        12.021149     -2.738575     17.268721
      7.03321     16.04491     12.18475        -0.186348      0.205127     -0.419756
     11.25945     14.60070      1.62230         0.841423     -0.857139     -0.255626
     12.27449     13.04989      9.46925        -0.560278     -2.358698      5.295866
     10.02822     11.55238     12.18475         0.306373     -0.013535     -0.523427
     11.25945     11.35610      4.86690        -0.545982     -0.476864      0.253845
     15.26950      8.55737      9.46925        -2.720142      0.013893      2.386771
     13.02324      7.05986     12.18475         0.026514      0.149933     -1.300781
     10.77698      5.56235      0.00000        -3.835299     -1.157436      0.699444
      9.63715     16.22300      6.48920        -2.561004      0.399099     -2.591849
     16.01826      2.56734     12.18475         0.076758     -0.126980     -1.197503
     13.77199      1.06983      0.00000        58.441942     70.615128     -0.393501
     16.76701     16.04491      9.46925        -0.244572      3.215216      6.594064
     14.52075     14.54740     12.18475         0.038035     -0.049475     -0.515861
     12.27449     13.04989      0.00000      -598.838973     72.224847      2.164595
      0.66880      3.69047      8.11150       -44.231894    -64.865960     -1.345281
     17.89014      2.19296     10.82700        -0.602637     -2.286073      3.208006
     15.64388      0.69545     13.54250         0.286770     -0.220416     -0.634987
      2.16631     11.17801      8.11150       487.429149   -134.465515     -0.095705
     19.38765      9.68050     10.82700        -0.004948      0.170494      0.463697
     17.14138      8.18299     13.54250        -0.550962     -2.385622     -5.319173
      5.16132      6.68548      8.11150        13.376708    -69.936691      8.379883
      2.91506      5.18797     10.82700         0.441142     -0.099586      0.738501
      0.66880      3.69047     13.54250        -2.713984      0.046539     -2.397601
     14.50404      8.11150      4.86690         0.148074     -0.552405     -0.175090
      5.91008      0.69545     10.82700         0.032741     -0.153568      0.588146
     14.50405     11.35610      1.62230        -2.633689     -0.089537      3.360987
     19.37095      6.48920      6.48920        -1.077274      1.400169     -1.078168
      1.41755     17.16803     10.82700         0.159750     -0.086618      1.352464
     18.63889     15.67053     13.54250        -1.135542      0.699806      0.104047
      6.65883     14.17302      8.11150         0.096355      3.509953      3.444769
      4.41257     12.67551     10.82700        -0.073376      0.132210      0.195109
      2.16631     11.17800     13.54250        -0.253219      3.152895     -6.570189
      9.65385      9.68050      8.11150        -1.099840      0.224344     26.118813
      7.40759      8.18299     10.82700         0.208527     -0.068538      0.418917
      5.16132      6.68548     13.54250       -16.374908      2.591984    -18.109344
     12.64886      5.18797      8.11150       -19.170757      0.980583      1.482851
     10.40260      3.69047     10.82700        -0.257365      0.022439      0.562880
      8.15634      2.19296     13.54250        -3.502628     -2.347888     -3.152126
     15.64388      0.69545      8.11150        -3.831045     -1.743798     -0.467205
     13.39762     18.66554     10.82700         0.059362      0.253564      0.696861
     11.15135     17.16803     13.54250         0.695688      2.225804     -4.392359
      9.63715      9.73380      6.48920        -0.225950      0.919167    -28.527730
      8.90509     15.67053     10.82700         0.151020      0.013840      0.634238
      6.65883     14.17302     13.54250         3.318642     16.045709    -23.082352
     12.88174      6.48920      6.48920         0.418837      2.751215     -3.277597
     11.90011     11.17800     10.82700        -0.145083      0.017163      0.378260
      9.65385      9.68049     13.54250         4.895268     -4.676361   -101.655256
      6.39255     12.97840      6.48920        -0.193683     -2.685869     -4.172428
     14.89512      6.68548     10.82700         0.200539     -0.039497      0.552019
     12.64886      5.18797     13.54250        -2.416133    -13.471693    -14.708845
     18.63890     15.67053      8.11150        58.567830     70.797621      0.377116
     16.39263     14.17302     10.82700        -0.345955      0.195609      0.746008
     14.14637     12.67551     13.54250        11.880492     -2.567094    -17.093573
      2.54069      3.31609      9.46925        -0.566312     -2.453145      5.380048
      0.29442      1.81858     12.18475         0.235499     -0.023758     -0.506763
     17.51576      0.32107      0.00000       -19.129331      0.943053     -1.475597
      1.04318     15.29615      9.46925        -1.921097      0.121469      1.990269
     18.26452     13.79864     12.18475         0.061967      0.245377     -0.705238
     14.50405      4.86690      1.62230        -0.261927      0.574351     29.003017
      4.03819     10.80363      9.46925        -1.211396      0.789703     -0.199986
      1.79193      9.30612     12.18475        -0.314314      0.128288     -0.780762
     17.74864      1.62230      1.62230         0.399287      2.682326      3.413750
      7.03321      6.31111      9.46925        -2.637242      3.768811      4.707024
      4.78695      4.81360     12.18475        -0.059556      0.076946     -0.469659
     11.25945      8.11150      1.62230        -0.699291     -3.137990      4.707159
     10.02822      1.81858      9.46925       -13.968864      2.003414     19.786366
      7.78196      0.32107     12.18475         0.434230     -0.244051     -0.616984
      5.53570     18.29116      0.00000       -44.378624    -64.577083      1.176730
      5.53570     18.29117      9.46925         3.415689     -1.076950      1.258209
      3.28944     16.79366     12.18475        -0.589676     -2.222929     -3.217488
      1.04318     15.29615      0.00000        -3.887479     -1.733152      0.463447
      8.53072     13.79865      9.46925        -0.285097      0.387431      0.476199
      6.28445     12.30114     12.18475         0.039503     -0.161389     -1.438265
      4.03819     10.80363      0.00000        58.629576     70.806148     -0.343396
     11.52573      9.30612      9.46925         3.644430     16.056674     19.144116
      9.27947      7.80861     12.18475        -0.255363      0.066624     -0.474968
      7.03321      6.31110      0.00000       487.819696   -134.901804      0.233937
     14.52075      4.81360      9.46925        -2.080222     -2.894419    101.413327
     12.27449      3.31609     12.18475         0.213653     -0.053439     -0.405580
     10.02822      1.81858      0.00000        13.329848    -70.023747     -8.436876
     17.51576      0.32107      9.46925        -4.682458    -12.951864     16.773518
     15.26950     18.29117     12.18475        -0.274017     -0.011731     -0.597880
     19.37094      3.24460      3.24460         0.117474     -0.581014      0.098269
     13.02324     16.79366      9.46925        -4.016455     -1.931220      7.036575
     10.77698     15.29615     12.18475         0.100613     -0.174584     -0.643539
      4.77025      1.62230      1.62230        -1.142138      1.359263      1.063460
     16.01826     12.30114      9.46925         7.381326      1.602650      6.272179
     13.77199     10.80363     12.18475         0.265530     -0.050751     -0.535730
     11.52573      9.30612      0.00000        15.906846     -0.392654     -2.614925
     19.01327      7.80861      9.46925        22.169034     -4.992410     21.573820
     16.76701      6.31111     12.18475        -0.103967      0.018468     -0.414577
     14.52074      4.81360      0.00000        -0.806979      0.232639    -26.665194
 -----------------------------------------------------------------------------------
    total drift:                                0.447112      0.033890      0.652736


--------------------------------------------------------------------------------------------------------



  FREE ENERGIE OF THE ION-ELECTRON SYSTEM (eV)
  ---------------------------------------------------
  free  energy   TOTEN  =      1222.87468899 eV

  energy  without entropy=     1222.88065137  energy(sigma->0) =     1222.87767018
 


--------------------------------------------------------------------------------------------------------


    POTLOK:  cpu time      2.8399: real time      2.8618


--------------------------------------------------------------------------------------------------------


     LOOP+:  cpu time  19525.5976: real time  19727.4904
    4ORBIT:  cpu time      0.0000: real time      0.0000

 total amount of memory used by VASP MPI-rank0   721549. kBytes
=======================================================================

   base      :      30000. kBytes
   nonlr-proj:      24828. kBytes
   fftplans  :      31199. kBytes
   grid      :      23385. kBytes
   one-center:        275. kBytes
   wavefun   :     611862. kBytes
 
  
  
 General timing and accounting informations for this job:
 ========================================================
  
                  Total CPU time used (sec):    19763.451
                            User time (sec):    18868.561
                          System time (sec):      894.891
                         Elapsed time (sec):    19970.873
  
                   Maximum memory used (kb):     1026432.
                   Average memory used (kb):          N/A
  
                          Minor page faults:      1580642
                          Major page faults:         3805
                 Voluntary context switches:         7588
