 120 120   0   0
  0.1350815E+02  0.1629300E-08  0.1629300E-08  0.8192404E-09  0.5000000E-15
  1.000000000000000E-004
  CAR 
 Si and Ge interface calculation         
      7.38324362    -15.05736624  301      4.02863637      1.00000000
    -15.057  0.0000E+00  0.0000E+00  0.0000E+00  0.0000E+00
    -14.983  0.0000E+00  0.0000E+00  0.0000E+00  0.0000E+00
    -14.908  0.0000E+00  0.0000E+00  0.0000E+00  0.0000E+00
    -14.833  0.0000E+00  0.0000E+00  0.0000E+00  0.0000E+00
    -14.758  0.0000E+00  0.0000E+00  0.0000E+00  0.0000E+00
    -14.683  0.0000E+00  0.0000E+00  0.0000E+00  0.0000E+00
    -14.609  0.0000E+00  0.0000E+00  0.0000E+00  0.0000E+00
    -14.534  0.0000E+00  0.0000E+00  0.0000E+00  0.0000E+00
    -14.459  0.0000E+00  0.0000E+00  0.0000E+00  0.0000E+00
    -14.384  0.0000E+00  0.0000E+00  0.0000E+00  0.0000E+00
    -14.309  0.0000E+00  0.0000E+00  0.0000E+00  0.0000E+00
    -14.235  0.0000E+00  0.0000E+00  0.0000E+00  0.0000E+00
    -14.160  0.0000E+00  0.0000E+00  0.0000E+00  0.0000E+00
    -14.085  0.1725E-10  0.1525E-14  0.1290E-11  0.1141E-15
    -14.010  0.2973E+01  0.2955E+01  0.2224E+00  0.2210E+00
    -13.935  0.1781E+02  0.1747E+02  0.1555E+01  0.1529E+01
    -13.861  0.3948E+01  0.7046E+00  0.1851E+01  0.1608E+01
    -13.786  0.1398E+02  0.1712E+02  0.2896E+01  0.2889E+01
    -13.711  0.1689E+02  0.1301E+02  0.4160E+01  0.3862E+01
    -13.636  0.1187E+02  0.1628E+02  0.5110E+01  0.5080E+01
    -13.561  0.1744E+02  0.1464E+02  0.6416E+01  0.6206E+01
    -13.487  0.4079E-06  0.2125E+01  0.6444E+01  0.6444E+01
    -13.412  0.8645E+01  0.6372E+01  0.7091E+01  0.6921E+01
    -13.337  0.2714E+02  0.2459E+02  0.9121E+01  0.8760E+01
    -13.262  0.1072E+02  0.1655E+02  0.1002E+02  0.1000E+02
    -13.187  0.5896E+01  0.5942E+01  0.1046E+02  0.1045E+02
    -13.113  0.1169E+02  0.1170E+02  0.1133E+02  0.1132E+02
    -13.038  0.6210E+01  0.5515E+01  0.1180E+02  0.1175E+02
    -12.963  0.2489E+02  0.2192E+02  0.1366E+02  0.1342E+02
    -12.888  0.1610E+02  0.1959E+02  0.1489E+02  0.1489E+02
    -12.813  0.2178E+02  0.2071E+02  0.1652E+02  0.1644E+02
    -12.739  0.1228E+02  0.1192E+02  0.1744E+02  0.1734E+02
    -12.664  0.4547E+01  0.5807E+01  0.1778E+02  0.1778E+02
    -12.589  0.1404E+02  0.1127E+02  0.1883E+02  0.1862E+02
    -12.514  0.1554E+02  0.1676E+02  0.2000E+02  0.1995E+02
    -12.439  0.1873E+00  0.4493E-02  0.2001E+02  0.2000E+02
    -12.364  0.2666E+02  0.2475E+02  0.2201E+02  0.2185E+02
    -12.290  0.1451E+02  0.1569E+02  0.2311E+02  0.2305E+02
    -12.215  0.4563E+01  0.8774E+00  0.2345E+02  0.2318E+02
    -12.140  0.1326E+02  0.1695E+02  0.2444E+02  0.2444E+02
    -12.065  0.1009E+02  0.5078E+01  0.2520E+02  0.2482E+02
    -11.990  0.3782E+00  0.6805E+01  0.2534E+02  0.2533E+02
    -11.916  0.1291E+02  0.1207E+02  0.2630E+02  0.2624E+02
    -11.841  0.1074E+02  0.1106E+02  0.2710E+02  0.2706E+02
    -11.766  0.1096E+02  0.8362E+01  0.2793E+02  0.2774E+02
    -11.691  0.1581E-12  0.3521E+01  0.2800E+02  0.2800E+02
    -11.616  0.2968E+01  0.2905E+01  0.2822E+02  0.2822E+02
    -11.542  0.5717E+01  0.4446E+01  0.2865E+02  0.2855E+02
    -11.467  0.1588E+00  0.1503E+01  0.2868E+02  0.2867E+02
    -11.392  0.1172E+02  0.1188E+02  0.2956E+02  0.2956E+02
    -11.317  0.1849E+02  0.1136E+02  0.3094E+02  0.3041E+02
    -11.242  0.2323E+02  0.2829E+02  0.3284E+02  0.3252E+02
    -11.168  0.3699E+01  0.7879E+01  0.3312E+02  0.3311E+02
    -11.093  0.1613E+02  0.1326E+02  0.3433E+02  0.3410E+02
    -11.018  0.2744E+02  0.2812E+02  0.3638E+02  0.3621E+02
    -10.943  0.1485E+02  0.1784E+02  0.3756E+02  0.3754E+02
    -10.868  0.5525E+01  0.3108E+01  0.3797E+02  0.3779E+02
    -10.794  0.1114E+02  0.1106E+02  0.3883E+02  0.3862E+02
    -10.719  0.1284E+02  0.1007E+02  0.3985E+02  0.3939E+02
    -10.644  0.9930E+01  0.1567E+02  0.4068E+02  0.4057E+02
    -10.569  0.1759E+02  0.1851E+02  0.4200E+02  0.4200E+02
    -10.494  0.6143E+01  0.5093E+01  0.4246E+02  0.4238E+02
    -10.420  0.5671E+01  0.5929E+01  0.4289E+02  0.4289E+02
    -10.345  0.1188E+02  0.1188E+02  0.4378E+02  0.4378E+02
    -10.270  0.1433E-01  0.1447E-03  0.4378E+02  0.4378E+02
    -10.195  0.1185E+02  0.1139E+02  0.4467E+02  0.4463E+02
    -10.120  0.7445E+01  0.6081E+01  0.4522E+02  0.4512E+02
    -10.046  0.1632E+02  0.1761E+02  0.4644E+02  0.4644E+02
     -9.971  0.1158E+02  0.9682E+01  0.4731E+02  0.4717E+02
     -9.896  0.2162E+01  0.2348E+01  0.4750E+02  0.4735E+02
     -9.821  0.1863E+02  0.1798E+02  0.4889E+02  0.4870E+02
     -9.746  0.7193E+01  0.8557E+01  0.4943E+02  0.4934E+02
     -9.672  0.2462E+02  0.2116E+02  0.5127E+02  0.5092E+02
     -9.597  0.2761E+02  0.3219E+02  0.5333E+02  0.5333E+02
     -9.522  0.1445E+02  0.1213E+02  0.5441E+02  0.5424E+02
     -9.447  0.1006E+02  0.9680E+01  0.5517E+02  0.5497E+02
     -9.372  0.2891E+02  0.2935E+02  0.5736E+02  0.5716E+02
     -9.298  0.2432E+02  0.2150E+02  0.5919E+02  0.5879E+02
     -9.223  0.1465E+02  0.1460E+02  0.6030E+02  0.5989E+02
     -9.148  0.1653E+02  0.1995E+02  0.6159E+02  0.6138E+02
     -9.073  0.3189E+02  0.2516E+02  0.6399E+02  0.6326E+02
     -8.998  0.2430E+02  0.3119E+02  0.6584E+02  0.6559E+02
     -8.924  0.1700E+02  0.1996E+02  0.6713E+02  0.6709E+02
     -8.849  0.1815E+02  0.1317E+02  0.6848E+02  0.6807E+02
     -8.774  0.1941E+02  0.2114E+02  0.7004E+02  0.6968E+02
     -8.699  0.1680E+02  0.1986E+02  0.7131E+02  0.7116E+02
     -8.624  0.1816E+02  0.1925E+02  0.7268E+02  0.7260E+02
     -8.550  0.1339E+02  0.1196E+02  0.7369E+02  0.7353E+02
     -8.475  0.3330E+02  0.3183E+02  0.7620E+02  0.7591E+02
     -8.400  0.1104E+02  0.1318E+02  0.7703E+02  0.7693E+02
     -8.325  0.2194E+02  0.2328E+02  0.7869E+02  0.7867E+02
     -8.250  0.1490E+02  0.1466E+02  0.7980E+02  0.7976E+02
     -8.176  0.1207E+02  0.1175E+02  0.8071E+02  0.8066E+02
     -8.101  0.1660E+02  0.1542E+02  0.8195E+02  0.8182E+02
     -8.026  0.4822E+01  0.4016E+01  0.8236E+02  0.8215E+02
     -7.951  0.6306E+00  0.3908E+01  0.8245E+02  0.8244E+02
     -7.876  0.1179E+02  0.1188E+02  0.8333E+02  0.8333E+02
     -7.802  0.0000E+00  0.0000E+00  0.8333E+02  0.8333E+02
     -7.727  0.2997E-02  0.5533E-04  0.8333E+02  0.8333E+02
     -7.652  0.9001E+01  0.6435E+01  0.8401E+02  0.8381E+02
     -7.577  0.2879E+01  0.5448E+01  0.8422E+02  0.8422E+02
     -7.502  0.1841E+01  0.3577E+00  0.8436E+02  0.8425E+02
     -7.428  0.4100E+01  0.5584E+01  0.8467E+02  0.8467E+02
     -7.353  0.2971E+01  0.2971E+01  0.8489E+02  0.8489E+02
     -7.278  0.5958E+01  0.5908E+01  0.8533E+02  0.8533E+02
     -7.203  0.1373E+02  0.1098E+02  0.8636E+02  0.8615E+02
     -7.128  0.6643E+01  0.9760E+01  0.8690E+02  0.8689E+02
     -7.054  0.1054E+02  0.8609E+01  0.8769E+02  0.8753E+02
     -6.979  0.6931E+01  0.8198E+01  0.8821E+02  0.8817E+02
     -6.904  0.2596E+01  0.2195E+01  0.8842E+02  0.8834E+02
     -6.829  0.1371E+02  0.1317E+02  0.8944E+02  0.8934E+02
     -6.754  0.1696E+01  0.2589E+01  0.8957E+02  0.8956E+02
     -6.680  0.1006E+02  0.8679E+01  0.9032E+02  0.9021E+02
     -6.605  0.1584E+02  0.1565E+02  0.9153E+02  0.9138E+02
     -6.530  0.1762E+02  0.1756E+02  0.9289E+02  0.9271E+02
     -6.455  0.1901E+02  0.1775E+02  0.9431E+02  0.9408E+02
     -6.380  0.3672E+02  0.3557E+02  0.9708E+02  0.9674E+02
     -6.306  0.2544E+02  0.2550E+02  0.9906E+02  0.9867E+02
     -6.231  0.2988E+02  0.3129E+02  0.1013E+03  0.1010E+03
     -6.156  0.3166E+02  0.3164E+02  0.1038E+03  0.1034E+03
     -6.081  0.1626E+02  0.1699E+02  0.1050E+03  0.1048E+03
     -6.006  0.2315E+02  0.2490E+02  0.1068E+03  0.1067E+03
     -5.932  0.3036E+02  0.2709E+02  0.1090E+03  0.1087E+03
     -5.857  0.2427E+02  0.2776E+02  0.1109E+03  0.1108E+03
     -5.782  0.3809E+02  0.3752E+02  0.1138E+03  0.1136E+03
     -5.707  0.1907E+02  0.1691E+02  0.1152E+03  0.1149E+03
     -5.632  0.3283E+02  0.3179E+02  0.1177E+03  0.1173E+03
     -5.558  0.2679E+02  0.2826E+02  0.1197E+03  0.1195E+03
     -5.483  0.2443E+02  0.2451E+02  0.1216E+03  0.1214E+03
     -5.408  0.2479E+02  0.2318E+02  0.1235E+03  0.1231E+03
     -5.333  0.2879E+02  0.2856E+02  0.1257E+03  0.1253E+03
     -5.258  0.2718E+02  0.2787E+02  0.1277E+03  0.1274E+03
     -5.183  0.3264E+02  0.3156E+02  0.1302E+03  0.1298E+03
     -5.109  0.2822E+02  0.2973E+02  0.1323E+03  0.1321E+03
     -5.034  0.2876E+02  0.2769E+02  0.1345E+03  0.1342E+03
     -4.959  0.3843E+02  0.3564E+02  0.1374E+03  0.1369E+03
     -4.884  0.3253E+02  0.3649E+02  0.1399E+03  0.1396E+03
     -4.809  0.2791E+02  0.2713E+02  0.1421E+03  0.1417E+03
     -4.735  0.1936E+02  0.2190E+02  0.1435E+03  0.1434E+03
     -4.660  0.2584E+02  0.2462E+02  0.1455E+03  0.1452E+03
     -4.585  0.2888E+02  0.2947E+02  0.1477E+03  0.1475E+03
     -4.510  0.3443E+02  0.3198E+02  0.1503E+03  0.1499E+03
     -4.435  0.3889E+02  0.4011E+02  0.1532E+03  0.1529E+03
     -4.361  0.3649E+02  0.3749E+02  0.1560E+03  0.1557E+03
     -4.286  0.3271E+02  0.3330E+02  0.1584E+03  0.1582E+03
     -4.211  0.3448E+02  0.3154E+02  0.1610E+03  0.1606E+03
     -4.136  0.2830E+02  0.3173E+02  0.1632E+03  0.1630E+03
     -4.061  0.2222E+02  0.2113E+02  0.1649E+03  0.1646E+03
     -3.987  0.2278E+02  0.2518E+02  0.1667E+03  0.1665E+03
     -3.912  0.2548E+02  0.2254E+02  0.1686E+03  0.1682E+03
     -3.837  0.3119E+02  0.3271E+02  0.1710E+03  0.1707E+03
     -3.762  0.3132E+02  0.3090E+02  0.1733E+03  0.1730E+03
     -3.687  0.3260E+02  0.3496E+02  0.1758E+03  0.1757E+03
     -3.613  0.1636E+02  0.1457E+02  0.1771E+03  0.1768E+03
     -3.538  0.2663E+02  0.2769E+02  0.1791E+03  0.1789E+03
     -3.463  0.2791E+02  0.2633E+02  0.1812E+03  0.1809E+03
     -3.388  0.3864E+02  0.3830E+02  0.1841E+03  0.1838E+03
     -3.313  0.3461E+02  0.3339E+02  0.1867E+03  0.1863E+03
     -3.239  0.2909E+02  0.3447E+02  0.1890E+03  0.1889E+03
     -3.164  0.2670E+02  0.2318E+02  0.1910E+03  0.1907E+03
     -3.089  0.3177E+02  0.3112E+02  0.1934E+03  0.1930E+03
     -3.014  0.2953E+02  0.3327E+02  0.1956E+03  0.1955E+03
     -2.939  0.1994E+02  0.1892E+02  0.1971E+03  0.1970E+03
     -2.865  0.1812E+02  0.1888E+02  0.1985E+03  0.1984E+03
     -2.790  0.1742E+02  0.1752E+02  0.1998E+03  0.1997E+03
     -2.715  0.1692E+02  0.1376E+02  0.2011E+03  0.2008E+03
     -2.640  0.2445E+02  0.2681E+02  0.2029E+03  0.2028E+03
     -2.565  0.2722E+02  0.2481E+02  0.2050E+03  0.2047E+03
     -2.491  0.3799E+02  0.3691E+02  0.2079E+03  0.2075E+03
     -2.416  0.2627E+02  0.2669E+02  0.2099E+03  0.2096E+03
     -2.341  0.3764E+02  0.3843E+02  0.2128E+03  0.2124E+03
     -2.266  0.3189E+02  0.3374E+02  0.2152E+03  0.2150E+03
     -2.191  0.3951E+02  0.3789E+02  0.2181E+03  0.2178E+03
     -2.117  0.3581E+02  0.3628E+02  0.2208E+03  0.2206E+03
     -2.042  0.3335E+02  0.3222E+02  0.2233E+03  0.2230E+03
     -1.967  0.3353E+02  0.3395E+02  0.2258E+03  0.2256E+03
     -1.892  0.3567E+02  0.3533E+02  0.2286E+03  0.2283E+03
     -1.817  0.3557E+02  0.3446E+02  0.2313E+03  0.2309E+03
     -1.743  0.3117E+02  0.2896E+02  0.2337E+03  0.2331E+03
     -1.668  0.4082E+02  0.4278E+02  0.2367E+03  0.2364E+03
     -1.593  0.4202E+02  0.4308E+02  0.2399E+03  0.2396E+03
     -1.518  0.3866E+02  0.3586E+02  0.2428E+03  0.2423E+03
     -1.443  0.5119E+02  0.4992E+02  0.2467E+03  0.2461E+03
     -1.369  0.3412E+02  0.3998E+02  0.2494E+03  0.2491E+03
     -1.294  0.4048E+02  0.3827E+02  0.2524E+03  0.2520E+03
     -1.219  0.4192E+02  0.4180E+02  0.2556E+03  0.2551E+03
     -1.144  0.3831E+02  0.3985E+02  0.2585E+03  0.2582E+03
     -1.069  0.3897E+02  0.3873E+02  0.2615E+03  0.2611E+03
     -0.995  0.3165E+02  0.3404E+02  0.2639E+03  0.2637E+03
     -0.920  0.4350E+02  0.4026E+02  0.2672E+03  0.2668E+03
     -0.845  0.4495E+02  0.4256E+02  0.2706E+03  0.2700E+03
     -0.770  0.3838E+02  0.4287E+02  0.2736E+03  0.2733E+03
     -0.695  0.4629E+02  0.4231E+02  0.2770E+03  0.2765E+03
     -0.621  0.4611E+02  0.4909E+02  0.2805E+03  0.2802E+03
     -0.546  0.2709E+02  0.2860E+02  0.2826E+03  0.2824E+03
     -0.471  0.3592E+02  0.3402E+02  0.2853E+03  0.2850E+03
     -0.396  0.3050E+02  0.3038E+02  0.2876E+03  0.2873E+03
     -0.321  0.3138E+02  0.3046E+02  0.2900E+03  0.2896E+03
     -0.247  0.3416E+02  0.3185E+02  0.2925E+03  0.2920E+03
     -0.172  0.2407E+02  0.2677E+02  0.2944E+03  0.2941E+03
     -0.097  0.3267E+02  0.3166E+02  0.2968E+03  0.2965E+03
     -0.022  0.2988E+02  0.2891E+02  0.2991E+03  0.2987E+03
      0.053  0.3187E+02  0.3254E+02  0.3016E+03  0.3012E+03
      0.127  0.3502E+02  0.3431E+02  0.3042E+03  0.3037E+03
      0.202  0.3166E+02  0.3407E+02  0.3066E+03  0.3063E+03
      0.277  0.3851E+02  0.3433E+02  0.3095E+03  0.3089E+03
      0.352  0.4910E+02  0.4933E+02  0.3132E+03  0.3126E+03
      0.427  0.2875E+02  0.3192E+02  0.3155E+03  0.3150E+03
      0.501  0.3413E+02  0.3433E+02  0.3180E+03  0.3176E+03
      0.576  0.2709E+02  0.2807E+02  0.3201E+03  0.3198E+03
      0.651  0.3827E+02  0.3870E+02  0.3230E+03  0.3227E+03
      0.726  0.3093E+02  0.3059E+02  0.3253E+03  0.3250E+03
      0.801  0.4261E+02  0.4141E+02  0.3285E+03  0.3281E+03
      0.875  0.4181E+02  0.4209E+02  0.3317E+03  0.3313E+03
      0.950  0.5084E+02  0.4857E+02  0.3355E+03  0.3349E+03
      1.025  0.3715E+02  0.4117E+02  0.3383E+03  0.3381E+03
      1.100  0.4560E+02  0.3977E+02  0.3417E+03  0.3411E+03
      1.175  0.4775E+02  0.4822E+02  0.3453E+03  0.3447E+03
      1.249  0.3155E+02  0.3422E+02  0.3478E+03  0.3474E+03
      1.324  0.3519E+02  0.3434E+02  0.3504E+03  0.3500E+03
      1.399  0.3781E+02  0.3405E+02  0.3533E+03  0.3526E+03
      1.474  0.4907E+02  0.5315E+02  0.3570E+03  0.3566E+03
      1.549  0.4241E+02  0.3801E+02  0.3602E+03  0.3595E+03
      1.623  0.4274E+02  0.4543E+02  0.3634E+03  0.3629E+03
      1.698  0.4521E+02  0.4432E+02  0.3668E+03  0.3663E+03
      1.773  0.3354E+02  0.3529E+02  0.3694E+03  0.3690E+03
      1.848  0.5219E+02  0.5068E+02  0.3734E+03  0.3728E+03
      1.923  0.4381E+02  0.4227E+02  0.3767E+03  0.3760E+03
      1.997  0.4409E+02  0.4426E+02  0.3800E+03  0.3793E+03
      2.072  0.4012E+02  0.4468E+02  0.3831E+03  0.3827E+03
      2.147  0.4755E+02  0.4483E+02  0.3866E+03  0.3861E+03
      2.222  0.4653E+02  0.4019E+02  0.3902E+03  0.3891E+03
      2.297  0.4937E+02  0.5213E+02  0.3939E+03  0.3931E+03
      2.372  0.5399E+02  0.5723E+02  0.3980E+03  0.3974E+03
      2.446  0.4588E+02  0.4371E+02  0.4015E+03  0.4008E+03
      2.521  0.5198E+02  0.5380E+02  0.4055E+03  0.4049E+03
      2.596  0.4637E+02  0.4481E+02  0.4090E+03  0.4083E+03
      2.671  0.5441E+02  0.5040E+02  0.4131E+03  0.4121E+03
      2.746  0.5414E+02  0.5389E+02  0.4172E+03  0.4162E+03
      2.820  0.4783E+02  0.4596E+02  0.4208E+03  0.4197E+03
      2.895  0.4804E+02  0.4815E+02  0.4245E+03  0.4233E+03
      2.970  0.4829E+02  0.5093E+02  0.4282E+03  0.4272E+03
      3.045  0.5812E+02  0.5936E+02  0.4326E+03  0.4317E+03
      3.120  0.5244E+02  0.5447E+02  0.4365E+03  0.4358E+03
      3.194  0.4059E+02  0.3872E+02  0.4396E+03  0.4388E+03
      3.269  0.4913E+02  0.5238E+02  0.4434E+03  0.4427E+03
      3.344  0.4374E+02  0.4619E+02  0.4466E+03  0.4462E+03
      3.419  0.4215E+02  0.3890E+02  0.4498E+03  0.4492E+03
      3.494  0.4909E+02  0.4576E+02  0.4535E+03  0.4526E+03
      3.568  0.3900E+02  0.4395E+02  0.4565E+03  0.4560E+03
      3.643  0.5096E+02  0.4983E+02  0.4603E+03  0.4597E+03
      3.718  0.5611E+02  0.5464E+02  0.4646E+03  0.4639E+03
      3.793  0.4557E+02  0.4484E+02  0.4680E+03  0.4672E+03
      3.868  0.5286E+02  0.5033E+02  0.4720E+03  0.4710E+03
      3.942  0.5127E+02  0.4721E+02  0.4758E+03  0.4746E+03
      4.017  0.4685E+02  0.5183E+02  0.4794E+03  0.4786E+03
      4.092  0.5028E+02  0.4827E+02  0.4832E+03  0.4823E+03
      4.167  0.5195E+02  0.5087E+02  0.4871E+03  0.4862E+03
      4.242  0.5218E+02  0.4741E+02  0.4911E+03  0.4898E+03
      4.316  0.5078E+02  0.5066E+02  0.4950E+03  0.4936E+03
      4.391  0.4543E+02  0.5408E+02  0.4984E+03  0.4977E+03
      4.466  0.3896E+02  0.3647E+02  0.5014E+03  0.5005E+03
      4.541  0.4137E+02  0.4357E+02  0.5045E+03  0.5037E+03
      4.616  0.3821E+02  0.3915E+02  0.5074E+03  0.5067E+03
      4.690  0.4634E+02  0.4420E+02  0.5110E+03  0.5101E+03
      4.765  0.4323E+02  0.4710E+02  0.5142E+03  0.5136E+03
      4.840  0.3974E+02  0.4153E+02  0.5172E+03  0.5168E+03
      4.915  0.3621E+02  0.3522E+02  0.5199E+03  0.5195E+03
      4.990  0.4018E+02  0.3910E+02  0.5230E+03  0.5225E+03
      5.064  0.3816E+02  0.3536E+02  0.5259E+03  0.5252E+03
      5.139  0.4584E+02  0.4720E+02  0.5293E+03  0.5287E+03
      5.214  0.4765E+02  0.4663E+02  0.5329E+03  0.5322E+03
      5.289  0.4096E+02  0.4395E+02  0.5360E+03  0.5355E+03
      5.364  0.4057E+02  0.3791E+02  0.5391E+03  0.5384E+03
      5.438  0.4676E+02  0.4828E+02  0.5426E+03  0.5420E+03
      5.513  0.4565E+02  0.4074E+02  0.5461E+03  0.5452E+03
      5.588  0.4184E+02  0.4206E+02  0.5492E+03  0.5483E+03
      5.663  0.2629E+02  0.2895E+02  0.5512E+03  0.5505E+03
      5.738  0.3131E+02  0.3300E+02  0.5536E+03  0.5530E+03
      5.812  0.3155E+02  0.3160E+02  0.5560E+03  0.5553E+03
      5.887  0.3738E+02  0.3948E+02  0.5588E+03  0.5583E+03
      5.962  0.3789E+02  0.3831E+02  0.5617E+03  0.5612E+03
      6.037  0.4494E+02  0.4426E+02  0.5650E+03  0.5646E+03
      6.112  0.4093E+02  0.3653E+02  0.5681E+03  0.5673E+03
      6.186  0.4149E+02  0.4188E+02  0.5713E+03  0.5705E+03
      6.261  0.4255E+02  0.4093E+02  0.5745E+03  0.5736E+03
      6.336  0.1835E+02  0.2884E+02  0.5759E+03  0.5758E+03
      6.411  0.1485E+01  0.2970E+01  0.5760E+03  0.5760E+03
      6.486  0.0000E+00  0.0000E+00  0.5760E+03  0.5760E+03
      6.560  0.0000E+00  0.0000E+00  0.5760E+03  0.5760E+03
      6.635  0.0000E+00  0.0000E+00  0.5760E+03  0.5760E+03
      6.710  0.0000E+00  0.0000E+00  0.5760E+03  0.5760E+03
      6.785  0.0000E+00  0.0000E+00  0.5760E+03  0.5760E+03
      6.860  0.0000E+00  0.0000E+00  0.5760E+03  0.5760E+03
      6.934  0.0000E+00  0.0000E+00  0.5760E+03  0.5760E+03
      7.009  0.0000E+00  0.0000E+00  0.5760E+03  0.5760E+03
      7.084  0.0000E+00  0.0000E+00  0.5760E+03  0.5760E+03
      7.159  0.0000E+00  0.0000E+00  0.5760E+03  0.5760E+03
      7.234  0.0000E+00  0.0000E+00  0.5760E+03  0.5760E+03
      7.308  0.0000E+00  0.0000E+00  0.5760E+03  0.5760E+03
      7.383  0.0000E+00  0.0000E+00  0.5760E+03  0.5760E+03
