<?xml version="1.0" encoding="ISO-8859-1"?>
<modeling>
 <generator>
  <i name="program" type="string">vasp </i>
  <i name="version" type="string">6.4.3  </i>
  <i name="subversion" type="string">19Mar24 (build Oct 22 2024 11:23:12) complex                          parallel </i>
  <i name="platform" type="string">LinuxIFC </i>
  <i name="date" type="string">2025 04 30 </i>
  <i name="time" type="string">09:42:37 </i>
 </generator>
 <incar>
  <i type="string" name="SYSTEM">Si011 and Ge011 interface calculation</i>
  <i type="int" name="ISTART">     0</i>
  <i type="logical" name="ADDGRID"> T  </i>
  <i type="int" name="ISPIN">     2</i>
  <i name="AMIX">      0.60000000</i>
  <i type="int" name="ICHARG">     2</i>
  <i type="int" name="NELM">   100</i>
  <i name="EDIFF">      0.00000010</i>
  <i name="ENCUT">    700.00000000</i>
  <i name="ENAUG">    900.00000000</i>
  <i type="int" name="NBANDS">   116</i>
  <i name="NUPDOWN">      1.00000000</i>
  <i name="NELECT">    192.00000000</i>
  <i type="string" name="LREAL">AUTO</i>
  <i type="int" name="ISMEAR">     0</i>
  <i name="SIGMA">      0.01000000</i>
  <i type="int" name="LMAXMIX">     6</i>
  <i type="logical" name="LWAVE"> F  </i>
  <i type="logical" name="LVTOT"> F  </i>
  <i type="logical" name="LVHAR"> T  </i>
  <i type="logical" name="LASPH"> T  </i>
  <i type="logical" name="LMIXTAU"> T  </i>
 </incar>
 <primitive_cell>
  <structure name="primitive_cell" >
   <crystal>
    <varray name="basis" >
     <v>       0.00000000       3.87494516       0.00000000 </v>
     <v>      -5.48000000       0.00000000       0.00000000 </v>
     <v>       0.00000000       0.00000000      24.29292386 </v>
    </varray>
    <i name="volume">    515.85293763 </i>
    <varray name="rec_basis" >
     <v>       0.00000000       0.25806817       0.00000000 </v>
     <v>      -0.18248175       0.00000000       0.00000000 </v>
     <v>       0.00000000       0.00000000       0.04116425 </v>
    </varray>
   </crystal>
   <varray name="positions" >
    <v>       0.00000000       0.00000000       0.00000000 </v>
    <v>       0.50000000       0.50000000       0.07975461 </v>
    <v>       0.00000000       0.00000000       0.15950921 </v>
    <v>       0.50000000       0.50000000       0.23926382 </v>
    <v>       0.00000000       0.00000000       0.31901843 </v>
    <v>       0.50000000       0.50000000       0.39877303 </v>
    <v>       0.50000000       0.25000000       0.00000000 </v>
    <v>       0.00000000       0.75000000       0.07975461 </v>
    <v>       0.50000000       0.25000000       0.15950921 </v>
    <v>       0.00000000       0.75000000       0.23926382 </v>
    <v>       0.50000000       0.25000000       0.31901843 </v>
    <v>       0.00000000       0.75000000       0.39877303 </v>
    <v>       0.00000000       0.90740741       0.49345081 </v>
    <v>       0.50000000       0.40740741       0.57582509 </v>
    <v>       0.00000000       0.90740741       0.65819937 </v>
    <v>       0.50000000       0.40740741       0.74057366 </v>
    <v>       0.00000000       0.90740741       0.82294794 </v>
    <v>       0.50000000       0.40740741       0.90532222 </v>
    <v>       0.50000000       0.65740741       0.49345081 </v>
    <v>       0.00000000       0.15740741       0.57582509 </v>
    <v>       0.50000000       0.65740741       0.65819937 </v>
    <v>       0.00000000       0.15740741       0.74057366 </v>
    <v>       0.50000000       0.65740741       0.82294794 </v>
    <v>       0.00000000       0.15740741       0.90532222 </v>
   </varray>
  </structure>
  <varray name="primitive_index" >
   <v type="int" >        1 </v>
   <v type="int" >        2 </v>
   <v type="int" >        9 </v>
   <v type="int" >        4 </v>
   <v type="int" >        5 </v>
   <v type="int" >        6 </v>
   <v type="int" >       13 </v>
   <v type="int" >       14 </v>
   <v type="int" >       21 </v>
   <v type="int" >       22 </v>
   <v type="int" >       17 </v>
   <v type="int" >       18 </v>
   <v type="int" >       25 </v>
   <v type="int" >       26 </v>
   <v type="int" >       33 </v>
   <v type="int" >       34 </v>
   <v type="int" >       29 </v>
   <v type="int" >       30 </v>
   <v type="int" >       37 </v>
   <v type="int" >       38 </v>
   <v type="int" >       45 </v>
   <v type="int" >       46 </v>
   <v type="int" >       41 </v>
   <v type="int" >       42 </v>
  </varray>
 </primitive_cell>
 <kpoints>
  <generation param="Gamma">
   <v type="int" name="divisions">       7        4        1 </v>
   <v name="usershift">      0.00000000       0.00000000       0.00000000 </v>
   <v name="genvec1">      0.14285714       0.00000000       0.00000000 </v>
   <v name="genvec2">      0.00000000       0.25000000       0.00000000 </v>
   <v name="genvec3">      0.00000000       0.00000000       1.00000000 </v>
   <v name="shift">      0.00000000       0.00000000       0.00000000 </v>
  </generation>
  <varray name="kpointlist" >
   <v>       0.00000000       0.00000000       0.00000000 </v>
   <v>       0.14285714       0.00000000       0.00000000 </v>
   <v>       0.28571429       0.00000000       0.00000000 </v>
   <v>       0.42857143       0.00000000       0.00000000 </v>
   <v>       0.00000000       0.25000000       0.00000000 </v>
   <v>       0.14285714       0.25000000       0.00000000 </v>
   <v>       0.28571429       0.25000000       0.00000000 </v>
   <v>       0.42857143       0.25000000       0.00000000 </v>
   <v>      -0.42857143       0.25000000       0.00000000 </v>
   <v>      -0.28571429       0.25000000       0.00000000 </v>
   <v>      -0.14285714       0.25000000       0.00000000 </v>
   <v>       0.00000000       0.50000000       0.00000000 </v>
   <v>       0.14285714       0.50000000       0.00000000 </v>
   <v>       0.28571429       0.50000000       0.00000000 </v>
   <v>       0.42857143       0.50000000       0.00000000 </v>
  </varray>
  <varray name="weights" >
   <v>       0.03571429 </v>
   <v>       0.07142857 </v>
   <v>       0.07142857 </v>
   <v>       0.07142857 </v>
   <v>       0.07142857 </v>
   <v>       0.07142857 </v>
   <v>       0.07142857 </v>
   <v>       0.07142857 </v>
   <v>       0.07142857 </v>
   <v>       0.07142857 </v>
   <v>       0.07142857 </v>
   <v>       0.03571429 </v>
   <v>       0.07142857 </v>
   <v>       0.07142857 </v>
   <v>       0.07142857 </v>
  </varray>
 </kpoints>
 <parameters>
  <separator name="general" >
   <i type="string" name="SYSTEM">Si011 and Ge011 interface calculation</i>
   <i type="logical" name="LCOMPAT"> F  </i>
  </separator>
  <separator name="electronic" >
   <i type="string" name="PREC">normal</i>
   <i name="ENMAX">    700.00000000</i>
   <i name="ENAUG">    900.00000000</i>
   <i name="EDIFF">      0.00000010</i>
   <i type="int" name="IALGO">    38</i>
   <i type="int" name="IWAVPR">    10</i>
   <i type="int" name="NBANDS">   116</i>
   <i type="int" name="NBANDSLOW">    -1</i>
   <i type="int" name="NBANDSHIGH">    -1</i>
   <i name="NELECT">    192.00000000</i>
   <i type="int" name="TURBO">     0</i>
   <i type="int" name="IRESTART">     0</i>
   <i type="int" name="NREBOOT">     0</i>
   <i type="int" name="NMIN">     0</i>
   <i name="EREF">      0.00000000</i>
   <separator name="electronic smearing" >
    <i type="int" name="ISMEAR">     0</i>
    <i name="SIGMA">      0.01000000</i>
    <i name="KSPACING">      0.50000000</i>
    <i type="logical" name="KGAMMA"> T  </i>
    <i type="logical" name="KBLOWUP"> F  </i>
   </separator>
   <separator name="electronic projectors" >
    <i type="logical" name="LREAL"> T  </i>
    <v name="ROPT">     -0.00050000     -0.00050000</v>
    <i type="int" name="LMAXPAW">  -100</i>
    <i type="int" name="LMAXMIX">     6</i>
    <i type="logical" name="NLSPLINE"> F  </i>
   </separator>
   <separator name="electronic startup" >
    <i type="int" name="ISTART">     0</i>
    <i type="int" name="ICHARG">     2</i>
    <i type="int" name="INIWAV">     1</i>
   </separator>
   <separator name="electronic spin" >
    <i type="int" name="ISPIN">     2</i>
    <i type="logical" name="LNONCOLLINEAR"> F  </i>
    <v name="MAGMOM">      0.02083333      0.02083333      0.02083333      0.02083333      0.02083333      0.02083333      0.02083333      0.02083333      0.02083333      0.02083333      0.02083333      0.02083333      0.02083333      0.02083333      0.02083333      0.02083333      0.02083333      0.02083333      0.02083333      0.02083333
      0.02083333      0.02083333      0.02083333      0.02083333      0.02083333      0.02083333      0.02083333      0.02083333      0.02083333      0.02083333      0.02083333      0.02083333      0.02083333      0.02083333      0.02083333      0.02083333      0.02083333      0.02083333      0.02083333      0.02083333
      0.02083333      0.02083333      0.02083333      0.02083333      0.02083333      0.02083333      0.02083333      0.02083333</v>
    <i name="NUPDOWN">      1.00000000</i>
    <i type="logical" name="LSORBIT"> F  </i>
    <v name="SAXIS">      0.00000000      0.00000000      1.00000000</v>
    <i type="logical" name="LSPIRAL"> F  </i>
    <v name="QSPIRAL">      0.00000000      0.00000000      0.00000000</v>
    <i type="logical" name="LZEROZ"> F  </i>
   </separator>
   <separator name="electronic exchange-correlation" >
    <i type="logical" name="LASPH"> T  </i>
   </separator>
   <separator name="electronic convergence" >
    <i type="int" name="NELM">   100</i>
    <i type="int" name="NELMDL">    -5</i>
    <i type="int" name="NELMIN">     2</i>
    <i name="ENINI">    700.00000000</i>
    <separator name="electronic convergence detail" >
     <i type="logical" name="LDIAG"> T  </i>
     <i type="logical" name="LSUBROT"> F  </i>
     <i name="WEIMIN">      0.00000000</i>
     <i name="EBREAK">      0.00000000</i>
     <i name="DEPER">      0.30000000</i>
     <i type="int" name="NRMM">     4</i>
     <i name="TIME">      0.40000000</i>
    </separator>
   </separator>
   <separator name="electronic mixer" >
    <i name="AMIX">      0.60000000</i>
    <i name="BMIX">      1.00000000</i>
    <i name="AMIN">      0.10000000</i>
    <i name="AMIX_MAG">      2.40000000</i>
    <i name="BMIX_MAG">      1.00000000</i>
    <separator name="electronic mixer details" >
     <i type="int" name="IMIX">     4</i>
     <i type="logical" name="MIXFIRST"> F  </i>
     <i type="int" name="MAXMIX">   -45</i>
     <i name="WC">    100.00000000</i>
     <i type="int" name="INIMIX">     1</i>
     <i type="int" name="MIXPRE">     1</i>
     <i type="int" name="MREMOVE">     5</i>
    </separator>
   </separator>
   <separator name="electronic dipolcorrection" >
    <i type="logical" name="LDIPOL"> F  </i>
    <i type="logical" name="LMONO"> F  </i>
    <i type="int" name="IDIPOL">     0</i>
    <i name="EPSILON">      1.00000000</i>
    <v name="DIPOL">   -100.00000000   -100.00000000   -100.00000000</v>
    <i name="EFIELD">      0.00000000</i>
    <i type="logical" name="LVACPOTAV"> F  </i>
   </separator>
  </separator>
  <separator name="grids" >
   <i type="int" name="NGX">    36</i>
   <i type="int" name="NGY">    64</i>
   <i type="int" name="NGZ">   160</i>
   <i type="int" name="NGXF">    72</i>
   <i type="int" name="NGYF">   128</i>
   <i type="int" name="NGZF">   320</i>
   <i type="logical" name="ADDGRID"> T  </i>
  </separator>
  <separator name="ionic" >
   <i type="int" name="NSW">     0</i>
   <i type="int" name="IBRION">    -1</i>
   <i type="int" name="MDALGO">     0</i>
   <i type="int" name="ISIF">     2</i>
   <i name="PSTRESS">      0.00000000</i>
   <i name="EDIFFG">      0.00000100</i>
   <i type="int" name="NFREE">     0</i>
   <i name="POTIM">      0.50000000</i>
   <i name="SMASS">     -3.00000000</i>
   <i name="SCALEE">      1.00000000</i>
  </separator>
  <separator name="ionic md" >
   <i name="TEBEG">      0.00010000</i>
   <i name="TEEND">      0.00010000</i>
   <i type="int" name="NBLOCK">     1</i>
   <i type="int" name="KBLOCK">     1</i>
   <i type="int" name="NPACO">   256</i>
   <i name="APACO">     10.00000000</i>
  </separator>
  <separator name="symmetry" >
   <i type="int" name="ISYM">     2</i>
   <i name="SYMPREC">      0.00001000</i>
  </separator>
  <separator name="dos" >
   <i type="int" name="LORBIT">     0</i>
   <v name="RWIGS">     -1.00000000     -1.00000000</v>
   <i type="int" name="NEDOS">   301</i>
   <i name="EMIN">     10.00000000</i>
   <i name="EMAX">    -10.00000000</i>
   <i name="EFERMI">      0.00000000</i>
  </separator>
  <separator name="writing" >
   <i type="int" name="NWRITE">     2</i>
   <i type="logical" name="LWAVE"> F  </i>
   <i type="logical" name="LDOWNSAMPLE"> F  </i>
   <i type="logical" name="LCHARG"> T  </i>
   <i type="logical" name="LPARD"> F  </i>
   <i type="logical" name="LVTOT"> F  </i>
   <i type="logical" name="LVHAR"> T  </i>
   <i type="logical" name="LELF"> F  </i>
   <i type="logical" name="LOPTICS"> F  </i>
   <v name="STM">      0.00000000      0.00000000      0.00000000      0.00000000      0.00000000      0.00000000      0.00000000</v>
  </separator>
  <separator name="performance" >
   <i type="int" name="NPAR">     1</i>
   <i type="int" name="NSIM">     4</i>
   <i type="int" name="NBLK">    -1</i>
   <i type="logical" name="LPLANE"> T  </i>
   <i type="logical" name="LSCALAPACK"> T  </i>
   <i type="logical" name="LSCAAWARE"> F  </i>
   <i type="logical" name="LSCALU"> F  </i>
   <i type="logical" name="LASYNC"> F  </i>
   <i type="logical" name="LORBITALREAL"> F  </i>
  </separator>
  <separator name="miscellaneous" >
   <i type="int" name="IDIOT">     3</i>
   <i type="int" name="PHON_NSTRUCT">    -1</i>
   <i type="logical" name="LMUSIC"> F  </i>
   <v name="POMASS">     28.08500000     72.61000000</v>
   <v name="DARWINR">      0.00000000      0.00000000</v>
   <v name="DARWINV">      1.00000000      1.00000000</v>
   <i type="logical" name="LCORR"> T  </i>
  </separator>
  <i type="logical" name="GGA_COMPAT"> T  </i>
  <i type="logical" name="LBERRY"> F  </i>
  <i type="int" name="ICORELEVEL">     0</i>
  <i type="logical" name="LDAU"> F  </i>
  <i type="int" name="I_CONSTRAINED_M">     0</i>
  <separator name="electronic exchange-correlation" >
   <i type="string" name="GGA    ">PE</i>
   <i type="string" name="XC_C">1</i>
   <i type="int" name="VOSKOWN">     0</i>
   <i type="logical" name="LHFCALC"> F  </i>
   <i type="string" name="PRECFOCK"></i>
   <i type="logical" name="LSYMGRAD"> F  </i>
   <i type="logical" name="LHFONE"> F  </i>
   <i type="logical" name="LRHFCALC"> F  </i>
   <i type="logical" name="LTHOMAS"> F  </i>
   <i type="logical" name="LMODELHF"> F  </i>
   <i type="logical" name="LFOCKACE"> F  </i>
   <i name="ENCUT4O">     -1.00000000</i>
   <i type="int" name="EXXOEP">     0</i>
   <i type="int" name="FOURORBIT">     0</i>
   <i name="AEXX">      0.00000000</i>
   <i name="HFALPHA">      0.00000000</i>
   <i name="MCALPHA">      0.00000000</i>
   <i name="ALDAX">      1.00000000</i>
   <i name="AGGAX">      1.00000000</i>
   <i name="AMGGAX">      1.00000000</i>
   <i name="ALDAC">      1.00000000</i>
   <i name="AGGAC">      1.00000000</i>
   <i name="AMGGAC">      1.00000000</i>
   <i type="int" name="NKREDX">     1</i>
   <i type="int" name="NKREDY">     1</i>
   <i type="int" name="NKREDZ">     1</i>
   <i type="logical" name="SHIFTRED"> F  </i>
   <i type="logical" name="ODDONLY"> F  </i>
   <i type="logical" name="EVENONLY"> F  </i>
   <i type="int" name="LMAXFOCK">     0</i>
   <i type="int" name="NMAXFOCKAE">     0</i>
   <i type="logical" name="LFOCKAEDFT"> F  </i>
   <i name="HFSCREEN">      0.00000000</i>
   <i name="HFSCREENC">      0.00000000</i>
   <i type="int" name="NBANDSGWLOW">     0</i>
  </separator>
  <separator name="vdW DFT" >
   <i type="logical" name="LUSE_VDW"> F  </i>
   <i type="int" name="IVDW_NL">    -1</i>
   <i type="logical" name="LSPIN_VDW"> F  </i>
   <i name="ZAB_VDW">     -0.84910000</i>
   <i name="GAMMA_VDW">      1.39626340</i>
   <i name="ALPHA_VDW">      0.00000000</i>
   <i name="PARAM1">      0.12340000</i>
   <i name="PARAM2">      1.00000000</i>
   <i name="BPARAM">      6.30000000</i>
   <i name="CPARAM">      0.00930000</i>
  </separator>
  <separator name="model GW" >
   <i type="int" name="MODEL_GW">     0</i>
   <i name="MODEL_EPS0">     12.89632344</i>
   <i name="MODEL_ALPHA">      1.00000000</i>
  </separator>
  <separator name="linear response parameters" >
   <i type="logical" name="LEPSILON"> F  </i>
   <i type="logical" name="LRPA"> F  </i>
   <i type="logical" name="LNABLA"> F  </i>
   <i type="logical" name="LVEL"> F  </i>
   <i name="CSHIFT">      0.10000000</i>
   <i name="OMEGAMAX">     -1.00000000</i>
   <i name="DEG_THRESHOLD">      0.00200000</i>
   <i name="RTIME">     -0.10000000</i>
   <i name="WPLASMAI">      0.00000000</i>
   <v name="DFIELD">      0.00000000      0.00000000      0.00000000</v>
   <v name="WPLASMA">      0.00000000      0.00000000      0.00000000      0.00000000      0.00000000      0.00000000      0.00000000      0.00000000      0.00000000</v>
  </separator>
  <separator name="orbital magnetization" >
   <i type="logical" name="NUCIND"> F  </i>
   <v name="MAGPOS">      0.00000000      0.00000000      0.00000000</v>
   <i type="logical" name="LNICSALL"> T  </i>
   <i type="logical" name="ORBITALMAG"> F  </i>
   <i type="logical" name="LMAGBLOCH"> F  </i>
   <i type="logical" name="LCHIMAG"> F  </i>
   <i type="logical" name="LGAUGE"> T  </i>
   <i type="int" name="MAGATOM">     0</i>
   <v name="MAGDIPOL">      0.00000000      0.00000000      0.00000000</v>
   <v name="AVECCONST">      0.00000000      0.00000000      0.00000000</v>
  </separator>
  <separator name="response functions" >
   <i type="logical" name="LALL_IN_ONE"> F  </i>
   <i type="int" name="IALL_IN_ONE">    -1</i>
   <i type="int" name="NBANDS_WAVE">    -1</i>
   <i type="logical" name="LFINITE_TEMPERATURE"> F  </i>
   <i type="logical" name="LADDER"> F  </i>
   <i type="logical" name="LRPAFORCE"> F  </i>
   <i type="logical" name="LFXC"> F  </i>
   <i type="logical" name="LHARTREE"> T  </i>
   <i type="int" name="IBSE">     0</i>
   <v type="int" name="KPOINT">    -1     0     0     0</v>
   <i type="logical" name="LTCTC"> F  </i>
   <i type="logical" name="LTCTE"> F  </i>
   <i type="logical" name="LTETE"> F  </i>
   <i type="logical" name="LTRIPLET"> F  </i>
   <i type="logical" name="LFXCEPS"> F  </i>
   <i type="logical" name="LFXHEG"> F  </i>
   <i type="int" name="NATURALO">     2</i>
   <i type="logical" name="LHOLEGF"> F  </i>
   <i type="logical" name="L2ORDER"> F  </i>
   <i type="logical" name="LDMP1"> F  </i>
   <i type="logical" name="LMP2LT"> F  </i>
   <i type="logical" name="LSMP2LT"> F  </i>
   <i type="logical" name="LGWLF"> F  </i>
   <i name="ENCUTGW">     -1.60000002</i>
   <i name="ENCUTGWSOFT">     -1.60000002</i>
   <i name="ENCUTLF">     -1.00000000</i>
   <i type="logical" name="ESF_SPLINES"> F  </i>
   <i name="ESF_CONV">      0.01000000</i>
   <i type="int" name="ESF_NINTER">    15</i>
   <i type="int" name="LMAXMP2">    -1</i>
   <i name="SCISSOR">      0.00000000</i>
   <i type="int" name="NOMEGA">     0</i>
   <i type="int" name="NOMEGAR">     0</i>
   <i type="int" name="NBANDSGW">    -1</i>
   <i type="int" name="NBANDSO">    -1</i>
   <i type="int" name="NBANDSV">    -1</i>
   <i type="int" name="NELMGW">     1</i>
   <i type="int" name="NELMHF">     1</i>
   <i type="int" name="DIM">     3</i>
   <i type="int" name="IESPILON">     4</i>
   <i type="int" name="ANTIRES">     0</i>
   <i name="OMEGAMAX">    -30.00000000</i>
   <i name="OMEGAMIN">    -30.00000000</i>
   <i name="OMEGATL">   -200.00000000</i>
   <i type="int" name="OMEGAGRID">     0</i>
   <i name="CSHIFT">     -0.10000000</i>
   <i type="logical" name="LSELFENERGY"> F  </i>
   <i type="logical" name="LSPECTRAL"> F  </i>
   <i type="logical" name="LSPECTRALGW"> F  </i>
   <i type="logical" name="LSINGLES"> F  </i>
   <i type="logical" name="LFERMIGW"> F  </i>
   <i type="logical" name="ODDONLYGW"> F  </i>
   <i type="logical" name="EVENONLYGW"> F  </i>
   <i type="int" name="NKREDLFX">     1</i>
   <i type="int" name="NKREDLFY">     1</i>
   <i type="int" name="NKREDLFZ">     1</i>
   <i type="int" name="MAXMEM">  2800</i>
   <i type="int" name="TELESCOPE">     0</i>
   <i type="int" name="NTAUPAR">    -1</i>
   <i type="int" name="NOMEGAPAR">    -1</i>
   <i name="DAMP_NEWTON">      0.80000001</i>
   <i name="LAMBDA">      1.00000000</i>
  </separator>
  <separator name="External order field" >
   <i name="OFIELD_KAPPA">      0.00000000</i>
   <v name="OFIELD_K">      0.00000000      0.00000000      0.00000000</v>
   <i name="OFIELD_Q6_NEAR">      0.00000000</i>
   <i name="OFIELD_Q6_FAR">      0.00000000</i>
   <i name="OFIELD_A">      0.00000000</i>
  </separator>
  <separator name="optional k-points parameters" >
   <i type="int" name="KPOINTS_OPT_MODE">     1</i>
   <i type="logical" name="LKPOINTS_OPT"> F  </i>
  </separator>
 </parameters>
 <atominfo>
  <atoms>      48 </atoms>
  <types>       2 </types>
  <array name="atoms" >
   <dimension dim="1">ion</dimension>
   <field type="string">element</field>
   <field type="int">atomtype</field>
   <set>
    <rc><c>Si</c><c>   1</c></rc>
    <rc><c>Si</c><c>   1</c></rc>
    <rc><c>Si</c><c>   1</c></rc>
    <rc><c>Si</c><c>   1</c></rc>
    <rc><c>Si</c><c>   1</c></rc>
    <rc><c>Si</c><c>   1</c></rc>
    <rc><c>Si</c><c>   1</c></rc>
    <rc><c>Si</c><c>   1</c></rc>
    <rc><c>Si</c><c>   1</c></rc>
    <rc><c>Si</c><c>   1</c></rc>
    <rc><c>Si</c><c>   1</c></rc>
    <rc><c>Si</c><c>   1</c></rc>
    <rc><c>Si</c><c>   1</c></rc>
    <rc><c>Si</c><c>   1</c></rc>
    <rc><c>Si</c><c>   1</c></rc>
    <rc><c>Si</c><c>   1</c></rc>
    <rc><c>Si</c><c>   1</c></rc>
    <rc><c>Si</c><c>   1</c></rc>
    <rc><c>Si</c><c>   1</c></rc>
    <rc><c>Si</c><c>   1</c></rc>
    <rc><c>Si</c><c>   1</c></rc>
    <rc><c>Si</c><c>   1</c></rc>
    <rc><c>Si</c><c>   1</c></rc>
    <rc><c>Si</c><c>   1</c></rc>
    <rc><c>Ge</c><c>   2</c></rc>
    <rc><c>Ge</c><c>   2</c></rc>
    <rc><c>Ge</c><c>   2</c></rc>
    <rc><c>Ge</c><c>   2</c></rc>
    <rc><c>Ge</c><c>   2</c></rc>
    <rc><c>Ge</c><c>   2</c></rc>
    <rc><c>Ge</c><c>   2</c></rc>
    <rc><c>Ge</c><c>   2</c></rc>
    <rc><c>Ge</c><c>   2</c></rc>
    <rc><c>Ge</c><c>   2</c></rc>
    <rc><c>Ge</c><c>   2</c></rc>
    <rc><c>Ge</c><c>   2</c></rc>
    <rc><c>Ge</c><c>   2</c></rc>
    <rc><c>Ge</c><c>   2</c></rc>
    <rc><c>Ge</c><c>   2</c></rc>
    <rc><c>Ge</c><c>   2</c></rc>
    <rc><c>Ge</c><c>   2</c></rc>
    <rc><c>Ge</c><c>   2</c></rc>
    <rc><c>Ge</c><c>   2</c></rc>
    <rc><c>Ge</c><c>   2</c></rc>
    <rc><c>Ge</c><c>   2</c></rc>
    <rc><c>Ge</c><c>   2</c></rc>
    <rc><c>Ge</c><c>   2</c></rc>
    <rc><c>Ge</c><c>   2</c></rc>
   </set>
  </array>
  <array name="atomtypes" >
   <dimension dim="1">type</dimension>
   <field type="int">atomspertype</field>
   <field type="string">element</field>
   <field>mass</field>
   <field>valence</field>
   <field type="string">pseudopotential</field>
   <set>
    <rc><c>  24</c><c>Si</c><c>     28.08500000</c><c>      4.00000000</c><c>  PAW_PBE Si 05Jan2001                  </c></rc>
    <rc><c>  24</c><c>Ge</c><c>     72.61000000</c><c>      4.00000000</c><c>  PAW_PBE Ge 05Jan2001                  </c></rc>
   </set>
  </array>
 </atominfo>
 <structure name="initialpos" >
  <crystal>
   <varray name="basis" >
    <v>       5.48000000       0.00000000       0.00000000 </v>
    <v>      -5.48000000       7.74989032       0.00000000 </v>
    <v>       0.00000000       0.00000000      24.29292386 </v>
   </varray>
   <i name="volume">   1031.70587526 </i>
   <varray name="rec_basis" >
    <v>       0.18248175       0.12903408       0.00000000 </v>
    <v>       0.00000000       0.12903408       0.00000000 </v>
    <v>       0.00000000       0.00000000       0.04116425 </v>
   </varray>
  </crystal>
  <varray name="positions" >
   <v>       0.00000000       0.00000000       0.00000000 </v>
   <v>       0.25000000       0.75000000       0.07975461 </v>
   <v>       0.50000000       0.50000000       0.15950921 </v>
   <v>       0.75000000       0.25000000       0.23926382 </v>
   <v>       0.00000000       0.00000000       0.31901843 </v>
   <v>       0.25000000       0.75000000       0.39877303 </v>
   <v>       0.50000000       0.50000000       0.00000000 </v>
   <v>       0.75000000       0.25000000       0.07975461 </v>
   <v>       0.00000000       0.00000000       0.15950921 </v>
   <v>       0.25000000       0.75000000       0.23926382 </v>
   <v>       0.50000000       0.50000000       0.31901843 </v>
   <v>       0.75000000       0.25000000       0.39877303 </v>
   <v>       0.00000000       0.25000000       0.00000000 </v>
   <v>       0.25000000       0.00000000       0.07975461 </v>
   <v>       0.50000000       0.75000000       0.15950921 </v>
   <v>       0.75000000       0.50000000       0.23926382 </v>
   <v>       0.00000000       0.25000000       0.31901843 </v>
   <v>       0.25000000       0.00000000       0.39877303 </v>
   <v>       0.50000000       0.75000000       0.00000000 </v>
   <v>       0.75000000       0.50000000       0.07975461 </v>
   <v>       0.00000000       0.25000000       0.15950921 </v>
   <v>       0.25000000       0.00000000       0.23926382 </v>
   <v>       0.50000000       0.75000000       0.31901843 </v>
   <v>       0.75000000       0.50000000       0.39877303 </v>
   <v>       0.09259259       0.00000000       0.49345081 </v>
   <v>       0.84259259       0.25000000       0.57582509 </v>
   <v>       0.59259259       0.50000000       0.65819937 </v>
   <v>       0.34259259       0.75000000       0.74057366 </v>
   <v>       0.09259259       0.00000000       0.82294794 </v>
   <v>       0.84259259       0.25000000       0.90532222 </v>
   <v>       0.59259259       0.50000000       0.49345081 </v>
   <v>       0.34259259       0.75000000       0.57582509 </v>
   <v>       0.09259259       0.00000000       0.65819937 </v>
   <v>       0.84259259       0.25000000       0.74057366 </v>
   <v>       0.59259259       0.50000000       0.82294794 </v>
   <v>       0.34259259       0.75000000       0.90532222 </v>
   <v>       0.09259259       0.75000000       0.49345081 </v>
   <v>       0.84259259       0.00000000       0.57582509 </v>
   <v>       0.59259259       0.25000000       0.65819937 </v>
   <v>       0.34259259       0.50000000       0.74057366 </v>
   <v>       0.09259259       0.75000000       0.82294794 </v>
   <v>       0.84259259       0.00000000       0.90532222 </v>
   <v>       0.59259259       0.25000000       0.49345081 </v>
   <v>       0.34259259       0.50000000       0.57582509 </v>
   <v>       0.09259259       0.75000000       0.65819937 </v>
   <v>       0.84259259       0.00000000       0.74057366 </v>
   <v>       0.59259259       0.25000000       0.82294794 </v>
   <v>       0.34259259       0.50000000       0.90532222 </v>
  </varray>
 </structure>
 <calculation>
  <scstep>
   <time name="dav">   23.54   23.76</time>
   <time name="total">   25.46   25.69</time>
   <energy>
    <i name="alphaZ">    251.00599010 </i>
    <i name="ewald">  -5236.82693975 </i>
    <i name="hartreedc">   -383.55219285 </i>
    <i name="XCdc">   -402.99440724 </i>
    <i name="pawpsdc">   4230.45410297 </i>
    <i name="pawaedc">  -3460.51340012 </i>
    <i name="eentropy">     -0.00071118 </i>
    <i name="bandstr">    825.56203259 </i>
    <i name="atom">   4993.50080470 </i>
    <i name="e_fr_energy">    816.63527922 </i>
    <i name="e_wo_entrp">    816.63599040 </i>
    <i name="e_0_energy">    816.63563481 </i>
   </energy>
  </scstep>
  <scstep>
   <time name="dav">   26.48   26.69</time>
   <time name="total">   26.49   26.69</time>
   <energy>
    <i name="e_fr_energy">   -141.65276065 </i>
    <i name="e_wo_entrp">   -141.65210745 </i>
    <i name="e_0_energy">   -141.65243405 </i>
   </energy>
  </scstep>
  <scstep>
   <time name="dav">   27.49   27.74</time>
   <time name="total">   27.49   27.74</time>
   <energy>
    <i name="e_fr_energy">   -229.44691905 </i>
    <i name="e_wo_entrp">   -229.44635254 </i>
    <i name="e_0_energy">   -229.44663579 </i>
   </energy>
  </scstep>
  <scstep>
   <time name="dav">   26.84   27.10</time>
   <time name="total">   26.84   27.10</time>
   <energy>
    <i name="e_fr_energy">   -232.34149961 </i>
    <i name="e_wo_entrp">   -232.34115477 </i>
    <i name="e_0_energy">   -232.34132719 </i>
   </energy>
  </scstep>
  <scstep>
   <time name="dav">   28.83   29.10</time>
   <time name="total">   30.64   30.93</time>
   <energy>
    <i name="e_fr_energy">   -232.44573592 </i>
    <i name="e_wo_entrp">   -232.44539572 </i>
    <i name="e_0_energy">   -232.44556582 </i>
   </energy>
  </scstep>
  <scstep>
   <time name="dav">   27.22   27.44</time>
   <time name="total">   30.95   31.19</time>
   <energy>
    <i name="e_fr_energy">   -228.82111703 </i>
    <i name="e_wo_entrp">   -228.82041128 </i>
    <i name="e_0_energy">   -228.82076416 </i>
   </energy>
  </scstep>
  <scstep>
   <time name="dav">   27.33   27.59</time>
   <time name="total">   31.05   31.33</time>
   <energy>
    <i name="e_fr_energy">   -228.81532117 </i>
    <i name="e_wo_entrp">   -228.81440821 </i>
    <i name="e_0_energy">   -228.81486469 </i>
   </energy>
  </scstep>
  <scstep>
   <time name="dav">   28.02   28.29</time>
   <time name="total">   31.74   32.03</time>
   <energy>
    <i name="e_fr_energy">   -228.52426655 </i>
    <i name="e_wo_entrp">   -228.52344155 </i>
    <i name="e_0_energy">   -228.52385405 </i>
   </energy>
  </scstep>
  <scstep>
   <time name="dav">   26.15   26.36</time>
   <time name="total">   29.87   30.10</time>
   <energy>
    <i name="e_fr_energy">   -228.55261025 </i>
    <i name="e_wo_entrp">   -228.55174767 </i>
    <i name="e_0_energy">   -228.55217896 </i>
   </energy>
  </scstep>
  <scstep>
   <time name="dav">   26.76   26.97</time>
   <time name="total">   30.48   30.71</time>
   <energy>
    <i name="e_fr_energy">   -228.55255809 </i>
    <i name="e_wo_entrp">   -228.55173935 </i>
    <i name="e_0_energy">   -228.55214872 </i>
   </energy>
  </scstep>
  <scstep>
   <time name="dav">   26.95   27.16</time>
   <time name="total">   30.67   30.90</time>
   <energy>
    <i name="e_fr_energy">   -228.55162974 </i>
    <i name="e_wo_entrp">   -228.55074379 </i>
    <i name="e_0_energy">   -228.55118677 </i>
   </energy>
  </scstep>
  <scstep>
   <time name="dav">   29.13   29.35</time>
   <time name="total">   32.85   33.10</time>
   <energy>
    <i name="e_fr_energy">   -228.55239482 </i>
    <i name="e_wo_entrp">   -228.55147916 </i>
    <i name="e_0_energy">   -228.55193699 </i>
   </energy>
  </scstep>
  <scstep>
   <time name="dav">   26.58   26.79</time>
   <time name="total">   30.30   30.54</time>
   <energy>
    <i name="e_fr_energy">   -228.55241380 </i>
    <i name="e_wo_entrp">   -228.55151117 </i>
    <i name="e_0_energy">   -228.55196248 </i>
   </energy>
  </scstep>
  <scstep>
   <time name="dav">   26.11   26.32</time>
   <time name="total">   29.83   30.06</time>
   <energy>
    <i name="e_fr_energy">   -228.55251746 </i>
    <i name="e_wo_entrp">   -228.55161310 </i>
    <i name="e_0_energy">   -228.55206528 </i>
   </energy>
  </scstep>
  <scstep>
   <time name="dav">   26.74   26.95</time>
   <time name="total">   30.46   30.69</time>
   <energy>
    <i name="e_fr_energy">   -228.55252770 </i>
    <i name="e_wo_entrp">   -228.55162097 </i>
    <i name="e_0_energy">   -228.55207433 </i>
   </energy>
  </scstep>
  <scstep>
   <time name="dav">   26.84   27.06</time>
   <time name="total">   30.57   30.80</time>
   <energy>
    <i name="e_fr_energy">   -228.55253113 </i>
    <i name="e_wo_entrp">   -228.55162348 </i>
    <i name="e_0_energy">   -228.55207730 </i>
   </energy>
  </scstep>
  <scstep>
   <time name="dav">   27.33   27.55</time>
   <time name="total">   31.05   31.30</time>
   <energy>
    <i name="e_fr_energy">   -228.55253376 </i>
    <i name="e_wo_entrp">   -228.55162539 </i>
    <i name="e_0_energy">   -228.55207958 </i>
   </energy>
  </scstep>
  <scstep>
   <time name="dav">   26.18   26.39</time>
   <time name="total">   29.89   30.13</time>
   <energy>
    <i name="e_fr_energy">   -228.55253489 </i>
    <i name="e_wo_entrp">   -228.55162632 </i>
    <i name="e_0_energy">   -228.55208060 </i>
   </energy>
  </scstep>
  <scstep>
   <time name="dav">   24.18   24.40</time>
   <time name="total">   27.89   28.14</time>
   <energy>
    <i name="e_fr_energy">   -228.55253590 </i>
    <i name="e_wo_entrp">   -228.55162694 </i>
    <i name="e_0_energy">   -228.55208142 </i>
   </energy>
  </scstep>
  <scstep>
   <time name="dav">   26.04   26.28</time>
   <time name="total">   29.76   30.02</time>
   <energy>
    <i name="e_fr_energy">   -228.55253675 </i>
    <i name="e_wo_entrp">   -228.55162702 </i>
    <i name="e_0_energy">   -228.55208188 </i>
   </energy>
  </scstep>
  <scstep>
   <time name="dav">   21.49   21.68</time>
   <time name="total">   25.20   25.43</time>
   <energy>
    <i name="e_fr_energy">   -228.55253697 </i>
    <i name="e_wo_entrp">   -228.55162683 </i>
    <i name="e_0_energy">   -228.55208190 </i>
   </energy>
  </scstep>
  <scstep>
   <time name="dav">   17.85   18.01</time>
   <time name="total">   19.76   19.93</time>
   <energy>
    <i name="alphaZ">    251.00599010 </i>
    <i name="ewald">  -5236.82693975 </i>
    <i name="hartreedc">   -468.39558235 </i>
    <i name="XCdc">   -388.94240882 </i>
    <i name="pawpsdc">  15423.68031779 </i>
    <i name="pawaedc"> -14660.63105630 </i>
    <i name="eentropy">     -0.00091027 </i>
    <i name="bandstr">   -141.94275214 </i>
    <i name="atom">   4993.50080470 </i>
    <i name="e_fr_energy">   -228.55253703 </i>
    <i name="e_wo_entrp">   -228.55162677 </i>
    <i name="e_0_energy">   -228.55208190 </i>
   </energy>
  </scstep>
  <structure>
   <crystal>
    <varray name="basis" >
     <v>       5.48000000       0.00000000       0.00000000 </v>
     <v>      -5.48000000       7.74989032       0.00000000 </v>
     <v>       0.00000000       0.00000000      24.29292386 </v>
    </varray>
    <i name="volume">   1031.70587526 </i>
    <varray name="rec_basis" >
     <v>       0.18248175       0.12903408       0.00000000 </v>
     <v>       0.00000000       0.12903408       0.00000000 </v>
     <v>       0.00000000       0.00000000       0.04116425 </v>
    </varray>
   </crystal>
   <varray name="positions" >
    <v>       0.00000000       0.00000000       0.00000000 </v>
    <v>       0.25000000       0.75000000       0.07975461 </v>
    <v>       0.50000000       0.50000000       0.15950921 </v>
    <v>       0.75000000       0.25000000       0.23926382 </v>
    <v>       0.00000000       0.00000000       0.31901843 </v>
    <v>       0.25000000       0.75000000       0.39877303 </v>
    <v>       0.50000000       0.50000000       0.00000000 </v>
    <v>       0.75000000       0.25000000       0.07975461 </v>
    <v>       0.00000000       0.00000000       0.15950921 </v>
    <v>       0.25000000       0.75000000       0.23926382 </v>
    <v>       0.50000000       0.50000000       0.31901843 </v>
    <v>       0.75000000       0.25000000       0.39877303 </v>
    <v>       0.00000000       0.25000000       0.00000000 </v>
    <v>       0.25000000       0.00000000       0.07975461 </v>
    <v>       0.50000000       0.75000000       0.15950921 </v>
    <v>       0.75000000       0.50000000       0.23926382 </v>
    <v>       0.00000000       0.25000000       0.31901843 </v>
    <v>       0.25000000       0.00000000       0.39877303 </v>
    <v>       0.50000000       0.75000000       0.00000000 </v>
    <v>       0.75000000       0.50000000       0.07975461 </v>
    <v>       0.00000000       0.25000000       0.15950921 </v>
    <v>       0.25000000       0.00000000       0.23926382 </v>
    <v>       0.50000000       0.75000000       0.31901843 </v>
    <v>       0.75000000       0.50000000       0.39877303 </v>
    <v>       0.09259259       0.00000000       0.49345081 </v>
    <v>       0.84259259       0.25000000       0.57582509 </v>
    <v>       0.59259259       0.50000000       0.65819937 </v>
    <v>       0.34259259       0.75000000       0.74057366 </v>
    <v>       0.09259259       0.00000000       0.82294794 </v>
    <v>       0.84259259       0.25000000       0.90532222 </v>
    <v>       0.59259259       0.50000000       0.49345081 </v>
    <v>       0.34259259       0.75000000       0.57582509 </v>
    <v>       0.09259259       0.00000000       0.65819937 </v>
    <v>       0.84259259       0.25000000       0.74057366 </v>
    <v>       0.59259259       0.50000000       0.82294794 </v>
    <v>       0.34259259       0.75000000       0.90532222 </v>
    <v>       0.09259259       0.75000000       0.49345081 </v>
    <v>       0.84259259       0.00000000       0.57582509 </v>
    <v>       0.59259259       0.25000000       0.65819937 </v>
    <v>       0.34259259       0.50000000       0.74057366 </v>
    <v>       0.09259259       0.75000000       0.82294794 </v>
    <v>       0.84259259       0.00000000       0.90532222 </v>
    <v>       0.59259259       0.25000000       0.49345081 </v>
    <v>       0.34259259       0.50000000       0.57582509 </v>
    <v>       0.09259259       0.75000000       0.65819937 </v>
    <v>       0.84259259       0.00000000       0.74057366 </v>
    <v>       0.59259259       0.25000000       0.82294794 </v>
    <v>       0.34259259       0.50000000       0.90532222 </v>
   </varray>
  </structure>
  <varray name="forces" >
   <v>      -0.57936503      -0.00000000      -0.10076500 </v>
   <v>      -0.07988007      -0.00000000      -0.09346185 </v>
   <v>      -0.15554437       0.00000000      -0.13256855 </v>
   <v>      -0.15554437       0.00000000       0.13256855 </v>
   <v>      -0.07988007      -0.00000000       0.09346185 </v>
   <v>      -0.57936503      -0.00000000       0.10076500 </v>
   <v>      -0.57936503       0.00000000      -0.10076500 </v>
   <v>      -0.07988007      -0.00000000      -0.09346185 </v>
   <v>      -0.15554437      -0.00000000      -0.13256855 </v>
   <v>      -0.15554437      -0.00000000       0.13256855 </v>
   <v>      -0.07988007      -0.00000000       0.09346185 </v>
   <v>      -0.57936503       0.00000000       0.10076500 </v>
   <v>      -0.56670457      -0.00000000       1.38110011 </v>
   <v>       0.30661301       0.00000000      -0.02278652 </v>
   <v>       0.01921391       0.00000000       0.02001967 </v>
   <v>       0.01921391       0.00000000      -0.02001967 </v>
   <v>       0.30661301       0.00000000       0.02278652 </v>
   <v>      -0.56670457      -0.00000000      -1.38110011 </v>
   <v>      -0.56670457      -0.00000000       1.38110011 </v>
   <v>       0.30661301       0.00000000      -0.02278652 </v>
   <v>       0.01921391      -0.00000000       0.02001967 </v>
   <v>       0.01921391      -0.00000000      -0.02001967 </v>
   <v>       0.30661301       0.00000000       0.02278652 </v>
   <v>      -0.56670457      -0.00000000      -1.38110011 </v>
   <v>      -0.42757825      -0.00000000      -0.70909968 </v>
   <v>      -0.42515816      -0.00000000      -0.05162574 </v>
   <v>      -0.32100013       0.00000000      -0.12417796 </v>
   <v>      -0.32100013       0.00000000       0.12417796 </v>
   <v>      -0.42515816      -0.00000000       0.05162574 </v>
   <v>      -0.42757825       0.00000000       0.70909968 </v>
   <v>      -0.42757825      -0.00000000      -0.70909968 </v>
   <v>      -0.42515816       0.00000000      -0.05162574 </v>
   <v>      -0.32100013       0.00000000      -0.12417796 </v>
   <v>      -0.32100013       0.00000000       0.12417796 </v>
   <v>      -0.42515816       0.00000000       0.05162574 </v>
   <v>      -0.42757825      -0.00000000       0.70909968 </v>
   <v>       1.54298040      -0.00000000       0.84772082 </v>
   <v>       0.19486086       0.00000000       0.03476504 </v>
   <v>       0.49156239      -0.00000000       0.03419069 </v>
   <v>       0.49156239      -0.00000000      -0.03419069 </v>
   <v>       0.19486086       0.00000000      -0.03476504 </v>
   <v>       1.54298040      -0.00000000      -0.84772082 </v>
   <v>       1.54298040      -0.00000000       0.84772082 </v>
   <v>       0.19486086       0.00000000       0.03476504 </v>
   <v>       0.49156239       0.00000000       0.03419069 </v>
   <v>       0.49156239       0.00000000      -0.03419069 </v>
   <v>       0.19486086       0.00000000      -0.03476504 </v>
   <v>       1.54298040      -0.00000000      -0.84772082 </v>
  </varray>
  <varray name="stress" >
   <v>      54.21283111       0.00000000       0.00000000 </v>
   <v>       0.00000000      70.96259259       0.00000000 </v>
   <v>       0.00000000       0.00000000      33.09503527 </v>
  </varray>
  <energy>
   <i name="e_fr_energy">   -228.55253703 </i>
   <i name="e_wo_entrp">   -228.55162677 </i>
   <i name="e_0_energy">   -228.55208190 </i>
  </energy>
  <time name="totalsc">  682.28  688.47</time>
  <eigenvalues>
   <array>
    <dimension dim="1">band</dimension>
    <dimension dim="2">kpoint</dimension>
    <dimension dim="3">spin</dimension>
    <field>eigene</field>
    <field>occ</field>
    <set>
     <set comment="spin 1">
      <set comment="kpoint 1">
       <r>   -8.3582    1.0000 </r>
       <r>   -7.9820    1.0000 </r>
       <r>   -7.5552    1.0000 </r>
       <r>   -7.0487    1.0000 </r>
       <r>   -6.9611    1.0000 </r>
       <r>   -6.2410    1.0000 </r>
       <r>   -6.2409    1.0000 </r>
       <r>   -6.1561    1.0000 </r>
       <r>   -5.9967    1.0000 </r>
       <r>   -5.8046    1.0000 </r>
       <r>   -5.8046    1.0000 </r>
       <r>   -5.3870    1.0000 </r>
       <r>   -5.3870    1.0000 </r>
       <r>   -5.0549    1.0000 </r>
       <r>   -4.9927    1.0000 </r>
       <r>   -4.9927    1.0000 </r>
       <r>   -4.9299    1.0000 </r>
       <r>   -4.8190    1.0000 </r>
       <r>   -4.8190    1.0000 </r>
       <r>   -4.1977    1.0000 </r>
       <r>   -4.0244    1.0000 </r>
       <r>   -4.0244    1.0000 </r>
       <r>   -3.9093    1.0000 </r>
       <r>   -3.8166    1.0000 </r>
       <r>   -3.8166    1.0000 </r>
       <r>   -3.6554    1.0000 </r>
       <r>   -3.3530    1.0000 </r>
       <r>   -3.1592    1.0000 </r>
       <r>   -3.1008    1.0000 </r>
       <r>   -2.8378    1.0000 </r>
       <r>   -2.8378    1.0000 </r>
       <r>   -2.5892    1.0000 </r>
       <r>   -2.5892    1.0000 </r>
       <r>   -2.4464    1.0000 </r>
       <r>   -2.2203    1.0000 </r>
       <r>   -1.8769    1.0000 </r>
       <r>   -1.8769    1.0000 </r>
       <r>   -1.3844    1.0000 </r>
       <r>   -1.2864    1.0000 </r>
       <r>   -1.2864    1.0000 </r>
       <r>   -1.0316    1.0000 </r>
       <r>   -1.0316    1.0000 </r>
       <r>   -0.9753    1.0000 </r>
       <r>   -0.1064    1.0000 </r>
       <r>    0.0019    1.0000 </r>
       <r>    0.2904    1.0000 </r>
       <r>    0.3048    1.0000 </r>
       <r>    0.5732    1.0000 </r>
       <r>    0.8173    1.0000 </r>
       <r>    0.8173    1.0000 </r>
       <r>    0.9137    1.0000 </r>
       <r>    0.9139    1.0000 </r>
       <r>    0.9139    1.0000 </r>
       <r>    0.9665    1.0000 </r>
       <r>    0.9722    1.0000 </r>
       <r>    1.0469    1.0000 </r>
       <r>    1.0469    1.0000 </r>
       <r>    1.2451    1.0000 </r>
       <r>    1.2451    1.0000 </r>
       <r>    1.3683    1.0000 </r>
       <r>    1.3683    1.0000 </r>
       <r>    1.4987    1.0000 </r>
       <r>    1.4987    1.0000 </r>
       <r>    1.5601    1.0000 </r>
       <r>    1.5928    1.0000 </r>
       <r>    1.6839    1.0000 </r>
       <r>    1.6839    1.0000 </r>
       <r>    1.7061    1.0000 </r>
       <r>    1.7423    1.0000 </r>
       <r>    1.7423    1.0000 </r>
       <r>    1.8031    1.0000 </r>
       <r>    2.1018    1.0000 </r>
       <r>    2.1018    1.0000 </r>
       <r>    2.1567    1.0000 </r>
       <r>    2.1567    1.0000 </r>
       <r>    2.2001    1.0000 </r>
       <r>    2.2311    1.0000 </r>
       <r>    2.2552    1.0000 </r>
       <r>    2.3834    1.0000 </r>
       <r>    2.7950    1.0000 </r>
       <r>    2.9761    1.0000 </r>
       <r>    3.0241    1.0000 </r>
       <r>    3.0241    1.0000 </r>
       <r>    3.0244    1.0000 </r>
       <r>    3.1890    1.0000 </r>
       <r>    3.1905    1.0000 </r>
       <r>    3.1905    1.0000 </r>
       <r>    3.4353    1.0000 </r>
       <r>    3.8063    1.0000 </r>
       <r>    4.0194    1.0000 </r>
       <r>    4.1104    1.0000 </r>
       <r>    4.2595    1.0000 </r>
       <r>    4.3491    1.0000 </r>
       <r>    4.3713    1.0000 </r>
       <r>    4.7376    1.0000 </r>
       <r>    4.8404    1.0000 </r>
       <r>    5.1830    0.9340 </r>
       <r>    5.2440    0.0000 </r>
       <r>    5.2630    0.0000 </r>
       <r>    5.2631    0.0000 </r>
       <r>    5.3555    0.0000 </r>
       <r>    5.4681    0.0000 </r>
       <r>    5.4681    0.0000 </r>
       <r>    5.5217    0.0000 </r>
       <r>    5.5986    0.0000 </r>
       <r>    5.7830    0.0000 </r>
       <r>    5.7830    0.0000 </r>
       <r>    5.7932    0.0000 </r>
       <r>    5.9335    0.0000 </r>
       <r>    5.9603    0.0000 </r>
       <r>    5.9603    0.0000 </r>
       <r>    6.1142    0.0000 </r>
       <r>    6.1142    0.0000 </r>
       <r>    6.1767    0.0000 </r>
       <r>    6.2916    0.0000 </r>
       <r>    6.2939    0.0000 </r>
      </set>
      <set comment="kpoint 2">
       <r>   -8.2275    1.0000 </r>
       <r>   -7.8678    1.0000 </r>
       <r>   -7.4586    1.0000 </r>
       <r>   -6.9270    1.0000 </r>
       <r>   -6.8755    1.0000 </r>
       <r>   -6.7030    1.0000 </r>
       <r>   -6.2998    1.0000 </r>
       <r>   -6.0776    1.0000 </r>
       <r>   -5.9802    1.0000 </r>
       <r>   -5.8871    1.0000 </r>
       <r>   -5.6941    1.0000 </r>
       <r>   -5.4581    1.0000 </r>
       <r>   -5.3780    1.0000 </r>
       <r>   -5.3175    1.0000 </r>
       <r>   -5.2315    1.0000 </r>
       <r>   -5.1221    1.0000 </r>
       <r>   -4.8280    1.0000 </r>
       <r>   -4.5500    1.0000 </r>
       <r>   -4.4253    1.0000 </r>
       <r>   -4.3737    1.0000 </r>
       <r>   -4.3367    1.0000 </r>
       <r>   -4.2338    1.0000 </r>
       <r>   -4.1392    1.0000 </r>
       <r>   -3.9776    1.0000 </r>
       <r>   -3.5018    1.0000 </r>
       <r>   -3.3450    1.0000 </r>
       <r>   -3.3280    1.0000 </r>
       <r>   -3.1685    1.0000 </r>
       <r>   -3.1558    1.0000 </r>
       <r>   -3.0816    1.0000 </r>
       <r>   -2.5348    1.0000 </r>
       <r>   -2.5286    1.0000 </r>
       <r>   -2.2847    1.0000 </r>
       <r>   -2.1430    1.0000 </r>
       <r>   -2.1403    1.0000 </r>
       <r>   -2.0638    1.0000 </r>
       <r>   -1.9304    1.0000 </r>
       <r>   -1.8404    1.0000 </r>
       <r>   -1.5626    1.0000 </r>
       <r>   -1.3966    1.0000 </r>
       <r>   -1.3962    1.0000 </r>
       <r>   -0.8073    1.0000 </r>
       <r>   -0.7182    1.0000 </r>
       <r>   -0.2499    1.0000 </r>
       <r>   -0.1877    1.0000 </r>
       <r>    0.3453    1.0000 </r>
       <r>    0.4654    1.0000 </r>
       <r>    0.4980    1.0000 </r>
       <r>    0.5185    1.0000 </r>
       <r>    0.7269    1.0000 </r>
       <r>    0.8052    1.0000 </r>
       <r>    0.8681    1.0000 </r>
       <r>    0.9645    1.0000 </r>
       <r>    1.0328    1.0000 </r>
       <r>    1.0773    1.0000 </r>
       <r>    1.0899    1.0000 </r>
       <r>    1.2133    1.0000 </r>
       <r>    1.3159    1.0000 </r>
       <r>    1.3496    1.0000 </r>
       <r>    1.4017    1.0000 </r>
       <r>    1.4208    1.0000 </r>
       <r>    1.5113    1.0000 </r>
       <r>    1.5328    1.0000 </r>
       <r>    1.5628    1.0000 </r>
       <r>    1.6377    1.0000 </r>
       <r>    1.6384    1.0000 </r>
       <r>    1.6700    1.0000 </r>
       <r>    1.6887    1.0000 </r>
       <r>    1.8019    1.0000 </r>
       <r>    1.8676    1.0000 </r>
       <r>    1.9254    1.0000 </r>
       <r>    1.9300    1.0000 </r>
       <r>    1.9953    1.0000 </r>
       <r>    2.0148    1.0000 </r>
       <r>    2.1242    1.0000 </r>
       <r>    2.1926    1.0000 </r>
       <r>    2.2112    1.0000 </r>
       <r>    2.4692    1.0000 </r>
       <r>    2.5608    1.0000 </r>
       <r>    2.7491    1.0000 </r>
       <r>    2.7898    1.0000 </r>
       <r>    2.9490    1.0000 </r>
       <r>    3.0010    1.0000 </r>
       <r>    3.0315    1.0000 </r>
       <r>    3.2144    1.0000 </r>
       <r>    3.2892    1.0000 </r>
       <r>    3.3462    1.0000 </r>
       <r>    3.3718    1.0000 </r>
       <r>    3.5382    1.0000 </r>
       <r>    3.6678    1.0000 </r>
       <r>    3.8053    1.0000 </r>
       <r>    3.9029    1.0000 </r>
       <r>    4.1647    1.0000 </r>
       <r>    4.2254    1.0000 </r>
       <r>    4.2824    1.0000 </r>
       <r>    4.4679    1.0000 </r>
       <r>    5.3248    0.0000 </r>
       <r>    5.3838    0.0000 </r>
       <r>    5.4215    0.0000 </r>
       <r>    5.4971    0.0000 </r>
       <r>    5.4985    0.0000 </r>
       <r>    5.5965    0.0000 </r>
       <r>    5.6401    0.0000 </r>
       <r>    5.6927    0.0000 </r>
       <r>    5.7802    0.0000 </r>
       <r>    5.8587    0.0000 </r>
       <r>    6.0511    0.0000 </r>
       <r>    6.1281    0.0000 </r>
       <r>    6.1600    0.0000 </r>
       <r>    6.1696    0.0000 </r>
       <r>    6.3083    0.0000 </r>
       <r>    6.3730    0.0000 </r>
       <r>    6.3820    0.0000 </r>
       <r>    6.5139    0.0000 </r>
       <r>    6.6257    0.0000 </r>
       <r>    6.6570    0.0000 </r>
      </set>
      <set comment="kpoint 3">
       <r>   -7.8437    1.0000 </r>
       <r>   -7.5421    1.0000 </r>
       <r>   -7.1920    1.0000 </r>
       <r>   -6.9451    1.0000 </r>
       <r>   -6.6590    1.0000 </r>
       <r>   -6.6048    1.0000 </r>
       <r>   -6.5654    1.0000 </r>
       <r>   -6.2458    1.0000 </r>
       <r>   -6.0503    1.0000 </r>
       <r>   -6.0468    1.0000 </r>
       <r>   -5.8330    1.0000 </r>
       <r>   -5.7768    1.0000 </r>
       <r>   -5.7100    1.0000 </r>
       <r>   -5.5630    1.0000 </r>
       <r>   -5.3017    1.0000 </r>
       <r>   -5.0928    1.0000 </r>
       <r>   -4.9938    1.0000 </r>
       <r>   -4.9376    1.0000 </r>
       <r>   -4.5571    1.0000 </r>
       <r>   -4.4698    1.0000 </r>
       <r>   -4.4038    1.0000 </r>
       <r>   -4.3700    1.0000 </r>
       <r>   -4.0500    1.0000 </r>
       <r>   -3.8527    1.0000 </r>
       <r>   -3.5697    1.0000 </r>
       <r>   -3.5384    1.0000 </r>
       <r>   -3.1315    1.0000 </r>
       <r>   -3.0105    1.0000 </r>
       <r>   -2.8272    1.0000 </r>
       <r>   -2.7844    1.0000 </r>
       <r>   -2.4442    1.0000 </r>
       <r>   -2.3700    1.0000 </r>
       <r>   -2.1715    1.0000 </r>
       <r>   -2.1553    1.0000 </r>
       <r>   -2.1092    1.0000 </r>
       <r>   -1.8846    1.0000 </r>
       <r>   -1.8482    1.0000 </r>
       <r>   -1.7438    1.0000 </r>
       <r>   -1.5551    1.0000 </r>
       <r>   -1.2035    1.0000 </r>
       <r>   -1.1502    1.0000 </r>
       <r>   -0.9237    1.0000 </r>
       <r>   -0.7495    1.0000 </r>
       <r>   -0.6892    1.0000 </r>
       <r>   -0.6031    1.0000 </r>
       <r>    0.0553    1.0000 </r>
       <r>    0.1513    1.0000 </r>
       <r>    0.3493    1.0000 </r>
       <r>    0.4638    1.0000 </r>
       <r>    0.5084    1.0000 </r>
       <r>    0.5624    1.0000 </r>
       <r>    0.6053    1.0000 </r>
       <r>    0.7356    1.0000 </r>
       <r>    0.7958    1.0000 </r>
       <r>    0.8690    1.0000 </r>
       <r>    1.1204    1.0000 </r>
       <r>    1.1286    1.0000 </r>
       <r>    1.1513    1.0000 </r>
       <r>    1.2391    1.0000 </r>
       <r>    1.3586    1.0000 </r>
       <r>    1.3680    1.0000 </r>
       <r>    1.5281    1.0000 </r>
       <r>    1.5893    1.0000 </r>
       <r>    1.6263    1.0000 </r>
       <r>    1.7063    1.0000 </r>
       <r>    1.7395    1.0000 </r>
       <r>    1.7613    1.0000 </r>
       <r>    1.7994    1.0000 </r>
       <r>    1.8534    1.0000 </r>
       <r>    1.9299    1.0000 </r>
       <r>    2.0108    1.0000 </r>
       <r>    2.1028    1.0000 </r>
       <r>    2.1704    1.0000 </r>
       <r>    2.1887    1.0000 </r>
       <r>    2.2799    1.0000 </r>
       <r>    2.3029    1.0000 </r>
       <r>    2.4766    1.0000 </r>
       <r>    2.4882    1.0000 </r>
       <r>    2.5109    1.0000 </r>
       <r>    2.5707    1.0000 </r>
       <r>    2.6668    1.0000 </r>
       <r>    2.7223    1.0000 </r>
       <r>    2.7952    1.0000 </r>
       <r>    2.8061    1.0000 </r>
       <r>    3.1463    1.0000 </r>
       <r>    3.2285    1.0000 </r>
       <r>    3.2290    1.0000 </r>
       <r>    3.3556    1.0000 </r>
       <r>    3.3959    1.0000 </r>
       <r>    3.5653    1.0000 </r>
       <r>    3.6139    1.0000 </r>
       <r>    3.7872    1.0000 </r>
       <r>    3.7940    1.0000 </r>
       <r>    3.8676    1.0000 </r>
       <r>    4.2804    1.0000 </r>
       <r>    4.3187    1.0000 </r>
       <r>    5.2000    0.1849 </r>
       <r>    5.5178    0.0000 </r>
       <r>    5.6414    0.0000 </r>
       <r>    5.7129    0.0000 </r>
       <r>    5.7872    0.0000 </r>
       <r>    5.8823    0.0000 </r>
       <r>    6.0258    0.0000 </r>
       <r>    6.1210    0.0000 </r>
       <r>    6.2245    0.0000 </r>
       <r>    6.5200    0.0000 </r>
       <r>    6.6246    0.0000 </r>
       <r>    6.6252    0.0000 </r>
       <r>    6.6857    0.0000 </r>
       <r>    6.6879    0.0000 </r>
       <r>    6.8498    0.0000 </r>
       <r>    6.9231    0.0000 </r>
       <r>    6.9984    0.0000 </r>
       <r>    7.0122    0.0000 </r>
       <r>    7.0202    0.0000 </r>
       <r>    7.0836    0.0000 </r>
      </set>
      <set comment="kpoint 4">
       <r>   -7.2510    1.0000 </r>
       <r>   -7.0940    1.0000 </r>
       <r>   -6.9599    1.0000 </r>
       <r>   -6.8376    1.0000 </r>
       <r>   -6.7838    1.0000 </r>
       <r>   -6.5925    1.0000 </r>
       <r>   -6.5313    1.0000 </r>
       <r>   -6.3431    1.0000 </r>
       <r>   -6.3009    1.0000 </r>
       <r>   -6.1657    1.0000 </r>
       <r>   -6.0031    1.0000 </r>
       <r>   -5.9797    1.0000 </r>
       <r>   -5.8870    1.0000 </r>
       <r>   -5.7136    1.0000 </r>
       <r>   -5.4964    1.0000 </r>
       <r>   -5.3287    1.0000 </r>
       <r>   -5.2633    1.0000 </r>
       <r>   -5.0675    1.0000 </r>
       <r>   -5.0033    1.0000 </r>
       <r>   -4.7557    1.0000 </r>
       <r>   -4.5804    1.0000 </r>
       <r>   -4.3804    1.0000 </r>
       <r>   -4.3257    1.0000 </r>
       <r>   -4.1128    1.0000 </r>
       <r>   -3.1620    1.0000 </r>
       <r>   -2.9751    1.0000 </r>
       <r>   -2.8970    1.0000 </r>
       <r>   -2.6958    1.0000 </r>
       <r>   -2.6663    1.0000 </r>
       <r>   -2.4112    1.0000 </r>
       <r>   -2.4094    1.0000 </r>
       <r>   -2.1347    1.0000 </r>
       <r>   -2.0783    1.0000 </r>
       <r>   -1.8295    1.0000 </r>
       <r>   -1.8186    1.0000 </r>
       <r>   -1.7486    1.0000 </r>
       <r>   -1.6667    1.0000 </r>
       <r>   -1.4987    1.0000 </r>
       <r>   -1.4756    1.0000 </r>
       <r>   -1.3369    1.0000 </r>
       <r>   -1.0175    1.0000 </r>
       <r>   -0.9360    1.0000 </r>
       <r>   -0.8003    1.0000 </r>
       <r>   -0.6496    1.0000 </r>
       <r>   -0.6293    1.0000 </r>
       <r>   -0.5333    1.0000 </r>
       <r>   -0.0869    1.0000 </r>
       <r>    0.0160    1.0000 </r>
       <r>    0.1479    1.0000 </r>
       <r>    0.1908    1.0000 </r>
       <r>    0.3194    1.0000 </r>
       <r>    0.4477    1.0000 </r>
       <r>    0.4686    1.0000 </r>
       <r>    0.4883    1.0000 </r>
       <r>    0.7879    1.0000 </r>
       <r>    0.7947    1.0000 </r>
       <r>    0.7966    1.0000 </r>
       <r>    0.8523    1.0000 </r>
       <r>    1.0219    1.0000 </r>
       <r>    1.0486    1.0000 </r>
       <r>    1.0603    1.0000 </r>
       <r>    1.2417    1.0000 </r>
       <r>    1.3031    1.0000 </r>
       <r>    1.3062    1.0000 </r>
       <r>    1.4379    1.0000 </r>
       <r>    1.4934    1.0000 </r>
       <r>    1.6164    1.0000 </r>
       <r>    1.7851    1.0000 </r>
       <r>    2.1027    1.0000 </r>
       <r>    2.1675    1.0000 </r>
       <r>    2.2279    1.0000 </r>
       <r>    2.2559    1.0000 </r>
       <r>    2.2782    1.0000 </r>
       <r>    2.5226    1.0000 </r>
       <r>    2.5241    1.0000 </r>
       <r>    2.5420    1.0000 </r>
       <r>    2.6356    1.0000 </r>
       <r>    2.6717    1.0000 </r>
       <r>    2.6734    1.0000 </r>
       <r>    2.7571    1.0000 </r>
       <r>    2.7948    1.0000 </r>
       <r>    2.8822    1.0000 </r>
       <r>    2.8955    1.0000 </r>
       <r>    2.9059    1.0000 </r>
       <r>    3.0669    1.0000 </r>
       <r>    3.1689    1.0000 </r>
       <r>    3.1851    1.0000 </r>
       <r>    3.2473    1.0000 </r>
       <r>    3.6180    1.0000 </r>
       <r>    3.6300    1.0000 </r>
       <r>    3.7280    1.0000 </r>
       <r>    3.8053    1.0000 </r>
       <r>    3.8262    1.0000 </r>
       <r>    3.9206    1.0000 </r>
       <r>    3.9595    1.0000 </r>
       <r>    4.0939    1.0000 </r>
       <r>    5.5622    0.0000 </r>
       <r>    5.7566    0.0000 </r>
       <r>    5.7621    0.0000 </r>
       <r>    5.7749    0.0000 </r>
       <r>    6.1500    0.0000 </r>
       <r>    6.1574    0.0000 </r>
       <r>    6.2374    0.0000 </r>
       <r>    6.2518    0.0000 </r>
       <r>    6.7789    0.0000 </r>
       <r>    6.7973    0.0000 </r>
       <r>    6.8529    0.0000 </r>
       <r>    6.9456    0.0000 </r>
       <r>    6.9881    0.0000 </r>
       <r>    7.0315    0.0000 </r>
       <r>    7.0691    0.0000 </r>
       <r>    7.1234    0.0000 </r>
       <r>    7.1682    0.0000 </r>
       <r>    7.2453    0.0000 </r>
       <r>    7.2891    0.0000 </r>
       <r>    7.3279    0.0000 </r>
      </set>
      <set comment="kpoint 5">
       <r>   -8.2175    1.0000 </r>
       <r>   -7.8390    1.0000 </r>
       <r>   -7.4123    1.0000 </r>
       <r>   -7.1251    1.0000 </r>
       <r>   -6.9132    1.0000 </r>
       <r>   -6.8196    1.0000 </r>
       <r>   -6.7228    1.0000 </r>
       <r>   -6.2976    1.0000 </r>
       <r>   -6.0170    1.0000 </r>
       <r>   -5.8588    1.0000 </r>
       <r>   -5.8538    1.0000 </r>
       <r>   -5.7208    1.0000 </r>
       <r>   -5.2594    1.0000 </r>
       <r>   -4.9304    1.0000 </r>
       <r>   -4.9126    1.0000 </r>
       <r>   -4.8178    1.0000 </r>
       <r>   -4.7800    1.0000 </r>
       <r>   -4.6856    1.0000 </r>
       <r>   -4.3766    1.0000 </r>
       <r>   -4.0787    1.0000 </r>
       <r>   -3.9969    1.0000 </r>
       <r>   -3.9848    1.0000 </r>
       <r>   -3.8831    1.0000 </r>
       <r>   -3.7129    1.0000 </r>
       <r>   -3.5804    1.0000 </r>
       <r>   -3.5757    1.0000 </r>
       <r>   -3.2331    1.0000 </r>
       <r>   -3.2156    1.0000 </r>
       <r>   -3.1619    1.0000 </r>
       <r>   -2.9747    1.0000 </r>
       <r>   -2.8955    1.0000 </r>
       <r>   -2.7548    1.0000 </r>
       <r>   -2.5314    1.0000 </r>
       <r>   -2.3631    1.0000 </r>
       <r>   -2.2440    1.0000 </r>
       <r>   -2.0286    1.0000 </r>
       <r>   -1.7072    1.0000 </r>
       <r>   -1.4679    1.0000 </r>
       <r>   -1.4391    1.0000 </r>
       <r>   -1.1742    1.0000 </r>
       <r>   -0.6362    1.0000 </r>
       <r>   -0.1079    1.0000 </r>
       <r>   -0.0818    1.0000 </r>
       <r>    0.0842    1.0000 </r>
       <r>    0.1885    1.0000 </r>
       <r>    0.1891    1.0000 </r>
       <r>    0.2382    1.0000 </r>
       <r>    0.3251    1.0000 </r>
       <r>    0.3634    1.0000 </r>
       <r>    0.6005    1.0000 </r>
       <r>    0.6774    1.0000 </r>
       <r>    0.7565    1.0000 </r>
       <r>    0.7986    1.0000 </r>
       <r>    0.8638    1.0000 </r>
       <r>    1.0003    1.0000 </r>
       <r>    1.0188    1.0000 </r>
       <r>    1.0264    1.0000 </r>
       <r>    1.0518    1.0000 </r>
       <r>    1.0551    1.0000 </r>
       <r>    1.0564    1.0000 </r>
       <r>    1.1638    1.0000 </r>
       <r>    1.4208    1.0000 </r>
       <r>    1.4572    1.0000 </r>
       <r>    1.5406    1.0000 </r>
       <r>    1.5963    1.0000 </r>
       <r>    1.6018    1.0000 </r>
       <r>    1.6071    1.0000 </r>
       <r>    1.6638    1.0000 </r>
       <r>    1.6858    1.0000 </r>
       <r>    1.7294    1.0000 </r>
       <r>    1.7983    1.0000 </r>
       <r>    1.8205    1.0000 </r>
       <r>    1.9741    1.0000 </r>
       <r>    2.0103    1.0000 </r>
       <r>    2.1143    1.0000 </r>
       <r>    2.1172    1.0000 </r>
       <r>    2.1819    1.0000 </r>
       <r>    2.2988    1.0000 </r>
       <r>    2.4724    1.0000 </r>
       <r>    2.5354    1.0000 </r>
       <r>    2.5405    1.0000 </r>
       <r>    2.6819    1.0000 </r>
       <r>    2.9083    1.0000 </r>
       <r>    2.9585    1.0000 </r>
       <r>    2.9793    1.0000 </r>
       <r>    3.1797    1.0000 </r>
       <r>    3.1976    1.0000 </r>
       <r>    3.3944    1.0000 </r>
       <r>    3.4072    1.0000 </r>
       <r>    3.5227    1.0000 </r>
       <r>    3.6369    1.0000 </r>
       <r>    3.7092    1.0000 </r>
       <r>    3.8673    1.0000 </r>
       <r>    3.9356    1.0000 </r>
       <r>    4.3464    1.0000 </r>
       <r>    4.4345    1.0000 </r>
       <r>    5.2874    0.0000 </r>
       <r>    5.3436    0.0000 </r>
       <r>    5.3447    0.0000 </r>
       <r>    5.4552    0.0000 </r>
       <r>    5.4782    0.0000 </r>
       <r>    5.5665    0.0000 </r>
       <r>    5.5853    0.0000 </r>
       <r>    5.9096    0.0000 </r>
       <r>    6.0083    0.0000 </r>
       <r>    6.0554    0.0000 </r>
       <r>    6.1076    0.0000 </r>
       <r>    6.2033    0.0000 </r>
       <r>    6.2711    0.0000 </r>
       <r>    6.2768    0.0000 </r>
       <r>    6.5235    0.0000 </r>
       <r>    6.5290    0.0000 </r>
       <r>    6.6453    0.0000 </r>
       <r>    6.6676    0.0000 </r>
       <r>    6.6735    0.0000 </r>
       <r>    6.6943    0.0000 </r>
      </set>
      <set comment="kpoint 6">
       <r>   -7.9293    1.0000 </r>
       <r>   -7.5636    1.0000 </r>
       <r>   -7.4621    1.0000 </r>
       <r>   -7.1537    1.0000 </r>
       <r>   -7.0848    1.0000 </r>
       <r>   -6.6740    1.0000 </r>
       <r>   -6.6406    1.0000 </r>
       <r>   -6.5743    1.0000 </r>
       <r>   -6.1912    1.0000 </r>
       <r>   -6.1016    1.0000 </r>
       <r>   -5.7846    1.0000 </r>
       <r>   -5.6804    1.0000 </r>
       <r>   -5.3261    1.0000 </r>
       <r>   -5.2273    1.0000 </r>
       <r>   -5.1698    1.0000 </r>
       <r>   -5.0926    1.0000 </r>
       <r>   -4.8478    1.0000 </r>
       <r>   -4.5256    1.0000 </r>
       <r>   -4.1965    1.0000 </r>
       <r>   -4.1020    1.0000 </r>
       <r>   -3.9950    1.0000 </r>
       <r>   -3.8665    1.0000 </r>
       <r>   -3.8432    1.0000 </r>
       <r>   -3.7835    1.0000 </r>
       <r>   -3.5387    1.0000 </r>
       <r>   -3.4732    1.0000 </r>
       <r>   -3.2881    1.0000 </r>
       <r>   -3.2783    1.0000 </r>
       <r>   -3.2027    1.0000 </r>
       <r>   -2.7912    1.0000 </r>
       <r>   -2.6034    1.0000 </r>
       <r>   -2.3675    1.0000 </r>
       <r>   -2.2891    1.0000 </r>
       <r>   -2.2545    1.0000 </r>
       <r>   -2.2494    1.0000 </r>
       <r>   -2.1542    1.0000 </r>
       <r>   -1.7135    1.0000 </r>
       <r>   -1.7065    1.0000 </r>
       <r>   -1.2216    1.0000 </r>
       <r>   -0.9380    1.0000 </r>
       <r>   -0.5230    1.0000 </r>
       <r>   -0.3990    1.0000 </r>
       <r>   -0.1853    1.0000 </r>
       <r>    0.1379    1.0000 </r>
       <r>    0.1923    1.0000 </r>
       <r>    0.2379    1.0000 </r>
       <r>    0.2689    1.0000 </r>
       <r>    0.3123    1.0000 </r>
       <r>    0.4875    1.0000 </r>
       <r>    0.5442    1.0000 </r>
       <r>    0.5536    1.0000 </r>
       <r>    0.6461    1.0000 </r>
       <r>    0.6641    1.0000 </r>
       <r>    0.6649    1.0000 </r>
       <r>    0.7559    1.0000 </r>
       <r>    0.7883    1.0000 </r>
       <r>    0.8209    1.0000 </r>
       <r>    0.9636    1.0000 </r>
       <r>    1.0508    1.0000 </r>
       <r>    1.0965    1.0000 </r>
       <r>    1.1921    1.0000 </r>
       <r>    1.2126    1.0000 </r>
       <r>    1.3365    1.0000 </r>
       <r>    1.4563    1.0000 </r>
       <r>    1.5573    1.0000 </r>
       <r>    1.6062    1.0000 </r>
       <r>    1.6325    1.0000 </r>
       <r>    1.6381    1.0000 </r>
       <r>    1.7058    1.0000 </r>
       <r>    1.7088    1.0000 </r>
       <r>    1.7873    1.0000 </r>
       <r>    1.8232    1.0000 </r>
       <r>    1.8795    1.0000 </r>
       <r>    1.9443    1.0000 </r>
       <r>    2.1039    1.0000 </r>
       <r>    2.1303    1.0000 </r>
       <r>    2.1659    1.0000 </r>
       <r>    2.2422    1.0000 </r>
       <r>    2.4792    1.0000 </r>
       <r>    2.5792    1.0000 </r>
       <r>    2.6719    1.0000 </r>
       <r>    2.7026    1.0000 </r>
       <r>    2.7484    1.0000 </r>
       <r>    2.7950    1.0000 </r>
       <r>    2.8181    1.0000 </r>
       <r>    3.0269    1.0000 </r>
       <r>    3.0763    1.0000 </r>
       <r>    3.1581    1.0000 </r>
       <r>    3.2039    1.0000 </r>
       <r>    3.2982    1.0000 </r>
       <r>    3.5357    1.0000 </r>
       <r>    3.6160    1.0000 </r>
       <r>    3.7402    1.0000 </r>
       <r>    3.9920    1.0000 </r>
       <r>    4.1627    1.0000 </r>
       <r>    4.2467    1.0000 </r>
       <r>    5.3853    0.0000 </r>
       <r>    5.3956    0.0000 </r>
       <r>    5.3958    0.0000 </r>
       <r>    5.4317    0.0000 </r>
       <r>    5.7588    0.0000 </r>
       <r>    5.8174    0.0000 </r>
       <r>    5.9214    0.0000 </r>
       <r>    6.0366    0.0000 </r>
       <r>    6.1351    0.0000 </r>
       <r>    6.2352    0.0000 </r>
       <r>    6.3975    0.0000 </r>
       <r>    6.4080    0.0000 </r>
       <r>    6.4989    0.0000 </r>
       <r>    6.5953    0.0000 </r>
       <r>    6.7412    0.0000 </r>
       <r>    6.7759    0.0000 </r>
       <r>    6.8433    0.0000 </r>
       <r>    6.8443    0.0000 </r>
       <r>    6.8472    0.0000 </r>
       <r>    7.0363    0.0000 </r>
      </set>
      <set comment="kpoint 7">
       <r>   -7.5537    1.0000 </r>
       <r>   -7.4020    1.0000 </r>
       <r>   -7.2423    1.0000 </r>
       <r>   -7.0846    1.0000 </r>
       <r>   -6.8902    1.0000 </r>
       <r>   -6.7312    1.0000 </r>
       <r>   -6.3639    1.0000 </r>
       <r>   -6.2895    1.0000 </r>
       <r>   -6.2102    1.0000 </r>
       <r>   -6.1451    1.0000 </r>
       <r>   -5.8357    1.0000 </r>
       <r>   -5.7713    1.0000 </r>
       <r>   -5.7420    1.0000 </r>
       <r>   -5.6344    1.0000 </r>
       <r>   -5.5558    1.0000 </r>
       <r>   -5.4115    1.0000 </r>
       <r>   -4.8342    1.0000 </r>
       <r>   -4.7479    1.0000 </r>
       <r>   -4.7069    1.0000 </r>
       <r>   -4.6684    1.0000 </r>
       <r>   -4.2589    1.0000 </r>
       <r>   -4.1681    1.0000 </r>
       <r>   -4.1098    1.0000 </r>
       <r>   -3.9828    1.0000 </r>
       <r>   -3.1724    1.0000 </r>
       <r>   -3.1580    1.0000 </r>
       <r>   -3.0145    1.0000 </r>
       <r>   -3.0018    1.0000 </r>
       <r>   -2.8065    1.0000 </r>
       <r>   -2.6508    1.0000 </r>
       <r>   -2.5307    1.0000 </r>
       <r>   -2.3761    1.0000 </r>
       <r>   -2.0575    1.0000 </r>
       <r>   -1.9571    1.0000 </r>
       <r>   -1.8313    1.0000 </r>
       <r>   -1.7454    1.0000 </r>
       <r>   -1.7229    1.0000 </r>
       <r>   -1.5530    1.0000 </r>
       <r>   -1.3916    1.0000 </r>
       <r>   -1.2305    1.0000 </r>
       <r>   -1.0610    1.0000 </r>
       <r>   -0.9046    1.0000 </r>
       <r>   -0.4722    1.0000 </r>
       <r>   -0.2155    1.0000 </r>
       <r>   -0.0022    1.0000 </r>
       <r>    0.0690    1.0000 </r>
       <r>    0.1367    1.0000 </r>
       <r>    0.2706    1.0000 </r>
       <r>    0.2713    1.0000 </r>
       <r>    0.2778    1.0000 </r>
       <r>    0.4132    1.0000 </r>
       <r>    0.5735    1.0000 </r>
       <r>    0.5744    1.0000 </r>
       <r>    0.6114    1.0000 </r>
       <r>    0.6642    1.0000 </r>
       <r>    0.7055    1.0000 </r>
       <r>    0.7308    1.0000 </r>
       <r>    0.7408    1.0000 </r>
       <r>    0.8018    1.0000 </r>
       <r>    0.8762    1.0000 </r>
       <r>    1.2470    1.0000 </r>
       <r>    1.3247    1.0000 </r>
       <r>    1.3346    1.0000 </r>
       <r>    1.3918    1.0000 </r>
       <r>    1.4654    1.0000 </r>
       <r>    1.5411    1.0000 </r>
       <r>    1.7792    1.0000 </r>
       <r>    1.8521    1.0000 </r>
       <r>    1.9069    1.0000 </r>
       <r>    1.9277    1.0000 </r>
       <r>    2.0845    1.0000 </r>
       <r>    2.1412    1.0000 </r>
       <r>    2.1500    1.0000 </r>
       <r>    2.1600    1.0000 </r>
       <r>    2.1754    1.0000 </r>
       <r>    2.2176    1.0000 </r>
       <r>    2.2602    1.0000 </r>
       <r>    2.3257    1.0000 </r>
       <r>    2.3498    1.0000 </r>
       <r>    2.3681    1.0000 </r>
       <r>    2.7573    1.0000 </r>
       <r>    2.7603    1.0000 </r>
       <r>    2.8742    1.0000 </r>
       <r>    2.9103    1.0000 </r>
       <r>    3.0259    1.0000 </r>
       <r>    3.1146    1.0000 </r>
       <r>    3.2558    1.0000 </r>
       <r>    3.3686    1.0000 </r>
       <r>    3.4552    1.0000 </r>
       <r>    3.5883    1.0000 </r>
       <r>    3.5914    1.0000 </r>
       <r>    3.6875    1.0000 </r>
       <r>    3.9338    1.0000 </r>
       <r>    3.9933    1.0000 </r>
       <r>    4.0431    1.0000 </r>
       <r>    4.0801    1.0000 </r>
       <r>    5.3283    0.0000 </r>
       <r>    5.4625    0.0000 </r>
       <r>    5.6381    0.0000 </r>
       <r>    5.6567    0.0000 </r>
       <r>    6.0729    0.0000 </r>
       <r>    6.1068    0.0000 </r>
       <r>    6.1118    0.0000 </r>
       <r>    6.2141    0.0000 </r>
       <r>    6.3485    0.0000 </r>
       <r>    6.4567    0.0000 </r>
       <r>    6.4898    0.0000 </r>
       <r>    6.4955    0.0000 </r>
       <r>    6.7134    0.0000 </r>
       <r>    6.7203    0.0000 </r>
       <r>    6.8192    0.0000 </r>
       <r>    6.8207    0.0000 </r>
       <r>    7.1136    0.0000 </r>
       <r>    7.1508    0.0000 </r>
       <r>    7.1524    0.0000 </r>
       <r>    7.2156    0.0000 </r>
      </set>
      <set comment="kpoint 8">
       <r>   -7.4209    1.0000 </r>
       <r>   -7.2726    1.0000 </r>
       <r>   -7.0136    1.0000 </r>
       <r>   -6.7453    1.0000 </r>
       <r>   -6.7040    1.0000 </r>
       <r>   -6.5050    1.0000 </r>
       <r>   -6.4734    1.0000 </r>
       <r>   -6.3316    1.0000 </r>
       <r>   -6.2546    1.0000 </r>
       <r>   -6.1443    1.0000 </r>
       <r>   -6.1354    1.0000 </r>
       <r>   -5.7377    1.0000 </r>
       <r>   -5.6550    1.0000 </r>
       <r>   -5.6403    1.0000 </r>
       <r>   -5.4830    1.0000 </r>
       <r>   -5.4794    1.0000 </r>
       <r>   -5.1542    1.0000 </r>
       <r>   -5.0810    1.0000 </r>
       <r>   -4.8448    1.0000 </r>
       <r>   -4.7348    1.0000 </r>
       <r>   -4.5631    1.0000 </r>
       <r>   -4.5408    1.0000 </r>
       <r>   -4.1223    1.0000 </r>
       <r>   -3.8983    1.0000 </r>
       <r>   -3.4932    1.0000 </r>
       <r>   -3.3438    1.0000 </r>
       <r>   -2.8695    1.0000 </r>
       <r>   -2.8275    1.0000 </r>
       <r>   -2.7528    1.0000 </r>
       <r>   -2.6576    1.0000 </r>
       <r>   -2.4483    1.0000 </r>
       <r>   -2.2626    1.0000 </r>
       <r>   -2.1746    1.0000 </r>
       <r>   -2.0004    1.0000 </r>
       <r>   -1.9514    1.0000 </r>
       <r>   -1.7905    1.0000 </r>
       <r>   -1.7195    1.0000 </r>
       <r>   -1.7008    1.0000 </r>
       <r>   -1.6529    1.0000 </r>
       <r>   -1.3828    1.0000 </r>
       <r>   -1.2517    1.0000 </r>
       <r>   -1.0608    1.0000 </r>
       <r>   -0.9340    1.0000 </r>
       <r>   -0.6514    1.0000 </r>
       <r>   -0.4478    1.0000 </r>
       <r>   -0.4295    1.0000 </r>
       <r>    0.0691    1.0000 </r>
       <r>    0.1032    1.0000 </r>
       <r>    0.1475    1.0000 </r>
       <r>    0.2305    1.0000 </r>
       <r>    0.3464    1.0000 </r>
       <r>    0.5057    1.0000 </r>
       <r>    0.6410    1.0000 </r>
       <r>    0.6944    1.0000 </r>
       <r>    0.8286    1.0000 </r>
       <r>    0.8741    1.0000 </r>
       <r>    1.0464    1.0000 </r>
       <r>    1.1042    1.0000 </r>
       <r>    1.2420    1.0000 </r>
       <r>    1.2618    1.0000 </r>
       <r>    1.3738    1.0000 </r>
       <r>    1.4293    1.0000 </r>
       <r>    1.5415    1.0000 </r>
       <r>    1.5448    1.0000 </r>
       <r>    1.5557    1.0000 </r>
       <r>    1.7510    1.0000 </r>
       <r>    1.7818    1.0000 </r>
       <r>    1.8116    1.0000 </r>
       <r>    1.8762    1.0000 </r>
       <r>    2.1491    1.0000 </r>
       <r>    2.2944    1.0000 </r>
       <r>    2.2978    1.0000 </r>
       <r>    2.3371    1.0000 </r>
       <r>    2.3418    1.0000 </r>
       <r>    2.4014    1.0000 </r>
       <r>    2.5357    1.0000 </r>
       <r>    2.5475    1.0000 </r>
       <r>    2.5798    1.0000 </r>
       <r>    2.6182    1.0000 </r>
       <r>    2.7876    1.0000 </r>
       <r>    2.7988    1.0000 </r>
       <r>    2.8014    1.0000 </r>
       <r>    2.9469    1.0000 </r>
       <r>    2.9802    1.0000 </r>
       <r>    3.2024    1.0000 </r>
       <r>    3.2340    1.0000 </r>
       <r>    3.2806    1.0000 </r>
       <r>    3.4958    1.0000 </r>
       <r>    3.5037    1.0000 </r>
       <r>    3.5375    1.0000 </r>
       <r>    3.7428    1.0000 </r>
       <r>    3.7785    1.0000 </r>
       <r>    3.8116    1.0000 </r>
       <r>    3.8871    1.0000 </r>
       <r>    4.0397    1.0000 </r>
       <r>    4.1690    1.0000 </r>
       <r>    5.3592    0.0000 </r>
       <r>    5.6562    0.0000 </r>
       <r>    5.6845    0.0000 </r>
       <r>    5.7725    0.0000 </r>
       <r>    5.9655    0.0000 </r>
       <r>    6.0774    0.0000 </r>
       <r>    6.1098    0.0000 </r>
       <r>    6.2799    0.0000 </r>
       <r>    6.7063    0.0000 </r>
       <r>    6.7248    0.0000 </r>
       <r>    6.7309    0.0000 </r>
       <r>    6.8228    0.0000 </r>
       <r>    6.9612    0.0000 </r>
       <r>    6.9691    0.0000 </r>
       <r>    7.0061    0.0000 </r>
       <r>    7.0385    0.0000 </r>
       <r>    7.2480    0.0000 </r>
       <r>    7.2498    0.0000 </r>
       <r>    7.2574    0.0000 </r>
       <r>    7.4300    0.0000 </r>
      </set>
      <set comment="kpoint 9">
       <r>   -7.5749    1.0000 </r>
       <r>   -7.4332    1.0000 </r>
       <r>   -7.1720    1.0000 </r>
       <r>   -6.8870    1.0000 </r>
       <r>   -6.6291    1.0000 </r>
       <r>   -6.4832    1.0000 </r>
       <r>   -6.3460    1.0000 </r>
       <r>   -6.2770    1.0000 </r>
       <r>   -6.1115    1.0000 </r>
       <r>   -5.9175    1.0000 </r>
       <r>   -5.8484    1.0000 </r>
       <r>   -5.7739    1.0000 </r>
       <r>   -5.6235    1.0000 </r>
       <r>   -5.3890    1.0000 </r>
       <r>   -5.3624    1.0000 </r>
       <r>   -5.2933    1.0000 </r>
       <r>   -5.1449    1.0000 </r>
       <r>   -4.8946    1.0000 </r>
       <r>   -4.8770    1.0000 </r>
       <r>   -4.6875    1.0000 </r>
       <r>   -4.5943    1.0000 </r>
       <r>   -4.4294    1.0000 </r>
       <r>   -3.9664    1.0000 </r>
       <r>   -3.9316    1.0000 </r>
       <r>   -3.7479    1.0000 </r>
       <r>   -3.6622    1.0000 </r>
       <r>   -3.1416    1.0000 </r>
       <r>   -3.1090    1.0000 </r>
       <r>   -2.8143    1.0000 </r>
       <r>   -2.8049    1.0000 </r>
       <r>   -2.7305    1.0000 </r>
       <r>   -2.6717    1.0000 </r>
       <r>   -2.2803    1.0000 </r>
       <r>   -2.1846    1.0000 </r>
       <r>   -2.0840    1.0000 </r>
       <r>   -2.0526    1.0000 </r>
       <r>   -2.0039    1.0000 </r>
       <r>   -1.8841    1.0000 </r>
       <r>   -1.6861    1.0000 </r>
       <r>   -1.6742    1.0000 </r>
       <r>   -1.5705    1.0000 </r>
       <r>   -1.4747    1.0000 </r>
       <r>   -1.0267    1.0000 </r>
       <r>   -0.5468    1.0000 </r>
       <r>   -0.1844    1.0000 </r>
       <r>   -0.1656    1.0000 </r>
       <r>    0.1394    1.0000 </r>
       <r>    0.1421    1.0000 </r>
       <r>    0.3363    1.0000 </r>
       <r>    0.3978    1.0000 </r>
       <r>    0.4299    1.0000 </r>
       <r>    0.6947    1.0000 </r>
       <r>    0.7433    1.0000 </r>
       <r>    1.0780    1.0000 </r>
       <r>    1.1889    1.0000 </r>
       <r>    1.2773    1.0000 </r>
       <r>    1.3194    1.0000 </r>
       <r>    1.4009    1.0000 </r>
       <r>    1.4166    1.0000 </r>
       <r>    1.4199    1.0000 </r>
       <r>    1.4577    1.0000 </r>
       <r>    1.4764    1.0000 </r>
       <r>    1.5352    1.0000 </r>
       <r>    1.8026    1.0000 </r>
       <r>    1.9147    1.0000 </r>
       <r>    2.0293    1.0000 </r>
       <r>    2.0882    1.0000 </r>
       <r>    2.1439    1.0000 </r>
       <r>    2.1628    1.0000 </r>
       <r>    2.1974    1.0000 </r>
       <r>    2.2970    1.0000 </r>
       <r>    2.3793    1.0000 </r>
       <r>    2.3901    1.0000 </r>
       <r>    2.4157    1.0000 </r>
       <r>    2.4950    1.0000 </r>
       <r>    2.5734    1.0000 </r>
       <r>    2.6074    1.0000 </r>
       <r>    2.7205    1.0000 </r>
       <r>    2.7435    1.0000 </r>
       <r>    2.7829    1.0000 </r>
       <r>    2.8677    1.0000 </r>
       <r>    2.8984    1.0000 </r>
       <r>    2.9287    1.0000 </r>
       <r>    3.0101    1.0000 </r>
       <r>    3.1456    1.0000 </r>
       <r>    3.3074    1.0000 </r>
       <r>    3.3330    1.0000 </r>
       <r>    3.5703    1.0000 </r>
       <r>    3.5710    1.0000 </r>
       <r>    3.6684    1.0000 </r>
       <r>    3.6878    1.0000 </r>
       <r>    3.7496    1.0000 </r>
       <r>    3.8721    1.0000 </r>
       <r>    3.8970    1.0000 </r>
       <r>    4.1028    1.0000 </r>
       <r>    4.1228    1.0000 </r>
       <r>    5.1426    1.0000 </r>
       <r>    5.1971    0.3157 </r>
       <r>    5.2420    0.0000 </r>
       <r>    5.4884    0.0000 </r>
       <r>    5.6197    0.0000 </r>
       <r>    5.7656    0.0000 </r>
       <r>    6.0755    0.0000 </r>
       <r>    6.2605    0.0000 </r>
       <r>    6.2938    0.0000 </r>
       <r>    6.4037    0.0000 </r>
       <r>    6.5718    0.0000 </r>
       <r>    6.6541    0.0000 </r>
       <r>    6.6551    0.0000 </r>
       <r>    6.6994    0.0000 </r>
       <r>    6.8404    0.0000 </r>
       <r>    6.9561    0.0000 </r>
       <r>    6.9693    0.0000 </r>
       <r>    7.1044    0.0000 </r>
       <r>    7.1631    0.0000 </r>
       <r>    7.1811    0.0000 </r>
      </set>
      <set comment="kpoint 10">
       <r>   -8.0207    1.0000 </r>
       <r>   -7.7241    1.0000 </r>
       <r>   -7.3751    1.0000 </r>
       <r>   -6.8391    1.0000 </r>
       <r>   -6.7338    1.0000 </r>
       <r>   -6.2198    1.0000 </r>
       <r>   -6.1989    1.0000 </r>
       <r>   -6.1973    1.0000 </r>
       <r>   -6.0032    1.0000 </r>
       <r>   -6.0027    1.0000 </r>
       <r>   -5.7886    1.0000 </r>
       <r>   -5.5866    1.0000 </r>
       <r>   -5.3798    1.0000 </r>
[...]
       <r>     6.5543    19.4303   218.2208 </r>
       <r>     6.6123    21.1550   219.4467 </r>
       <r>     6.6702    31.1666   221.2527 </r>
       <r>     6.7282    32.6668   223.1456 </r>
       <r>     6.7861    13.2202   223.9116 </r>
       <r>     6.8440    20.3651   225.0916 </r>
       <r>     6.9020    16.1371   226.0267 </r>
       <r>     6.9599    16.4790   226.9816 </r>
       <r>     7.0179    22.6769   228.2956 </r>
       <r>     7.0758    19.3389   229.4161 </r>
       <r>     7.1338     9.9271   229.9913 </r>
       <r>     7.1917    13.5776   230.7781 </r>
       <r>     7.2496     8.6409   231.2788 </r>
       <r>     7.3076     7.5095   231.7139 </r>
       <r>     7.3655     2.4714   231.8571 </r>
       <r>     7.4235     0.4353   231.8824 </r>
       <r>     7.4814     2.0302   232.0000 </r>
       <r>     7.5394     0.0000   232.0000 </r>
       <r>     7.5973     0.0000   232.0000 </r>
       <r>     7.6553     0.0000   232.0000 </r>
       <r>     7.7132     0.0000   232.0000 </r>
       <r>     7.7711     0.0000   232.0000 </r>
       <r>     7.8291     0.0000   232.0000 </r>
       <r>     7.8870     0.0000   232.0000 </r>
       <r>     7.9450     0.0000   232.0000 </r>
       <r>     8.0029     0.0000   232.0000 </r>
       <r>     8.0609     0.0000   232.0000 </r>
       <r>     8.1188     0.0000   232.0000 </r>
       <r>     8.1767     0.0000   232.0000 </r>
       <r>     8.2347     0.0000   232.0000 </r>
      </set>
      <set comment="spin 2">
       <r>    -9.1483     0.0000     0.0000 </r>
       <r>    -9.0904     0.0000     0.0000 </r>
       <r>    -9.0324     0.0000     0.0000 </r>
       <r>    -8.9745     0.0000     0.0000 </r>
       <r>    -8.9165     0.0000     0.0000 </r>
       <r>    -8.8586     0.0000     0.0000 </r>
       <r>    -8.8006     0.0000     0.0000 </r>
       <r>    -8.7427     0.0000     0.0000 </r>
       <r>    -8.6847     0.0000     0.0000 </r>
       <r>    -8.6268     0.0000     0.0000 </r>
       <r>    -8.5689     0.0000     0.0000 </r>
       <r>    -8.5109     0.0000     0.0000 </r>
       <r>    -8.4530     0.0000     0.0000 </r>
       <r>    -8.3950     0.0000     0.0000 </r>
       <r>    -8.3371     0.7867     0.0456 </r>
       <r>    -8.2791     0.4460     0.0714 </r>
       <r>    -8.2212     2.2099     0.1995 </r>
       <r>    -8.1633     5.1865     0.5000 </r>
       <r>    -8.1053     0.0000     0.5000 </r>
       <r>    -8.0474     0.0000     0.5000 </r>
       <r>    -7.9894     2.3407     0.6356 </r>
       <r>    -7.9315     3.8261     0.8573 </r>
       <r>    -7.8735     4.9927     1.1467 </r>
       <r>    -7.8156     7.7093     1.5934 </r>
       <r>    -7.7577     4.5506     1.8571 </r>
       <r>    -7.6997     0.4757     1.8847 </r>
       <r>    -7.6418     1.9898     2.0000 </r>
       <r>    -7.5838     7.0117     2.4063 </r>
       <r>    -7.5259     7.9502     2.8670 </r>
       <r>    -7.4679     3.7509     3.0844 </r>
       <r>    -7.4100     9.8043     3.6525 </r>
       <r>    -7.3521    13.1775     4.4160 </r>
       <r>    -7.2941     3.9151     4.6429 </r>
       <r>    -7.2362     3.6179     4.8525 </r>
       <r>    -7.1782    10.7639     5.4762 </r>
       <r>    -7.1203     7.1746     5.8919 </r>
       <r>    -7.0623     4.8572     6.1735 </r>
       <r>    -7.0044     6.8733     6.5717 </r>
       <r>    -6.9465     7.6298     7.0138 </r>
       <r>    -6.8885    15.6931     7.9232 </r>
       <r>    -6.8306     9.9742     8.5011 </r>
       <r>    -6.7726     7.3763     8.9285 </r>
       <r>    -6.7147     9.9590     9.5056 </r>
       <r>    -6.6567    17.1957    10.5019 </r>
       <r>    -6.5988    14.4400    11.3387 </r>
       <r>    -6.5408    14.2676    12.1654 </r>
       <r>    -6.4829     8.3717    12.6505 </r>
       <r>    -6.4250     7.2648    13.0714 </r>
       <r>    -6.3670     2.2826    13.2037 </r>
       <r>    -6.3091    14.3072    14.0327 </r>
       <r>    -6.2511    12.9446    14.7828 </r>
       <r>    -6.1932    10.1798    15.3727 </r>
       <r>    -6.1352    16.6200    16.3359 </r>
       <r>    -6.0773    20.8328    17.5430 </r>
       <r>    -6.0194    10.0440    18.1250 </r>
       <r>    -5.9614    21.6983    19.3822 </r>
       <r>    -5.9035     5.2750    19.6880 </r>
       <r>    -5.8455    10.2110    20.2796 </r>
       <r>    -5.7876    18.6580    21.3608 </r>
       <r>    -5.7296    17.4151    22.3699 </r>
       <r>    -5.6717    21.6437    23.6241 </r>
       <r>    -5.6138    12.4710    24.3468 </r>
       <r>    -5.5558     9.6665    24.9069 </r>
       <r>    -5.4979     6.9139    25.3075 </r>
       <r>    -5.4399    10.1175    25.8938 </r>
       <r>    -5.3820     8.7860    26.4029 </r>
       <r>    -5.3240    19.0671    27.5077 </r>
       <r>    -5.2661    15.8457    28.4259 </r>
       <r>    -5.2082    15.4460    29.3209 </r>
       <r>    -5.1502    13.6110    30.1095 </r>
       <r>    -5.0923    18.9776    31.2092 </r>
       <r>    -5.0343    13.1337    31.9702 </r>
       <r>    -4.9764     7.7936    32.4218 </r>
       <r>    -4.9184     9.2167    32.9559 </r>
       <r>    -4.8605    16.8247    33.9308 </r>
       <r>    -4.8026    18.6846    35.0134 </r>
       <r>    -4.7446    10.0563    35.5961 </r>
       <r>    -4.6867    12.2195    36.3042 </r>
       <r>    -4.6287     8.3346    36.7871 </r>
       <r>    -4.5708    10.0913    37.3718 </r>
       <r>    -4.5128    19.2228    38.4857 </r>
       <r>    -4.4549    12.8039    39.2276 </r>
       <r>    -4.3969    14.2329    40.0523 </r>
       <r>    -4.3390    16.1337    40.9871 </r>
       <r>    -4.2811    11.1720    41.6345 </r>
       <r>    -4.2231     3.3002    41.8257 </r>
       <r>    -4.1652     9.4148    42.3712 </r>
       <r>    -4.1072    10.9146    43.0037 </r>
       <r>    -4.0493    16.6770    43.9700 </r>
       <r>    -3.9913    12.2117    44.6776 </r>
       <r>    -3.9334    17.4092    45.6863 </r>
       <r>    -3.8755     9.2283    46.2211 </r>
       <r>    -3.8175    20.4079    47.4036 </r>
       <r>    -3.7596    10.4318    48.0080 </r>
       <r>    -3.7016     4.0614    48.2434 </r>
       <r>    -3.6437     9.0708    48.7690 </r>
       <r>    -3.5857     4.9402    49.0553 </r>
       <r>    -3.5278    16.4079    50.0060 </r>
       <r>    -3.4699    12.6037    50.7365 </r>
       <r>    -3.4119     4.5497    51.0002 </r>
       <r>    -3.3540     2.4682    51.1432 </r>
       <r>    -3.2960     8.4668    51.6338 </r>
       <r>    -3.2381     8.8505    52.1466 </r>
       <r>    -3.1801    13.3934    52.9227 </r>
       <r>    -3.1222    27.4609    54.5138 </r>
       <r>    -3.0643    12.7522    55.2528 </r>
       <r>    -3.0063    15.8672    56.1722 </r>
       <r>    -2.9484    11.2158    56.8221 </r>
       <r>    -2.8904     4.3947    57.0767 </r>
       <r>    -2.8325    11.9716    57.7704 </r>
       <r>    -2.7745    23.4647    59.1300 </r>
       <r>    -2.7166    16.1626    60.0666 </r>
       <r>    -2.6586    12.0583    60.7653 </r>
       <r>    -2.6007    12.6833    61.5002 </r>
       <r>    -2.5428     7.3854    61.9281 </r>
       <r>    -2.4848    12.2869    62.6401 </r>
       <r>    -2.4269     5.7271    62.9720 </r>
       <r>    -2.3689    14.6306    63.8197 </r>
       <r>    -2.3110    10.6165    64.4350 </r>
       <r>    -2.2530    17.8366    65.4685 </r>
       <r>    -2.1951    21.9060    66.7378 </r>
       <r>    -2.1372    17.4660    67.7498 </r>
       <r>    -2.0792    25.8909    69.2500 </r>
       <r>    -2.0213    20.0222    70.4103 </r>
       <r>    -1.9633    11.4079    71.0716 </r>
       <r>    -1.9054     7.6715    71.5161 </r>
       <r>    -1.8474    16.8240    72.4910 </r>
       <r>    -1.7895    22.9373    73.8201 </r>
       <r>    -1.7316     7.0896    74.2310 </r>
       <r>    -1.6736    25.5868    75.7136 </r>
       <r>    -1.6157    16.7784    76.6858 </r>
       <r>    -1.5577     4.3113    76.9356 </r>
       <r>    -1.4998    17.0792    77.9253 </r>
       <r>    -1.4418    11.4081    78.5863 </r>
       <r>    -1.3839     6.7931    78.9799 </r>
       <r>    -1.3260    15.6526    79.8869 </r>
       <r>    -1.2680     2.2049    80.0146 </r>
       <r>    -1.2101     5.8075    80.3511 </r>
       <r>    -1.1521     7.8074    80.8036 </r>
       <r>    -1.0942     5.8547    81.1428 </r>
       <r>    -1.0362     8.0174    81.6074 </r>
       <r>    -0.9783    11.6584    82.2829 </r>
       <r>    -0.9204     7.7813    82.7339 </r>
       <r>    -0.8624    14.7706    83.5899 </r>
       <r>    -0.8045     3.3769    83.7857 </r>
       <r>    -0.7465     5.7752    84.1203 </r>
       <r>    -0.6886    11.3719    84.7793 </r>
       <r>    -0.6306     5.1409    85.0772 </r>
       <r>    -0.5727    11.5951    85.7490 </r>
       <r>    -0.5147     4.9003    86.0330 </r>
       <r>    -0.4568     6.4036    86.4040 </r>
       <r>    -0.3989    11.2720    87.0571 </r>
       <r>    -0.3409     3.9517    87.2861 </r>
       <r>    -0.2830     3.6913    87.5000 </r>
       <r>    -0.2250     3.4113    87.6977 </r>
       <r>    -0.1671     7.0400    88.1056 </r>
       <r>    -0.1091     9.2888    88.6438 </r>
       <r>    -0.0512    13.1454    89.4055 </r>
       <r>     0.0067     0.4381    89.4310 </r>
       <r>     0.0647     6.2691    89.7943 </r>
       <r>     0.1226    10.9520    90.4289 </r>
       <r>     0.1806    22.9536    91.7589 </r>
       <r>     0.2385    14.9720    92.6264 </r>
       <r>     0.2965    21.5219    93.8736 </r>
       <r>     0.3544    19.5021    95.0036 </r>
       <r>     0.4123    19.0794    96.1092 </r>
       <r>     0.4703    16.7023    97.0769 </r>
       <r>     0.5282    26.5339    98.6144 </r>
       <r>     0.5862    30.2012   100.3644 </r>
       <r>     0.6441    21.1718   101.5912 </r>
       <r>     0.7021    22.2269   102.8791 </r>
       <r>     0.7600    26.7632   104.4300 </r>
       <r>     0.8179    24.9491   105.8756 </r>
       <r>     0.8759    34.9261   107.8993 </r>
       <r>     0.9338    21.8810   109.1672 </r>
       <r>     0.9918    16.4348   110.1195 </r>
       <r>     1.0497    19.6958   111.2607 </r>
       <r>     1.1077    42.1895   113.7053 </r>
       <r>     1.1656    30.8971   115.4956 </r>
       <r>     1.2235    12.6398   116.2282 </r>
       <r>     1.2815    28.4455   117.8764 </r>
       <r>     1.3394    30.9878   119.6720 </r>
       <r>     1.3974    36.4757   121.7855 </r>
       <r>     1.4553    26.1694   123.3020 </r>
       <r>     1.5133    23.1247   124.6419 </r>
       <r>     1.5712    40.2208   126.9724 </r>
       <r>     1.6292    34.2045   128.9544 </r>
       <r>     1.6871    32.3492   130.8289 </r>
       <r>     1.7450    30.0368   132.5694 </r>
       <r>     1.8030    29.3971   134.2728 </r>
       <r>     1.8609    37.8079   136.4636 </r>
       <r>     1.9189    20.0927   137.6279 </r>
       <r>     1.9768    27.2469   139.2068 </r>
       <r>     2.0348    28.9495   140.8842 </r>
       <r>     2.0927    12.9681   141.6359 </r>
       <r>     2.1506    40.5708   143.9867 </r>
       <r>     2.2086    38.3791   146.2105 </r>
       <r>     2.2665    27.8565   147.8247 </r>
       <r>     2.3245    30.7518   149.6066 </r>
       <r>     2.3824    24.9005   151.0494 </r>
       <r>     2.4404    22.2754   152.3402 </r>
       <r>     2.4983    14.0638   153.1551 </r>
       <r>     2.5562    33.1791   155.0776 </r>
       <r>     2.6142    32.2316   156.9453 </r>
       <r>     2.6721    22.4678   158.2473 </r>
       <r>     2.7301    21.8812   159.5152 </r>
       <r>     2.7880    27.7736   161.1245 </r>
       <r>     2.8460    34.3589   163.1154 </r>
       <r>     2.9039    11.7339   163.7954 </r>
       <r>     2.9618    25.8143   165.2911 </r>
       <r>     3.0198    21.1410   166.5161 </r>
       <r>     3.0777    29.1583   168.2057 </r>
       <r>     3.1357    15.4236   169.0994 </r>
       <r>     3.1936    22.7058   170.4151 </r>
       <r>     3.2516    36.0156   172.5020 </r>
       <r>     3.3095    22.4685   173.8039 </r>
       <r>     3.3675    18.4196   174.8712 </r>
       <r>     3.4254    14.6061   175.7175 </r>
       <r>     3.4833    10.4601   176.3236 </r>
       <r>     3.5413    19.1609   177.4339 </r>
       <r>     3.5992    26.3955   178.9635 </r>
       <r>     3.6572    21.4162   180.2045 </r>
       <r>     3.7151    18.4449   181.2733 </r>
       <r>     3.7731    16.8232   182.2481 </r>
       <r>     3.8310    19.5198   183.3791 </r>
       <r>     3.8889    18.1016   184.4280 </r>
       <r>     3.9469    17.9240   185.4667 </r>
       <r>     4.0048    19.7529   186.6113 </r>
       <r>     4.0628    10.0734   187.1951 </r>
       <r>     4.1207     8.9728   187.7151 </r>
       <r>     4.1787    12.3024   188.4279 </r>
       <r>     4.2366    11.1154   189.0720 </r>
       <r>     4.2945    15.9700   189.9973 </r>
       <r>     4.3525    14.2052   190.8205 </r>
       <r>     4.4104    10.4930   191.4285 </r>
       <r>     4.4684     2.2933   191.5613 </r>
       <r>     4.5263     4.4007   191.8163 </r>
       <r>     4.5843     0.7042   191.8571 </r>
       <r>     4.6422     0.0000   191.8571 </r>
       <r>     4.7001     0.0000   191.8571 </r>
       <r>     4.7581     0.0782   191.8617 </r>
       <r>     4.8160     1.3243   191.9384 </r>
       <r>     4.8740     5.6955   192.2684 </r>
       <r>     4.9319     0.2983   192.2857 </r>
       <r>     4.9899     2.4077   192.4252 </r>
       <r>     5.0478     2.3690   192.5625 </r>
       <r>     5.1057     0.1543   192.5714 </r>
       <r>     5.1637     2.9346   192.7415 </r>
       <r>     5.2216     3.9884   192.9726 </r>
       <r>     5.2796    10.1137   193.5586 </r>
       <r>     5.3375    14.0505   194.3727 </r>
       <r>     5.3955    15.1185   195.2487 </r>
       <r>     5.4534    35.0732   197.2810 </r>
       <r>     5.5114    19.7623   198.4262 </r>
       <r>     5.5693    14.7362   199.2802 </r>
       <r>     5.6272    13.0669   200.0374 </r>
       <r>     5.6852    23.7822   201.4154 </r>
       <r>     5.7431    16.5546   202.3747 </r>
       <r>     5.8011    20.7136   203.5749 </r>
       <r>     5.8590    16.8827   204.5532 </r>
       <r>     5.9170     9.3620   205.0957 </r>
       <r>     5.9749    17.4066   206.1042 </r>
       <r>     6.0328     7.9189   206.5631 </r>
       <r>     6.0908    24.4786   207.9815 </r>
       <r>     6.1487    25.0588   209.4335 </r>
       <r>     6.2067    28.1800   211.0664 </r>
       <r>     6.2646    18.3299   212.1286 </r>
       <r>     6.3226    34.7253   214.1407 </r>
       <r>     6.3805    13.1768   214.9042 </r>
       <r>     6.4384    20.7882   216.1088 </r>
       <r>     6.4964     9.8671   216.6805 </r>
       <r>     6.5543    20.0304   217.8412 </r>
       <r>     6.6123    22.5598   219.1485 </r>
       <r>     6.6702    24.0539   220.5423 </r>
       <r>     6.7282    37.9785   222.7429 </r>
       <r>     6.7861    14.8642   223.6044 </r>
       <r>     6.8440    18.2474   224.6617 </r>
       <r>     6.9020    23.0955   225.9999 </r>
       <r>     6.9599    11.0478   226.6402 </r>
       <r>     7.0179    19.2670   227.7566 </r>
       <r>     7.0758    23.4304   229.1142 </r>
       <r>     7.1338    11.9139   229.8046 </r>
       <r>     7.1917    12.9176   230.5530 </r>
       <r>     7.2496     7.7554   231.0024 </r>
       <r>     7.3076    11.3220   231.6585 </r>
       <r>     7.3655     3.4105   231.8561 </r>
       <r>     7.4235     0.0211   231.8573 </r>
       <r>     7.4814     2.4619   232.0000 </r>
       <r>     7.5394     0.0000   232.0000 </r>
       <r>     7.5973     0.0000   232.0000 </r>
       <r>     7.6553     0.0000   232.0000 </r>
       <r>     7.7132     0.0000   232.0000 </r>
       <r>     7.7711     0.0000   232.0000 </r>
       <r>     7.8291     0.0000   232.0000 </r>
       <r>     7.8870     0.0000   232.0000 </r>
       <r>     7.9450     0.0000   232.0000 </r>
       <r>     8.0029     0.0000   232.0000 </r>
       <r>     8.0609     0.0000   232.0000 </r>
       <r>     8.1188     0.0000   232.0000 </r>
       <r>     8.1767     0.0000   232.0000 </r>
       <r>     8.2347     0.0000   232.0000 </r>
      </set>
     </set>
    </array>
   </total>
  </dos>
 </calculation>
 <structure name="finalpos" >
  <crystal>
   <varray name="basis" >
    <v>       5.48000000       0.00000000       0.00000000 </v>
    <v>      -5.48000000       7.74989032       0.00000000 </v>
    <v>       0.00000000       0.00000000      24.29292386 </v>
   </varray>
   <i name="volume">   1031.70587526 </i>
   <varray name="rec_basis" >
    <v>       0.18248175       0.12903408       0.00000000 </v>
    <v>       0.00000000       0.12903408       0.00000000 </v>
    <v>       0.00000000       0.00000000       0.04116425 </v>
   </varray>
  </crystal>
  <varray name="positions" >
   <v>       0.00000000       0.00000000       0.00000000 </v>
   <v>       0.25000000       0.75000000       0.07975461 </v>
   <v>       0.50000000       0.50000000       0.15950921 </v>
   <v>       0.75000000       0.25000000       0.23926382 </v>
   <v>       0.00000000       0.00000000       0.31901843 </v>
   <v>       0.25000000       0.75000000       0.39877303 </v>
   <v>       0.50000000       0.50000000       0.00000000 </v>
   <v>       0.75000000       0.25000000       0.07975461 </v>
   <v>       0.00000000       0.00000000       0.15950921 </v>
   <v>       0.25000000       0.75000000       0.23926382 </v>
   <v>       0.50000000       0.50000000       0.31901843 </v>
   <v>       0.75000000       0.25000000       0.39877303 </v>
   <v>       0.00000000       0.25000000       0.00000000 </v>
   <v>       0.25000000       0.00000000       0.07975461 </v>
   <v>       0.50000000       0.75000000       0.15950921 </v>
   <v>       0.75000000       0.50000000       0.23926382 </v>
   <v>       0.00000000       0.25000000       0.31901843 </v>
   <v>       0.25000000       0.00000000       0.39877303 </v>
   <v>       0.50000000       0.75000000       0.00000000 </v>
   <v>       0.75000000       0.50000000       0.07975461 </v>
   <v>       0.00000000       0.25000000       0.15950921 </v>
   <v>       0.25000000       0.00000000       0.23926382 </v>
   <v>       0.50000000       0.75000000       0.31901843 </v>
   <v>       0.75000000       0.50000000       0.39877303 </v>
   <v>       0.09259259       0.00000000       0.49345081 </v>
   <v>       0.84259259       0.25000000       0.57582509 </v>
   <v>       0.59259259       0.50000000       0.65819937 </v>
   <v>       0.34259259       0.75000000       0.74057366 </v>
   <v>       0.09259259       0.00000000       0.82294794 </v>
   <v>       0.84259259       0.25000000       0.90532222 </v>
   <v>       0.59259259       0.50000000       0.49345081 </v>
   <v>       0.34259259       0.75000000       0.57582509 </v>
   <v>       0.09259259       0.00000000       0.65819937 </v>
   <v>       0.84259259       0.25000000       0.74057366 </v>
   <v>       0.59259259       0.50000000       0.82294794 </v>
   <v>       0.34259259       0.75000000       0.90532222 </v>
   <v>       0.09259259       0.75000000       0.49345081 </v>
   <v>       0.84259259       0.00000000       0.57582509 </v>
   <v>       0.59259259       0.25000000       0.65819937 </v>
   <v>       0.34259259       0.50000000       0.74057366 </v>
   <v>       0.09259259       0.75000000       0.82294794 </v>
   <v>       0.84259259       0.00000000       0.90532222 </v>
   <v>       0.59259259       0.25000000       0.49345081 </v>
   <v>       0.34259259       0.50000000       0.57582509 </v>
   <v>       0.09259259       0.75000000       0.65819937 </v>
   <v>       0.84259259       0.00000000       0.74057366 </v>
   <v>       0.59259259       0.25000000       0.82294794 </v>
   <v>       0.34259259       0.50000000       0.90532222 </v>
  </varray>
 </structure>
</modeling>
