<?xml version="1.0" encoding="ISO-8859-1"?>
<modeling>
 <generator>
  <i name="program" type="string">vasp </i>
  <i name="version" type="string">6.4.3  </i>
  <i name="subversion" type="string">19Mar24 (build Oct 22 2024 11:23:12) complex                          parallel </i>
  <i name="platform" type="string">LinuxIFC </i>
  <i name="date" type="string">2025 06 07 </i>
  <i name="time" type="string">18:27:07 </i>
 </generator>
 <incar>
  <i type="string" name="SYSTEM">Si and Ge interface calculation</i>
  <i type="int" name="ISTART">     0</i>
  <i type="logical" name="ADDGRID"> T  </i>
  <i type="int" name="ISPIN">     2</i>
  <i name="AMIX">      0.60000000</i>
  <i type="int" name="ICHARG">     2</i>
  <i type="int" name="NELM">   100</i>
  <i name="EDIFF">      0.00000010</i>
  <i name="ENCUT">    700.00000000</i>
  <i name="ENAUG">    900.00000000</i>
  <i type="int" name="NBANDS">   288</i>
  <i name="NUPDOWN">      1.00000000</i>
  <i name="NELECT">    480.00000000</i>
  <i type="string" name="LREAL">AUTO</i>
  <i type="int" name="ISMEAR">     0</i>
  <i name="SIGMA">      0.01000000</i>
  <i type="int" name="LMAXMIX">     6</i>
  <i type="logical" name="LWAVE"> F  </i>
  <i type="logical" name="LVTOT"> F  </i>
  <i type="logical" name="LVHAR"> T  </i>
  <i type="logical" name="LASPH"> T  </i>
  <i type="logical" name="LMIXTAU"> T  </i>
 </incar>
 <primitive_cell>
  <structure name="primitive_cell" >
   <crystal>
    <varray name="basis" >
     <v>      -6.65158868      -0.00000088      -0.00000004 </v>
     <v>       0.00000000       0.00000000       8.39005947 </v>
     <v>      -0.00000071      14.87340729       0.00000004 </v>
    </varray>
    <i name="volume">    830.04358107 </i>
    <varray name="rec_basis" >
     <v>      -0.15034002      -0.00000001       0.00000000 </v>
     <v>      -0.00000000      -0.00000000       0.11918867 </v>
     <v>      -0.00000001       0.06723409       0.00000000 </v>
    </varray>
   </crystal>
   <varray name="positions" >
    <v>       0.98575431       0.99999999       0.98005647 </v>
    <v>       0.81908776       0.14474382       0.74672306 </v>
    <v>       0.65242126       0.28948765       0.51338972 </v>
    <v>       0.65242127       1.00000000       0.31338977 </v>
    <v>       0.48575478       0.14474376       0.08005643 </v>
    <v>       0.31908819       0.28948759       0.84672299 </v>
    <v>       0.31908789       0.00000000       0.64672307 </v>
    <v>       0.15242134       0.14474383       0.41338970 </v>
    <v>       0.98575478       0.28948766       0.18005631 </v>
    <v>       0.31908799       0.07237175       0.94672319 </v>
    <v>       0.15242131       0.21711554       0.71338978 </v>
    <v>       0.98575512       0.36185935       0.48005655 </v>
    <v>       0.98575471       0.07237177       0.28005655 </v>
    <v>       0.81908816       0.21711558       0.04672315 </v>
    <v>       0.65242161       0.36185938       0.81338977 </v>
    <v>       0.65242065       0.07237178       0.61338973 </v>
    <v>       0.48575412       0.21711554       0.38005636 </v>
    <v>       0.31908759       0.36185934       0.14672298 </v>
    <v>       0.74439814       0.75222486       0.95157723 </v>
    <v>       0.74439839       0.56210439       0.55157722 </v>
    <v>       0.24439829       0.65716469       0.25157732 </v>
    <v>       0.31582640       0.75222485       0.09443434 </v>
    <v>       0.31582718       0.56210440       0.69443450 </v>
    <v>       0.81582664       0.65716469       0.39443439 </v>
    <v>       0.88725531       0.75222486       0.23729149 </v>
    <v>       0.88725532       0.56210439       0.83729148 </v>
    <v>       0.38725546       0.65716469       0.53729158 </v>
    <v>       0.45868374       0.75222485       0.38014865 </v>
    <v>       0.45868423       0.56210440       0.98014876 </v>
    <v>       0.95868384       0.65716468       0.68014868 </v>
    <v>       0.03011254       0.75222486       0.52300581 </v>
    <v>       0.03011308       0.56210440       0.12300597 </v>
    <v>       0.53011269       0.65716469       0.82300590 </v>
    <v>       0.60154103       0.75222486       0.66586303 </v>
    <v>       0.60154131       0.56210440       0.26586305 </v>
    <v>       0.10154107       0.65716468       0.96586300 </v>
    <v>       0.17296941       0.75222485       0.80872002 </v>
    <v>       0.17297004       0.56210440       0.40872027 </v>
    <v>       0.67296991       0.65716469       0.10872021 </v>
    <v>       0.10154125       0.79975486       0.26586317 </v>
    <v>       0.10154138       0.60963445       0.86586316 </v>
    <v>       0.60154105       0.70469468       0.56586302 </v>
    <v>       0.38725547       0.79975480       0.83729157 </v>
    <v>       0.38725620       0.60963446       0.43729168 </v>
    <v>       0.88725586       0.70469463       0.13729166 </v>
    <v>       0.95868414       0.79975486       0.98014897 </v>
    <v>       0.95868451       0.60963445       0.58014896 </v>
    <v>       0.45868424       0.70469468       0.28014888 </v>
    <v>       0.53011241       0.79975485       0.12300596 </v>
    <v>       0.53011307       0.60963446       0.72300612 </v>
    <v>       0.03011270       0.70469469       0.42300606 </v>
    <v>       0.67296933       0.79975485       0.40872009 </v>
    <v>       0.67297024       0.60963446       0.00872038 </v>
    <v>       0.17296954       0.70469462       0.70872012 </v>
    <v>       0.24439848       0.79975486       0.55157749 </v>
    <v>       0.24439861       0.60963445       0.15157748 </v>
    <v>       0.74439881       0.70469463       0.85157751 </v>
    <v>       0.81582668       0.79975479       0.69443453 </v>
    <v>       0.81582740       0.60963446       0.29443464 </v>
    <v>       0.31582695       0.70469468       0.99443450 </v>
   </varray>
  </structure>
  <varray name="primitive_index" >
   <v type="int" >        1 </v>
   <v type="int" >        2 </v>
   <v type="int" >        3 </v>
   <v type="int" >       25 </v>
   <v type="int" >       26 </v>
   <v type="int" >       27 </v>
   <v type="int" >       19 </v>
   <v type="int" >       20 </v>
   <v type="int" >       21 </v>
   <v type="int" >       34 </v>
   <v type="int" >       35 </v>
   <v type="int" >       12 </v>
   <v type="int" >       28 </v>
   <v type="int" >       29 </v>
   <v type="int" >       30 </v>
   <v type="int" >       16 </v>
   <v type="int" >       17 </v>
   <v type="int" >       18 </v>
   <v type="int" >       88 </v>
   <v type="int" >       89 </v>
   <v type="int" >       90 </v>
   <v type="int" >       40 </v>
   <v type="int" >       92 </v>
   <v type="int" >       42 </v>
   <v type="int" >       43 </v>
   <v type="int" >       44 </v>
   <v type="int" >       45 </v>
   <v type="int" >       94 </v>
   <v type="int" >       95 </v>
   <v type="int" >       96 </v>
   <v type="int" >       97 </v>
   <v type="int" >       98 </v>
   <v type="int" >       99 </v>
   <v type="int" >       52 </v>
   <v type="int" >       53 </v>
   <v type="int" >       54 </v>
   <v type="int" >       85 </v>
   <v type="int" >       56 </v>
   <v type="int" >       57 </v>
   <v type="int" >      106 </v>
   <v type="int" >      107 </v>
   <v type="int" >      108 </v>
   <v type="int" >      115 </v>
   <v type="int" >      116 </v>
   <v type="int" >      117 </v>
   <v type="int" >       64 </v>
   <v type="int" >       65 </v>
   <v type="int" >       66 </v>
   <v type="int" >      103 </v>
   <v type="int" >       68 </v>
   <v type="int" >       69 </v>
   <v type="int" >       70 </v>
   <v type="int" >      119 </v>
   <v type="int" >       72 </v>
   <v type="int" >       73 </v>
   <v type="int" >       74 </v>
   <v type="int" >       75 </v>
   <v type="int" >      112 </v>
   <v type="int" >       77 </v>
   <v type="int" >      114 </v>
  </varray>
 </primitive_cell>
 <kpoints>
  <generation param="Gamma">
   <v type="int" name="divisions">       3        2        4 </v>
   <v name="usershift">      0.00000000       0.00000000       0.00000000 </v>
   <v name="genvec1">      0.33333333       0.00000000       0.00000000 </v>
   <v name="genvec2">      0.00000000       0.50000000       0.00000000 </v>
   <v name="genvec3">      0.00000000       0.00000000       0.25000000 </v>
   <v name="shift">      0.00000000       0.00000000       0.00000000 </v>
  </generation>
  <varray name="kpointlist" >
   <v>       0.00000000       0.00000000       0.00000000 </v>
   <v>       0.33333333      -0.00000000       0.00000000 </v>
   <v>       0.00000000       0.50000000       0.00000000 </v>
   <v>       0.33333333       0.50000000       0.00000000 </v>
   <v>       0.00000000       0.00000000       0.25000000 </v>
   <v>       0.33333333      -0.00000000       0.25000000 </v>
   <v>      -0.33333333       0.00000000       0.25000000 </v>
   <v>       0.00000000       0.50000000       0.25000000 </v>
   <v>       0.33333333       0.50000000       0.25000000 </v>
   <v>      -0.33333333       0.50000000       0.25000000 </v>
   <v>       0.00000000       0.00000000       0.50000000 </v>
   <v>       0.33333333      -0.00000000       0.50000000 </v>
   <v>       0.00000000       0.50000000       0.50000000 </v>
   <v>       0.33333333       0.50000000       0.50000000 </v>
  </varray>
  <varray name="weights" >
   <v>       0.04166667 </v>
   <v>       0.08333333 </v>
   <v>       0.04166667 </v>
   <v>       0.08333333 </v>
   <v>       0.08333333 </v>
   <v>       0.08333333 </v>
   <v>       0.08333333 </v>
   <v>       0.08333333 </v>
   <v>       0.08333333 </v>
   <v>       0.08333333 </v>
   <v>       0.04166667 </v>
   <v>       0.08333333 </v>
   <v>       0.04166667 </v>
   <v>       0.08333333 </v>
  </varray>
 </kpoints>
 <parameters>
  <separator name="general" >
   <i type="string" name="SYSTEM">Si and Ge interface calculation</i>
   <i type="logical" name="LCOMPAT"> F  </i>
  </separator>
  <separator name="electronic" >
   <i type="string" name="PREC">normal</i>
   <i name="ENMAX">    700.00000000</i>
   <i name="ENAUG">    900.00000000</i>
   <i name="EDIFF">      0.00000010</i>
   <i type="int" name="IALGO">    38</i>
   <i type="int" name="IWAVPR">    10</i>
   <i type="int" name="NBANDS">   288</i>
   <i type="int" name="NBANDSLOW">    -1</i>
   <i type="int" name="NBANDSHIGH">    -1</i>
   <i name="NELECT">    480.00000000</i>
   <i type="int" name="TURBO">     0</i>
   <i type="int" name="IRESTART">     0</i>
   <i type="int" name="NREBOOT">     0</i>
   <i type="int" name="NMIN">     0</i>
   <i name="EREF">      0.00000000</i>
   <separator name="electronic smearing" >
    <i type="int" name="ISMEAR">     0</i>
    <i name="SIGMA">      0.01000000</i>
    <i name="KSPACING">      0.50000000</i>
    <i type="logical" name="KGAMMA"> T  </i>
    <i type="logical" name="KBLOWUP"> F  </i>
   </separator>
   <separator name="electronic projectors" >
    <i type="logical" name="LREAL"> T  </i>
    <v name="ROPT">     -0.00050000     -0.00050000</v>
    <i type="int" name="LMAXPAW">  -100</i>
    <i type="int" name="LMAXMIX">     6</i>
    <i type="logical" name="NLSPLINE"> F  </i>
   </separator>
   <separator name="electronic startup" >
    <i type="int" name="ISTART">     0</i>
    <i type="int" name="ICHARG">     2</i>
    <i type="int" name="INIWAV">     1</i>
   </separator>
   <separator name="electronic spin" >
    <i type="int" name="ISPIN">     2</i>
    <i type="logical" name="LNONCOLLINEAR"> F  </i>
    <v name="MAGMOM">      0.00833333      0.00833333      0.00833333      0.00833333      0.00833333      0.00833333      0.00833333      0.00833333      0.00833333      0.00833333      0.00833333      0.00833333      0.00833333      0.00833333      0.00833333      0.00833333      0.00833333      0.00833333      0.00833333      0.00833333
      0.00833333      0.00833333      0.00833333      0.00833333      0.00833333      0.00833333      0.00833333      0.00833333      0.00833333      0.00833333      0.00833333      0.00833333      0.00833333      0.00833333      0.00833333      0.00833333      0.00833333      0.00833333      0.00833333      0.00833333
      0.00833333      0.00833333      0.00833333      0.00833333      0.00833333      0.00833333      0.00833333      0.00833333      0.00833333      0.00833333      0.00833333      0.00833333      0.00833333      0.00833333      0.00833333      0.00833333      0.00833333      0.00833333      0.00833333      0.00833333
      0.00833333      0.00833333      0.00833333      0.00833333      0.00833333      0.00833333      0.00833333      0.00833333      0.00833333      0.00833333      0.00833333      0.00833333      0.00833333      0.00833333      0.00833333      0.00833333      0.00833333      0.00833333      0.00833333      0.00833333
      0.00833333      0.00833333      0.00833333      0.00833333      0.00833333      0.00833333      0.00833333      0.00833333      0.00833333      0.00833333      0.00833333      0.00833333      0.00833333      0.00833333      0.00833333      0.00833333      0.00833333      0.00833333      0.00833333      0.00833333
      0.00833333      0.00833333      0.00833333      0.00833333      0.00833333      0.00833333      0.00833333      0.00833333      0.00833333      0.00833333      0.00833333      0.00833333      0.00833333      0.00833333      0.00833333      0.00833333      0.00833333      0.00833333      0.00833333      0.00833333
</v>
    <i name="NUPDOWN">      1.00000000</i>
    <i type="logical" name="LSORBIT"> F  </i>
    <v name="SAXIS">      0.00000000      0.00000000      1.00000000</v>
    <i type="logical" name="LSPIRAL"> F  </i>
    <v name="QSPIRAL">      0.00000000      0.00000000      0.00000000</v>
    <i type="logical" name="LZEROZ"> F  </i>
   </separator>
   <separator name="electronic exchange-correlation" >
    <i type="logical" name="LASPH"> T  </i>
   </separator>
   <separator name="electronic convergence" >
    <i type="int" name="NELM">   100</i>
    <i type="int" name="NELMDL">    -5</i>
    <i type="int" name="NELMIN">     2</i>
    <i name="ENINI">    700.00000000</i>
    <separator name="electronic convergence detail" >
     <i type="logical" name="LDIAG"> T  </i>
     <i type="logical" name="LSUBROT"> F  </i>
     <i name="WEIMIN">      0.00000000</i>
     <i name="EBREAK">      0.00000000</i>
     <i name="DEPER">      0.30000000</i>
     <i type="int" name="NRMM">     4</i>
     <i name="TIME">      0.40000000</i>
    </separator>
   </separator>
   <separator name="electronic mixer" >
    <i name="AMIX">      0.60000000</i>
    <i name="BMIX">      1.00000000</i>
    <i name="AMIN">      0.10000000</i>
    <i name="AMIX_MAG">      2.40000000</i>
    <i name="BMIX_MAG">      1.00000000</i>
    <separator name="electronic mixer details" >
     <i type="int" name="IMIX">     4</i>
     <i type="logical" name="MIXFIRST"> F  </i>
     <i type="int" name="MAXMIX">   -45</i>
     <i name="WC">    100.00000000</i>
     <i type="int" name="INIMIX">     1</i>
     <i type="int" name="MIXPRE">     1</i>
     <i type="int" name="MREMOVE">     5</i>
    </separator>
   </separator>
   <separator name="electronic dipolcorrection" >
    <i type="logical" name="LDIPOL"> F  </i>
    <i type="logical" name="LMONO"> F  </i>
    <i type="int" name="IDIPOL">     0</i>
    <i name="EPSILON">      1.00000000</i>
    <v name="DIPOL">   -100.00000000   -100.00000000   -100.00000000</v>
    <i name="EFIELD">      0.00000000</i>
    <i type="logical" name="LVACPOTAV"> F  </i>
   </separator>
  </separator>
  <separator name="grids" >
   <i type="int" name="NGX">    90</i>
   <i type="int" name="NGY">   108</i>
   <i type="int" name="NGZ">    54</i>
   <i type="int" name="NGXF">   180</i>
   <i type="int" name="NGYF">   216</i>
   <i type="int" name="NGZF">   108</i>
   <i type="logical" name="ADDGRID"> T  </i>
  </separator>
  <separator name="ionic" >
   <i type="int" name="NSW">     0</i>
   <i type="int" name="IBRION">    -1</i>
   <i type="int" name="MDALGO">     0</i>
   <i type="int" name="ISIF">     2</i>
   <i name="PSTRESS">      0.00000000</i>
   <i name="EDIFFG">      0.00000100</i>
   <i type="int" name="NFREE">     0</i>
   <i name="POTIM">      0.50000000</i>
   <i name="SMASS">     -3.00000000</i>
   <i name="SCALEE">      1.00000000</i>
  </separator>
  <separator name="ionic md" >
   <i name="TEBEG">      0.00010000</i>
   <i name="TEEND">      0.00010000</i>
   <i type="int" name="NBLOCK">     1</i>
   <i type="int" name="KBLOCK">     1</i>
   <i type="int" name="NPACO">   256</i>
   <i name="APACO">     10.00000000</i>
  </separator>
  <separator name="symmetry" >
   <i type="int" name="ISYM">     2</i>
   <i name="SYMPREC">      0.00001000</i>
  </separator>
  <separator name="dos" >
   <i type="int" name="LORBIT">     0</i>
   <v name="RWIGS">     -1.00000000     -1.00000000</v>
   <i type="int" name="NEDOS">   301</i>
   <i name="EMIN">     10.00000000</i>
   <i name="EMAX">    -10.00000000</i>
   <i name="EFERMI">      0.00000000</i>
  </separator>
  <separator name="writing" >
   <i type="int" name="NWRITE">     2</i>
   <i type="logical" name="LWAVE"> F  </i>
   <i type="logical" name="LDOWNSAMPLE"> F  </i>
   <i type="logical" name="LCHARG"> T  </i>
   <i type="logical" name="LPARD"> F  </i>
   <i type="logical" name="LVTOT"> F  </i>
   <i type="logical" name="LVHAR"> T  </i>
   <i type="logical" name="LELF"> F  </i>
   <i type="logical" name="LOPTICS"> F  </i>
   <v name="STM">      0.00000000      0.00000000      0.00000000      0.00000000      0.00000000      0.00000000      0.00000000</v>
  </separator>
  <separator name="performance" >
   <i type="int" name="NPAR">     4</i>
   <i type="int" name="NSIM">     4</i>
   <i type="int" name="NBLK">    -1</i>
   <i type="logical" name="LPLANE"> T  </i>
   <i type="logical" name="LSCALAPACK"> T  </i>
   <i type="logical" name="LSCAAWARE"> F  </i>
   <i type="logical" name="LSCALU"> F  </i>
   <i type="logical" name="LASYNC"> F  </i>
   <i type="logical" name="LORBITALREAL"> F  </i>
  </separator>
  <separator name="miscellaneous" >
   <i type="int" name="IDIOT">     3</i>
   <i type="int" name="PHON_NSTRUCT">    -1</i>
   <i type="logical" name="LMUSIC"> F  </i>
   <v name="POMASS">     28.08500000     12.01100000</v>
   <v name="DARWINR">      0.00000000      0.00000000</v>
   <v name="DARWINV">      1.00000000      1.00000000</v>
   <i type="logical" name="LCORR"> T  </i>
  </separator>
  <i type="logical" name="GGA_COMPAT"> T  </i>
  <i type="logical" name="LBERRY"> F  </i>
  <i type="int" name="ICORELEVEL">     0</i>
  <i type="logical" name="LDAU"> F  </i>
  <i type="int" name="I_CONSTRAINED_M">     0</i>
  <separator name="electronic exchange-correlation" >
   <i type="string" name="GGA    ">PE</i>
   <i type="string" name="XC_C">1</i>
   <i type="int" name="VOSKOWN">     0</i>
   <i type="logical" name="LHFCALC"> F  </i>
   <i type="string" name="PRECFOCK"></i>
   <i type="logical" name="LSYMGRAD"> F  </i>
   <i type="logical" name="LHFONE"> F  </i>
   <i type="logical" name="LRHFCALC"> F  </i>
   <i type="logical" name="LTHOMAS"> F  </i>
   <i type="logical" name="LMODELHF"> F  </i>
   <i type="logical" name="LFOCKACE"> F  </i>
   <i name="ENCUT4O">     -1.00000000</i>
   <i type="int" name="EXXOEP">     0</i>
   <i type="int" name="FOURORBIT">     0</i>
   <i name="AEXX">      0.00000000</i>
   <i name="HFALPHA">      0.00000000</i>
   <i name="MCALPHA">      0.00000000</i>
   <i name="ALDAX">      1.00000000</i>
   <i name="AGGAX">      1.00000000</i>
   <i name="AMGGAX">      1.00000000</i>
   <i name="ALDAC">      1.00000000</i>
   <i name="AGGAC">      1.00000000</i>
   <i name="AMGGAC">      1.00000000</i>
   <i type="int" name="NKREDX">     1</i>
   <i type="int" name="NKREDY">     1</i>
   <i type="int" name="NKREDZ">     1</i>
   <i type="logical" name="SHIFTRED"> F  </i>
   <i type="logical" name="ODDONLY"> F  </i>
   <i type="logical" name="EVENONLY"> F  </i>
   <i type="int" name="LMAXFOCK">     0</i>
   <i type="int" name="NMAXFOCKAE">     0</i>
   <i type="logical" name="LFOCKAEDFT"> F  </i>
   <i name="HFSCREEN">      0.00000000</i>
   <i name="HFSCREENC">      0.00000000</i>
   <i type="int" name="NBANDSGWLOW">     0</i>
  </separator>
  <separator name="vdW DFT" >
   <i type="logical" name="LUSE_VDW"> F  </i>
   <i type="int" name="IVDW_NL">    -1</i>
   <i type="logical" name="LSPIN_VDW"> F  </i>
   <i name="ZAB_VDW">     -0.84910000</i>
   <i name="GAMMA_VDW">      1.39626340</i>
   <i name="ALPHA_VDW">      0.00000000</i>
   <i name="PARAM1">      0.12340000</i>
   <i name="PARAM2">      1.00000000</i>
   <i name="BPARAM">      6.30000000</i>
   <i name="CPARAM">      0.00930000</i>
  </separator>
  <separator name="model GW" >
   <i type="int" name="MODEL_GW">     0</i>
   <i name="MODEL_EPS0">      8.30043681</i>
   <i name="MODEL_ALPHA">      1.00000000</i>
  </separator>
  <separator name="linear response parameters" >
   <i type="logical" name="LEPSILON"> F  </i>
   <i type="logical" name="LRPA"> F  </i>
   <i type="logical" name="LNABLA"> F  </i>
   <i type="logical" name="LVEL"> F  </i>
   <i name="CSHIFT">      0.10000000</i>
   <i name="OMEGAMAX">     -1.00000000</i>
   <i name="DEG_THRESHOLD">      0.00200000</i>
   <i name="RTIME">     -0.10000000</i>
   <i name="WPLASMAI">      0.00000000</i>
   <v name="DFIELD">      0.00000000      0.00000000      0.00000000</v>
   <v name="WPLASMA">      0.00000000      0.00000000      0.00000000      0.00000000      0.00000000      0.00000000      0.00000000      0.00000000      0.00000000</v>
  </separator>
  <separator name="orbital magnetization" >
   <i type="logical" name="NUCIND"> F  </i>
   <v name="MAGPOS">      0.00000000      0.00000000      0.00000000</v>
   <i type="logical" name="LNICSALL"> T  </i>
   <i type="logical" name="ORBITALMAG"> F  </i>
   <i type="logical" name="LMAGBLOCH"> F  </i>
   <i type="logical" name="LCHIMAG"> F  </i>
   <i type="logical" name="LGAUGE"> T  </i>
   <i type="int" name="MAGATOM">     0</i>
   <v name="MAGDIPOL">      0.00000000      0.00000000      0.00000000</v>
   <v name="AVECCONST">      0.00000000      0.00000000      0.00000000</v>
  </separator>
  <separator name="response functions" >
   <i type="logical" name="LALL_IN_ONE"> F  </i>
   <i type="int" name="IALL_IN_ONE">    -1</i>
   <i type="int" name="NBANDS_WAVE">    -1</i>
   <i type="logical" name="LFINITE_TEMPERATURE"> F  </i>
   <i type="logical" name="LADDER"> F  </i>
   <i type="logical" name="LRPAFORCE"> F  </i>
   <i type="logical" name="LFXC"> F  </i>
   <i type="logical" name="LHARTREE"> T  </i>
   <i type="int" name="IBSE">     0</i>
   <v type="int" name="KPOINT">    -1     0     0     0</v>
   <i type="logical" name="LTCTC"> F  </i>
   <i type="logical" name="LTCTE"> F  </i>
   <i type="logical" name="LTETE"> F  </i>
   <i type="logical" name="LTRIPLET"> F  </i>
   <i type="logical" name="LFXCEPS"> F  </i>
   <i type="logical" name="LFXHEG"> F  </i>
   <i type="int" name="NATURALO">     2</i>
   <i type="logical" name="LHOLEGF"> F  </i>
   <i type="logical" name="L2ORDER"> F  </i>
   <i type="logical" name="LDMP1"> F  </i>
   <i type="logical" name="LMP2LT"> F  </i>
   <i type="logical" name="LSMP2LT"> F  </i>
   <i type="logical" name="LGWLF"> F  </i>
   <i name="ENCUTGW">     -1.60000002</i>
   <i name="ENCUTGWSOFT">     -1.60000002</i>
   <i name="ENCUTLF">     -1.00000000</i>
   <i type="logical" name="ESF_SPLINES"> F  </i>
   <i name="ESF_CONV">      0.01000000</i>
   <i type="int" name="ESF_NINTER">    15</i>
   <i type="int" name="LMAXMP2">    -1</i>
   <i name="SCISSOR">      0.00000000</i>
   <i type="int" name="NOMEGA">     0</i>
   <i type="int" name="NOMEGAR">     0</i>
   <i type="int" name="NBANDSGW">    -1</i>
   <i type="int" name="NBANDSO">    -1</i>
   <i type="int" name="NBANDSV">    -1</i>
   <i type="int" name="NELMGW">     1</i>
   <i type="int" name="NELMHF">     1</i>
   <i type="int" name="DIM">     3</i>
   <i type="int" name="IESPILON">     4</i>
   <i type="int" name="ANTIRES">     0</i>
   <i name="OMEGAMAX">    -30.00000000</i>
   <i name="OMEGAMIN">    -30.00000000</i>
   <i name="OMEGATL">   -200.00000000</i>
   <i type="int" name="OMEGAGRID">     0</i>
   <i name="CSHIFT">     -0.10000000</i>
   <i type="logical" name="LSELFENERGY"> F  </i>
   <i type="logical" name="LSPECTRAL"> F  </i>
   <i type="logical" name="LSPECTRALGW"> F  </i>
   <i type="logical" name="LSINGLES"> F  </i>
   <i type="logical" name="LFERMIGW"> F  </i>
   <i type="logical" name="ODDONLYGW"> F  </i>
   <i type="logical" name="EVENONLYGW"> F  </i>
   <i type="int" name="NKREDLFX">     1</i>
   <i type="int" name="NKREDLFY">     1</i>
   <i type="int" name="NKREDLFZ">     1</i>
   <i type="int" name="MAXMEM">  2800</i>
   <i type="int" name="TELESCOPE">     0</i>
   <i type="int" name="NTAUPAR">    -1</i>
   <i type="int" name="NOMEGAPAR">    -1</i>
   <i name="DAMP_NEWTON">      0.80000001</i>
   <i name="LAMBDA">      1.00000000</i>
  </separator>
  <separator name="External order field" >
   <i name="OFIELD_KAPPA">      0.00000000</i>
   <v name="OFIELD_K">      0.00000000      0.00000000      0.00000000</v>
   <i name="OFIELD_Q6_NEAR">      0.00000000</i>
   <i name="OFIELD_Q6_FAR">      0.00000000</i>
   <i name="OFIELD_A">      0.00000000</i>
  </separator>
  <separator name="optional k-points parameters" >
   <i type="int" name="KPOINTS_OPT_MODE">     1</i>
   <i type="logical" name="LKPOINTS_OPT"> F  </i>
  </separator>
 </parameters>
 <atominfo>
  <atoms>     120 </atoms>
  <types>       2 </types>
  <array name="atoms" >
   <dimension dim="1">ion</dimension>
   <field type="string">element</field>
   <field type="int">atomtype</field>
   <set>
    <rc><c>Si</c><c>   1</c></rc>
    <rc><c>Si</c><c>   1</c></rc>
    <rc><c>Si</c><c>   1</c></rc>
    <rc><c>Si</c><c>   1</c></rc>
    <rc><c>Si</c><c>   1</c></rc>
    <rc><c>Si</c><c>   1</c></rc>
    <rc><c>Si</c><c>   1</c></rc>
    <rc><c>Si</c><c>   1</c></rc>
    <rc><c>Si</c><c>   1</c></rc>
    <rc><c>Si</c><c>   1</c></rc>
    <rc><c>Si</c><c>   1</c></rc>
    <rc><c>Si</c><c>   1</c></rc>
    <rc><c>Si</c><c>   1</c></rc>
    <rc><c>Si</c><c>   1</c></rc>
    <rc><c>Si</c><c>   1</c></rc>
    <rc><c>Si</c><c>   1</c></rc>
    <rc><c>Si</c><c>   1</c></rc>
    <rc><c>Si</c><c>   1</c></rc>
    <rc><c>Si</c><c>   1</c></rc>
    <rc><c>Si</c><c>   1</c></rc>
    <rc><c>Si</c><c>   1</c></rc>
    <rc><c>Si</c><c>   1</c></rc>
    <rc><c>Si</c><c>   1</c></rc>
    <rc><c>Si</c><c>   1</c></rc>
    <rc><c>Si</c><c>   1</c></rc>
    <rc><c>Si</c><c>   1</c></rc>
    <rc><c>Si</c><c>   1</c></rc>
    <rc><c>Si</c><c>   1</c></rc>
    <rc><c>Si</c><c>   1</c></rc>
    <rc><c>Si</c><c>   1</c></rc>
    <rc><c>Si</c><c>   1</c></rc>
    <rc><c>Si</c><c>   1</c></rc>
    <rc><c>Si</c><c>   1</c></rc>
    <rc><c>Si</c><c>   1</c></rc>
    <rc><c>Si</c><c>   1</c></rc>
    <rc><c>Si</c><c>   1</c></rc>
    <rc><c>C </c><c>   2</c></rc>
    <rc><c>C </c><c>   2</c></rc>
    <rc><c>C </c><c>   2</c></rc>
    <rc><c>C </c><c>   2</c></rc>
    <rc><c>C </c><c>   2</c></rc>
    <rc><c>C </c><c>   2</c></rc>
    <rc><c>C </c><c>   2</c></rc>
    <rc><c>C </c><c>   2</c></rc>
    <rc><c>C </c><c>   2</c></rc>
    <rc><c>C </c><c>   2</c></rc>
    <rc><c>C </c><c>   2</c></rc>
    <rc><c>C </c><c>   2</c></rc>
    <rc><c>C </c><c>   2</c></rc>
    <rc><c>C </c><c>   2</c></rc>
    <rc><c>C </c><c>   2</c></rc>
    <rc><c>C </c><c>   2</c></rc>
    <rc><c>C </c><c>   2</c></rc>
    <rc><c>C </c><c>   2</c></rc>
    <rc><c>C </c><c>   2</c></rc>
    <rc><c>C </c><c>   2</c></rc>
    <rc><c>C </c><c>   2</c></rc>
    <rc><c>C </c><c>   2</c></rc>
    <rc><c>C </c><c>   2</c></rc>
    <rc><c>C </c><c>   2</c></rc>
    <rc><c>C </c><c>   2</c></rc>
    <rc><c>C </c><c>   2</c></rc>
    <rc><c>C </c><c>   2</c></rc>
    <rc><c>C </c><c>   2</c></rc>
    <rc><c>C </c><c>   2</c></rc>
    <rc><c>C </c><c>   2</c></rc>
    <rc><c>C </c><c>   2</c></rc>
    <rc><c>C </c><c>   2</c></rc>
    <rc><c>C </c><c>   2</c></rc>
    <rc><c>C </c><c>   2</c></rc>
    <rc><c>C </c><c>   2</c></rc>
    <rc><c>C </c><c>   2</c></rc>
    <rc><c>C </c><c>   2</c></rc>
    <rc><c>C </c><c>   2</c></rc>
    <rc><c>C </c><c>   2</c></rc>
    <rc><c>C </c><c>   2</c></rc>
    <rc><c>C </c><c>   2</c></rc>
    <rc><c>C </c><c>   2</c></rc>
    <rc><c>C </c><c>   2</c></rc>
    <rc><c>C </c><c>   2</c></rc>
    <rc><c>C </c><c>   2</c></rc>
    <rc><c>C </c><c>   2</c></rc>
    <rc><c>C </c><c>   2</c></rc>
    <rc><c>C </c><c>   2</c></rc>
    <rc><c>C </c><c>   2</c></rc>
    <rc><c>C </c><c>   2</c></rc>
    <rc><c>C </c><c>   2</c></rc>
    <rc><c>C </c><c>   2</c></rc>
    <rc><c>C </c><c>   2</c></rc>
    <rc><c>C </c><c>   2</c></rc>
    <rc><c>C </c><c>   2</c></rc>
    <rc><c>C </c><c>   2</c></rc>
    <rc><c>C </c><c>   2</c></rc>
    <rc><c>C </c><c>   2</c></rc>
    <rc><c>C </c><c>   2</c></rc>
    <rc><c>C </c><c>   2</c></rc>
    <rc><c>C </c><c>   2</c></rc>
    <rc><c>C </c><c>   2</c></rc>
    <rc><c>C </c><c>   2</c></rc>
    <rc><c>C </c><c>   2</c></rc>
    <rc><c>C </c><c>   2</c></rc>
    <rc><c>C </c><c>   2</c></rc>
    <rc><c>C </c><c>   2</c></rc>
    <rc><c>C </c><c>   2</c></rc>
    <rc><c>C </c><c>   2</c></rc>
    <rc><c>C </c><c>   2</c></rc>
    <rc><c>C </c><c>   2</c></rc>
    <rc><c>C </c><c>   2</c></rc>
    <rc><c>C </c><c>   2</c></rc>
    <rc><c>C </c><c>   2</c></rc>
    <rc><c>C </c><c>   2</c></rc>
    <rc><c>C </c><c>   2</c></rc>
    <rc><c>C </c><c>   2</c></rc>
    <rc><c>C </c><c>   2</c></rc>
    <rc><c>C </c><c>   2</c></rc>
    <rc><c>C </c><c>   2</c></rc>
    <rc><c>C </c><c>   2</c></rc>
    <rc><c>C </c><c>   2</c></rc>
    <rc><c>C </c><c>   2</c></rc>
    <rc><c>C </c><c>   2</c></rc>
   </set>
  </array>
  <array name="atomtypes" >
   <dimension dim="1">type</dimension>
   <field type="int">atomspertype</field>
   <field type="string">element</field>
   <field>mass</field>
   <field>valence</field>
   <field type="string">pseudopotential</field>
   <set>
    <rc><c>  36</c><c>Si</c><c>     28.08500000</c><c>      4.00000000</c><c>  PAW_PBE Si 05Jan2001                  </c></rc>
    <rc><c>  84</c><c>C </c><c>     12.01100000</c><c>      4.00000000</c><c>  PAW_PBE C 08Apr2002                   </c></rc>
   </set>
  </array>
 </atominfo>
 <structure name="initialpos" >
  <crystal>
   <varray name="basis" >
    <v>      13.30317974       0.00000000       0.00000000 </v>
    <v>      -6.65158939      14.87340641       0.00000000 </v>
    <v>       0.00000000       0.00000000       8.39005947 </v>
   </varray>
   <i name="volume">   1660.08736136 </i>
   <varray name="rec_basis" >
    <v>       0.07517000       0.03361704       0.00000000 </v>
    <v>       0.00000000       0.06723409       0.00000000 </v>
    <v>       0.00000000       0.00000000       0.11918867 </v>
   </varray>
  </crystal>
  <varray name="positions" >
   <v>       0.99715096       0.98005658       0.00000000 </v>
   <v>       0.96381754       0.74672317       0.14474383 </v>
   <v>       0.93048412       0.51338983       0.28948766 </v>
   <v>       0.33048421       0.31338987       0.00000000 </v>
   <v>       0.29715079       0.08005647       0.14474383 </v>
   <v>       0.26381737       0.84672308       0.28948766 </v>
   <v>       0.66381747       0.64672315       0.00000000 </v>
   <v>       0.63048405       0.41338971       0.14474383 </v>
   <v>       0.59715062       0.18005633       0.28948766 </v>
   <v>       0.31381753       0.94672334       0.07237176 </v>
   <v>       0.28048411       0.71338999       0.21711558 </v>
   <v>       0.24715069       0.48005658       0.36185935 </v>
   <v>       0.64715082       0.28005657       0.07237176 </v>
   <v>       0.61381739       0.04672319       0.21711555 </v>
   <v>       0.58048397       0.81338978       0.36185938 </v>
   <v>       0.98048443       0.61338985       0.07237179 </v>
   <v>       0.94715101       0.38005647       0.21711555 </v>
   <v>       0.91381758       0.14672309       0.36185935 </v>
   <v>       0.16381757       0.64672309       0.00000000 </v>
   <v>       0.13048416       0.41338971       0.14474383 </v>
   <v>       0.09715075       0.18005632       0.28948766 </v>
   <v>       0.49715090       0.98005664       0.00000000 </v>
   <v>       0.46381742       0.74672317       0.14474377 </v>
   <v>       0.43048406       0.51338983       0.28948760 </v>
   <v>       0.83048415       0.31338987       0.00000000 </v>
   <v>       0.79715073       0.08005653       0.14474377 </v>
   <v>       0.76381731       0.84672308       0.28948760 </v>
   <v>       0.14715090       0.28005657       0.07237177 </v>
   <v>       0.11381748       0.04672317       0.21711558 </v>
   <v>       0.08048407       0.81338978       0.36185938 </v>
   <v>       0.48048422       0.61338991       0.07237177 </v>
   <v>       0.44715083       0.38005653       0.21711555 </v>
   <v>       0.41381741       0.14672317       0.36185938 </v>
   <v>       0.81381750       0.94672328       0.07237176 </v>
   <v>       0.78048414       0.71338987       0.21711555 </v>
   <v>       0.74715072       0.48005646       0.36185938 </v>
   <v>       0.60358953       0.95157731       0.75222486 </v>
   <v>       0.40358943       0.55157739       0.56210440 </v>
   <v>       0.50358951       0.25157735       0.65716469 </v>
   <v>       0.88930386       0.09443444       0.75222486 </v>
   <v>       0.68930364       0.69443452       0.56210440 </v>
   <v>       0.78930378       0.39443448       0.65716469 </v>
   <v>       0.17501807       0.23729152       0.75222486 </v>
   <v>       0.97501796       0.83729160       0.56210440 </v>
   <v>       0.07501805       0.53729159       0.65716469 </v>
   <v>       0.46073243       0.38014877       0.75222486 </v>
   <v>       0.26073226       0.98014885       0.56210440 </v>
   <v>       0.36073235       0.68014884       0.65716469 </v>
   <v>       0.74644673       0.52300590       0.75222486 </v>
   <v>       0.54644656       0.12300602       0.56210440 </v>
   <v>       0.64644659       0.82300597       0.65716469 </v>
   <v>       0.03216100       0.66586304       0.75222486 </v>
   <v>       0.83216077       0.26586315       0.56210440 </v>
   <v>       0.93216085       0.96586311       0.65716469 </v>
   <v>       0.31787515       0.80872011       0.75222486 </v>
   <v>       0.11787510       0.40872029       0.56210440 </v>
   <v>       0.21787512       0.10872024       0.65716469 </v>
   <v>       0.58216101       0.26586312       0.79975486 </v>
   <v>       0.38216084       0.86586326       0.60963446 </v>
   <v>       0.48216093       0.56586325       0.70469463 </v>
   <v>       0.72501808       0.83729166       0.79975486 </v>
   <v>       0.52501798       0.43729174       0.60963446 </v>
   <v>       0.62501800       0.13729170       0.70469463 </v>
   <v>       0.01073241       0.98014897       0.79975486 </v>
   <v>       0.81073213       0.58014905       0.60963446 </v>
   <v>       0.91073221       0.28014898       0.70469469 </v>
   <v>       0.29644668       0.12300607       0.79975480 </v>
   <v>       0.09644651       0.72300613       0.60963446 </v>
   <v>       0.19644666       0.42300609       0.70469469 </v>
   <v>       0.86787528       0.40872020       0.79975486 </v>
   <v>       0.66787517       0.00872040       0.60963446 </v>
   <v>       0.76787520       0.70872021       0.70469463 </v>
   <v>       0.15358949       0.55157751       0.79975486 </v>
   <v>       0.95358932       0.15157759       0.60963446 </v>
   <v>       0.05358934       0.85157752       0.70469463 </v>
   <v>       0.43930364       0.69443452       0.79975486 </v>
   <v>       0.23930359       0.29443467       0.60963446 </v>
   <v>       0.33930361       0.99443460       0.70469463 </v>
   <v>       0.67501819       0.23729149       0.75222486 </v>
   <v>       0.47501793       0.83729166       0.56210440 </v>
   <v>       0.57501805       0.53729159       0.65716469 </v>
   <v>       0.53216100       0.66586304       0.75222486 </v>
   <v>       0.33216083       0.26586312       0.56210440 </v>
   <v>       0.43216091       0.96586305       0.65716469 </v>
   <v>       0.81787521       0.80872011       0.75222486 </v>
   <v>       0.61787510       0.40872025       0.56210440 </v>
   <v>       0.71787512       0.10872021       0.65716469 </v>
   <v>       0.10358953       0.95157725       0.75222486 </v>
   <v>       0.90358931       0.55157733       0.56210440 </v>
   <v>       0.00358951       0.25157732       0.65716469 </v>
   <v>       0.38930380       0.09443437       0.75222486 </v>
   <v>       0.18930364       0.69443452       0.56210440 </v>
   <v>       0.28930366       0.39443442       0.65716469 </v>
   <v>       0.96073234       0.38014877       0.75222486 </v>
   <v>       0.76073217       0.98014885       0.56210440 </v>
   <v>       0.86073232       0.68014878       0.65716469 </v>
   <v>       0.24644661       0.52300584       0.75222486 </v>
   <v>       0.04644644       0.12300598       0.56210440 </v>
   <v>       0.14644659       0.82300592       0.65716469 </v>
   <v>       0.51073241       0.98014897       0.79975486 </v>
   <v>       0.31073222       0.58014905       0.60963446 </v>
   <v>       0.41073227       0.28014898       0.70469469 </v>
   <v>       0.79644668       0.12300605       0.79975486 </v>
   <v>       0.59644651       0.72300613       0.60963446 </v>
   <v>       0.69644666       0.42300609       0.70469469 </v>
   <v>       0.08216095       0.26586318       0.79975486 </v>
   <v>       0.88216078       0.86586326       0.60963446 </v>
   <v>       0.98216087       0.56586313       0.70469469 </v>
   <v>       0.65358955       0.55157757       0.79975486 </v>
   <v>       0.45358941       0.15157765       0.60963446 </v>
   <v>       0.55358946       0.85157758       0.70469463 </v>
   <v>       0.93930382       0.69443464       0.79975480 </v>
   <v>       0.73930365       0.29443473       0.60963446 </v>
   <v>       0.83930367       0.99443460       0.70469469 </v>
   <v>       0.22501802       0.83729160       0.79975480 </v>
   <v>       0.02501774       0.43729168       0.60963446 </v>
   <v>       0.12501788       0.13729167       0.70469463 </v>
   <v>       0.36787522       0.40872020       0.79975492 </v>
   <v>       0.16787505       0.00872040       0.60963446 </v>
   <v>       0.26787507       0.70872021       0.70469469 </v>
  </varray>
 </structure>
 <calculation>
  <scstep>
   <time name="dav">   27.19   27.53</time>
   <time name="total">   27.86   28.20</time>
   <energy>
    <i name="alphaZ">    586.39300858 </i>
    <i name="ewald">  -7897.79097354 </i>
    <i name="hartreedc">  -9000.65280480 </i>
    <i name="XCdc">    730.00352608 </i>
    <i name="pawpsdc">  12288.30765307 </i>
    <i name="pawaedc"> -11702.77953025 </i>
    <i name="eentropy">     -0.00150323 </i>
    <i name="bandstr">   1319.02717265 </i>
    <i name="atom">  16071.23009607 </i>
    <i name="e_fr_energy">   2393.73664464 </i>
    <i name="e_wo_entrp">   2393.73814787 </i>
    <i name="e_0_energy">   2393.73739625 </i>
   </energy>
  </scstep>
  <scstep>
   <time name="dav">   31.82   32.13</time>
   <time name="total">   31.83   32.14</time>
   <energy>
    <i name="e_fr_energy">   -502.07792374 </i>
    <i name="e_wo_entrp">   -502.07579131 </i>
    <i name="e_0_energy">   -502.07685753 </i>
   </energy>
  </scstep>
  <scstep>
   <time name="dav">   32.03   32.30</time>
   <time name="total">   32.04   32.30</time>
   <energy>
    <i name="e_fr_energy">   -821.48165293 </i>
    <i name="e_wo_entrp">   -821.47941983 </i>
    <i name="e_0_energy">   -821.48053638 </i>
   </energy>
  </scstep>
  <scstep>
   <time name="dav">   34.26   34.56</time>
   <time name="total">   34.27   34.56</time>
   <energy>
    <i name="e_fr_energy">   -838.91300311 </i>
    <i name="e_wo_entrp">   -838.91090343 </i>
    <i name="e_0_energy">   -838.91195327 </i>
   </energy>
  </scstep>
  <scstep>
   <time name="dav">   36.23   36.60</time>
   <time name="total">   37.39   37.77</time>
   <energy>
    <i name="e_fr_energy">   -839.83098581 </i>
    <i name="e_wo_entrp">   -839.82867638 </i>
    <i name="e_0_energy">   -839.82983110 </i>
   </energy>
  </scstep>
  <scstep>
   <time name="dav">   35.41   35.75</time>
   <time name="total">   37.21   37.56</time>
   <energy>
    <i name="e_fr_energy">   -831.98626595 </i>
    <i name="e_wo_entrp">   -831.98371071 </i>
    <i name="e_0_energy">   -831.98498833 </i>
   </energy>
  </scstep>
  <scstep>
   <time name="dav">   37.24   37.58</time>
   <time name="total">   39.05   39.40</time>
   <energy>
    <i name="e_fr_energy">   -792.99051673 </i>
    <i name="e_wo_entrp">   -792.98766236 </i>
    <i name="e_0_energy">   -792.98908955 </i>
   </energy>
  </scstep>
  <scstep>
   <time name="dav">   34.15   34.45</time>
   <time name="total">   35.95   36.26</time>
   <energy>
    <i name="e_fr_energy">   -796.11193130 </i>
    <i name="e_wo_entrp">   -796.10933422 </i>
    <i name="e_0_energy">   -796.11063276 </i>
   </energy>
  </scstep>
  <scstep>
   <time name="dav">   33.29   33.57</time>
   <time name="total">   35.09   35.38</time>
   <energy>
    <i name="e_fr_energy">   -795.08779878 </i>
    <i name="e_wo_entrp">   -795.08475621 </i>
    <i name="e_0_energy">   -795.08627750 </i>
   </energy>
  </scstep>
  <scstep>
   <time name="dav">   35.66   35.97</time>
   <time name="total">   37.45   37.78</time>
   <energy>
    <i name="e_fr_energy">   -794.67120518 </i>
    <i name="e_wo_entrp">   -794.66837935 </i>
    <i name="e_0_energy">   -794.66979226 </i>
   </energy>
  </scstep>
  <scstep>
   <time name="dav">   34.20   34.49</time>
   <time name="total">   36.01   36.31</time>
   <energy>
    <i name="e_fr_energy">   -794.64129971 </i>
    <i name="e_wo_entrp">   -794.63830522 </i>
    <i name="e_0_energy">   -794.63980247 </i>
   </energy>
  </scstep>
  <scstep>
   <time name="dav">   33.10   33.39</time>
   <time name="total">   34.91   35.20</time>
   <energy>
    <i name="e_fr_energy">   -794.63247283 </i>
    <i name="e_wo_entrp">   -794.62971585 </i>
    <i name="e_0_energy">   -794.63109434 </i>
   </energy>
  </scstep>
  <scstep>
   <time name="dav">   34.83   35.17</time>
   <time name="total">   36.64   36.99</time>
   <energy>
    <i name="e_fr_energy">   -794.62197059 </i>
    <i name="e_wo_entrp">   -794.61876176 </i>
    <i name="e_0_energy">   -794.62036618 </i>
   </energy>
  </scstep>
  <scstep>
   <time name="dav">   34.61   34.92</time>
   <time name="total">   36.41   36.73</time>
   <energy>
    <i name="e_fr_energy">   -794.61887350 </i>
    <i name="e_wo_entrp">   -794.61576928 </i>
    <i name="e_0_energy">   -794.61732139 </i>
   </energy>
  </scstep>
  <scstep>
   <time name="dav">   34.67   34.97</time>
   <time name="total">   36.47   36.79</time>
   <energy>
    <i name="e_fr_energy">   -794.61834334 </i>
    <i name="e_wo_entrp">   -794.61522240 </i>
    <i name="e_0_energy">   -794.61678287 </i>
   </energy>
  </scstep>
  <scstep>
   <time name="dav">   34.53   34.82</time>
   <time name="total">   36.33   36.63</time>
   <energy>
    <i name="e_fr_energy">   -794.61790666 </i>
    <i name="e_wo_entrp">   -794.61479158 </i>
    <i name="e_0_energy">   -794.61634912 </i>
   </energy>
  </scstep>
  <scstep>
   <time name="dav">   34.26   34.56</time>
   <time name="total">   36.06   36.37</time>
   <energy>
    <i name="e_fr_energy">   -794.61791441 </i>
    <i name="e_wo_entrp">   -794.61481979 </i>
    <i name="e_0_energy">   -794.61636710 </i>
   </energy>
  </scstep>
  <scstep>
   <time name="dav">   33.25   33.53</time>
   <time name="total">   35.05   35.35</time>
   <energy>
    <i name="e_fr_energy">   -794.61791490 </i>
    <i name="e_wo_entrp">   -794.61482812 </i>
    <i name="e_0_energy">   -794.61637151 </i>
   </energy>
  </scstep>
  <scstep>
   <time name="dav">   34.46   34.79</time>
   <time name="total">   36.26   36.60</time>
   <energy>
    <i name="e_fr_energy">   -794.61792323 </i>
    <i name="e_wo_entrp">   -794.61484809 </i>
    <i name="e_0_energy">   -794.61638566 </i>
   </energy>
  </scstep>
  <scstep>
   <time name="dav">   33.73   34.03</time>
   <time name="total">   35.54   35.85</time>
   <energy>
    <i name="e_fr_energy">   -794.61792972 </i>
    <i name="e_wo_entrp">   -794.61486238 </i>
    <i name="e_0_energy">   -794.61639605 </i>
   </energy>
  </scstep>
  <scstep>
   <time name="dav">   34.28   34.58</time>
   <time name="total">   36.09   36.40</time>
   <energy>
    <i name="e_fr_energy">   -794.61793336 </i>
    <i name="e_wo_entrp">   -794.61487219 </i>
    <i name="e_0_energy">   -794.61640277 </i>
   </energy>
  </scstep>
  <scstep>
   <time name="dav">   35.09   35.39</time>
   <time name="total">   36.89   37.21</time>
   <energy>
    <i name="e_fr_energy">   -794.61793642 </i>
    <i name="e_wo_entrp">   -794.61488188 </i>
    <i name="e_0_energy">   -794.61640915 </i>
   </energy>
  </scstep>
  <scstep>
   <time name="dav">   35.60   35.91</time>
   <time name="total">   37.40   37.72</time>
   <energy>
    <i name="e_fr_energy">   -794.61793896 </i>
    <i name="e_wo_entrp">   -794.61489038 </i>
    <i name="e_0_energy">   -794.61641467 </i>
   </energy>
  </scstep>
  <scstep>
   <time name="dav">   35.85   36.18</time>
   <time name="total">   37.66   38.00</time>
   <energy>
    <i name="e_fr_energy">   -794.61794085 </i>
    <i name="e_wo_entrp">   -794.61490036 </i>
    <i name="e_0_energy">   -794.61642061 </i>
   </energy>
  </scstep>
  <scstep>
   <time name="dav">   34.66   35.00</time>
   <time name="total">   36.46   36.81</time>
   <energy>
    <i name="e_fr_energy">   -794.61794146 </i>
    <i name="e_wo_entrp">   -794.61490511 </i>
    <i name="e_0_energy">   -794.61642328 </i>
   </energy>
  </scstep>
  <scstep>
   <time name="dav">   32.93   33.21</time>
   <time name="total">   34.73   35.03</time>
   <energy>
    <i name="e_fr_energy">   -794.61794171 </i>
    <i name="e_wo_entrp">   -794.61490726 </i>
    <i name="e_0_energy">   -794.61642449 </i>
   </energy>
  </scstep>
  <scstep>
   <time name="dav">   31.97   32.24</time>
   <time name="total">   33.78   34.06</time>
   <energy>
    <i name="e_fr_energy">   -794.61794188 </i>
    <i name="e_wo_entrp">   -794.61490843 </i>
    <i name="e_0_energy">   -794.61642515 </i>
   </energy>
  </scstep>
  <scstep>
   <time name="dav">   21.98   22.18</time>
   <time name="total">   23.79   24.00</time>
   <energy>
    <i name="e_fr_energy">   -794.61794200 </i>
    <i name="e_wo_entrp">   -794.61490900 </i>
    <i name="e_0_energy">   -794.61642550 </i>
   </energy>
  </scstep>
  <scstep>
   <time name="dav">   19.05   19.23</time>
   <time name="total">   19.69   19.87</time>
   <energy>
    <i name="alphaZ">    586.39300858 </i>
    <i name="ewald">  -7897.79097354 </i>
    <i name="hartreedc">  -9584.61918370 </i>
    <i name="XCdc">    764.23314673 </i>
    <i name="pawpsdc">  33891.11037689 </i>
    <i name="pawaedc"> -33311.95259039 </i>
    <i name="eentropy">     -0.00303279 </i>
    <i name="bandstr">  -1313.21878992 </i>
    <i name="atom">  16071.23009607 </i>
    <i name="e_fr_energy">   -794.61794208 </i>
    <i name="e_wo_entrp">   -794.61490929 </i>
    <i name="e_0_energy">   -794.61642569 </i>
   </energy>
  </scstep>
  <structure>
   <crystal>
    <varray name="basis" >
     <v>      13.30317974       0.00000000       0.00000000 </v>
     <v>      -6.65158939      14.87340641       0.00000000 </v>
     <v>       0.00000000       0.00000000       8.39005947 </v>
    </varray>
    <i name="volume">   1660.08736136 </i>
    <varray name="rec_basis" >
     <v>       0.07517000       0.03361704       0.00000000 </v>
     <v>       0.00000000       0.06723409       0.00000000 </v>
     <v>       0.00000000       0.00000000       0.11918867 </v>
    </varray>
   </crystal>
   <varray name="positions" >
    <v>       0.99715096       0.98005658       0.00000000 </v>
    <v>       0.96381754       0.74672317       0.14474383 </v>
    <v>       0.93048412       0.51338983       0.28948766 </v>
    <v>       0.33048421       0.31338987       0.00000000 </v>
    <v>       0.29715079       0.08005647       0.14474383 </v>
    <v>       0.26381737       0.84672308       0.28948766 </v>
    <v>       0.66381747       0.64672315       0.00000000 </v>
    <v>       0.63048405       0.41338971       0.14474383 </v>
    <v>       0.59715062       0.18005633       0.28948766 </v>
    <v>       0.31381753       0.94672334       0.07237176 </v>
    <v>       0.28048411       0.71338999       0.21711558 </v>
    <v>       0.24715069       0.48005658       0.36185935 </v>
    <v>       0.64715082       0.28005657       0.07237176 </v>
    <v>       0.61381739       0.04672319       0.21711555 </v>
    <v>       0.58048397       0.81338978       0.36185938 </v>
    <v>       0.98048443       0.61338985       0.07237179 </v>
    <v>       0.94715101       0.38005647       0.21711555 </v>
    <v>       0.91381758       0.14672309       0.36185935 </v>
    <v>       0.16381757       0.64672309       0.00000000 </v>
    <v>       0.13048416       0.41338971       0.14474383 </v>
    <v>       0.09715075       0.18005632       0.28948766 </v>
    <v>       0.49715090       0.98005664       0.00000000 </v>
    <v>       0.46381742       0.74672317       0.14474377 </v>
    <v>       0.43048406       0.51338983       0.28948760 </v>
    <v>       0.83048415       0.31338987       0.00000000 </v>
    <v>       0.79715073       0.08005653       0.14474377 </v>
    <v>       0.76381731       0.84672308       0.28948760 </v>
    <v>       0.14715090       0.28005657       0.07237177 </v>
    <v>       0.11381748       0.04672317       0.21711558 </v>
    <v>       0.08048407       0.81338978       0.36185938 </v>
    <v>       0.48048422       0.61338991       0.07237177 </v>
    <v>       0.44715083       0.38005653       0.21711555 </v>
    <v>       0.41381741       0.14672317       0.36185938 </v>
    <v>       0.81381750       0.94672328       0.07237176 </v>
    <v>       0.78048414       0.71338987       0.21711555 </v>
    <v>       0.74715072       0.48005646       0.36185938 </v>
    <v>       0.60358953       0.95157731       0.75222486 </v>
    <v>       0.40358943       0.55157739       0.56210440 </v>
    <v>       0.50358951       0.25157735       0.65716469 </v>
    <v>       0.88930386       0.09443444       0.75222486 </v>
    <v>       0.68930364       0.69443452       0.56210440 </v>
    <v>       0.78930378       0.39443448       0.65716469 </v>
    <v>       0.17501807       0.23729152       0.75222486 </v>
    <v>       0.97501796       0.83729160       0.56210440 </v>
    <v>       0.07501805       0.53729159       0.65716469 </v>
    <v>       0.46073243       0.38014877       0.75222486 </v>
    <v>       0.26073226       0.98014885       0.56210440 </v>
    <v>       0.36073235       0.68014884       0.65716469 </v>
    <v>       0.74644673       0.52300590       0.75222486 </v>
    <v>       0.54644656       0.12300602       0.56210440 </v>
    <v>       0.64644659       0.82300597       0.65716469 </v>
    <v>       0.03216100       0.66586304       0.75222486 </v>
    <v>       0.83216077       0.26586315       0.56210440 </v>
    <v>       0.93216085       0.96586311       0.65716469 </v>
    <v>       0.31787515       0.80872011       0.75222486 </v>
    <v>       0.11787510       0.40872029       0.56210440 </v>
    <v>       0.21787512       0.10872024       0.65716469 </v>
    <v>       0.58216101       0.26586312       0.79975486 </v>
    <v>       0.38216084       0.86586326       0.60963446 </v>
    <v>       0.48216093       0.56586325       0.70469463 </v>
    <v>       0.72501808       0.83729166       0.79975486 </v>
    <v>       0.52501798       0.43729174       0.60963446 </v>
    <v>       0.62501800       0.13729170       0.70469463 </v>
    <v>       0.01073241       0.98014897       0.79975486 </v>
    <v>       0.81073213       0.58014905       0.60963446 </v>
    <v>       0.91073221       0.28014898       0.70469469 </v>
    <v>       0.29644668       0.12300607       0.79975480 </v>
    <v>       0.09644651       0.72300613       0.60963446 </v>
    <v>       0.19644666       0.42300609       0.70469469 </v>
    <v>       0.86787528       0.40872020       0.79975486 </v>
    <v>       0.66787517       0.00872040       0.60963446 </v>
    <v>       0.76787520       0.70872021       0.70469463 </v>
    <v>       0.15358949       0.55157751       0.79975486 </v>
    <v>       0.95358932       0.15157759       0.60963446 </v>
    <v>       0.05358934       0.85157752       0.70469463 </v>
    <v>       0.43930364       0.69443452       0.79975486 </v>
    <v>       0.23930359       0.29443467       0.60963446 </v>
    <v>       0.33930361       0.99443460       0.70469463 </v>
    <v>       0.67501819       0.23729149       0.75222486 </v>
    <v>       0.47501793       0.83729166       0.56210440 </v>
    <v>       0.57501805       0.53729159       0.65716469 </v>
    <v>       0.53216100       0.66586304       0.75222486 </v>
    <v>       0.33216083       0.26586312       0.56210440 </v>
    <v>       0.43216091       0.96586305       0.65716469 </v>
    <v>       0.81787521       0.80872011       0.75222486 </v>
    <v>       0.61787510       0.40872025       0.56210440 </v>
    <v>       0.71787512       0.10872021       0.65716469 </v>
    <v>       0.10358953       0.95157725       0.75222486 </v>
    <v>       0.90358931       0.55157733       0.56210440 </v>
    <v>       0.00358951       0.25157732       0.65716469 </v>
    <v>       0.38930380       0.09443437       0.75222486 </v>
    <v>       0.18930364       0.69443452       0.56210440 </v>
    <v>       0.28930366       0.39443442       0.65716469 </v>
    <v>       0.96073234       0.38014877       0.75222486 </v>
    <v>       0.76073217       0.98014885       0.56210440 </v>
    <v>       0.86073232       0.68014878       0.65716469 </v>
    <v>       0.24644661       0.52300584       0.75222486 </v>
    <v>       0.04644644       0.12300598       0.56210440 </v>
    <v>       0.14644659       0.82300592       0.65716469 </v>
    <v>       0.51073241       0.98014897       0.79975486 </v>
    <v>       0.31073222       0.58014905       0.60963446 </v>
    <v>       0.41073227       0.28014898       0.70469469 </v>
    <v>       0.79644668       0.12300605       0.79975486 </v>
    <v>       0.59644651       0.72300613       0.60963446 </v>
    <v>       0.69644666       0.42300609       0.70469469 </v>
    <v>       0.08216095       0.26586318       0.79975486 </v>
    <v>       0.88216078       0.86586326       0.60963446 </v>
    <v>       0.98216087       0.56586313       0.70469469 </v>
    <v>       0.65358955       0.55157757       0.79975486 </v>
    <v>       0.45358941       0.15157765       0.60963446 </v>
    <v>       0.55358946       0.85157758       0.70469463 </v>
    <v>       0.93930382       0.69443464       0.79975480 </v>
    <v>       0.73930365       0.29443473       0.60963446 </v>
    <v>       0.83930367       0.99443460       0.70469469 </v>
    <v>       0.22501802       0.83729160       0.79975480 </v>
    <v>       0.02501774       0.43729168       0.60963446 </v>
    <v>       0.12501788       0.13729167       0.70469463 </v>
    <v>       0.36787522       0.40872020       0.79975492 </v>
    <v>       0.16787505       0.00872040       0.60963446 </v>
    <v>       0.26787507       0.70872021       0.70469469 </v>
   </varray>
  </structure>
  <varray name="forces" >
   <v>      -1.25812987       0.17542872       3.07102032 </v>
   <v>      -0.24447822      -0.00991555       0.07510924 </v>
   <v>      -0.76835584       0.29193169       1.76593767 </v>
   <v>      -0.90620405       1.06951084      -1.60913855 </v>
   <v>      -0.98707633      -0.09300633      -0.12324160 </v>
   <v>       0.14707888       0.55358146       0.69413413 </v>
   <v>      -0.31433869      -1.16556623      -2.47007355 </v>
   <v>      -0.74303194      -0.04576524       0.25985739 </v>
   <v>      -0.34892384      -0.72103299       1.51233496 </v>
   <v>      -0.14910085      -0.46989399      -0.35286354 </v>
   <v>       0.30726808      -0.31890156       0.00537559 </v>
   <v>      -1.35473026      -0.59263869       0.94916941 </v>
   <v>      -0.82612101       0.32829915      -1.26907686 </v>
   <v>       0.49080445      -0.12374890      -0.28706997 </v>
   <v>      -1.87210684      -0.57170491       1.51142110 </v>
   <v>      -0.40251814       0.23634211      -0.26796369 </v>
   <v>       0.77335533      -0.30905999       0.11236532 </v>
   <v>      -0.27816332      -0.04017544       1.04350386 </v>
   <v>      -0.31433869      -1.16556623      -2.47007355 </v>
   <v>      -0.74303194      -0.04576524       0.25985739 </v>
   <v>      -0.34892384      -0.72103299       1.51233496 </v>
   <v>      -1.25812987       0.17542872       3.07102032 </v>
   <v>      -0.24447822      -0.00991555       0.07510924 </v>
   <v>      -0.76835584       0.29193169       1.76593767 </v>
   <v>      -0.90620405       1.06951084      -1.60913855 </v>
   <v>      -0.98707633      -0.09300633      -0.12324160 </v>
   <v>       0.14707888       0.55358146       0.69413413 </v>
   <v>      -0.82612101       0.32829915      -1.26907686 </v>
   <v>       0.49080445      -0.12374890      -0.28706997 </v>
   <v>      -1.87210684      -0.57170491       1.51142110 </v>
   <v>      -0.40251814       0.23634211      -0.26796369 </v>
   <v>       0.77335533      -0.30905999       0.11236532 </v>
   <v>      -0.27816332      -0.04017544       1.04350386 </v>
   <v>      -0.14910085      -0.46989399      -0.35286354 </v>
   <v>       0.30726808      -0.31890156       0.00537559 </v>
   <v>      -1.35473026      -0.59263869       0.94916941 </v>
   <v>      -3.19704038       0.09396076      -3.41351905 </v>
   <v>      -0.07118489      -0.20301480       2.00107220 </v>
   <v>      -1.51547492       0.10043760       4.55959245 </v>
   <v>      -4.31011202      -0.27483694      -1.57497192 </v>
   <v>      -1.20852626       0.34943709       3.16748402 </v>
   <v>      -2.47972310      -0.26344756       3.32841662 </v>
   <v>      -3.59962664       0.15472805      -2.88864953 </v>
   <v>       0.64630356       0.28269263       2.06078887 </v>
   <v>      -2.01267492      -0.51278429       4.25960744 </v>
   <v>      -3.39794649       0.86734033      -3.83496807 </v>
   <v>      -1.28591918       0.25097455       2.74776736 </v>
   <v>      -2.07894414      -0.66418390       4.30930076 </v>
   <v>      -3.53636064      -0.33056400      -2.12139897 </v>
   <v>      -0.29009368       0.62568218       2.41901802 </v>
   <v>      -1.80313101      -0.57706067       4.74118862 </v>
   <v>      -3.70059777      -0.16774111      -1.47457409 </v>
   <v>      -1.16694807       0.27737951       3.01433504 </v>
   <v>      -2.34675094      -0.31064120       3.53557979 </v>
   <v>      -3.64905758       0.17140082      -2.91005389 </v>
   <v>      -0.43307700       1.08497520       1.64052790 </v>
   <v>      -2.39172806      -0.69946021       4.47495319 </v>
   <v>       2.10841309      -0.07063784      -1.42225928 </v>
   <v>       3.44663049      -0.15133088       1.27749747 </v>
   <v>       1.90124008       0.28024880      -3.97196973 </v>
   <v>       1.72816328       0.25297663      -2.44007604 </v>
   <v>       3.86336624      -0.37799662       2.33038694 </v>
   <v>       2.26297703       0.86467269      -4.36384181 </v>
   <v>       2.01679360      -0.69797857      -4.59039908 </v>
   <v>       3.37596072      -0.47810406       1.26443759 </v>
   <v>       1.73660676       0.53925381      -3.92290937 </v>
   <v>       2.21350180      -0.22701190      -2.96341615 </v>
   <v>       3.79457644       0.57549451       0.61924385 </v>
   <v>       2.42518647       0.55683645      -2.91168277 </v>
   <v>       1.92361659      -1.74117877      -0.55960123 </v>
   <v>       3.85520289      -0.45878218       2.64133255 </v>
   <v>       1.96233912       1.08414047      -4.02544429 </v>
   <v>       1.04676589       0.89715553      -1.32203924 </v>
   <v>       2.83133437      -0.02157081       0.07973165 </v>
   <v>       1.97086591       0.49264034      -3.57442251 </v>
   <v>       1.79917759      -0.41348722      -2.66123026 </v>
   <v>       3.97844605      -0.36025775       2.11901336 </v>
   <v>       2.32222220       1.00595921      -4.26464962 </v>
   <v>      -3.59962664       0.15472805      -2.88864953 </v>
   <v>       0.64630356       0.28269263       2.06078887 </v>
   <v>      -2.01267492      -0.51278429       4.25960744 </v>
   <v>      -3.70059777      -0.16774111      -1.47457409 </v>
   <v>      -1.16694807       0.27737951       3.01433504 </v>
   <v>      -2.34675094      -0.31064120       3.53557979 </v>
   <v>      -3.64905758       0.17140082      -2.91005389 </v>
   <v>      -0.43307700       1.08497520       1.64052790 </v>
   <v>      -2.39172806      -0.69946021       4.47495319 </v>
   <v>      -3.19704038       0.09396076      -3.41351905 </v>
   <v>      -0.07118489      -0.20301480       2.00107220 </v>
   <v>      -1.51547492       0.10043760       4.55959245 </v>
   <v>      -4.31011202      -0.27483694      -1.57497192 </v>
   <v>      -1.20852626       0.34943709       3.16748402 </v>
   <v>      -2.47972310      -0.26344756       3.32841662 </v>
   <v>      -3.39794649       0.86734033      -3.83496807 </v>
   <v>      -1.28591918       0.25097455       2.74776736 </v>
   <v>      -2.07894414      -0.66418390       4.30930076 </v>
   <v>      -3.53636064      -0.33056400      -2.12139897 </v>
   <v>      -0.29009368       0.62568218       2.41901802 </v>
   <v>      -1.80313101      -0.57706067       4.74118862 </v>
   <v>       2.01679360      -0.69797857      -4.59039908 </v>
   <v>       3.37596072      -0.47810406       1.26443759 </v>
   <v>       1.73660676       0.53925381      -3.92290937 </v>
   <v>       2.21350180      -0.22701190      -2.96341615 </v>
   <v>       3.79457644       0.57549451       0.61924385 </v>
   <v>       2.42518647       0.55683645      -2.91168277 </v>
   <v>       2.10841309      -0.07063784      -1.42225928 </v>
   <v>       3.44663049      -0.15133088       1.27749747 </v>
   <v>       1.90124008       0.28024880      -3.97196973 </v>
   <v>       1.04676589       0.89715553      -1.32203924 </v>
   <v>       2.83133437      -0.02157081       0.07973165 </v>
   <v>       1.97086591       0.49264034      -3.57442251 </v>
   <v>       1.79917759      -0.41348722      -2.66123026 </v>
   <v>       3.97844605      -0.36025775       2.11901336 </v>
   <v>       2.32222220       1.00595921      -4.26464962 </v>
   <v>       1.72816328       0.25297663      -2.44007604 </v>
   <v>       3.86336624      -0.37799662       2.33038694 </v>
   <v>       2.26297703       0.86467269      -4.36384181 </v>
   <v>       1.92361659      -1.74117877      -0.55960123 </v>
   <v>       3.85520289      -0.45878218       2.64133255 </v>
   <v>       1.96233912       1.08414047      -4.02544429 </v>
  </varray>
  <varray name="stress" >
   <v>     -92.57783554       3.41826518     -10.60963648 </v>
   <v>       3.41838559    -102.84796335       0.62271279 </v>
   <v>     -10.60968289       0.62275101    -211.15801615 </v>
  </varray>
  <energy>
   <i name="e_fr_energy">   -794.61794208 </i>
   <i name="e_wo_entrp">   -794.61490929 </i>
   <i name="e_0_energy">   -794.61642569 </i>
  </energy>
  <time name="totalsc"> 1037.81 1047.41</time>
  <eigenvalues>
   <array>
    <dimension dim="1">band</dimension>
    <dimension dim="2">kpoint</dimension>
    <dimension dim="3">spin</dimension>
    <field>eigene</field>
    <field>occ</field>
    <set>
     <set comment="spin 1">
      <set comment="kpoint 1">
       <r>  -14.2201    1.0000 </r>
       <r>  -13.7834    1.0000 </r>
       <r>  -13.7598    1.0000 </r>
       <r>  -13.5536    1.0000 </r>
       <r>  -13.5355    1.0000 </r>
       <r>  -13.5144    1.0000 </r>
       <r>  -13.4794    1.0000 </r>
       <r>  -13.0393    1.0000 </r>
       <r>  -12.7241    1.0000 </r>
       <r>  -12.7053    1.0000 </r>
       <r>  -12.5848    1.0000 </r>
       <r>  -12.5727    1.0000 </r>
       <r>  -12.0525    1.0000 </r>
       <r>  -12.0251    1.0000 </r>
       <r>  -11.8212    1.0000 </r>
       <r>  -11.4614    1.0000 </r>
       <r>  -11.4480    1.0000 </r>
       <r>  -11.2336    1.0000 </r>
       <r>  -11.1631    1.0000 </r>
       <r>  -10.9310    1.0000 </r>
       <r>  -10.9211    1.0000 </r>
       <r>  -10.5973    1.0000 </r>
       <r>  -10.5498    1.0000 </r>
       <r>  -10.0176    1.0000 </r>
       <r>   -9.8623    1.0000 </r>
       <r>   -9.8499    1.0000 </r>
       <r>   -9.8344    1.0000 </r>
       <r>   -9.7429    1.0000 </r>
       <r>   -9.7367    1.0000 </r>
       <r>   -9.6927    1.0000 </r>
       <r>   -9.5106    1.0000 </r>
       <r>   -9.1443    1.0000 </r>
       <r>   -9.0927    1.0000 </r>
       <r>   -9.0362    1.0000 </r>
       <r>   -9.0133    1.0000 </r>
       <r>   -8.9703    1.0000 </r>
       <r>   -8.8200    1.0000 </r>
       <r>   -8.7956    1.0000 </r>
       <r>   -8.5386    1.0000 </r>
       <r>   -8.4365    1.0000 </r>
       <r>   -8.3850    1.0000 </r>
       <r>   -7.6794    1.0000 </r>
       <r>   -7.6392    1.0000 </r>
       <r>   -7.5909    1.0000 </r>
       <r>   -7.4622    1.0000 </r>
       <r>   -6.8481    1.0000 </r>
       <r>   -6.7581    1.0000 </r>
       <r>   -6.6710    1.0000 </r>
       <r>   -6.6020    1.0000 </r>
       <r>   -6.5541    1.0000 </r>
       <r>   -6.4200    1.0000 </r>
       <r>   -6.3641    1.0000 </r>
       <r>   -6.3138    1.0000 </r>
       <r>   -6.1719    1.0000 </r>
       <r>   -6.1252    1.0000 </r>
       <r>   -6.0235    1.0000 </r>
       <r>   -5.9887    1.0000 </r>
       <r>   -5.9607    1.0000 </r>
       <r>   -5.7810    1.0000 </r>
       <r>   -5.7698    1.0000 </r>
       <r>   -5.7216    1.0000 </r>
       <r>   -5.6839    1.0000 </r>
       <r>   -5.5570    1.0000 </r>
       <r>   -5.5370    1.0000 </r>
       <r>   -5.3318    1.0000 </r>
       <r>   -5.3294    1.0000 </r>
       <r>   -5.2997    1.0000 </r>
       <r>   -5.1548    1.0000 </r>
       <r>   -5.1075    1.0000 </r>
       <r>   -5.0290    1.0000 </r>
       <r>   -4.9767    1.0000 </r>
       <r>   -4.8625    1.0000 </r>
       <r>   -4.8403    1.0000 </r>
       <r>   -4.7985    1.0000 </r>
       <r>   -4.7438    1.0000 </r>
       <r>   -4.7030    1.0000 </r>
       <r>   -4.5649    1.0000 </r>
       <r>   -4.5375    1.0000 </r>
       <r>   -4.3959    1.0000 </r>
       <r>   -4.3618    1.0000 </r>
       <r>   -4.3505    1.0000 </r>
       <r>   -4.2970    1.0000 </r>
       <r>   -4.2155    1.0000 </r>
       <r>   -4.1982    1.0000 </r>
       <r>   -4.1458    1.0000 </r>
       <r>   -4.0204    1.0000 </r>
       <r>   -3.9661    1.0000 </r>
       <r>   -3.9050    1.0000 </r>
       <r>   -3.8643    1.0000 </r>
       <r>   -3.8126    1.0000 </r>
       <r>   -3.7769    1.0000 </r>
       <r>   -3.7095    1.0000 </r>
       <r>   -3.6983    1.0000 </r>
       <r>   -3.5392    1.0000 </r>
       <r>   -3.4847    1.0000 </r>
       <r>   -3.3847    1.0000 </r>
       <r>   -3.3588    1.0000 </r>
       <r>   -3.3119    1.0000 </r>
       <r>   -3.2398    1.0000 </r>
       <r>   -3.0319    1.0000 </r>
       <r>   -2.9061    1.0000 </r>
       <r>   -2.8610    1.0000 </r>
       <r>   -2.8012    1.0000 </r>
       <r>   -2.7276    1.0000 </r>
       <r>   -2.7045    1.0000 </r>
       <r>   -2.6195    1.0000 </r>
       <r>   -2.5989    1.0000 </r>
       <r>   -2.4949    1.0000 </r>
       <r>   -2.4217    1.0000 </r>
       <r>   -2.3861    1.0000 </r>
       <r>   -2.3593    1.0000 </r>
       <r>   -2.3397    1.0000 </r>
       <r>   -2.2213    1.0000 </r>
       <r>   -2.1544    1.0000 </r>
       <r>   -2.0001    1.0000 </r>
       <r>   -1.9456    1.0000 </r>
       <r>   -1.8894    1.0000 </r>
       <r>   -1.8706    1.0000 </r>
       <r>   -1.8486    1.0000 </r>
       <r>   -1.7854    1.0000 </r>
       <r>   -1.7349    1.0000 </r>
       <r>   -1.7047    1.0000 </r>
       <r>   -1.6858    1.0000 </r>
       <r>   -1.6198    1.0000 </r>
       <r>   -1.5985    1.0000 </r>
       <r>   -1.5904    1.0000 </r>
       <r>   -1.5102    1.0000 </r>
       <r>   -1.4519    1.0000 </r>
       <r>   -1.3559    1.0000 </r>
       <r>   -1.3311    1.0000 </r>
       <r>   -1.2341    1.0000 </r>
       <r>   -1.1394    1.0000 </r>
       <r>   -1.0697    1.0000 </r>
       <r>   -1.0540    1.0000 </r>
       <r>   -1.0360    1.0000 </r>
       <r>   -0.9804    1.0000 </r>
       <r>   -0.9546    1.0000 </r>
       <r>   -0.9168    1.0000 </r>
       <r>   -0.8885    1.0000 </r>
       <r>   -0.8698    1.0000 </r>
       <r>   -0.8397    1.0000 </r>
       <r>   -0.6489    1.0000 </r>
       <r>   -0.6284    1.0000 </r>
       <r>   -0.6055    1.0000 </r>
       <r>   -0.5294    1.0000 </r>
       <r>   -0.5072    1.0000 </r>
       <r>   -0.4025    1.0000 </r>
       <r>   -0.3632    1.0000 </r>
       <r>   -0.2501    1.0000 </r>
       <r>   -0.2087    1.0000 </r>
       <r>   -0.1876    1.0000 </r>
       <r>    0.0554    1.0000 </r>
       <r>    0.0866    1.0000 </r>
       <r>    0.1140    1.0000 </r>
       <r>    0.1573    1.0000 </r>
       <r>    0.1617    1.0000 </r>
       <r>    0.1818    1.0000 </r>
       <r>    0.2437    1.0000 </r>
       <r>    0.2494    1.0000 </r>
       <r>    0.3393    1.0000 </r>
       <r>    0.3802    1.0000 </r>
       <r>    0.4139    1.0000 </r>
       <r>    0.4715    1.0000 </r>
       <r>    0.4952    1.0000 </r>
       <r>    0.5686    1.0000 </r>
       <r>    0.5733    1.0000 </r>
       <r>    0.6096    1.0000 </r>
       <r>    0.6592    1.0000 </r>
       <r>    0.7094    1.0000 </r>
       <r>    0.7191    1.0000 </r>
       <r>    0.7276    1.0000 </r>
       <r>    0.8038    1.0000 </r>
       <r>    0.8342    1.0000 </r>
       <r>    0.8927    1.0000 </r>
       <r>    1.0837    1.0000 </r>
       <r>    1.1586    1.0000 </r>
       <r>    1.2165    1.0000 </r>
       <r>    1.2240    1.0000 </r>
       <r>    1.2406    1.0000 </r>
       <r>    1.2934    1.0000 </r>
       <r>    1.3294    1.0000 </r>
       <r>    1.3619    1.0000 </r>
       <r>    1.3897    1.0000 </r>
       <r>    1.5093    1.0000 </r>
       <r>    1.5319    1.0000 </r>
       <r>    1.5746    1.0000 </r>
       <r>    1.6437    1.0000 </r>
       <r>    1.6761    1.0000 </r>
       <r>    1.7262    1.0000 </r>
       <r>    1.7930    1.0000 </r>
       <r>    1.8280    1.0000 </r>
       <r>    1.8423    1.0000 </r>
       <r>    1.8761    1.0000 </r>
       <r>    1.8929    1.0000 </r>
       <r>    1.9293    1.0000 </r>
       <r>    1.9468    1.0000 </r>
       <r>    1.9878    1.0000 </r>
       <r>    2.0169    1.0000 </r>
       <r>    2.0459    1.0000 </r>
       <r>    2.0570    1.0000 </r>
       <r>    2.1219    1.0000 </r>
       <r>    2.1749    1.0000 </r>
       <r>    2.1873    1.0000 </r>
       <r>    2.2809    1.0000 </r>
       <r>    2.3056    1.0000 </r>
       <r>    2.3206    1.0000 </r>
       <r>    2.4119    1.0000 </r>
       <r>    2.4233    1.0000 </r>
       <r>    2.4512    1.0000 </r>
       <r>    2.4891    1.0000 </r>
       <r>    2.5604    1.0000 </r>
       <r>    2.6044    1.0000 </r>
       <r>    2.6319    1.0000 </r>
       <r>    2.7222    1.0000 </r>
       <r>    2.7508    1.0000 </r>
       <r>    2.8318    1.0000 </r>
       <r>    2.8715    1.0000 </r>
       <r>    2.8918    1.0000 </r>
       <r>    2.9054    1.0000 </r>
       <r>    2.9294    1.0000 </r>
       <r>    2.9894    1.0000 </r>
       <r>    2.9978    1.0000 </r>
       <r>    3.0002    1.0000 </r>
       <r>    3.0006    1.0000 </r>
       <r>    3.0489    1.0000 </r>
       <r>    3.0841    1.0000 </r>
       <r>    3.1523    1.0000 </r>
       <r>    3.2200    1.0000 </r>
       <r>    3.2970    1.0000 </r>
       <r>    3.3039    1.0000 </r>
       <r>    3.3885    1.0000 </r>
       <r>    3.4099    1.0000 </r>
       <r>    3.4568    1.0000 </r>
       <r>    3.5480    1.0000 </r>
       <r>    3.6011    1.0000 </r>
       <r>    3.6306    1.0000 </r>
       <r>    3.6383    1.0000 </r>
       <r>    3.6623    1.0000 </r>
       <r>    3.7503    1.0000 </r>
       <r>    3.7970    1.0000 </r>
       <r>    3.8803    0.8757 </r>
       <r>    3.9092    0.0017 </r>
       <r>    3.9108    0.0008 </r>
       <r>    3.9596    0.0000 </r>
       <r>    4.0123    0.0000 </r>
       <r>    4.0342    0.0000 </r>
       <r>    4.1652    0.0000 </r>
       <r>    4.1682    0.0000 </r>
       <r>    4.1973    0.0000 </r>
       <r>    4.2756    0.0000 </r>
       <r>    4.2826    0.0000 </r>
       <r>    4.3292    0.0000 </r>
       <r>    4.3380    0.0000 </r>
       <r>    4.4500    0.0000 </r>
       <r>    4.4717    0.0000 </r>
       <r>    4.4874    0.0000 </r>
       <r>    4.5038    0.0000 </r>
       <r>    4.5915    0.0000 </r>
       <r>    4.6132    0.0000 </r>
       <r>    4.6236    0.0000 </r>
       <r>    4.6650    0.0000 </r>
       <r>    4.7082    0.0000 </r>
       <r>    4.7275    0.0000 </r>
       <r>    4.8330    0.0000 </r>
       <r>    4.8416    0.0000 </r>
       <r>    4.8602    0.0000 </r>
       <r>    4.9205    0.0000 </r>
       <r>    5.0638    0.0000 </r>
       <r>    5.0963    0.0000 </r>
       <r>    5.1360    0.0000 </r>
       <r>    5.1775    0.0000 </r>
       <r>    5.2144    0.0000 </r>
       <r>    5.2526    0.0000 </r>
       <r>    5.3126    0.0000 </r>
       <r>    5.3168    0.0000 </r>
       <r>    5.4958    0.0000 </r>
       <r>    5.5222    0.0000 </r>
       <r>    5.6072    0.0000 </r>
       <r>    5.6162    0.0000 </r>
       <r>    5.6557    0.0000 </r>
       <r>    5.6866    0.0000 </r>
       <r>    5.7972    0.0000 </r>
       <r>    5.8756    0.0000 </r>
       <r>    5.8960    0.0000 </r>
       <r>    5.9247    0.0000 </r>
       <r>    5.9483    0.0000 </r>
       <r>    6.0942    0.0000 </r>
       <r>    6.1702    0.0000 </r>
      </set>
      <set comment="kpoint 2">
       <r>  -14.1412    1.0000 </r>
       <r>  -13.9065    1.0000 </r>
       <r>  -13.8427    1.0000 </r>
       <r>  -13.7590    1.0000 </r>
       <r>  -13.5516    1.0000 </r>
       <r>  -13.2075    1.0000 </r>
       <r>  -13.1322    1.0000 </r>
       <r>  -12.9882    1.0000 </r>
       <r>  -12.9703    1.0000 </r>
       <r>  -12.8297    1.0000 </r>
       <r>  -12.6141    1.0000 </r>
       <r>  -12.3643    1.0000 </r>
       <r>  -12.2656    1.0000 </r>
       <r>  -12.2601    1.0000 </r>
       <r>  -11.7318    1.0000 </r>
       <r>  -11.4897    1.0000 </r>
       <r>  -11.3635    1.0000 </r>
       <r>  -11.2732    1.0000 </r>
       <r>  -11.0797    1.0000 </r>
       <r>  -10.9177    1.0000 </r>
       <r>  -10.6760    1.0000 </r>
       <r>  -10.4526    1.0000 </r>
       <r>  -10.3382    1.0000 </r>
       <r>  -10.2462    1.0000 </r>
       <r>  -10.1698    1.0000 </r>
       <r>   -9.9467    1.0000 </r>
       <r>   -9.8132    1.0000 </r>
       <r>   -9.7340    1.0000 </r>
       <r>   -9.6658    1.0000 </r>
       <r>   -9.5018    1.0000 </r>
       <r>   -9.3771    1.0000 </r>
       <r>   -9.3082    1.0000 </r>
       <r>   -9.2439    1.0000 </r>
       <r>   -9.1348    1.0000 </r>
       <r>   -9.1238    1.0000 </r>
       <r>   -9.0527    1.0000 </r>
       <r>   -8.7613    1.0000 </r>
       <r>   -8.7569    1.0000 </r>
       <r>   -8.6555    1.0000 </r>
       <r>   -8.4783    1.0000 </r>
       <r>   -8.3559    1.0000 </r>
       <r>   -7.8848    1.0000 </r>
       <r>   -7.3720    1.0000 </r>
       <r>   -7.3081    1.0000 </r>
       <r>   -7.0352    1.0000 </r>
       <r>   -6.8662    1.0000 </r>
       <r>   -6.7902    1.0000 </r>
       <r>   -6.6558    1.0000 </r>
       <r>   -6.6196    1.0000 </r>
       <r>   -6.5423    1.0000 </r>
       <r>   -6.4773    1.0000 </r>
       <r>   -6.2296    1.0000 </r>
       <r>   -6.1984    1.0000 </r>
       <r>   -6.1742    1.0000 </r>
       <r>   -6.1398    1.0000 </r>
       <r>   -6.0774    1.0000 </r>
       <r>   -5.9964    1.0000 </r>
       <r>   -5.9922    1.0000 </r>
       <r>   -5.9198    1.0000 </r>
       <r>   -5.8691    1.0000 </r>
       <r>   -5.7806    1.0000 </r>
       <r>   -5.7230    1.0000 </r>
       <r>   -5.5956    1.0000 </r>
       <r>   -5.5453    1.0000 </r>
       <r>   -5.5409    1.0000 </r>
       <r>   -5.4884    1.0000 </r>
       <r>   -5.3217    1.0000 </r>
       <r>   -5.1634    1.0000 </r>
       <r>   -5.0993    1.0000 </r>
       <r>   -5.0297    1.0000 </r>
       <r>   -4.9849    1.0000 </r>
       <r>   -4.9367    1.0000 </r>
       <r>   -4.9305    1.0000 </r>
       <r>   -4.7745    1.0000 </r>
       <r>   -4.6942    1.0000 </r>
       <r>   -4.6194    1.0000 </r>
       <r>   -4.5547    1.0000 </r>
       <r>   -4.5499    1.0000 </r>
       <r>   -4.5057    1.0000 </r>
       <r>   -4.4265    1.0000 </r>
       <r>   -4.4146    1.0000 </r>
       <r>   -4.2999    1.0000 </r>
       <r>   -4.2985    1.0000 </r>
       <r>   -4.1591    1.0000 </r>
       <r>   -4.0816    1.0000 </r>
       <r>   -4.0247    1.0000 </r>
       <r>   -3.9612    1.0000 </r>
       <r>   -3.9268    1.0000 </r>
       <r>   -3.8472    1.0000 </r>
       <r>   -3.8262    1.0000 </r>
       <r>   -3.7433    1.0000 </r>
       <r>   -3.5924    1.0000 </r>
       <r>   -3.5526    1.0000 </r>
       <r>   -3.4570    1.0000 </r>
       <r>   -3.4274    1.0000 </r>
       <r>   -3.3516    1.0000 </r>
       <r>   -3.2742    1.0000 </r>
       <r>   -3.1066    1.0000 </r>
       <r>   -3.0070    1.0000 </r>
       <r>   -2.9581    1.0000 </r>
       <r>   -2.8629    1.0000 </r>
       <r>   -2.8235    1.0000 </r>
       <r>   -2.7460    1.0000 </r>
       <r>   -2.7363    1.0000 </r>
       <r>   -2.6532    1.0000 </r>
       <r>   -2.5793    1.0000 </r>
       <r>   -2.5495    1.0000 </r>
       <r>   -2.5090    1.0000 </r>
       <r>   -2.4585    1.0000 </r>
       <r>   -2.3795    1.0000 </r>
       <r>   -2.3475    1.0000 </r>
       <r>   -2.2663    1.0000 </r>
       <r>   -2.2504    1.0000 </r>
       <r>   -2.2065    1.0000 </r>
       <r>   -2.1667    1.0000 </r>
       <r>   -2.1649    1.0000 </r>
       <r>   -2.0462    1.0000 </r>
       <r>   -1.9796    1.0000 </r>
       <r>   -1.9418    1.0000 </r>
       <r>   -1.9015    1.0000 </r>
       <r>   -1.8106    1.0000 </r>
       <r>   -1.7271    1.0000 </r>
       <r>   -1.7112    1.0000 </r>
       <r>   -1.6172    1.0000 </r>
       <r>   -1.5593    1.0000 </r>
       <r>   -1.5262    1.0000 </r>
       <r>   -1.4429    1.0000 </r>
       <r>   -1.3912    1.0000 </r>
       <r>   -1.3615    1.0000 </r>
       <r>   -1.3340    1.0000 </r>
       <r>   -1.3051    1.0000 </r>
       <r>   -1.1817    1.0000 </r>
       <r>   -1.1553    1.0000 </r>
       <r>   -1.1182    1.0000 </r>
       <r>   -1.0741    1.0000 </r>
       <r>   -1.0581    1.0000 </r>
       <r>   -1.0169    1.0000 </r>
       <r>   -0.8688    1.0000 </r>
       <r>   -0.8241    1.0000 </r>
       <r>   -0.8060    1.0000 </r>
       <r>   -0.7561    1.0000 </r>
       <r>   -0.6857    1.0000 </r>
       <r>   -0.6290    1.0000 </r>
       <r>   -0.5855    1.0000 </r>
       <r>   -0.5773    1.0000 </r>
       <r>   -0.4641    1.0000 </r>
       <r>   -0.3856    1.0000 </r>
       <r>   -0.3798    1.0000 </r>
       <r>   -0.2735    1.0000 </r>
       <r>   -0.1905    1.0000 </r>
[...]
       <r>   -10.6010     7.9208    42.3491 </r>
       <r>   -10.5262    26.4237    44.3264 </r>
       <r>   -10.4513     1.0200    44.4097 </r>
       <r>   -10.3765     7.8889    45.0000 </r>
       <r>   -10.3017     8.9088    45.6666 </r>
       <r>   -10.2268    10.0515    46.4188 </r>
       <r>   -10.1520    10.1893    47.2862 </r>
       <r>   -10.0772     8.7862    48.0155 </r>
       <r>   -10.0024    16.3843    49.2416 </r>
       <r>    -9.9275    16.4950    50.4759 </r>
       <r>    -9.8527     2.0907    50.8231 </r>
       <r>    -9.7779    20.1805    52.3332 </r>
       <r>    -9.7030    39.9897    55.3258 </r>
       <r>    -9.6282    25.2028    57.2220 </r>
       <r>    -9.5534    13.3499    58.3332 </r>
       <r>    -9.4785    26.5391    60.3193 </r>
       <r>    -9.4037     8.9091    61.0000 </r>
       <r>    -9.3289    16.4228    62.2289 </r>
       <r>    -9.2540    23.6440    63.9982 </r>
       <r>    -9.1792    16.3788    65.2264 </r>
       <r>    -9.1044    30.0888    67.5129 </r>
       <r>    -9.0296    27.6552    69.6630 </r>
       <r>    -8.9547    21.2857    71.2758 </r>
       <r>    -8.8799    13.4582    72.3333 </r>
       <r>    -8.8051     3.2213    72.5744 </r>
       <r>    -8.7302    27.6679    74.6606 </r>
       <r>    -8.6554    13.9436    75.7101 </r>
       <r>    -8.5806    26.0325    77.6857 </r>
       <r>    -8.5057    20.9451    79.3332 </r>
       <r>    -8.4309    16.6486    80.5792 </r>
       <r>    -8.3561     9.6867    81.4023 </r>
       <r>    -8.2812    10.2199    82.1691 </r>
       <r>    -8.2064     2.1947    82.3333 </r>
       <r>    -8.1316     2.6078    82.5285 </r>
       <r>    -8.0568     6.3012    83.0000 </r>
       <r>    -7.9819     0.0000    83.0000 </r>
       <r>    -7.9071     0.0012    83.0001 </r>
       <r>    -7.8323     9.3856    83.7024 </r>
       <r>    -7.7574     3.9767    84.0000 </r>
       <r>    -7.6826     1.0273    84.0769 </r>
       <r>    -7.6078     7.8806    84.6666 </r>
       <r>    -7.5329     4.4538    85.0000 </r>
       <r>    -7.4581     9.0612    85.6781 </r>
       <r>    -7.3833     3.8104    86.0015 </r>
       <r>    -7.3084    10.7183    86.8036 </r>
       <r>    -7.2336    11.5341    87.6667 </r>
       <r>    -7.1588     0.0000    87.6667 </r>
       <r>    -7.0840    11.5866    88.5337 </r>
       <r>    -7.0091    10.9642    89.3567 </r>
       <r>    -6.9343     8.5399    89.9971 </r>
       <r>    -6.8595     5.1408    90.3847 </r>
       <r>    -6.7846    15.3212    91.5344 </r>
       <r>    -6.7098    22.7566    93.2373 </r>
       <r>    -6.6350    19.4073    94.7325 </r>
       <r>    -6.5601    21.8226    96.4444 </r>
       <r>    -6.4853    29.9162    98.7202 </r>
       <r>    -6.4105    26.3789   100.7501 </r>
       <r>    -6.3356    20.3455   102.3163 </r>
       <r>    -6.2608    36.6363   105.0850 </r>
       <r>    -6.1860    21.4758   106.7144 </r>
       <r>    -6.1112    35.0784   109.3404 </r>
       <r>    -6.0363    29.7960   111.5888 </r>
       <r>    -5.9615    36.1276   114.3419 </r>
       <r>    -5.8867    34.1478   116.9430 </r>
       <r>    -5.8118    24.4669   118.7830 </r>
       <r>    -5.7370    28.9247   120.9858 </r>
       <r>    -5.6622    24.6158   122.8337 </r>
       <r>    -5.5873    15.0281   123.9668 </r>
       <r>    -5.5125    35.5208   126.6446 </r>
       <r>    -5.4377    24.8297   128.5251 </r>
       <r>    -5.3628    17.7615   129.8658 </r>
       <r>    -5.2880    35.3025   132.5166 </r>
       <r>    -5.2132    29.3292   134.7451 </r>
       <r>    -5.1384    35.7884   137.4239 </r>
       <r>    -5.0635    33.3261   139.9594 </r>
       <r>    -4.9887    25.1851   141.8486 </r>
       <r>    -4.9139    29.8079   144.1352 </r>
       <r>    -4.8390    29.0936   146.3513 </r>
       <r>    -4.7642    34.3409   148.9795 </r>
       <r>    -4.6894    43.8238   152.2730 </r>
       <r>    -4.6145    27.9795   154.4243 </r>
       <r>    -4.5397    23.2647   156.2159 </r>
       <r>    -4.4649    28.9964   158.4656 </r>
       <r>    -4.3900    25.6265   160.4056 </r>
       <r>    -4.3152    33.5098   162.9557 </r>
       <r>    -4.2404    20.1834   164.5176 </r>
       <r>    -4.1656    16.4595   165.7532 </r>
       <r>    -4.0907    34.0157   168.2992 </r>
       <r>    -4.0159    25.1926   170.1986 </r>
       <r>    -3.9411    30.9470   172.5155 </r>
       <r>    -3.8662    29.3992   174.7273 </r>
       <r>    -3.7914    34.3627   177.3386 </r>
       <r>    -3.7166    39.7952   180.3234 </r>
       <r>    -3.6417    30.6613   182.6458 </r>
       <r>    -3.5669    21.9063   184.3236 </r>
       <r>    -3.4921    28.2436   186.4716 </r>
       <r>    -3.4172    29.9655   188.7713 </r>
       <r>    -3.3424    26.4122   190.7503 </r>
       <r>    -3.2676    32.2988   193.2117 </r>
       <r>    -3.1928    18.5600   194.6063 </r>
       <r>    -3.1179    14.2463   195.6750 </r>
       <r>    -3.0431    27.7922   197.7556 </r>
       <r>    -2.9683    21.1934   199.3751 </r>
       <r>    -2.8934    21.6510   201.0608 </r>
       <r>    -2.8186    26.2239   203.0698 </r>
       <r>    -2.7438    36.5483   205.8195 </r>
       <r>    -2.6689    37.6750   208.6722 </r>
       <r>    -2.5941    38.1570   211.6327 </r>
       <r>    -2.5193    40.0294   214.6780 </r>
       <r>    -2.4444    31.0613   217.0546 </r>
       <r>    -2.3696    34.3454   219.7133 </r>
       <r>    -2.2948    28.8206   221.9289 </r>
       <r>    -2.2200    35.1065   224.5734 </r>
       <r>    -2.1451    27.8614   226.6755 </r>
       <r>    -2.0703    29.1385   228.9219 </r>
       <r>    -1.9955    40.8579   232.0083 </r>
       <r>    -1.9206    41.0329   235.1170 </r>
       <r>    -1.8458    39.9286   238.1567 </r>
       <r>    -1.7710    32.0635   240.6099 </r>
       <r>    -1.6961    48.7008   244.2796 </r>
       <r>    -1.6213    36.2328   247.0409 </r>
       <r>    -1.5465    46.7992   250.5473 </r>
       <r>    -1.4716    48.8645   254.2365 </r>
       <r>    -1.3968    30.6364   256.5363 </r>
       <r>    -1.3220    46.5478   260.0521 </r>
       <r>    -1.2472    32.4439   262.4861 </r>
       <r>    -1.1723    35.4942   265.1431 </r>
       <r>    -1.0975    42.7482   268.3784 </r>
       <r>    -1.0227    38.2547   271.2551 </r>
       <r>    -0.9478    37.5559   274.0783 </r>
       <r>    -0.8730    29.4186   276.3289 </r>
       <r>    -0.7982    41.0521   279.4204 </r>
       <r>    -0.7233    39.7526   282.4247 </r>
       <r>    -0.6485    31.5854   284.8054 </r>
       <r>    -0.5737    29.3177   287.0406 </r>
       <r>    -0.4988    29.2536   289.2416 </r>
       <r>    -0.4240    43.5046   292.5308 </r>
       <r>    -0.3492    30.2941   294.8329 </r>
       <r>    -0.2744    24.5840   296.6871 </r>
       <r>    -0.1995    30.8452   299.0267 </r>
       <r>    -0.1247    36.6002   301.7958 </r>
       <r>    -0.0499    27.3634   303.8873 </r>
       <r>     0.0250    39.4507   306.8961 </r>
       <r>     0.0998    37.0767   309.7344 </r>
       <r>     0.1746    40.1655   312.7629 </r>
       <r>     0.2495    39.8532   315.8072 </r>
       <r>     0.3243    28.7110   318.0310 </r>
       <r>     0.3991    43.1994   321.3056 </r>
       <r>     0.4740    41.6218   324.5301 </r>
       <r>     0.5488    43.7080   327.8630 </r>
       <r>     0.6236    40.9278   330.9862 </r>
       <r>     0.6984    46.6011   334.5003 </r>
       <r>     0.7733    49.4060   338.2527 </r>
       <r>     0.8481    34.1970   340.8732 </r>
       <r>     0.9229    45.7645   344.3061 </r>
       <r>     0.9978    45.7185   347.7543 </r>
       <r>     1.0726    34.1360   350.3415 </r>
       <r>     1.1474    40.9979   353.4189 </r>
       <r>     1.2223    44.0782   356.7488 </r>
       <r>     1.2971    43.6128   360.0363 </r>
       <r>     1.3719    40.3371   363.0951 </r>
       <r>     1.4468    48.6572   366.7910 </r>
       <r>     1.5216    45.4610   370.2243 </r>
       <r>     1.5964    35.6054   372.8996 </r>
       <r>     1.6712    50.1165   376.6803 </r>
       <r>     1.7461    55.8276   380.8599 </r>
       <r>     1.8209    33.6978   383.3997 </r>
       <r>     1.8957    51.2873   387.2747 </r>
       <r>     1.9706    46.8948   390.8752 </r>
       <r>     2.0454    43.9612   394.1908 </r>
       <r>     2.1202    52.7720   398.1689 </r>
       <r>     2.1951    57.1011   402.5329 </r>
       <r>     2.2699    50.5644   406.4008 </r>
       <r>     2.3447    49.8510   410.1583 </r>
       <r>     2.4196    47.6145   413.7991 </r>
       <r>     2.4944    43.8177   417.1451 </r>
       <r>     2.5692    52.3839   421.1403 </r>
       <r>     2.6440    49.5418   424.8819 </r>
       <r>     2.7189    49.7775   428.6287 </r>
       <r>     2.7937    47.3162   432.2285 </r>
       <r>     2.8685    40.9420   435.3325 </r>
       <r>     2.9434    55.6757   439.5318 </r>
       <r>     3.0182    44.3940   442.9181 </r>
       <r>     3.0930    30.8503   445.2859 </r>
       <r>     3.1679    46.7968   448.8340 </r>
       <r>     3.2427    44.5154   452.1686 </r>
       <r>     3.3175    45.5050   455.6601 </r>
       <r>     3.3924    34.9386   458.3540 </r>
       <r>     3.4672    36.3848   461.1186 </r>
       <r>     3.5420    45.9243   464.6129 </r>
       <r>     3.6168    34.7021   467.2176 </r>
       <r>     3.6917    45.2138   470.6070 </r>
       <r>     3.7665    46.2886   474.0754 </r>
       <r>     3.8413    44.5148   477.4595 </r>
       <r>     3.9162    46.8095   481.0086 </r>
       <r>     3.9910    53.3173   485.0400 </r>
       <r>     4.0658    50.0991   488.8127 </r>
       <r>     4.1407    38.9474   491.7907 </r>
       <r>     4.2155    47.3434   495.4020 </r>
       <r>     4.2903    41.4817   498.5321 </r>
       <r>     4.3652    41.0816   501.6177 </r>
       <r>     4.4400    57.9303   505.9903 </r>
       <r>     4.5148    42.6411   509.2409 </r>
       <r>     4.5896    43.7432   512.5226 </r>
       <r>     4.6645    52.3263   516.4421 </r>
       <r>     4.7393    39.4252   519.4819 </r>
       <r>     4.8141    55.3019   523.6561 </r>
       <r>     4.8890    39.5707   526.6332 </r>
       <r>     4.9638    41.8182   529.8407 </r>
       <r>     5.0386    34.3780   532.4245 </r>
       <r>     5.1135    36.0978   535.1867 </r>
       <r>     5.1883    48.9651   538.8571 </r>
       <r>     5.2631    44.9768   542.2321 </r>
       <r>     5.3380    39.1019   545.2277 </r>
       <r>     5.4128    30.3573   547.5665 </r>
       <r>     5.4876    40.6852   550.6537 </r>
       <r>     5.5624    29.0686   552.8553 </r>
       <r>     5.6373    34.3083   555.4403 </r>
       <r>     5.7121    43.5407   558.7233 </r>
       <r>     5.7869    33.4145   561.2428 </r>
       <r>     5.8618    41.9001   564.4092 </r>
       <r>     5.9366    38.9583   567.3895 </r>
       <r>     6.0114    52.0653   571.3225 </r>
       <r>     6.0863    26.3577   573.3127 </r>
       <r>     6.1611    32.8960   575.7758 </r>
       <r>     6.2359     2.7082   576.0000 </r>
       <r>     6.3108     0.0000   576.0000 </r>
       <r>     6.3856     0.0000   576.0000 </r>
       <r>     6.4604     0.0000   576.0000 </r>
       <r>     6.5352     0.0000   576.0000 </r>
       <r>     6.6101     0.0000   576.0000 </r>
       <r>     6.6849     0.0000   576.0000 </r>
       <r>     6.7597     0.0000   576.0000 </r>
       <r>     6.8346     0.0000   576.0000 </r>
       <r>     6.9094     0.0000   576.0000 </r>
       <r>     6.9842     0.0000   576.0000 </r>
       <r>     7.0591     0.0000   576.0000 </r>
       <r>     7.1339     0.0000   576.0000 </r>
       <r>     7.2087     0.0000   576.0000 </r>
      </set>
     </set>
    </array>
   </total>
  </dos>
 </calculation>
 <structure name="finalpos" >
  <crystal>
   <varray name="basis" >
    <v>      13.30317974       0.00000000       0.00000000 </v>
    <v>      -6.65158939      14.87340641       0.00000000 </v>
    <v>       0.00000000       0.00000000       8.39005947 </v>
   </varray>
   <i name="volume">   1660.08736136 </i>
   <varray name="rec_basis" >
    <v>       0.07517000       0.03361704       0.00000000 </v>
    <v>       0.00000000       0.06723409       0.00000000 </v>
    <v>       0.00000000       0.00000000       0.11918867 </v>
   </varray>
  </crystal>
  <varray name="positions" >
   <v>       0.99715096       0.98005658       0.00000000 </v>
   <v>       0.96381754       0.74672317       0.14474383 </v>
   <v>       0.93048412       0.51338983       0.28948766 </v>
   <v>       0.33048421       0.31338987       0.00000000 </v>
   <v>       0.29715079       0.08005647       0.14474383 </v>
   <v>       0.26381737       0.84672308       0.28948766 </v>
   <v>       0.66381747       0.64672315       0.00000000 </v>
   <v>       0.63048405       0.41338971       0.14474383 </v>
   <v>       0.59715062       0.18005633       0.28948766 </v>
   <v>       0.31381753       0.94672334       0.07237176 </v>
   <v>       0.28048411       0.71338999       0.21711558 </v>
   <v>       0.24715069       0.48005658       0.36185935 </v>
   <v>       0.64715082       0.28005657       0.07237176 </v>
   <v>       0.61381739       0.04672319       0.21711555 </v>
   <v>       0.58048397       0.81338978       0.36185938 </v>
   <v>       0.98048443       0.61338985       0.07237179 </v>
   <v>       0.94715101       0.38005647       0.21711555 </v>
   <v>       0.91381758       0.14672309       0.36185935 </v>
   <v>       0.16381757       0.64672309       0.00000000 </v>
   <v>       0.13048416       0.41338971       0.14474383 </v>
   <v>       0.09715075       0.18005632       0.28948766 </v>
   <v>       0.49715090       0.98005664       0.00000000 </v>
   <v>       0.46381742       0.74672317       0.14474377 </v>
   <v>       0.43048406       0.51338983       0.28948760 </v>
   <v>       0.83048415       0.31338987       0.00000000 </v>
   <v>       0.79715073       0.08005653       0.14474377 </v>
   <v>       0.76381731       0.84672308       0.28948760 </v>
   <v>       0.14715090       0.28005657       0.07237177 </v>
   <v>       0.11381748       0.04672317       0.21711558 </v>
   <v>       0.08048407       0.81338978       0.36185938 </v>
   <v>       0.48048422       0.61338991       0.07237177 </v>
   <v>       0.44715083       0.38005653       0.21711555 </v>
   <v>       0.41381741       0.14672317       0.36185938 </v>
   <v>       0.81381750       0.94672328       0.07237176 </v>
   <v>       0.78048414       0.71338987       0.21711555 </v>
   <v>       0.74715072       0.48005646       0.36185938 </v>
   <v>       0.60358953       0.95157731       0.75222486 </v>
   <v>       0.40358943       0.55157739       0.56210440 </v>
   <v>       0.50358951       0.25157735       0.65716469 </v>
   <v>       0.88930386       0.09443444       0.75222486 </v>
   <v>       0.68930364       0.69443452       0.56210440 </v>
   <v>       0.78930378       0.39443448       0.65716469 </v>
   <v>       0.17501807       0.23729152       0.75222486 </v>
   <v>       0.97501796       0.83729160       0.56210440 </v>
   <v>       0.07501805       0.53729159       0.65716469 </v>
   <v>       0.46073243       0.38014877       0.75222486 </v>
   <v>       0.26073226       0.98014885       0.56210440 </v>
   <v>       0.36073235       0.68014884       0.65716469 </v>
   <v>       0.74644673       0.52300590       0.75222486 </v>
   <v>       0.54644656       0.12300602       0.56210440 </v>
   <v>       0.64644659       0.82300597       0.65716469 </v>
   <v>       0.03216100       0.66586304       0.75222486 </v>
   <v>       0.83216077       0.26586315       0.56210440 </v>
   <v>       0.93216085       0.96586311       0.65716469 </v>
   <v>       0.31787515       0.80872011       0.75222486 </v>
   <v>       0.11787510       0.40872029       0.56210440 </v>
   <v>       0.21787512       0.10872024       0.65716469 </v>
   <v>       0.58216101       0.26586312       0.79975486 </v>
   <v>       0.38216084       0.86586326       0.60963446 </v>
   <v>       0.48216093       0.56586325       0.70469463 </v>
   <v>       0.72501808       0.83729166       0.79975486 </v>
   <v>       0.52501798       0.43729174       0.60963446 </v>
   <v>       0.62501800       0.13729170       0.70469463 </v>
   <v>       0.01073241       0.98014897       0.79975486 </v>
   <v>       0.81073213       0.58014905       0.60963446 </v>
   <v>       0.91073221       0.28014898       0.70469469 </v>
   <v>       0.29644668       0.12300607       0.79975480 </v>
   <v>       0.09644651       0.72300613       0.60963446 </v>
   <v>       0.19644666       0.42300609       0.70469469 </v>
   <v>       0.86787528       0.40872020       0.79975486 </v>
   <v>       0.66787517       0.00872040       0.60963446 </v>
   <v>       0.76787520       0.70872021       0.70469463 </v>
   <v>       0.15358949       0.55157751       0.79975486 </v>
   <v>       0.95358932       0.15157759       0.60963446 </v>
   <v>       0.05358934       0.85157752       0.70469463 </v>
   <v>       0.43930364       0.69443452       0.79975486 </v>
   <v>       0.23930359       0.29443467       0.60963446 </v>
   <v>       0.33930361       0.99443460       0.70469463 </v>
   <v>       0.67501819       0.23729149       0.75222486 </v>
   <v>       0.47501793       0.83729166       0.56210440 </v>
   <v>       0.57501805       0.53729159       0.65716469 </v>
   <v>       0.53216100       0.66586304       0.75222486 </v>
   <v>       0.33216083       0.26586312       0.56210440 </v>
   <v>       0.43216091       0.96586305       0.65716469 </v>
   <v>       0.81787521       0.80872011       0.75222486 </v>
   <v>       0.61787510       0.40872025       0.56210440 </v>
   <v>       0.71787512       0.10872021       0.65716469 </v>
   <v>       0.10358953       0.95157725       0.75222486 </v>
   <v>       0.90358931       0.55157733       0.56210440 </v>
   <v>       0.00358951       0.25157732       0.65716469 </v>
   <v>       0.38930380       0.09443437       0.75222486 </v>
   <v>       0.18930364       0.69443452       0.56210440 </v>
   <v>       0.28930366       0.39443442       0.65716469 </v>
   <v>       0.96073234       0.38014877       0.75222486 </v>
   <v>       0.76073217       0.98014885       0.56210440 </v>
   <v>       0.86073232       0.68014878       0.65716469 </v>
   <v>       0.24644661       0.52300584       0.75222486 </v>
   <v>       0.04644644       0.12300598       0.56210440 </v>
   <v>       0.14644659       0.82300592       0.65716469 </v>
   <v>       0.51073241       0.98014897       0.79975486 </v>
   <v>       0.31073222       0.58014905       0.60963446 </v>
   <v>       0.41073227       0.28014898       0.70469469 </v>
   <v>       0.79644668       0.12300605       0.79975486 </v>
   <v>       0.59644651       0.72300613       0.60963446 </v>
   <v>       0.69644666       0.42300609       0.70469469 </v>
   <v>       0.08216095       0.26586318       0.79975486 </v>
   <v>       0.88216078       0.86586326       0.60963446 </v>
   <v>       0.98216087       0.56586313       0.70469469 </v>
   <v>       0.65358955       0.55157757       0.79975486 </v>
   <v>       0.45358941       0.15157765       0.60963446 </v>
   <v>       0.55358946       0.85157758       0.70469463 </v>
   <v>       0.93930382       0.69443464       0.79975480 </v>
   <v>       0.73930365       0.29443473       0.60963446 </v>
   <v>       0.83930367       0.99443460       0.70469469 </v>
   <v>       0.22501802       0.83729160       0.79975480 </v>
   <v>       0.02501774       0.43729168       0.60963446 </v>
   <v>       0.12501788       0.13729167       0.70469463 </v>
   <v>       0.36787522       0.40872020       0.79975492 </v>
   <v>       0.16787505       0.00872040       0.60963446 </v>
   <v>       0.26787507       0.70872021       0.70469469 </v>
  </varray>
 </structure>
</modeling>
