Si and Ge interface calculation         
           1
    13.303180    0.000000    0.000000
    -6.651589   14.873406    0.000000
     0.000000    0.000000    8.390059
   Si   C 
    36    84
Direct configuration=     1
   0.99715096  0.98005658  0.00000000
   0.96381754  0.74672317  0.14474383
   0.93048412  0.51338983  0.28948766
   0.33048421  0.31338987  0.00000000
   0.29715079  0.08005647  0.14474383
   0.26381737  0.84672308  0.28948766
   0.66381747  0.64672315  0.00000000
   0.63048405  0.41338971  0.14474383
   0.59715062  0.18005633  0.28948766
   0.31381753  0.94672334  0.07237176
   0.28048411  0.71338999  0.21711558
   0.24715069  0.48005658  0.36185935
   0.64715082  0.28005657  0.07237176
   0.61381739  0.04672319  0.21711555
   0.58048397  0.81338978  0.36185938
   0.98048443  0.61338985  0.07237179
   0.94715101  0.38005647  0.21711555
   0.91381758  0.14672309  0.36185935
   0.16381757  0.64672309  0.00000000
   0.13048416  0.41338971  0.14474383
   0.09715075  0.18005632  0.28948766
   0.49715090  0.98005664  0.00000000
   0.46381742  0.74672317  0.14474377
   0.43048406  0.51338983  0.28948760
   0.83048415  0.31338987  0.00000000
   0.79715073  0.08005653  0.14474377
   0.76381731  0.84672308  0.28948760
   0.14715090  0.28005657  0.07237177
   0.11381748  0.04672317  0.21711558
   0.08048407  0.81338978  0.36185938
   0.48048422  0.61338991  0.07237177
   0.44715083  0.38005653  0.21711555
   0.41381741  0.14672317  0.36185938
   0.81381750  0.94672328  0.07237176
   0.78048414  0.71338987  0.21711555
   0.74715072  0.48005646  0.36185938
   0.60358953  0.95157731  0.75222486
   0.40358943  0.55157739  0.56210440
   0.50358951  0.25157735  0.65716469
   0.88930386  0.09443444  0.75222486
   0.68930364  0.69443452  0.56210440
   0.78930378  0.39443448  0.65716469
   0.17501807  0.23729152  0.75222486
   0.97501796  0.83729160  0.56210440
   0.07501805  0.53729159  0.65716469
   0.46073243  0.38014877  0.75222486
   0.26073226  0.98014885  0.56210440
   0.36073235  0.68014884  0.65716469
   0.74644673  0.52300590  0.75222486
   0.54644656  0.12300602  0.56210440
   0.64644659  0.82300597  0.65716469
   0.03216100  0.66586304  0.75222486
   0.83216077  0.26586315  0.56210440
   0.93216085  0.96586311  0.65716469
   0.31787515  0.80872011  0.75222486
   0.11787510  0.40872029  0.56210440
   0.21787512  0.10872024  0.65716469
   0.58216101  0.26586312  0.79975486
   0.38216084  0.86586326  0.60963446
   0.48216093  0.56586325  0.70469463
   0.72501808  0.83729166  0.79975486
   0.52501798  0.43729174  0.60963446
   0.62501800  0.13729170  0.70469463
   0.01073241  0.98014897  0.79975486
   0.81073213  0.58014905  0.60963446
   0.91073221  0.28014898  0.70469469
   0.29644668  0.12300607  0.79975480
   0.09644651  0.72300613  0.60963446
   0.19644666  0.42300609  0.70469469
   0.86787528  0.40872020  0.79975486
   0.66787517  0.00872040  0.60963446
   0.76787520  0.70872021  0.70469463
   0.15358949  0.55157751  0.79975486
   0.95358932  0.15157759  0.60963446
   0.05358934  0.85157752  0.70469463
   0.43930364  0.69443452  0.79975486
   0.23930359  0.29443467  0.60963446
   0.33930361  0.99443460  0.70469463
   0.67501819  0.23729149  0.75222486
   0.47501793  0.83729166  0.56210440
   0.57501805  0.53729159  0.65716469
   0.53216100  0.66586304  0.75222486
   0.33216083  0.26586312  0.56210440
   0.43216091  0.96586305  0.65716469
   0.81787521  0.80872011  0.75222486
   0.61787510  0.40872025  0.56210440
   0.71787512  0.10872021  0.65716469
   0.10358953  0.95157725  0.75222486
   0.90358931  0.55157733  0.56210440
   0.00358951  0.25157732  0.65716469
   0.38930380  0.09443437  0.75222486
   0.18930364  0.69443452  0.56210440
   0.28930366  0.39443442  0.65716469
   0.96073234  0.38014877  0.75222486
   0.76073217  0.98014885  0.56210440
   0.86073232  0.68014878  0.65716469
   0.24644661  0.52300584  0.75222486
   0.04644644  0.12300598  0.56210440
   0.14644659  0.82300592  0.65716469
   0.51073241  0.98014897  0.79975486
   0.31073222  0.58014905  0.60963446
   0.41073227  0.28014898  0.70469469
   0.79644668  0.12300605  0.79975486
   0.59644651  0.72300613  0.60963446
   0.69644666  0.42300609  0.70469469
   0.08216095  0.26586318  0.79975486
   0.88216078  0.86586326  0.60963446
   0.98216087  0.56586313  0.70469469
   0.65358955  0.55157757  0.79975486
   0.45358941  0.15157765  0.60963446
   0.55358946  0.85157758  0.70469463
   0.93930382  0.69443464  0.79975480
   0.73930365  0.29443473  0.60963446
   0.83930367  0.99443460  0.70469469
   0.22501802  0.83729160  0.79975480
   0.02501774  0.43729168  0.60963446
   0.12501788  0.13729167  0.70469463
   0.36787522  0.40872020  0.79975492
   0.16787505  0.00872040  0.60963446
   0.26787507  0.70872021  0.70469469
