 144 144   0   0
  0.2809490E+02  0.1086200E-08  0.1629300E-08  0.2286015E-08  0.5000000E-15
  1.000000000000000E-004
  CAR 
 Si and Ge interface calculation         
      6.78050268     -8.40257684  301      4.02986476      1.00000000
     -8.403  0.0000E+00  0.0000E+00  0.0000E+00  0.0000E+00
     -8.352  0.0000E+00  0.0000E+00  0.0000E+00  0.0000E+00
     -8.301  0.0000E+00  0.0000E+00  0.0000E+00  0.0000E+00
     -8.251  0.0000E+00  0.0000E+00  0.0000E+00  0.0000E+00
     -8.200  0.0000E+00  0.0000E+00  0.0000E+00  0.0000E+00
     -8.150  0.0000E+00  0.0000E+00  0.0000E+00  0.0000E+00
     -8.099  0.0000E+00  0.0000E+00  0.0000E+00  0.0000E+00
     -8.048  0.0000E+00  0.0000E+00  0.0000E+00  0.0000E+00
     -7.998  0.0000E+00  0.0000E+00  0.0000E+00  0.0000E+00
     -7.947  0.0000E+00  0.0000E+00  0.0000E+00  0.0000E+00
     -7.896  0.0000E+00  0.0000E+00  0.0000E+00  0.0000E+00
     -7.846  0.0000E+00  0.0000E+00  0.0000E+00  0.0000E+00
     -7.795  0.0000E+00  0.0000E+00  0.0000E+00  0.0000E+00
     -7.745  0.1728E-04  0.4517E-06  0.8744E-06  0.2286E-07
     -7.694  0.6556E+01  0.6392E+01  0.3318E+00  0.3235E+00
     -7.643  0.3046E-01  0.1942E+00  0.3333E+00  0.3333E+00
     -7.593  0.1695E+02  0.9600E+01  0.1191E+01  0.8192E+00
     -7.542  0.9394E+01  0.1675E+02  0.1667E+01  0.1667E+01
     -7.492  0.2004E+01  0.4210E+00  0.1768E+01  0.1688E+01
     -7.441  0.2434E+02  0.2592E+02  0.3000E+01  0.3000E+01
     -7.390  0.0000E+00  0.0000E+00  0.3000E+01  0.3000E+01
     -7.340  0.0000E+00  0.0000E+00  0.3000E+01  0.3000E+01
     -7.289  0.1525E-02  0.6086E-04  0.3000E+01  0.3000E+01
     -7.239  0.2059E+02  0.1989E+02  0.4042E+01  0.4006E+01
     -7.188  0.5757E+01  0.6458E+01  0.4333E+01  0.4333E+01
     -7.137  0.1955E+02  0.1327E+02  0.5323E+01  0.5005E+01
     -7.087  0.3246E+02  0.3724E+02  0.6965E+01  0.6890E+01
     -7.036  0.6865E+00  0.2177E+01  0.7000E+01  0.7000E+01
     -6.985  0.0000E+00  0.0000E+00  0.7000E+01  0.7000E+01
     -6.935  0.0000E+00  0.0000E+00  0.7000E+01  0.7000E+01
     -6.884  0.0000E+00  0.0000E+00  0.7000E+01  0.7000E+01
     -6.834  0.1366E+01  0.3183E+00  0.7069E+01  0.7016E+01
     -6.783  0.2855E+02  0.2633E+02  0.8514E+01  0.8349E+01
     -6.732  0.3087E+01  0.6290E+01  0.8670E+01  0.8667E+01
     -6.682  0.2908E+02  0.2237E+02  0.1014E+02  0.9799E+01
     -6.631  0.2352E+02  0.3017E+02  0.1133E+02  0.1133E+02
     -6.581  0.2847E+02  0.2471E+02  0.1277E+02  0.1258E+02
     -6.530  0.5016E+02  0.5284E+02  0.1531E+02  0.1525E+02
     -6.479  0.6995E+01  0.8177E+01  0.1567E+02  0.1566E+02
     -6.429  0.8796E-01  0.4353E-01  0.1567E+02  0.1567E+02
     -6.378  0.3823E+02  0.3234E+02  0.1761E+02  0.1730E+02
     -6.328  0.1446E+02  0.2035E+02  0.1834E+02  0.1833E+02
     -6.277  0.5750E+02  0.5173E+02  0.2125E+02  0.2095E+02
     -6.226  0.6923E+02  0.7391E+02  0.2475E+02  0.2469E+02
     -6.176  0.4908E+01  0.6085E+01  0.2500E+02  0.2500E+02
     -6.125  0.4291E-02  0.7200E-04  0.2500E+02  0.2500E+02
     -6.075  0.1439E+02  0.1333E+02  0.2573E+02  0.2567E+02
     -6.024  0.2512E+02  0.2614E+02  0.2700E+02  0.2700E+02
     -5.973  0.2770E+02  0.2308E+02  0.2840E+02  0.2817E+02
     -5.923  0.3820E+02  0.3526E+02  0.3033E+02  0.2995E+02
     -5.872  0.6352E+02  0.5784E+02  0.3355E+02  0.3288E+02
     -5.821  0.7355E+02  0.7226E+02  0.3727E+02  0.3654E+02
     -5.771  0.1142E+03  0.1195E+03  0.4305E+02  0.4258E+02
     -5.720  0.6574E+02  0.6812E+02  0.4638E+02  0.4603E+02
     -5.670  0.1894E+02  0.2471E+02  0.4734E+02  0.4728E+02
     -5.619  0.5154E+02  0.5069E+02  0.4994E+02  0.4984E+02
     -5.568  0.3142E+02  0.2805E+02  0.5153E+02  0.5126E+02
     -5.518  0.4143E+02  0.3732E+02  0.5363E+02  0.5315E+02
     -5.467  0.4565E+02  0.4882E+02  0.5594E+02  0.5562E+02
     -5.417  0.8476E+02  0.8278E+02  0.6023E+02  0.5981E+02
     -5.366  0.6120E+02  0.6721E+02  0.6333E+02  0.6321E+02
     -5.315  0.2037E+02  0.2147E+02  0.6436E+02  0.6430E+02
     -5.265  0.5805E+02  0.5738E+02  0.6730E+02  0.6721E+02
     -5.214  0.4102E+02  0.3399E+02  0.6937E+02  0.6893E+02
     -5.164  0.2886E+02  0.3571E+02  0.7083E+02  0.7073E+02
     -5.113  0.2362E+02  0.2514E+02  0.7203E+02  0.7200E+02
     -5.062  0.7049E+02  0.6784E+02  0.7560E+02  0.7544E+02
     -5.012  0.1705E+02  0.1566E+02  0.7646E+02  0.7623E+02
     -4.961  0.8493E+02  0.7840E+02  0.8076E+02  0.8020E+02
     -4.910  0.1235E+03  0.1278E+03  0.8701E+02  0.8667E+02
     -4.860  0.4228E+02  0.4570E+02  0.8915E+02  0.8898E+02
     -4.809  0.6535E+02  0.6193E+02  0.9246E+02  0.9211E+02
     -4.759  0.5045E+02  0.5399E+02  0.9501E+02  0.9485E+02
     -4.708  0.7443E+02  0.6962E+02  0.9878E+02  0.9837E+02
     -4.657  0.1501E+02  0.2173E+02  0.9954E+02  0.9947E+02
     -4.607  0.2123E+02  0.2133E+02  0.1006E+03  0.1005E+03
     -4.556  0.4440E+02  0.4061E+02  0.1029E+03  0.1026E+03
     -4.506  0.6138E+02  0.6383E+02  0.1060E+03  0.1058E+03
     -4.455  0.4784E+02  0.4683E+02  0.1084E+03  0.1082E+03
     -4.404  0.2811E+02  0.2996E+02  0.1098E+03  0.1097E+03
     -4.354  0.2627E+02  0.2222E+02  0.1111E+03  0.1108E+03
     -4.303  0.3680E+02  0.4258E+02  0.1130E+03  0.1130E+03
     -4.253  0.5405E+02  0.5166E+02  0.1157E+03  0.1156E+03
     -4.202  0.5153E+02  0.4706E+02  0.1183E+03  0.1180E+03
     -4.151  0.5759E+02  0.6088E+02  0.1213E+03  0.1211E+03
     -4.101  0.8788E+01  0.8784E+01  0.1217E+03  0.1215E+03
     -4.050  0.7749E+02  0.6851E+02  0.1256E+03  0.1250E+03
     -3.999  0.5828E+02  0.6848E+02  0.1286E+03  0.1285E+03
     -3.949  0.2042E+02  0.1886E+02  0.1296E+03  0.1294E+03
     -3.898  0.2797E+02  0.2948E+02  0.1310E+03  0.1309E+03
     -3.848  0.3520E+02  0.3354E+02  0.1328E+03  0.1326E+03
     -3.797  0.4150E+02  0.4229E+02  0.1349E+03  0.1347E+03
     -3.746  0.5433E+02  0.5507E+02  0.1377E+03  0.1375E+03
     -3.696  0.1718E+02  0.1614E+02  0.1385E+03  0.1383E+03
     -3.645  0.2702E+02  0.2617E+02  0.1399E+03  0.1397E+03
     -3.595  0.1851E+02  0.1517E+02  0.1408E+03  0.1404E+03
     -3.544  0.4789E+02  0.4782E+02  0.1433E+03  0.1429E+03
     -3.493  0.4625E+02  0.4302E+02  0.1456E+03  0.1450E+03
     -3.443  0.6415E+02  0.6809E+02  0.1488E+03  0.1485E+03
     -3.392  0.4015E+02  0.4058E+02  0.1509E+03  0.1505E+03
     -3.342  0.1912E+02  0.2309E+02  0.1518E+03  0.1517E+03
     -3.291  0.2307E+02  0.2567E+02  0.1530E+03  0.1530E+03
     -3.240  0.4161E+02  0.3538E+02  0.1551E+03  0.1548E+03
     -3.190  0.1137E+02  0.1738E+02  0.1557E+03  0.1557E+03
     -3.139  0.3068E+02  0.2480E+02  0.1572E+03  0.1569E+03
     -3.088  0.3313E+02  0.3544E+02  0.1589E+03  0.1587E+03
     -3.038  0.2372E+02  0.1267E+02  0.1601E+03  0.1594E+03
     -2.987  0.1973E+02  0.3310E+02  0.1611E+03  0.1610E+03
     -2.937  0.3065E+02  0.3224E+02  0.1627E+03  0.1627E+03
     -2.886  0.4890E+02  0.3812E+02  0.1651E+03  0.1646E+03
     -2.835  0.2741E+02  0.3346E+02  0.1665E+03  0.1663E+03
     -2.785  0.4003E+02  0.3970E+02  0.1686E+03  0.1683E+03
     -2.734  0.5987E+02  0.5699E+02  0.1716E+03  0.1712E+03
     -2.684  0.7557E+02  0.7832E+02  0.1754E+03  0.1751E+03
     -2.633  0.6544E+02  0.5757E+02  0.1787E+03  0.1781E+03
     -2.582  0.3108E+02  0.4030E+02  0.1803E+03  0.1801E+03
     -2.532  0.7250E+02  0.7116E+02  0.1840E+03  0.1837E+03
     -2.481  0.5238E+02  0.5402E+02  0.1866E+03  0.1864E+03
     -2.431  0.7044E+02  0.6567E+02  0.1902E+03  0.1898E+03
     -2.380  0.4194E+02  0.4334E+02  0.1923E+03  0.1920E+03
     -2.329  0.5774E+02  0.6189E+02  0.1952E+03  0.1951E+03
     -2.279  0.5427E+02  0.5458E+02  0.1980E+03  0.1978E+03
     -2.228  0.4689E+02  0.4596E+02  0.2003E+03  0.2002E+03
     -2.178  0.7347E+02  0.6324E+02  0.2041E+03  0.2034E+03
     -2.127  0.3760E+02  0.4781E+02  0.2060E+03  0.2058E+03
     -2.076  0.5494E+02  0.5285E+02  0.2087E+03  0.2085E+03
     -2.026  0.6303E+02  0.6477E+02  0.2119E+03  0.2117E+03
     -1.975  0.6940E+02  0.6327E+02  0.2154E+03  0.2149E+03
     -1.924  0.6238E+02  0.6748E+02  0.2186E+03  0.2184E+03
     -1.874  0.4167E+02  0.4036E+02  0.2207E+03  0.2204E+03
     -1.823  0.3868E+02  0.4471E+02  0.2227E+03  0.2227E+03
     -1.773  0.2591E+02  0.2174E+02  0.2240E+03  0.2238E+03
     -1.722  0.1749E+02  0.1791E+02  0.2249E+03  0.2247E+03
     -1.671  0.4488E+02  0.3713E+02  0.2271E+03  0.2266E+03
     -1.621  0.8881E+02  0.8697E+02  0.2316E+03  0.2310E+03
     -1.570  0.3385E+02  0.4703E+02  0.2333E+03  0.2333E+03
     -1.520  0.8691E+01  0.6942E+01  0.2338E+03  0.2337E+03
     -1.469  0.3794E+02  0.3569E+02  0.2357E+03  0.2355E+03
     -1.418  0.3101E+02  0.3220E+02  0.2373E+03  0.2371E+03
     -1.368  0.1979E+02  0.1979E+02  0.2383E+03  0.2381E+03
     -1.317  0.4959E+02  0.4722E+02  0.2408E+03  0.2405E+03
     -1.267  0.5703E+02  0.6080E+02  0.2437E+03  0.2436E+03
     -1.216  0.2466E+02  0.2249E+02  0.2449E+03  0.2447E+03
     -1.165  0.3521E+02  0.3781E+02  0.2467E+03  0.2466E+03
     -1.115  0.5509E+02  0.5166E+02  0.2495E+03  0.2493E+03
     -1.064  0.1052E+02  0.1475E+02  0.2500E+03  0.2500E+03
     -1.013  0.5551E+02  0.4729E+02  0.2528E+03  0.2524E+03
     -0.963  0.2311E+02  0.3156E+02  0.2540E+03  0.2540E+03
     -0.912  0.1310E+02  0.1328E+02  0.2547E+03  0.2547E+03
     -0.862  0.1524E+02  0.1372E+02  0.2554E+03  0.2554E+03
     -0.811  0.1109E+02  0.1263E+02  0.2560E+03  0.2560E+03
     -0.760  0.2585E+02  0.1986E+02  0.2573E+03  0.2570E+03
     -0.710  0.1957E+02  0.2315E+02  0.2583E+03  0.2582E+03
     -0.659  0.6103E+02  0.5650E+02  0.2614E+03  0.2610E+03
     -0.609  0.5232E+02  0.5571E+02  0.2640E+03  0.2639E+03
     -0.558  0.3326E+02  0.3582E+02  0.2657E+03  0.2657E+03
     -0.507  0.1215E+02  0.1314E+02  0.2663E+03  0.2663E+03
     -0.457  0.1364E+02  0.1302E+02  0.2670E+03  0.2670E+03
     -0.406  0.1929E+02  0.1991E+02  0.2680E+03  0.2680E+03
     -0.356  0.4932E+01  0.1940E+01  0.2682E+03  0.2681E+03
     -0.305  0.3679E+02  0.2637E+02  0.2701E+03  0.2694E+03
     -0.254  0.4389E+02  0.5722E+02  0.2723E+03  0.2723E+03
     -0.204  0.1975E+02  0.1958E+02  0.2733E+03  0.2733E+03
     -0.153  0.6574E+01  0.6249E+01  0.2737E+03  0.2736E+03
     -0.102  0.5986E+01  0.2080E+01  0.2740E+03  0.2737E+03
     -0.052  0.4673E+02  0.5121E+02  0.2763E+03  0.2763E+03
     -0.001  0.2306E+02  0.1694E+02  0.2775E+03  0.2772E+03
      0.049  0.2044E+02  0.2475E+02  0.2785E+03  0.2784E+03
      0.100  0.7150E+02  0.6275E+02  0.2822E+03  0.2816E+03
      0.151  0.3820E+02  0.4267E+02  0.2841E+03  0.2838E+03
      0.201  0.9279E+02  0.8941E+02  0.2888E+03  0.2883E+03
      0.252  0.5991E+02  0.6233E+02  0.2918E+03  0.2915E+03
      0.302  0.7224E+02  0.7447E+02  0.2955E+03  0.2952E+03
      0.353  0.2966E+02  0.3149E+02  0.2970E+03  0.2968E+03
      0.404  0.6735E+01  0.7153E+01  0.2973E+03  0.2972E+03
      0.454  0.6655E+02  0.6309E+02  0.3007E+03  0.3004E+03
      0.505  0.7037E+02  0.6868E+02  0.3042E+03  0.3039E+03
      0.555  0.5412E+02  0.5704E+02  0.3070E+03  0.3067E+03
      0.606  0.5665E+02  0.5409E+02  0.3098E+03  0.3095E+03
      0.657  0.6751E+02  0.6998E+02  0.3133E+03  0.3130E+03
      0.707  0.6771E+02  0.5947E+02  0.3167E+03  0.3160E+03
      0.758  0.9151E+02  0.1002E+03  0.3213E+03  0.3211E+03
      0.808  0.9365E+02  0.8101E+02  0.3261E+03  0.3252E+03
      0.859  0.7944E+02  0.8544E+02  0.3301E+03  0.3295E+03
      0.910  0.9159E+02  0.9519E+02  0.3347E+03  0.3343E+03
      0.960  0.7723E+02  0.6665E+02  0.3386E+03  0.3377E+03
      1.011  0.1352E+03  0.1424E+03  0.3455E+03  0.3449E+03
      1.062  0.8699E+02  0.8142E+02  0.3499E+03  0.3490E+03
      1.112  0.1334E+03  0.1437E+03  0.3566E+03  0.3563E+03
      1.163  0.1022E+03  0.9349E+02  0.3618E+03  0.3610E+03
      1.213  0.1136E+03  0.1123E+03  0.3675E+03  0.3667E+03
      1.264  0.7490E+02  0.8289E+02  0.3713E+03  0.3709E+03
      1.315  0.7759E+02  0.7822E+02  0.3753E+03  0.3749E+03
      1.365  0.7746E+02  0.7827E+02  0.3792E+03  0.3788E+03
      1.416  0.7999E+02  0.6848E+02  0.3832E+03  0.3823E+03
      1.466  0.9656E+02  0.1045E+03  0.3881E+03  0.3876E+03
      1.517  0.1066E+03  0.1085E+03  0.3935E+03  0.3931E+03
      1.568  0.1187E+03  0.1165E+03  0.3995E+03  0.3990E+03
      1.618  0.1060E+03  0.9705E+02  0.4049E+03  0.4039E+03
      1.669  0.1120E+03  0.1239E+03  0.4106E+03  0.4102E+03
      1.719  0.7833E+02  0.7970E+02  0.4145E+03  0.4142E+03
      1.770  0.1050E+03  0.1051E+03  0.4198E+03  0.4195E+03
      1.821  0.8148E+02  0.7227E+02  0.4240E+03  0.4232E+03
      1.871  0.1070E+03  0.1140E+03  0.4294E+03  0.4290E+03
      1.922  0.6264E+02  0.6494E+02  0.4325E+03  0.4322E+03
      1.973  0.9561E+02  0.1003E+03  0.4374E+03  0.4373E+03
      2.023  0.8276E+02  0.7565E+02  0.4416E+03  0.4411E+03
      2.074  0.1111E+03  0.1002E+03  0.4472E+03  0.4462E+03
      2.124  0.1025E+03  0.1155E+03  0.4524E+03  0.4521E+03
      2.175  0.8817E+02  0.8374E+02  0.4568E+03  0.4563E+03
      2.226  0.1143E+03  0.1211E+03  0.4626E+03  0.4624E+03
      2.276  0.4692E+02  0.4370E+02  0.4650E+03  0.4646E+03
      2.327  0.1166E+03  0.1177E+03  0.4709E+03  0.4706E+03
      2.377  0.9664E+02  0.9265E+02  0.4758E+03  0.4753E+03
      2.428  0.8338E+02  0.8589E+02  0.4800E+03  0.4796E+03
      2.479  0.7828E+02  0.7684E+02  0.4840E+03  0.4835E+03
      2.529  0.9085E+02  0.8529E+02  0.4886E+03  0.4878E+03
      2.580  0.1073E+03  0.1099E+03  0.4940E+03  0.4934E+03
      2.630  0.9031E+02  0.9223E+02  0.4986E+03  0.4981E+03
      2.681  0.7615E+02  0.8081E+02  0.5024E+03  0.5022E+03
      2.732  0.6348E+02  0.6073E+02  0.5056E+03  0.5052E+03
      2.782  0.7264E+02  0.6437E+02  0.5093E+03  0.5085E+03
      2.833  0.1062E+03  0.1054E+03  0.5147E+03  0.5138E+03
      2.884  0.8488E+02  0.9008E+02  0.5190E+03  0.5184E+03
      2.934  0.7961E+02  0.8626E+02  0.5230E+03  0.5227E+03
      2.985  0.4448E+02  0.4121E+02  0.5253E+03  0.5248E+03
      3.035  0.7061E+02  0.7033E+02  0.5288E+03  0.5284E+03
      3.086  0.5981E+02  0.6315E+02  0.5319E+03  0.5316E+03
      3.137  0.4674E+02  0.4420E+02  0.5342E+03  0.5338E+03
      3.187  0.3043E+02  0.3624E+02  0.5358E+03  0.5357E+03
      3.238  0.4200E+02  0.2674E+02  0.5379E+03  0.5370E+03
      3.288  0.4971E+02  0.5946E+02  0.5404E+03  0.5400E+03
      3.339  0.5772E+02  0.5569E+02  0.5433E+03  0.5428E+03
      3.390  0.5856E+02  0.5799E+02  0.5463E+03  0.5458E+03
      3.440  0.4477E+02  0.4432E+02  0.5486E+03  0.5480E+03
      3.491  0.3294E+02  0.2723E+02  0.5502E+03  0.5494E+03
      3.541  0.4939E+02  0.6037E+02  0.5527E+03  0.5524E+03
      3.592  0.4355E+02  0.3850E+02  0.5549E+03  0.5544E+03
      3.643  0.5170E+02  0.4808E+02  0.5575E+03  0.5568E+03
      3.693  0.6031E+02  0.5439E+02  0.5606E+03  0.5596E+03
      3.744  0.4437E+02  0.5220E+02  0.5628E+03  0.5622E+03
      3.794  0.4952E+02  0.4989E+02  0.5654E+03  0.5648E+03
      3.845  0.6280E+02  0.6410E+02  0.5685E+03  0.5680E+03
      3.896  0.2078E+02  0.2650E+02  0.5696E+03  0.5693E+03
      3.946  0.4020E+02  0.2531E+02  0.5716E+03  0.5706E+03
      3.997  0.5086E+02  0.5889E+02  0.5742E+03  0.5736E+03
      4.048  0.4351E+02  0.4579E+02  0.5764E+03  0.5759E+03
      4.098  0.4570E+02  0.4599E+02  0.5787E+03  0.5782E+03
      4.149  0.4610E+02  0.5189E+02  0.5810E+03  0.5809E+03
      4.199  0.2853E+02  0.1661E+02  0.5825E+03  0.5817E+03
      4.250  0.5997E+02  0.6436E+02  0.5855E+03  0.5850E+03
      4.301  0.3021E+02  0.3965E+02  0.5870E+03  0.5870E+03
      4.351  0.3257E+02  0.2194E+02  0.5887E+03  0.5881E+03
      4.402  0.3933E+02  0.4196E+02  0.5907E+03  0.5902E+03
      4.452  0.3924E+02  0.4218E+02  0.5927E+03  0.5923E+03
      4.503  0.2400E+02  0.1925E+02  0.5939E+03  0.5933E+03
      4.554  0.4174E+02  0.4773E+02  0.5960E+03  0.5957E+03
      4.604  0.4633E+02  0.4635E+02  0.5983E+03  0.5981E+03
      4.655  0.3193E+02  0.2783E+02  0.6000E+03  0.5995E+03
      4.705  0.5366E+02  0.6008E+02  0.6027E+03  0.6025E+03
      4.756  0.4870E+02  0.4398E+02  0.6051E+03  0.6048E+03
      4.807  0.4575E+02  0.3874E+02  0.6075E+03  0.6067E+03
      4.857  0.6218E+02  0.6589E+02  0.6106E+03  0.6100E+03
      4.908  0.6101E+02  0.6242E+02  0.6137E+03  0.6132E+03
      4.959  0.8044E+02  0.6540E+02  0.6178E+03  0.6165E+03
      5.009  0.5003E+02  0.6904E+02  0.6203E+03  0.6200E+03
      5.060  0.4617E+02  0.4584E+02  0.6226E+03  0.6223E+03
      5.110  0.5258E+02  0.4513E+02  0.6253E+03  0.6246E+03
      5.161  0.4736E+02  0.5082E+02  0.6277E+03  0.6272E+03
      5.212  0.4487E+02  0.4817E+02  0.6300E+03  0.6296E+03
      5.262  0.6508E+02  0.6047E+02  0.6333E+03  0.6327E+03
      5.313  0.8398E+02  0.8594E+02  0.6375E+03  0.6370E+03
      5.363  0.7884E+02  0.7565E+02  0.6415E+03  0.6409E+03
      5.414  0.7252E+02  0.7947E+02  0.6452E+03  0.6449E+03
      5.465  0.6298E+02  0.6283E+02  0.6484E+03  0.6481E+03
      5.515  0.7499E+02  0.6842E+02  0.6521E+03  0.6515E+03
      5.566  0.1083E+03  0.9938E+02  0.6576E+03  0.6566E+03
      5.616  0.9783E+02  0.1139E+03  0.6626E+03  0.6623E+03
      5.667  0.6791E+02  0.6844E+02  0.6660E+03  0.6658E+03
      5.718  0.8944E+02  0.8294E+02  0.6705E+03  0.6700E+03
      5.768  0.8069E+02  0.8498E+02  0.6746E+03  0.6743E+03
      5.819  0.7325E+02  0.7220E+02  0.6783E+03  0.6779E+03
      5.870  0.5009E+02  0.5208E+02  0.6809E+03  0.6806E+03
      5.920  0.1131E+03  0.1146E+03  0.6866E+03  0.6864E+03
      5.971  0.8417E+02  0.8054E+02  0.6909E+03  0.6905E+03
      6.021  0.5410E+02  0.5602E+02  0.6936E+03  0.6933E+03
      6.072  0.4668E+02  0.3917E+02  0.6960E+03  0.6953E+03
      6.123  0.9533E+00  0.1446E+02  0.6960E+03  0.6960E+03
      6.173  0.0000E+00  0.0000E+00  0.6960E+03  0.6960E+03
      6.224  0.0000E+00  0.0000E+00  0.6960E+03  0.6960E+03
      6.274  0.0000E+00  0.0000E+00  0.6960E+03  0.6960E+03
      6.325  0.0000E+00  0.0000E+00  0.6960E+03  0.6960E+03
      6.376  0.0000E+00  0.0000E+00  0.6960E+03  0.6960E+03
      6.426  0.0000E+00  0.0000E+00  0.6960E+03  0.6960E+03
      6.477  0.0000E+00  0.0000E+00  0.6960E+03  0.6960E+03
      6.527  0.0000E+00  0.0000E+00  0.6960E+03  0.6960E+03
      6.578  0.0000E+00  0.0000E+00  0.6960E+03  0.6960E+03
      6.629  0.0000E+00  0.0000E+00  0.6960E+03  0.6960E+03
      6.679  0.0000E+00  0.0000E+00  0.6960E+03  0.6960E+03
      6.730  0.0000E+00  0.0000E+00  0.6960E+03  0.6960E+03
      6.781  0.0000E+00  0.0000E+00  0.6960E+03  0.6960E+03
