Si and Ge interface calculation         
           1
     9.406768    0.000000    0.000000
     0.000000   13.303180    0.000000
     0.000000    0.000000   21.072138
   Si   Sn
    72    48
Direct configuration=     1
   0.66666669  0.64518398  0.00000000
   0.66666663  0.39518389  0.09112263
   0.66666663  0.14518382  0.18224527
   0.66666657  0.89518374  0.27336791
   0.66666657  0.64518368  0.36449054
   0.66666651  0.39518350  0.45561320
   0.33333331  0.31185061  0.00000000
   0.33333331  0.06185054  0.09112263
   0.33333328  0.81185049  0.18224527
   0.33333325  0.56185043  0.27336791
   0.33333319  0.31185031  0.36449054
   0.33333316  0.06185019  0.45561320
   0.00000000  0.97851729  0.00000000
   0.99999994  0.72851718  0.09112263
   0.99999994  0.47851712  0.18224527
   0.99999988  0.22851706  0.27336791
   0.99999982  0.97851694  0.36449054
   0.99999982  0.72851682  0.45561320
   0.66666669  0.14518392  0.00000000
   0.66666669  0.89518386  0.09112263
   0.66666663  0.64518380  0.18224527
   0.66666657  0.39518374  0.27336788
   0.66666651  0.14518362  0.36449054
   0.66666651  0.89518356  0.45561317
   0.33333337  0.81185067  0.00000000
   0.33333334  0.56185061  0.09112263
   0.33333331  0.31185058  0.18224527
   0.33333328  0.06185051  0.27336791
   0.33333319  0.81185043  0.36449054
   0.33333316  0.56185031  0.45561317
   0.00000000  0.47851729  0.00000000
   0.99999994  0.22851721  0.09112263
   0.99999994  0.97851712  0.18224527
   0.99999988  0.72851706  0.27336788
   0.99999982  0.47851694  0.36449054
   0.99999982  0.22851688  0.45561320
   0.91666675  0.64518392  0.00000000
   0.91666675  0.39518380  0.09112264
   0.91666675  0.14518379  0.18224527
   0.91666669  0.89518368  0.27336791
   0.91666663  0.64518356  0.36449054
   0.91666663  0.39518344  0.45561320
   0.58333337  0.31185064  0.00000000
   0.58333331  0.06185056  0.09112262
   0.58333331  0.81185049  0.18224527
   0.58333325  0.56185043  0.27336788
   0.58333325  0.31185031  0.36449054
   0.58333319  0.06185025  0.45561317
   0.25000000  0.97851729  0.00000000
   0.24999997  0.72851718  0.09112263
   0.24999992  0.47851718  0.18224527
   0.24999991  0.22851712  0.27336788
   0.24999982  0.97851694  0.36449054
   0.24999979  0.72851682  0.45561317
   0.91666675  0.14518394  0.00000001
   0.91666669  0.89518386  0.09112263
   0.91666663  0.64518380  0.18224527
   0.91666657  0.39518374  0.27336788
   0.91666651  0.14518362  0.36449054
   0.91666651  0.89518344  0.45561317
   0.58333331  0.81185055  0.00000000
   0.58333325  0.56185049  0.09112263
   0.58333325  0.31185043  0.18224527
   0.58333319  0.06185036  0.27336788
   0.58333319  0.81185025  0.36449054
   0.58333313  0.56185013  0.45561317
   0.24999999  0.47851726  0.00000000
   0.24999995  0.22851721  0.09112263
   0.24999992  0.97851712  0.18224527
   0.24999987  0.72851706  0.27336788
   0.24999985  0.47851694  0.36449054
   0.24999982  0.22851682  0.45561320
   0.98202050  0.98202050  0.45561317
   0.73202050  0.73202050  0.56449056
   0.48202044  0.48202044  0.67336786
   0.23202044  0.23202044  0.78224528
   0.98202038  0.98202038  0.89112258
   0.73202038  0.73202038  0.00000000
   0.98202050  0.48202050  0.45561317
   0.73202050  0.23202048  0.56449056
   0.48202044  0.98202044  0.67336786
   0.23202044  0.73202038  0.78224528
   0.98202038  0.48202038  0.89112258
   0.73202038  0.23202032  0.00000000
   0.48202047  0.98202050  0.45561317
   0.23202047  0.73202050  0.56449056
   0.98202044  0.48202044  0.67336786
   0.73202038  0.23202044  0.78224528
   0.48202038  0.98202038  0.89112258
   0.23202032  0.73202038  0.00000000
   0.48202047  0.48202050  0.45561317
   0.23202047  0.23202048  0.56449056
   0.98202044  0.98202044  0.67336786
   0.73202038  0.73202038  0.78224528
   0.48202038  0.48202038  0.89112258
   0.23202032  0.23202032  0.00000000
   0.73202044  0.35702050  0.45561317
   0.48202044  0.10702047  0.56449056
   0.23202038  0.85702038  0.67336786
   0.98202032  0.60702038  0.78224528
   0.73202032  0.35702032  0.89112258
   0.48202032  0.10702032  0.00000000
   0.73202044  0.85702044  0.45561317
   0.48202044  0.60702044  0.56449056
   0.23202038  0.35702038  0.67336786
   0.98202032  0.10702033  0.78224528
   0.73202032  0.85702038  0.89112258
   0.48202032  0.60702026  0.00000000
   0.23202048  0.35702050  0.45561317
   0.98202050  0.10702047  0.56449056
   0.73202038  0.85702038  0.67336786
   0.48202032  0.60702038  0.78224528
   0.23202038  0.35702032  0.89112258
   0.98202038  0.10702032  0.00000000
   0.23202048  0.85702044  0.45561317
   0.98202050  0.60702044  0.56449056
   0.73202038  0.35702038  0.67336786
   0.48202032  0.10702033  0.78224528
   0.23202038  0.85702038  0.89112258
   0.98202038  0.60702026  0.00000000
