Si Bulk DFT energetics calculations using VASP\n
This script is running on comp120.cluster.local in /lustre/home/ah1365/projects/127870/upgrade_report/case_studies/common/structures/interfaces/168_Ge96Sn72_011_011_a0.116071_b0.591195_c2.065574_interface9shift2\n
Job started on: Sun  8 Jun 20:08:15 UTC 2025\n
 running   64 mpi-ranks, on    4 nodes
 distrk:  each k-point on   64 cores,    1 groups
 distr:  one band on   16 cores,    4 groups
 vasp.6.4.3 19Mar24 (build Oct 22 2024 11:23:12) complex                        
  
 POSCAR found type information on POSCAR GeSn
 POSCAR found :  2 types and     168 ions
 -----------------------------------------------------------------------------
|                                                                             |
|           W    W    AA    RRRRR   N    N  II  N    N   GGGG   !!!           |
|           W    W   A  A   R    R  NN   N  II  NN   N  G    G  !!!           |
|           W    W  A    A  R    R  N N  N  II  N N  N  G       !!!           |
|           W WW W  AAAAAA  RRRRR   N  N N  II  N  N N  G  GGG   !            |
|           WW  WW  A    A  R   R   N   NN  II  N   NN  G    G                |
|           W    W  A    A  R    R  N    N  II  N    N   GGGG   !!!           |
|                                                                             |
|     You use a magnetic or noncollinear calculation, but did not specify     |
|     the initial magnetic moment with the MAGMOM tag. Note that a            |
|     default of 5.952e-3 will be used for all atoms. This ferromagnetic      |
|     setup may break the symmetry of the crystal, in particular it may       |
|     rule out finding an antiferromagnetic solution. Thence, we              |
|     recommend setting the initial magnetic moment manually or verifying     |
|     carefully that this magnetic setup is desired.                          |
|                                                                             |
 -----------------------------------------------------------------------------

 scaLAPACK will be used
 WARNING: PSMAXN for non-local potential too small
 LDA part: xc-table for (Slater+PW92), standard interpolation
 POSCAR, INCAR and KPOINTS ok, starting setup
 FFT: planning ... GRIDC
 FFT: planning ... GRID_SOFT
 FFT: planning ... GRID
 WAVECAR not read
 entering main loop
       N       E                     dE             d eps       ncg     rms          rms(c)
DAV:   1     0.345981612240E+04    0.34598E+04   -0.28007E+05  6464   0.168E+03
DAV:   2    -0.255063818503E+03   -0.37149E+04   -0.35908E+04  7592   0.199E+02
DAV:   3    -0.664517363637E+03   -0.40945E+03   -0.39821E+03  7904   0.649E+01
DAV:   4    -0.681323233272E+03   -0.16806E+02   -0.16511E+02  7872   0.130E+01
DAV:   5    -0.681993404536E+03   -0.67017E+00   -0.66532E+00  8528   0.226E+00    0.294E+01
DAV:   6    -0.672500736676E+03    0.94927E+01   -0.23286E+01  9968   0.888E+00    0.145E+01
DAV:   7    -0.675913942917E+03   -0.34132E+01   -0.38200E+01  9312   0.132E+01    0.705E+00
DAV:   8    -0.671157860477E+03    0.47561E+01   -0.18676E+01 10200   0.980E+00    0.328E+00
DAV:   9    -0.670508519636E+03    0.64934E+00   -0.78127E+00  8376   0.471E+00    0.179E+00
DAV:  10    -0.670495678608E+03    0.12841E-01   -0.19289E+00  7344   0.190E+00    0.118E+00
DAV:  11    -0.670484039782E+03    0.11639E-01   -0.33087E-01  8192   0.651E-01    0.600E-01
DAV:  12    -0.670487055257E+03   -0.30155E-02   -0.78358E-02  7568   0.364E-01    0.211E-01
DAV:  13    -0.670488312348E+03   -0.12571E-02   -0.12705E-02  7400   0.142E-01    0.129E-01
DAV:  14    -0.670488694954E+03   -0.38261E-03   -0.17027E-03  7648   0.517E-02    0.836E-02
DAV:  15    -0.670488758673E+03   -0.63718E-04   -0.31876E-04  7680   0.233E-02    0.529E-02
DAV:  16    -0.670488835590E+03   -0.76918E-04   -0.19101E-04  7136   0.175E-02    0.284E-02
DAV:  17    -0.670488857816E+03   -0.22226E-04   -0.39228E-05  7488   0.992E-03    0.213E-02
DAV:  18    -0.670488863806E+03   -0.59905E-05   -0.12563E-05  7776   0.489E-03    0.174E-02
DAV:  19    -0.670488876223E+03   -0.12417E-04   -0.85492E-06  7504   0.435E-03    0.137E-02
DAV:  20    -0.670488889605E+03   -0.13382E-04   -0.74717E-06  7560   0.400E-03    0.986E-03
DAV:  21    -0.670488895912E+03   -0.63076E-05   -0.42045E-06  7736   0.314E-03    0.649E-03
DAV:  22    -0.670488897228E+03   -0.13161E-05   -0.23408E-06  7664   0.223E-03    0.364E-03
DAV:  23    -0.670488897897E+03   -0.66823E-06   -0.11063E-06  7784   0.157E-03    0.143E-03
DAV:  24    -0.670488898374E+03   -0.47730E-06   -0.39920E-07  5816   0.805E-04    0.634E-04
DAV:  25    -0.670488898509E+03   -0.13557E-06   -0.59844E-08  3944   0.382E-04    0.388E-04
DAV:  26    -0.670488898535E+03   -0.25455E-07   -0.23039E-08  3864   0.202E-04
   1 F= -.67048890E+03 E0= -.67048769E+03  d E =-.240867E-02  mag=     1.0000
Job ended on: Sun  8 Jun 20:30:24 UTC 2025\n
