 vasp.6.4.3 19Mar24 (build Oct 22 2024 11:23:12) complex                        
  
 executed on             LinuxIFC date 2025.06.12  19:26:04
 running   64 mpi-ranks, on    4 nodes
 distrk:  each k-point on   64 cores,    1 groups
 distr:  one band on NCORE=  16 cores,    4 groups


--------------------------------------------------------------------------------------------------------


 INCAR:
   SYSTEM = Si and Ge interface calculation
   ISTART = 0
   ICHARG = 2
   LWAVE = .FALSE.
   LREAL = AUTO
   ENCUT = 700
   ENAUG = 900
   ADDGRID = .TRUE.
   LMAXMIX = 6
   LASPH = .TRUE.
   LMIXTAU = .TRUE.
   NCORE = 16
   NELM = 100
   NBANDS = 634
   EDIFF = 1d-7
   AMIX = 0.6
   ISMEAR = 0
   SIGMA = 0.01
   NELECT = 1056
   ISPIN = 2
   NUPDOWN = 1
   LVTOT = .FALSE.
   LVHAR = .TRUE.

 POTCAR:    PAW_PBE Sn 08Apr2002                  
 POTCAR:    PAW_PBE Si 05Jan2001                  
 -----------------------------------------------------------------------------
|                                                                             |
|           W    W    AA    RRRRR   N    N  II  N    N   GGGG   !!!           |
|           W    W   A  A   R    R  NN   N  II  NN   N  G    G  !!!           |
|           W    W  A    A  R    R  N N  N  II  N N  N  G       !!!           |
|           W WW W  AAAAAA  RRRRR   N  N N  II  N  N N  G  GGG   !            |
|           WW  WW  A    A  R   R   N   NN  II  N   NN  G    G                |
|           W    W  A    A  R    R  N    N  II  N    N   GGGG   !!!           |
|                                                                             |
|     You use a magnetic or noncollinear calculation, but did not specify     |
|     the initial magnetic moment with the MAGMOM tag. Note that a            |
|     default of 3.788e-3 will be used for all atoms. This ferromagnetic      |
|     setup may break the symmetry of the crystal, in particular it may       |
|     rule out finding an antiferromagnetic solution. Thence, we              |
|     recommend setting the initial magnetic moment manually or verifying     |
|     carefully that this magnetic setup is desired.                          |
|                                                                             |
 -----------------------------------------------------------------------------

 POTCAR:    PAW_PBE Sn 08Apr2002                  
   VRHFIN =Sn: s2p2                                                                                 
   LEXCH  = PE                                                                                      
   EATOM  =    94.0860 eV,    6.9151 Ry                                                             
                                                                                                    
   TITEL  = PAW_PBE Sn 08Apr2002                                                                    
   LULTRA =        F    use ultrasoft PP ?                                                          
   IUNSCR =        1    unscreen: 0-lin 1-nonlin 2-no                                               
   RPACOR =    2.000    partial core radius                                                         
   POMASS =  118.710; ZVAL   =    4.000    mass and valenz                                          
   RCORE  =    3.000    outmost cutoff radius                                                       
   RWIGS  =    2.960; RWIGS  =    1.566    wigner-seitz radius (au A)                               
   ENMAX  =  103.236; ENMIN  =   77.427 eV                                                          
   ICORE  =        3    local potential                                                             
   LCOR   =        T    correct aug charges                                                         
   LPAW   =        T    paw PP                                                                      
   EAUG   =  263.585                                                                                
   DEXC   =    0.000                                                                                
   RMAX   =    3.078    core radius for proj-oper                                                   
   RAUG   =    1.300    factor for augmentation sphere                                              
   RDEP   =    3.022    radius for radial grids                                                     
   RDEPT  =    2.655    core radius for aug-charge                                                  
                                                                                                    
   Atomic configuration                                                                             
   13 entries                                                                                       
     n  l   j            E        occ.                                                              
     1  0  0.50    -29007.2859   2.0000                                                             
     2  0  0.50     -4378.8056   2.0000                                                             
     2  1  1.50     -3930.4293   6.0000                                                             
     3  0  0.50      -845.0264   2.0000                                                             
     3  1  1.50      -698.5725   6.0000                                                             
     3  2  2.50      -473.2839  10.0000                                                             
     4  0  0.50      -133.9036   2.0000                                                             
     4  1  1.50       -89.6752   6.0000                                                             
     4  2  2.50       -25.8375  10.0000                                                             
     5  0  0.50       -10.5484   2.0000                                                             
     5  1  0.50        -3.6940   2.0000                                                             
     5  2  1.50        -1.3606   0.0000                                                             
     4  3  2.50        -4.0817   0.0000                                                             
   Description                                                                                      
     l       E           TYP  RCUT    TYP  RCUT                                                     
     0    -10.5483727     23  3.000                                                                 
     0     27.2116520     23  3.000                                                                 
     1     -3.6939829     23  3.000                                                                 
     1      1.9821976     23  3.000                                                                 
     2     -1.3605826     23  3.000                                                                 
     3     -2.7211652     23  3.000                                                                 
  local pseudopotential read in
  partial core-charges read in
  partial kinetic energy density read in
  atomic valenz-charges read in
  non local Contribution for L=           0  read in
    real space projection operators read in
  non local Contribution for L=           0  read in
    real space projection operators read in
  non local Contribution for L=           1  read in
    real space projection operators read in
  non local Contribution for L=           1  read in
    real space projection operators read in
  non local Contribution for L=           2  read in
    real space projection operators read in
    PAW grid and wavefunctions read in
 
   number of l-projection  operators is LMAX  =           5
   number of lm-projection operators is LMMAX =          13
 
 POTCAR:    PAW_PBE Si 05Jan2001                  
   VRHFIN =Si: s2p2                                                                                 
   LEXCH  = PE                                                                                      
   EATOM  =   103.0669 eV,    7.5752 Ry                                                             
                                                                                                    
   TITEL  = PAW_PBE Si 05Jan2001                                                                    
   LULTRA =        F    use ultrasoft PP ?                                                          
   IUNSCR =        1    unscreen: 0-lin 1-nonlin 2-no                                               
   RPACOR =    1.500    partial core radius                                                         
   POMASS =   28.085; ZVAL   =    4.000    mass and valenz                                          
   RCORE  =    1.900    outmost cutoff radius                                                       
   RWIGS  =    2.480; RWIGS  =    1.312    wigner-seitz radius (au A)                               
   ENMAX  =  245.345; ENMIN  =  184.009 eV                                                          
   ICORE  =        2    local potential                                                             
   LCOR   =        T    correct aug charges                                                         
   LPAW   =        T    paw PP                                                                      
   EAUG   =  322.069                                                                                
   DEXC   =    0.000                                                                                
   RMAX   =    1.950    core radius for proj-oper                                                   
   RAUG   =    1.300    factor for augmentation sphere                                              
   RDEP   =    1.993    radius for radial grids                                                     
   RDEPT  =    1.837    core radius for aug-charge                                                  
                                                                                                    
   Atomic configuration                                                                             
    6 entries                                                                                       
     n  l   j            E        occ.                                                              
     1  0  0.50     -1785.8828   2.0000                                                             
     2  0  0.50      -139.4969   2.0000                                                             
     2  1  1.50       -95.5546   6.0000                                                             
     3  0  0.50       -10.8127   2.0000                                                             
     3  1  0.50        -4.0811   2.0000                                                             
     3  2  1.50        -4.0817   0.0000                                                             
   Description                                                                                      
     l       E           TYP  RCUT    TYP  RCUT                                                     
     0    -10.8127223     23  1.900                                                                 
     0     -7.6451159     23  1.900                                                                 
     1     -4.0811372     23  1.900                                                                 
     1      2.4879257     23  1.900                                                                 
     2     -4.0817478      7  1.900                                                                 
  local pseudopotential read in
  partial core-charges read in
  partial kinetic energy density read in
  atomic valenz-charges read in
  non local Contribution for L=           0  read in
    real space projection operators read in
  non local Contribution for L=           0  read in
    real space projection operators read in
  non local Contribution for L=           1  read in
    real space projection operators read in
  non local Contribution for L=           1  read in
    real space projection operators read in
    PAW grid and wavefunctions read in
 
   number of l-projection  operators is LMAX  =           4
   number of lm-projection operators is LMMAX =           8
 
 Optimization of the real space projectors (new method)

 maximal supplied QI-value         = 12.47
 optimisation between [QCUT,QGAM] = [ 12.47, 27.06] = [ 43.56,205.12] Ry 
 Optimized for a Real-space Cutoff    1.58 Angstroem

   l    n(q)    QCUT    max X(q) W(low)/X(q) W(high)/X(q)  e(spline) 
   0     13    12.472    14.688    0.45E-04    0.45E-04    0.25E-05
   0     13    12.472     7.308    0.94E-04    0.11E-03    0.61E-05
   1     12    12.472    45.102    0.34E-03    0.14E-03    0.21E-05
   1     12    12.472    30.691    0.31E-03    0.13E-03    0.20E-05
   2     12    12.472     7.156    0.86E-04    0.11E-03    0.17E-05
 WARNING: PSMAXN for non-local potential too small
          PSMAXN should be >   13.5545592237991       NTYP=           1
 Optimization of the real space projectors (new method)

 maximal supplied QI-value         = 19.84
 optimisation between [QCUT,QGAM] = [ 13.49, 26.99] = [ 50.98,203.92] Ry 
 Optimized for a Real-space Cutoff    1.07 Angstroem

   l    n(q)    QCUT    max X(q) W(low)/X(q) W(high)/X(q)  e(spline) 
   0      9    13.493   159.560    0.22E-03    0.15E-03    0.72E-07
   0      9    13.493   115.863    0.21E-03    0.15E-03    0.71E-07
   1      8    13.493    88.339    0.15E-03    0.11E-03    0.13E-06
   1      8    13.493    48.592    0.15E-03    0.10E-03    0.13E-06
  PAW_PBE Sn 08Apr2002                  :
 energy of atom  1       EATOM=  -94.0860
 kinetic energy error for atom=    0.0000 (will be added to EATOM!!)
  PAW_PBE Si 05Jan2001                  :
 energy of atom  2       EATOM= -103.0669
 kinetic energy error for atom=    0.0003 (will be added to EATOM!!)
 
 
 POSCAR: Sn+Si
  positions in direct lattice
  No initial velocities read in


 exchange-correlation table for PE
   RHO(1)=    0.500       N(1)  =     2000
   RHO(2)=  100.500       N(2)  =     4000
 


--------------------------------------------------------------------------------------------------------


 ion  position               nearest neighbor table
   1  0.675  0.104  0.886- 126 2.34 213 2.34  25 3.01
   2  0.828  0.667  0.168-  49 2.81 199 2.81 223 2.81 150 2.81
   3  0.662  0.667  0.336- 142 2.81 193 2.81 223 2.81 102 2.81
   4  0.059  0.181  0.886- 201 2.34 147 2.34 159 2.98
   5  0.405  0.451  0.886- 192 2.34 120 2.34  67 2.97  13 3.51
   6  0.662  0.333  0.336- 112 2.81  36 2.81 250 2.81 105 2.81
   7  0.995  0.000  0.000-  28 2.81 106 2.81 183 2.97  70 2.98
   8  0.251  0.220  0.886- 117 2.34 222 2.34 159 2.99  13 3.46
   9  0.578  0.585  0.534- 247 2.34 163 2.34
  10  0.328  0.667  0.000-  59 2.37  40 2.81  82 2.81
  11  0.162  0.667  0.168- 139 2.81  31 2.81  83 2.81  82 2.81
  12  0.995  0.667  0.336-  42 2.81 199 2.81  83 2.81 136 2.81
  13  0.328  0.333  0.000-  43 2.81  85 2.81   8 3.46  26 3.47   5 3.51
  14  0.521  0.874  0.886- 210 2.34 123 2.34  64 2.39
  15  0.995  0.333  0.336-  45 2.81 187 2.81  86 2.81 220 2.81
  16  0.328  0.000  0.000-  17 2.38  37 2.81  88 2.81
  17  0.290  0.028  0.886- 222 2.34 138 2.34  16 2.38
  18  0.995  0.000  0.336-  39 2.81  29 2.81  89 2.81  90 2.81
  19  0.662  0.667  0.000-  49 2.81  91 2.81 237 2.98  61 2.99
  20  0.713  0.912  0.886- 198 2.34 126 2.34  25 2.96  73 3.50
  21  0.328  0.667  0.336- 124 2.81 139 2.81  93 2.81  92 2.81
  22  0.175  0.604  0.886- 204 2.34 135 2.34 231 3.01
  23  0.944  0.758  0.886-  62 2.34  80 2.34 171 3.00  73 3.47
  24  0.328  0.333  0.336-  54 2.81 109 2.81 214 2.81 151 2.81
  25  0.662  0.000  0.000-  46 2.81  97 2.81  20 2.96   1 3.01
  26  0.444  0.258  0.886- 192 2.34 141 2.34 258 3.00  13 3.47
  27  0.328  0.000  0.336-  48 2.81 115 2.81  99 2.81 211 2.81
  28  0.078  0.917  0.084- 180 2.81   7 2.81  55 2.81 252 2.81
  29  0.912  0.917  0.252- 261 2.81  18 2.81 252 2.81  57 2.81
  30  0.425  0.354  0.534- 244 2.34 160 2.34  54 3.01
  31  0.078  0.583  0.084-  11 2.81 171 2.81 231 2.81 165 2.81
  32  0.271  0.124  0.534- 241 2.34 184 2.34  99 2.39
  33  0.809  0.431  0.534- 235 2.34 154 2.34 220 2.98
  34  0.078  0.250  0.084- 168 2.81 159 2.81 186 2.81 216 2.81
  35  0.040  0.278  0.534- 229 2.34 148 2.34  45 2.38
  36  0.745  0.250  0.420-   6 2.81  63 2.81 190 2.97  96 2.98
  37  0.412  0.917  0.084-  16 2.81 153 2.81  64 2.81  65 2.81
  38  0.463  0.162  0.534- 259 2.34 160 2.34  54 2.96 108 3.50
  39  0.078  0.917  0.420- 101 2.37  18 2.81  66 2.81
  40  0.412  0.583  0.084-  10 2.81 240 2.81  67 2.81  68 2.81
  41  0.694  0.008  0.534- 104 2.34  95 2.34 202 3.00 108 3.47
  42  0.078  0.583  0.420-  12 2.81  69 2.81  53 3.46  44 3.47  50 3.51
  43  0.412  0.250  0.084-  13 2.81 258 2.81  71 2.81 255 2.81
  44  0.194  0.508  0.534- 253 2.34 172 2.34 109 3.00  42 3.47
  45  0.078  0.250  0.420-  35 2.38  15 2.81  72 2.81
  46  0.745  0.917  0.084- 261 2.81  25 2.81 177 2.81  73 2.81
  47  0.578  0.917  0.252- 205 2.81 153 2.81 177 2.81  75 2.81
  48  0.412  0.917  0.420-  27 2.81  75 2.81 145 2.98  87 2.99
  49  0.745  0.583  0.084-   2 2.81  19 2.81  77 2.81  76 2.81
  50  0.155  0.701  0.534- 253 2.34 181 2.34  93 2.97  42 3.51
  51  0.925  0.854  0.534- 169 2.34 238 2.34 136 3.01
  52  0.745  0.250  0.084- 234 2.81 144 2.81  79 2.81 246 2.81
  53  0.001  0.470  0.534- 229 2.34 157 2.34 220 2.99  42 3.46
  54  0.412  0.250  0.420-  24 2.81  81 2.81  38 2.96  30 3.01
  55  0.162  0.833  0.000-  74 2.37  82 2.81  28 2.81
  56  0.482  0.066  0.886- 210 2.34 141 2.34 258 2.96
  57  0.828  0.833  0.336- 136 2.81 223 2.81 202 2.81  29 2.81
  58  0.790  0.528  0.886- 114 2.34 189 2.34  76 2.38
  59  0.367  0.643  0.886- 207 2.34 120 2.34  10 2.37
  60  0.828  0.500  0.336- 220 2.81 250 2.81 193 2.81 199 2.81
  61  0.751  0.720  0.886- 198 2.34 114 2.34  19 2.99  73 3.46
  62  0.963  0.662  0.816- 158 2.34  23 2.34 254 2.34 174 2.34
  63  0.828  0.167  0.336-  90 2.81  36 2.81 187 2.81 130 2.81
  64  0.495  0.833  0.000-  14 2.39  91 2.81  37 2.81
  65  0.328  0.833  0.168-  82 2.81  92 2.81 115 2.81  37 2.81
  66  0.162  0.833  0.336-  83 2.81  93 2.81  39 2.81 115 2.81
  67  0.495  0.500  0.000-  94 2.81  40 2.81   5 2.97 156 2.98
  68  0.328  0.500  0.168-  85 2.81 151 2.81 139 2.81  40 2.81
  69  0.162  0.500  0.336-  86 2.81 109 2.81  42 2.81 139 2.81
  70  0.098  0.989  0.886- 147 2.34 219 2.34   7 2.98
  71  0.328  0.167  0.168- 214 2.81  88 2.81  43 2.81 211 2.81
  72  0.162  0.167  0.336-  89 2.81  45 2.81 214 2.81  99 2.81
  73  0.828  0.833  0.000- 150 2.81  46 2.81  61 3.46  23 3.47  20 3.50
  74  0.136  0.797  0.886- 219 2.34 135 2.34  55 2.37
  75  0.495  0.833  0.336- 102 2.81  92 2.81  47 2.81  48 2.81
  76  0.828  0.500  0.000-  58 2.38 103 2.81  49 2.81
  77  0.662  0.500  0.168- 250 2.81  94 2.81 142 2.81  49 2.81
  78  0.495  0.500  0.336- 105 2.81 151 2.81 142 2.81 124 2.81
  79  0.828  0.167  0.000- 264 2.37 106 2.81  52 2.81
  80  0.925  0.854  0.816- 239 2.34 183 2.34  23 2.34 182 2.34
  81  0.495  0.167  0.336- 108 2.81 211 2.81 112 2.81  54 2.81
  82  0.245  0.750  0.084-  55 2.81  65 2.81  11 2.81  10 2.81
  83  0.078  0.750  0.252- 252 2.81  66 2.81  11 2.81  12 2.81
  84  0.540  0.778  0.534- 247 2.34 178 2.34 102 2.38
  85  0.245  0.417  0.084-  68 2.81 231 2.81 168 2.81  13 2.81
  86  0.078  0.417  0.252- 165 2.81 168 2.81  69 2.81  15 2.81
  87  0.501  0.970  0.534- 259 2.34 178 2.34  48 2.99 108 3.46
  88  0.245  0.083  0.084-  71 2.81 159 2.81 180 2.81  16 2.81
  89  0.078  0.083  0.252- 180 2.81 216 2.81  72 2.81  18 2.81
  90  0.912  0.083  0.420-  98 2.37  63 2.81  18 2.81
  91  0.578  0.750  0.084-  64 2.81 177 2.81  19 2.81 240 2.81
  92  0.412  0.750  0.252- 240 2.81  65 2.81  75 2.81  21 2.81
  93  0.245  0.750  0.420-  66 2.81  21 2.81  50 2.97 217 2.98
  94  0.578  0.417  0.084-  67 2.81  77 2.81 246 2.81 255 2.81
  95  0.675  0.104  0.605- 212 2.34 190 2.34  41 2.34 140 2.34
  96  0.848  0.239  0.534- 226 2.34 154 2.34  36 2.98
  97  0.578  0.083  0.084-  25 2.81 144 2.81 258 2.81 153 2.81
  98  0.886  0.047  0.534- 226 2.34 169 2.34  90 2.37
  99  0.245  0.083  0.420-  32 2.39  27 2.81  72 2.81
 100  0.828  0.335  0.886- 189 2.34 129 2.34
 101  0.117  0.893  0.534- 262 2.34 181 2.34  39 2.37
 102  0.578  0.750  0.420-  84 2.38  75 2.81   3 2.81
 103  0.912  0.417  0.084-  76 2.81 165 2.81 234 2.81 186 2.81
 104  0.713  0.912  0.605- 125 2.34  41 2.34 208 2.34 209 2.34
 105  0.578  0.417  0.420- 118 2.37  78 2.81   6 2.81
 106  0.912  0.083  0.084-  79 2.81 216 2.81 261 2.81   7 2.81
 107  0.232  0.316  0.534- 172 2.34 241 2.34 109 2.96
 108  0.578  0.083  0.420-  81 2.81 205 2.81  87 3.46  41 3.47  38 3.50
 109  0.245  0.417  0.420-  69 2.81  24 2.81 107 2.96  44 3.00
 110  0.732  0.316  0.675- 232 2.34 227 2.34 154 2.34 155 2.34
 111  0.617  0.393  0.816- 233 2.34 228 2.34 156 2.34 155 2.34
 112  0.578  0.250  0.252- 144 2.81   6 2.81 255 2.81  81 2.81
 113  0.886  0.547  0.675- 235 2.34 230 2.34 157 2.34 158 2.34
 114  0.771  0.624  0.816- 236 2.34  58 2.34 158 2.34  61 2.34
 115  0.245  0.917  0.252- 180 2.81  27 2.81  65 2.81  66 2.81
 116  0.348  0.239  0.675- 260 2.34 241 2.34 161 2.34 160 2.34
 117  0.232  0.316  0.816-   8 2.34 242 2.34 162 2.34 161 2.34
 118  0.617  0.393  0.534- 232 2.34 163 2.34 105 2.37
 119  0.501  0.470  0.675- 244 2.34 164 2.34 163 2.34 233 2.34
 120  0.386  0.547  0.816- 245 2.34   5 2.34 164 2.34  59 2.34
 121  0.771  0.624  0.534- 166 2.34 235 2.34 193 2.39
 122  0.655  0.701  0.675- 247 2.34 167 2.34 166 2.34 236 2.34
 123  0.540  0.778  0.816- 248 2.34  14 2.34 237 2.34 167 2.34
 124  0.412  0.583  0.420- 133 2.37  21 2.81  78 2.81
 125  0.809  0.931  0.675- 104 2.34 170 2.34 169 2.34 239 2.34
 126  0.694  0.008  0.816- 251 2.34   1 2.34  20 2.34 170 2.34
 127  0.078  0.085  0.534- 262 2.34 148 2.34
 128  0.963  0.162  0.675- 226 2.34 148 2.34 263 2.34 149 2.34
 129  0.848  0.239  0.816- 227 2.34 264 2.34 149 2.34 100 2.34
 130  0.745  0.083  0.252- 144 2.81 261 2.81 205 2.81  63 2.81
 131  0.117  0.393  0.675- 173 2.34 229 2.34 172 2.34 242 2.34
 132  0.001  0.470  0.816- 230 2.34 174 2.34 243 2.34 173 2.34
 133  0.386  0.547  0.534- 244 2.34 175 2.34 124 2.37
 134  0.271  0.624  0.675- 253 2.34 176 2.34 245 2.34 175 2.34
 135  0.155  0.701  0.816- 254 2.34  22 2.34 176 2.34  74 2.34
 136  0.912  0.750  0.420-  57 2.81  12 2.81 196 2.96  51 3.01
 137  0.425  0.854  0.675- 178 2.34 256 2.34 248 2.34 179 2.34
 138  0.309  0.931  0.816- 249 2.34 257 2.34 179 2.34  17 2.34
 139  0.245  0.583  0.252-  11 2.81  21 2.81  68 2.81  69 2.81
 140  0.578  0.085  0.675- 259 2.34 251 2.34  95 2.34 152 2.34
 141  0.463  0.162  0.816- 260 2.34  56 2.34  26 2.34 152 2.34
 142  0.578  0.583  0.252-   3 2.81 240 2.81  77 2.81  78 2.81
 143  0.040  0.778  0.675- 238 2.34 254 2.34 182 2.34 181 2.34
 144  0.662  0.167  0.168- 130 2.81 112 2.81  52 2.81  97 2.81
 145  0.309  0.931  0.534- 256 2.34 184 2.34  48 2.98
 146  0.194  0.008  0.675- 257 2.34 262 2.34 184 2.34 185 2.34
 147  0.078  0.085  0.816- 263 2.34  70 2.34   4 2.34 185 2.34
 148  0.059  0.181  0.605- 128 2.34 200 2.34  35 2.34 127 2.34
 149  0.944  0.258  0.745- 201 2.34 188 2.34 128 2.34 129 2.34
 150  0.912  0.750  0.084-  73 2.81 252 2.81   2 2.81 171 2.81
 151  0.412  0.417  0.252- 255 2.81  68 2.81  78 2.81  24 2.81
 152  0.559  0.181  0.745- 191 2.34 213 2.34 140 2.34 141 2.34
 153  0.495  0.000  0.168- 211 2.81  37 2.81  47 2.81  97 2.81
 154  0.828  0.335  0.605- 188 2.34  96 2.34 110 2.34  33 2.34
 155  0.713  0.412  0.745- 189 2.34 110 2.34 194 2.34 111 2.34
 156  0.598  0.489  0.886- 111 2.34 195 2.34  67 2.98
 157  0.982  0.566  0.605- 215 2.34 113 2.34  53 2.34 196 2.34
 158  0.867  0.643  0.745-  62 2.34 114 2.34 197 2.34 113 2.34
 159  0.162  0.167  0.000-  88 2.81  34 2.81   4 2.98   8 2.99
 160  0.444  0.258  0.605- 191 2.34  38 2.34 116 2.34  30 2.34
 161  0.328  0.335  0.745- 192 2.34 116 2.34 203 2.34 117 2.34
 162  0.213  0.412  0.886- 204 2.34 117 2.34 231 2.96
 163  0.598  0.489  0.605- 194 2.34 119 2.34   9 2.34 118 2.34
 164  0.482  0.566  0.745- 195 2.34 119 2.34 120 2.34 206 2.34
 165  0.995  0.500  0.168- 103 2.81  86 2.81 199 2.81  31 2.81
 166  0.751  0.720  0.605- 197 2.34 121 2.34 208 2.34 122 2.34
 167  0.636  0.797  0.745- 198 2.34 122 2.34 209 2.34 123 2.34
 168  0.162  0.333  0.168-  86 2.81 214 2.81  34 2.81  85 2.81
 169  0.905  0.951  0.605- 224 2.34  51 2.34  98 2.34 125 2.34
 170  0.790  0.028  0.745- 225 2.34 125 2.34 212 2.34 126 2.34
 171  0.995  0.667  0.000-  31 2.81 150 2.81 174 2.96  23 3.00
 172  0.213  0.412  0.605- 203 2.34 107 2.34 131 2.34  44 2.34
 173  0.098  0.489  0.745- 204 2.34 131 2.34 215 2.34 132 2.34
 174  0.982  0.566  0.886- 132 2.34  62 2.34 171 2.96
 175  0.367  0.643  0.605- 206 2.34 217 2.34 134 2.34 133 2.34
 176  0.251  0.720  0.745- 207 2.34 134 2.34 135 2.34 218 2.34
 177  0.662  0.833  0.168- 223 2.81  91 2.81  47 2.81  46 2.81
 178  0.521  0.874  0.605- 209 2.34 137 2.34  87 2.34  84 2.34
 179  0.405  0.951  0.745- 210 2.34 221 2.34 138 2.34 137 2.34
 180  0.162  0.000  0.168- 115 2.81  28 2.81  89 2.81  88 2.81
 181  0.136  0.797  0.605- 218 2.34  50 2.34 101 2.34 143 2.34
 182  0.021  0.874  0.745- 224 2.34 219 2.34  80 2.34 143 2.34
 183  0.905  0.951  0.886- 225 2.34  80 2.34   7 2.97
 184  0.290  0.028  0.605- 221 2.34  32 2.34 146 2.34 145 2.34
 185  0.175  0.104  0.745- 200 2.34 222 2.34 147 2.34 146 2.34
 186  0.995  0.333  0.000- 243 2.39  34 2.81 103 2.81
 187  0.912  0.250  0.252- 216 2.81 234 2.81  15 2.81  63 2.81
 188  0.925  0.354  0.675- 154 2.34 229 2.34 230 2.34 149 2.34
 189  0.809  0.431  0.816- 155 2.34  58 2.34 230 2.34 100 2.34
 190  0.655  0.201  0.534- 232 2.34  95 2.34  36 2.97
 191  0.540  0.278  0.675- 160 2.34 152 2.34 233 2.34 232 2.34
 192  0.425  0.354  0.816- 161 2.34  26 2.34   5 2.34 233 2.34
 193  0.745  0.583  0.420- 121 2.39   3 2.81  60 2.81
 194  0.694  0.508  0.675- 163 2.34 236 2.34 155 2.34 235 2.34
 195  0.578  0.585  0.816- 237 2.34 164 2.34 156 2.34 236 2.34
 196  0.963  0.662  0.534- 238 2.34 157 2.34 136 2.96
 197  0.848  0.739  0.675- 239 2.34 166 2.34 158 2.34 238 2.34
 198  0.732  0.816  0.816-  20 2.34 167 2.34  61 2.34 239 2.34
 199  0.912  0.583  0.252-   2 2.81  12 2.81 165 2.81  60 2.81
 200  0.155  0.201  0.675- 242 2.34 185 2.34 148 2.34 241 2.34
 201  0.040  0.278  0.816- 149 2.34   4 2.34 243 2.34 242 2.34
 202  0.745  0.917  0.420- 205 2.81  57 2.81 208 2.96  41 3.00
 203  0.309  0.431  0.675- 172 2.34 245 2.34 244 2.34 161 2.34
 204  0.194  0.508  0.816- 173 2.34 162 2.34  22 2.34 245 2.34
 205  0.662  0.000  0.336-  47 2.81 202 2.81 130 2.81 108 2.81
 206  0.463  0.662  0.675- 248 2.34 175 2.34 247 2.34 164 2.34
 207  0.348  0.739  0.816- 249 2.34 176 2.34  59 2.34 248 2.34
 208  0.732  0.816  0.534- 166 2.34 104 2.34 202 2.96
 209  0.617  0.893  0.675- 178 2.34 167 2.34 251 2.34 104 2.34
 210  0.501  0.970  0.816- 179 2.34  14 2.34  56 2.34 251 2.34
 211  0.412  0.083  0.252- 153 2.81  71 2.81  81 2.81  27 2.81
 212  0.771  0.124  0.675- 227 2.34  95 2.34 170 2.34 226 2.34
 213  0.655  0.201  0.816- 228 2.34 152 2.34   1 2.34 227 2.34
 214  0.245  0.250  0.252-  71 2.81 168 2.81  72 2.81  24 2.81
 215  0.078  0.585  0.675- 157 2.34 254 2.34 253 2.34 173 2.34
 216  0.995  0.167  0.168- 187 2.81 106 2.81  89 2.81  34 2.81
 217  0.348  0.739  0.534- 256 2.34 175 2.34  93 2.98
 218  0.232  0.816  0.675- 257 2.34 181 2.34 256 2.34 176 2.34
 219  0.117  0.893  0.816-  70 2.34 182 2.34  74 2.34 257 2.34
 220  0.912  0.417  0.420-  60 2.81  15 2.81  33 2.98  53 2.99
 221  0.386  0.047  0.675- 184 2.34 179 2.34 259 2.34 260 2.34
 222  0.271  0.124  0.816-  17 2.34 185 2.34   8 2.34 260 2.34
 223  0.745  0.750  0.252- 177 2.81  57 2.81   2 2.81   3 2.81
 224  0.001  0.970  0.675- 169 2.34 182 2.34 263 2.34 262 2.34
 225  0.886  0.047  0.816- 170 2.34 183 2.34 264 2.34 263 2.34
 226  0.867  0.143  0.605- 128 2.34  98 2.34  96 2.34 212 2.34
 227  0.751  0.220  0.745- 129 2.34 212 2.34 110 2.34 213 2.34
 228  0.636  0.297  0.886- 213 2.34 111 2.34 246 2.37
 229  0.021  0.374  0.605- 188 2.34  53 2.34  35 2.34 131 2.34
 230  0.905  0.451  0.745- 113 2.34 132 2.34 189 2.34 188 2.34
 231  0.162  0.500  0.000-  85 2.81  31 2.81 162 2.96  22 3.01
 232  0.636  0.297  0.605- 110 2.34 190 2.34 118 2.34 191 2.34
 233  0.521  0.374  0.745- 191 2.34 111 2.34 119 2.34 192 2.34
 234  0.828  0.333  0.168-  52 2.81 187 2.81 250 2.81 103 2.81
 235  0.790  0.528  0.605- 113 2.34  33 2.34 121 2.34 194 2.34
 236  0.675  0.604  0.745- 114 2.34 194 2.34 122 2.34 195 2.34
 237  0.559  0.681  0.886- 195 2.34 123 2.34  19 2.98
 238  0.944  0.758  0.605- 143 2.34 196 2.34  51 2.34 197 2.34
 239  0.828  0.835  0.745-  80 2.34 197 2.34 125 2.34 198 2.34
 240  0.495  0.667  0.168-  92 2.81  40 2.81 142 2.81  91 2.81
 241  0.251  0.220  0.605- 116 2.34  32 2.34 200 2.34 107 2.34
 242  0.136  0.297  0.745- 200 2.34 117 2.34 201 2.34 131 2.34
 243  0.021  0.374  0.886- 201 2.34 132 2.34 186 2.39
 244  0.405  0.451  0.605- 119 2.34  30 2.34 203 2.34 133 2.34
 245  0.290  0.528  0.745- 120 2.34 203 2.34 134 2.34 204 2.34
 246  0.662  0.333  0.000- 228 2.37  94 2.81  52 2.81
 247  0.559  0.681  0.605- 122 2.34   9 2.34  84 2.34 206 2.34
 248  0.444  0.758  0.745- 206 2.34 123 2.34 137 2.34 207 2.34
 249  0.328  0.835  0.886- 207 2.34 138 2.34
 250  0.745  0.417  0.252-  77 2.81 234 2.81  60 2.81   6 2.81
 251  0.598  0.989  0.745- 126 2.34 140 2.34 209 2.34 210 2.34
 252  0.995  0.833  0.168- 150 2.81  83 2.81  29 2.81  28 2.81
 253  0.175  0.604  0.605- 134 2.34  44 2.34  50 2.34 215 2.34
 254  0.059  0.681  0.745- 135 2.34 215 2.34 143 2.34  62 2.34
 255  0.495  0.333  0.168- 151 2.81  43 2.81 112 2.81  94 2.81
 256  0.328  0.835  0.605- 217 2.34 137 2.34 218 2.34 145 2.34
 257  0.213  0.912  0.745- 146 2.34 218 2.34 138 2.34 219 2.34
 258  0.495  0.167  0.000-  43 2.81  97 2.81  56 2.96  26 3.00
 259  0.482  0.066  0.605- 140 2.34  87 2.34  38 2.34 221 2.34
 260  0.367  0.143  0.745- 116 2.34 141 2.34 221 2.34 222 2.34
 261  0.828  0.000  0.168-  46 2.81  29 2.81 130 2.81 106 2.81
 262  0.098  0.989  0.605- 146 2.34 101 2.34 127 2.34 224 2.34
 263  0.982  0.066  0.745- 147 2.34 224 2.34 128 2.34 225 2.34
 264  0.867  0.143  0.886- 129 2.34 225 2.34  79 2.37
 
  LATTYP: Found a simple tetragonal cell.
 ALAT       =    19.4675998690
 C/A-ratio  =     0.9914038219
  
  Lattice vectors:
  
 A1 = (  19.4675998690,   0.0000000000,   0.0000000000)
 A2 = (   0.0000000000,  19.4675998690,   0.0000000000)
 A3 = (   0.0000000000,   0.0000000000,  19.3002529140)


Analysis of symmetry for initial positions (statically):
=====================================================================
 Subroutine PRICEL returns:
 Original cell was already a primitive cell.
 

 Routine SETGRP: Setting up the symmetry group for a 
 simple tetragonal supercell.


 Subroutine GETGRP returns: Found  1 space group operations
 (whereof  1 operations were pure point group operations)
 out of a pool of 16 trial point group operations.


The static configuration has the point symmetry C_1 .


Analysis of symmetry for dynamics (positions and initial velocities):
=====================================================================
 Subroutine PRICEL returns:
 Original cell was already a primitive cell.
 

 Routine SETGRP: Setting up the symmetry group for a 
 simple tetragonal supercell.


 Subroutine GETGRP returns: Found  1 space group operations
 (whereof  1 operations were pure point group operations)
 out of a pool of 16 trial point group operations.


The dynamic configuration has the point symmetry C_1 .


Analysis of structural, dynamic, and magnetic symmetry:
=====================================================================
 Subroutine PRICEL returns:
 Original cell was already a primitive cell.
 

 Routine SETGRP: Setting up the symmetry group for a 
 simple tetragonal supercell.


 Subroutine GETGRP returns: Found  1 space group operations
 (whereof  1 operations were pure point group operations)
 out of a pool of 16 trial point group operations.


The overall configuration has the point symmetry C_1 .


 Subroutine INISYM returns: Found  1 space group operations
 (whereof  1 operations are pure point group operations),
 and found     1 'primitive' translations


----------------------------------------------------------------------------------------

                                     Primitive cell                                     

  volume of cell :    7314.5535

  direct lattice vectors                    reciprocal lattice vectors
    19.467599869  0.000000000  0.000000000     0.051367401  0.000000000  0.000000000
     0.000000000 19.467599869  0.000000000     0.000000000  0.051367401  0.000000000
     0.000000000  0.000000000 19.300252914     0.000000000  0.000000000  0.051812793

  length of vectors
    19.467599869 19.467599869 19.300252914     0.051367401  0.051367401  0.051812793

  position of ions in fractional coordinates (direct lattice)
     0.674520910  0.104443185  0.886011779
     0.828368425  0.666666687  0.168111786
     0.661701739  0.666666687  0.336223543
     0.059136271  0.181366205  0.886011779
     0.405290216  0.450596988  0.886011779
     0.661701739  0.333333343  0.336223543
     0.995035112  0.000000000  0.000000000
     0.251444042  0.219827890  0.886011779
     0.578367293  0.585212350  0.534267545
     0.328368455  0.666666687  0.000000000
     0.161701739  0.666666687  0.168111786
     0.995035112  0.666666687  0.336223543
     0.328368455  0.333333343  0.000000000
     0.520674706  0.873673916  0.886011779
     0.995035112  0.333333343  0.336223543
     0.328368455  0.000000000  0.000000000
     0.289905488  0.027520061  0.886011779
     0.995035112  0.000000000  0.336223543
     0.661701798  0.666666687  0.000000000
     0.712982595  0.912135482  0.886011779
     0.328368455  0.666666687  0.336223543
     0.174520940  0.604443133  0.886011779
     0.943751633  0.758289278  0.886011779
     0.328368455  0.333333343  0.336223543
     0.661701798  0.000000000  0.000000000
     0.443751663  0.258289337  0.886011779
     0.328368455  0.000000000  0.336223543
     0.078368433  0.916666746  0.084055893
     0.911701798  0.916666746  0.252167612
     0.424521148  0.354443043  0.534267545
     0.078368433  0.583333433  0.084055893
     0.270674974  0.123673767  0.534267545
     0.809136569  0.431366175  0.534267545
     0.078368433  0.250000000  0.084055893
     0.039905667  0.277519971  0.534267545
     0.745035052  0.250000000  0.420279443
     0.411701769  0.916666746  0.084055893
     0.462982684  0.162135303  0.534267545
     0.078368381  0.916666746  0.420279443
     0.411701769  0.583333433  0.084055893
     0.693751872  0.008289218  0.534267545
     0.078368381  0.583333433  0.420279443
     0.411701769  0.250000000  0.084055893
     0.193751872  0.508289218  0.534267545
     0.078368381  0.250000000  0.420279443
     0.745035172  0.916666746  0.084055893
     0.578368545  0.916666746  0.252167612
     0.411701798  0.916666746  0.420279443
     0.745035172  0.583333433  0.084055893
     0.155290306  0.700596869  0.534267545
     0.924521089  0.854443133  0.534267545
     0.745035172  0.250000000  0.084055893
     0.001444221  0.469827592  0.534267545
     0.411701798  0.250000000  0.420279443
     0.161701769  0.833333313  0.000000000
     0.482213259  0.065981627  0.886011779
     0.828368425  0.833333313  0.336223543
     0.789905429  0.527520061  0.886011779
     0.366828591  0.642904758  0.886011779
     0.828368425  0.500000000  0.336223543
     0.751443982  0.719827771  0.886011779
     0.962982476  0.662135482  0.815662920
     0.828368425  0.166666672  0.336223543
     0.495035112  0.833333313  0.000000000
     0.328368425  0.833333313  0.168111786
     0.161701754  0.833333313  0.336223543
     0.495035112  0.500000000  0.000000000
     0.328368425  0.500000000  0.168111786
     0.161701754  0.500000000  0.336223543
     0.097597800  0.989058554  0.886011779
     0.328368425  0.166666672  0.168111786
     0.161701754  0.166666672  0.336223543
     0.828368545  0.833333313  0.000000000
     0.136059344  0.796750903  0.886011779
     0.495035201  0.833333313  0.336223543
     0.828368545  0.500000000  0.000000000
     0.661701858  0.500000000  0.168111786
     0.495035201  0.500000000  0.336223543
     0.828368545  0.166666672  0.000000000
     0.924520910  0.854443192  0.815662920
     0.495035201  0.166666672  0.336223543
     0.245035097  0.750000060  0.084055893
     0.078368433  0.750000060  0.252167612
     0.539905727  0.777519882  0.534267545
     0.245035097  0.416666716  0.084055893
     0.078368433  0.416666716  0.252167612
     0.501444221  0.969827712  0.534267545
     0.245035097  0.083333343  0.084055893
     0.078368433  0.083333343  0.252167612
     0.911701739  0.083333343  0.420279443
     0.578368485  0.750000060  0.084055893
     0.411701858  0.750000060  0.252167612
     0.245035127  0.750000060  0.420279443
     0.578368485  0.416666716  0.084055893
     0.674521089  0.104443066  0.604616404
     0.847598135  0.239058375  0.534267545
     0.578368485  0.083333343  0.084055893
     0.886059582  0.046750784  0.534267545
     0.245035127  0.083333343  0.420279443
     0.828366995  0.335212380  0.886011779
     0.116828769  0.892904580  0.534267545
     0.578368366  0.750000060  0.420279443
     0.911701739  0.416666716  0.084055893
     0.712982714  0.912135422  0.604616404
     0.578368366  0.416666716  0.420279443
     0.911701739  0.083333343  0.084055893
     0.232213408  0.315981477  0.534267545
     0.578368366  0.083333343  0.420279443
     0.245035127  0.416666716  0.420279443
     0.732213438  0.315981507  0.674965203
     0.616828740  0.392904669  0.815662920
     0.578368545  0.250000000  0.252167612
     0.886059582  0.546750665  0.674965203
     0.770674884  0.623673856  0.815662920
     0.245035097  0.916666746  0.252167612
     0.347597986  0.239058435  0.674965203
     0.232213289  0.315981567  0.815662920
     0.616828859  0.392904580  0.534267545
     0.501444101  0.469827712  0.674965203
     0.386059433  0.546750844  0.815662920
     0.770674944  0.623673797  0.534267545
     0.655290246  0.700596929  0.674965203
     0.539905548  0.777520061  0.815662920
     0.411701798  0.583333433  0.420279443
     0.809136391  0.931366265  0.674965203
     0.693751693  0.008289337  0.815662920
     0.078367233  0.085212208  0.534267545
     0.962982535  0.162135333  0.674965203
     0.847597837  0.239058465  0.815662920
     0.745035052  0.083333343  0.252167612
     0.116828710  0.392904609  0.674965203
     0.001443982  0.469827741  0.815662920
     0.386059582  0.546750724  0.534267545
     0.270674855  0.623673856  0.674965203
     0.155290157  0.700596988  0.815662920
     0.911701739  0.750000060  0.420279443
     0.424521059  0.854443014  0.674965203
     0.309136331  0.931366146  0.815662920
     0.245035097  0.583333433  0.252167612
     0.578367174  0.085212342  0.674965203
     0.462982476  0.162135482  0.815662920
     0.578368545  0.583333433  0.252167612
     0.039905548  0.777520001  0.674965203
     0.661701858  0.166666672  0.168111786
     0.309136510  0.931366086  0.534267545
     0.193751812  0.008289099  0.674965203
     0.078366995  0.085212342  0.815662920
     0.059136391  0.181366086  0.604616404
     0.943751752  0.258289218  0.745314062
     0.911701739  0.750000060  0.084055893
     0.411701858  0.416666716  0.252167612
     0.559136391  0.181366205  0.745314062
     0.495035112  0.000000000  0.168111786
     0.828367352  0.335212231  0.604616404
     0.712982655  0.412135392  0.745314062
     0.597597957  0.489058524  0.886011779
     0.982213438  0.565981448  0.604616404
     0.866828740  0.642904639  0.745314062
     0.161701769  0.166666672  0.000000000
     0.443751901  0.258289158  0.604616404
     0.328367203  0.335212290  0.745314062
     0.212982476  0.412135422  0.886011779
     0.597598016  0.489058465  0.604616404
     0.482213318  0.565981567  0.745314062
     0.995035052  0.500000000  0.168111786
     0.751444161  0.719827652  0.604616404
     0.636059463  0.796750784  0.745314062
     0.161701739  0.333333343  0.168111786
     0.905290306  0.950596929  0.604616404
     0.789905608  0.027520061  0.745314062
     0.995035112  0.666666687  0.000000000
     0.212982625  0.412135333  0.604616404
     0.097597934  0.489058435  0.745314062
     0.982213199  0.565981567  0.886011779
     0.366828769  0.642904639  0.604616404
     0.251444072  0.719827712  0.745314062
     0.661701858  0.833333313  0.168111786
     0.520674884  0.873673797  0.604616404
     0.405290216  0.950596929  0.745314062
     0.161701739  0.000000000  0.168111786
     0.136059538  0.796750724  0.604616404
     0.020674825  0.873673916  0.745314062
     0.905290127  0.950596988  0.886011779
     0.289905697  0.027519941  0.604616404
     0.174520969  0.104443066  0.745314062
     0.995035112  0.333333343  0.000000000
     0.911701798  0.250000000  0.252167612
     0.924521029  0.354443103  0.674965203
     0.809136331  0.431366265  0.815662920
     0.655290306  0.200596869  0.534267545
     0.539905608  0.277520001  0.674965203
     0.424520910  0.354443133  0.815662920
     0.745035052  0.583333433  0.420279443
     0.693751812  0.508289278  0.674965203
     0.578367114  0.585212469  0.815662920
     0.962982714  0.662135422  0.534267545
     0.847597957  0.739058554  0.674965203
     0.732213259  0.815981686  0.815662920
     0.911701798  0.583333433  0.252167612
     0.155290276  0.200596899  0.674965203
     0.039905548  0.277520031  0.815662920
     0.745035052  0.916666746  0.420279443
     0.309136450  0.431366175  0.674965203
     0.193751723  0.508289278  0.815662920
     0.661701739  0.000000000  0.336223543
     0.462982565  0.662135482  0.674965203
     0.347597867  0.739058614  0.815662920
     0.732213378  0.815981507  0.534267545
     0.616828680  0.892904639  0.674965203
     0.501443982  0.969827771  0.815662920
     0.411701858  0.083333343  0.252167612
     0.770674884  0.123673908  0.674965203
     0.655290186  0.200597048  0.815662920
     0.245035097  0.250000000  0.252167612
     0.078367114  0.585212350  0.674965203
     0.995035052  0.166666672  0.168111786
     0.347598046  0.739058495  0.534267545
     0.232213348  0.815981627  0.674965203
     0.116828643  0.892904758  0.815662920
     0.911701739  0.416666716  0.420279443
     0.386059493  0.046750784  0.674965203
     0.270674795  0.123673908  0.815662920
     0.745035052  0.750000060  0.252167612
     0.001444101  0.969827712  0.674965203
     0.886059344  0.046750784  0.815662920
     0.866828918  0.142904535  0.604616404
     0.751444161  0.219827682  0.745314062
     0.636059463  0.296750814  0.886011779
     0.020674825  0.373673767  0.604616404
     0.905290186  0.450596929  0.745314062
     0.161701769  0.500000000  0.000000000
     0.636059642  0.296750695  0.604616404
     0.520674944  0.373673826  0.745314062
     0.828368425  0.333333343  0.168111786
     0.789905846  0.527519941  0.604616404
     0.674521148  0.604443073  0.745314062
     0.559136391  0.681366205  0.886011779
     0.943752050  0.758289218  0.604616404
     0.828367352  0.835212350  0.745314062
     0.495035112  0.666666687  0.168111786
     0.251444191  0.219827563  0.604616404
     0.136059478  0.296750695  0.745314062
     0.020674706  0.373673856  0.886011779
     0.405290365  0.450596869  0.604616404
     0.289905667  0.527520001  0.745314062
     0.661701798  0.333333343  0.000000000
     0.559136510  0.681366086  0.604616404
     0.443751812  0.758289218  0.745314062
     0.328367054  0.835212350  0.886011779
     0.745035052  0.416666716  0.252167612
     0.597598016  0.989058554  0.745314062
     0.995035052  0.833333313  0.168111786
     0.174521059  0.604443014  0.604616404
     0.059136391  0.681366146  0.745314062
     0.495035112  0.333333343  0.168111786
     0.328367233  0.835212231  0.604616404
     0.212982535  0.912135363  0.745314062
     0.495035112  0.166666672  0.000000000
     0.482213467  0.065981507  0.604616404
     0.366828769  0.142904758  0.745314062
     0.828368425  0.000000000  0.168111786
     0.097598001  0.989058375  0.604616404
     0.982213259  0.065981507  0.745314062
     0.866828561  0.142904639  0.886011779

  ion indices of the primitive-cell ions
   primitive index   ion index
                 1           1
                 2           2
                 3           3
                 4           4
                 5           5
                 6           6
                 7           7
                 8           8
                 9           9
                10          10
                11          11
                12          12
                13          13
                14          14
                15          15
                16          16
                17          17
                18          18
                19          19
                20          20
                21          21
                22          22
                23          23
                24          24
                25          25
                26          26
                27          27
                28          28
                29          29
                30          30
                31          31
                32          32
                33          33
                34          34
                35          35
                36          36
                37          37
                38          38
                39          39
                40          40
                41          41
                42          42
                43          43
                44          44
                45          45
                46          46
                47          47
                48          48
                49          49
                50          50
                51          51
                52          52
                53          53
                54          54
                55          55
                56          56
                57          57
                58          58
                59          59
                60          60
                61          61
                62          62
                63          63
                64          64
                65          65
                66          66
                67          67
                68          68
                69          69
                70          70
                71          71
                72          72
                73          73
                74          74
                75          75
                76          76
                77          77
                78          78
                79          79
                80          80
                81          81
                82          82
                83          83
                84          84
                85          85
                86          86
                87          87
                88          88
                89          89
                90          90
                91          91
                92          92
                93          93
                94          94
                95          95
                96          96
                97          97
                98          98
                99          99
               100         100
               101         101
               102         102
               103         103
               104         104
               105         105
               106         106
               107         107
               108         108
               109         109
               110         110
               111         111
               112         112
               113         113
               114         114
               115         115
               116         116
               117         117
               118         118
               119         119
               120         120
               121         121
               122         122
               123         123
               124         124
               125         125
               126         126
               127         127
               128         128
               129         129
               130         130
               131         131
               132         132
               133         133
               134         134
               135         135
               136         136
               137         137
               138         138
               139         139
               140         140
               141         141
               142         142
               143         143
               144         144
               145         145
               146         146
               147         147
               148         148
               149         149
               150         150
               151         151
               152         152
               153         153
               154         154
               155         155
               156         156
               157         157
               158         158
               159         159
               160         160
               161         161
               162         162
               163         163
               164         164
               165         165
               166         166
               167         167
               168         168
               169         169
               170         170
               171         171
               172         172
               173         173
               174         174
               175         175
               176         176
               177         177
               178         178
               179         179
               180         180
               181         181
               182         182
               183         183
               184         184
               185         185
               186         186
               187         187
               188         188
               189         189
               190         190
               191         191
               192         192
               193         193
               194         194
               195         195
               196         196
               197         197
               198         198
               199         199
               200         200
               201         201
               202         202
               203         203
               204         204
               205         205
               206         206
               207         207
               208         208
               209         209
               210         210
               211         211
               212         212
               213         213
               214         214
               215         215
               216         216
               217         217
               218         218
               219         219
               220         220
               221         221
               222         222
               223         223
               224         224
               225         225
               226         226
               227         227
               228         228
               229         229
               230         230
               231         231
               232         232
               233         233
               234         234
               235         235
               236         236
               237         237
               238         238
               239         239
               240         240
               241         241
               242         242
               243         243
               244         244
               245         245
               246         246
               247         247
               248         248
               249         249
               250         250
               251         251
               252         252
               253         253
               254         254
               255         255
               256         256
               257         257
               258         258
               259         259
               260         260
               261         261
               262         262
               263         263
               264         264

----------------------------------------------------------------------------------------

 
 
 KPOINTS: Automatic KPOINTS generated             

Automatic generation of k-mesh.
 Grid dimensions read from file:
 generate k-points for:    2    2    2

 Generating k-lattice:

  Cartesian coordinates                     Fractional coordinates (reciprocal lattice)
     0.025683700  0.000000000  0.000000000     0.500000000  0.000000000  0.000000000
     0.000000000  0.025683700  0.000000000     0.000000000  0.500000000  0.000000000
     0.000000000  0.000000000  0.025906396     0.000000000  0.000000000  0.500000000

  Length of vectors
     0.025683700  0.025683700  0.025906396

  Shift w.r.t. Gamma in fractional coordinates (k-lattice)
     0.000000000  0.000000000  0.000000000

 
 Subroutine IBZKPT returns following result:
 ===========================================
 
 Found      8 irreducible k-points:
 
 Following reciprocal coordinates:
            Coordinates               Weight
  0.000000  0.000000  0.000000      1.000000
  0.500000  0.000000  0.000000      1.000000
  0.000000  0.500000  0.000000      1.000000
  0.500000  0.500000  0.000000      1.000000
  0.000000  0.000000  0.500000      1.000000
  0.500000  0.000000  0.500000      1.000000
  0.000000  0.500000  0.500000      1.000000
  0.500000  0.500000  0.500000      1.000000
 
 Following cartesian coordinates:
            Coordinates               Weight
  0.000000  0.000000  0.000000      1.000000
  0.025684  0.000000  0.000000      1.000000
  0.000000  0.025684  0.000000      1.000000
  0.025684  0.025684  0.000000      1.000000
  0.000000  0.000000  0.025906      1.000000
  0.025684  0.000000  0.025906      1.000000
  0.000000  0.025684  0.025906      1.000000
  0.025684  0.025684  0.025906      1.000000
 
 -----------------------------------------------------------------------------
|                                                                             |
|           W    W    AA    RRRRR   N    N  II  N    N   GGGG   !!!           |
|           W    W   A  A   R    R  NN   N  II  NN   N  G    G  !!!           |
|           W    W  A    A  R    R  N N  N  II  N N  N  G       !!!           |
|           W WW W  AAAAAA  RRRRR   N  N N  II  N  N N  G  GGG   !            |
|           WW  WW  A    A  R   R   N   NN  II  N   NN  G    G                |
|           W    W  A    A  R    R  N    N  II  N    N   GGGG   !!!           |
|                                                                             |
|     The number of bands has been changed from the values supplied in        |
|     the INCAR file. This is a result of running the parallel version.       |
|     The orbitals not found in the WAVECAR file will be initialized with     |
|     random numbers, which is usually adequate. For correlated               |
|     calculations, however, you should redo the groundstate calculation.     |
|     I found NBANDS = 634. Now, NBANDS = 636.                                |
|                                                                             |
 -----------------------------------------------------------------------------



--------------------------------------------------------------------------------------------------------




 Dimension of arrays:
   k-points           NKPTS =      8   k-points in BZ     NKDIM =      8   number of bands    NBANDS=    636
   number of dos      NEDOS =    301   number of ions     NIONS =    264
   non local maximal  LDIM  =      5   non local SUM 2l+1 LMDIM =     13
   total plane-waves  NPLWV = ******
   max r-space proj   IRMAX =   4555   max aug-charges    IRDMAX= 210771
   dimension x,y,z NGX =   126 NGY =  126 NGZ =  126
   dimension x,y,z NGXF=   252 NGYF=  252 NGZF=  252
   support grid    NGXF=   504 NGYF=  504 NGZF=  504
   ions per type =             108 156
   NGX,Y,Z   is equivalent  to a cutoff of  10.76, 10.76, 10.85 a.u.
   NGXF,Y,Z  is equivalent  to a cutoff of  21.52, 21.52, 21.71 a.u.

 SYSTEM =  Si and Ge interface calculation         
 POSCAR =  Sn+Si                                   

 Startparameter for this run:
   NWRITE =      2    write-flag & timer
   PREC   = normal    normal or accurate (medium, high low for compatibility)
   ISTART =      0    job   : 0-new  1-cont  2-samecut
   ICHARG =      2    charge: 1-file 2-atom 10-const
   ISPIN  =      2    spin polarized calculation?
   LNONCOLLINEAR =      F non collinear calculations
   LSORBIT =      F    spin-orbit coupling
   INIWAV =      1    electr: 0-lowe 1-rand  2-diag
   LASPH  =      T    aspherical Exc in radial PAW
 Electronic Relaxation 1
   ENCUT  =  700.0 eV  51.45 Ry    7.17 a.u.  42.00 42.00 41.64*2*pi/ulx,y,z
   ENINI  =  700.0     initial cutoff
   ENAUG  =  900.0 eV  augmentation charge cutoff
   NELM   =    100;   NELMIN=  2; NELMDL= -5     # of ELM steps 
   EDIFF  = 0.1E-06   stopping-criterion for ELM
   LREAL  =      T    real-space projection
   NLSPLINE    = F    spline interpolate recip. space projectors
   LCOMPAT=      F    compatible to vasp.4.4
   GGA_COMPAT  = T    GGA compatible to vasp.4.4-vasp.4.6
   LMAXPAW     = -100 max onsite density
   LMAXMIX     =    6 max onsite mixed and CHGCAR
   VOSKOWN=      0    Vosko Wilk Nusair interpolation
   ROPT   =   -0.00050  -0.00050
 Ionic relaxation
   EDIFFG = 0.1E-05   stopping-criterion for IOM
   NSW    =      0    number of steps for IOM
   NBLOCK =      1;   KBLOCK =      1    inner block; outer block 
   IBRION =     -1    ionic relax: 0-MD 1-quasi-New 2-CG
   NFREE  =      0    steps in history (QN), initial steepest desc. (CG)
   ISIF   =      2    stress and relaxation
   IWAVPR =     10    prediction:  0-non 1-charg 2-wave 3-comb
   ISYM   =      2    0-nonsym 1-usesym 2-fastsym
   LCORR  =      T    Harris-Foulkes like correction to forces

   POTIM  = 0.5000    time-step for ionic-motion
   TEIN   =    0.0    initial temperature
   TEBEG  =    0.0;   TEEND  =   0.0 temperature during run
   SMASS  =  -3.00    Nose mass-parameter (am)
   estimated Nose-frequenzy (Omega)   =  0.10E-29 period in steps = 0.13E+47 mass=  -0.866E-26a.u.
   SCALEE = 1.0000    scale energy and forces
   NPACO  =    256;   APACO  = 10.0  distance and # of slots for P.C.
   PSTRESS=    0.0 pullay stress

  Mass of Ions in am
   POMASS = 118.71 28.09
  Ionic Valenz
   ZVAL   =   4.00  4.00
  Atomic Wigner-Seitz radii
   RWIGS  =  -1.00 -1.00
  virtual crystal weights 
   VCA    =   1.00  1.00
   NELECT =    1056.0000    total number of electrons
   NUPDOWN=       1.0000    fix difference up-down

 DOS related values:
   EMIN   =  10.00;   EMAX   =-10.00  energy-range for DOS
   EFERMI =   0.00;   METHOD = LEGACY      
   ISMEAR =     0;   SIGMA  =   0.01  broadening in eV -4-tet -1-fermi 0-gaus

 Electronic relaxation 2 (details)
   IALGO  =     38    algorithm
   LDIAG  =      T    sub-space diagonalisation (order eigenvalues)
   LSUBROT=      F    optimize rotation matrix (better conditioning)
   TURBO    =      0    0=normal 1=particle mesh
   IRESTART =      0    0=no restart 2=restart with 2 vectors
   NREBOOT  =      0    no. of reboots
   NMIN     =      0    reboot dimension
   EREF     =   0.00    reference energy to select bands
   IMIX   =      4    mixing-type and parameters
     AMIX     =   0.60;   BMIX     =  1.00
     AMIX_MAG =   2.40;   BMIX_MAG =  1.00
     AMIN     =   0.10
     WC   =   100.;   INIMIX=   1;  MIXPRE=   1;  MAXMIX= -45

 Intra band minimization:
   WEIMIN = 0.0000     energy-eigenvalue tresh-hold
   EBREAK =  0.39E-10  absolut break condition
   DEPER  =   0.30     relativ break condition  

   TIME   =   0.40     timestep for ELM

  volume/ion in A,a.u.               =      27.71       186.97
  Fermi-wavevector in a.u.,A,eV,Ry     =   0.858816  1.622927 10.035183  0.737565
  Thomas-Fermi vector in A             =   1.976078
 
 Write flags
   LWAVE        =      F    write WAVECAR
   LDOWNSAMPLE  =      F    k-point downsampling of WAVECAR
   LCHARG       =      T    write CHGCAR
   LVTOT        =      F    write LOCPOT, total local potential
   LVHAR        =      T    write LOCPOT, Hartree potential only
   WRT_POTENTIAL=  hartree ionic  ! write potential to hdf5 file
   LELF         =      F    write electronic localiz. function (ELF)
   LORBIT       =      0    0 simple, 1 ext, 2 COOP (PROOUT), +10 PAW based schemes


 Dipole corrections
   LMONO      =      F    monopole corrections only (constant potential shift)
   LDIPOL     =      F    correct potential (dipole corrections)
   IDIPOL     =      0    1-x, 2-y, 3-z, 4-all directions 
   EPSILON    =  1.0000000 bulk dielectric constant
   LVACPOTAV  =      F  vacuum potentials using an averaging scheme for the charge density
   VACPOTFLAT =  0.1000000 required flatness to determine vacuum potential
 Exchange correlation treatment:
   GGA     = PE    functional components
   XC_C    = 1    coefficients multiplying the functional components
   LIBXC   =     F    Libxc                    
   VOSKOWN =     0    Vosko Wilk Nusair interpolation
   LHFCALC =     F    Hartree Fock is set to
   LHFONE  =     F    Hartree Fock one center treatment
   AEXX    =    0.0000 exact exchange contribution

 Parameters of functionals:
   PE:
     No parameter
 
 Van der Waals corrections
   IVDW    =     0    specifies the selected vdW correction

 Linear response parameters
   LEPSILON=     F    determine dielectric tensor
   LRPA    =     F    only Hartree local field effects (RPA)
   LNABLA  =     F    use nabla operator in PAW spheres
   LVEL    =     F    velocity operator in full k-point grid
   CSHIFT  =0.1000    complex shift for real part using Kramers Kronig
   OMEGAMAX=  -1.0    maximum frequency
   DEG_THRESHOLD= 0.2000000E-02 threshold for treating states as degnerate
   RTIME   =   -0.100 relaxation time in fs
  (WPLASMAI=    0.000 imaginary part of plasma frequency in eV, 0.658/RTIME)
   DFIELD  = 0.0000000 0.0000000 0.0000000 field for delta impulse in time
 
  Optional k-point grid parameters
   LKPOINTS_OPT  =     F    use optional k-point grid
   KPOINTS_OPT_MODE=     1    mode for optional k-point grid
 
 Orbital magnetization related:
   ORBITALMAG=     F  switch on orbital magnetization
   LCHIMAG   =     F  perturbation theory with respect to B field
   DQ        =  0.001000  dq finite difference perturbation B field
   LLRAUG    =     F  two centre corrections for induced B field
   LBONE     =     F  B-component reconstruction in AE one-centre
   LVGVCALC  =     T  calculate vGv susceptibility
   LVGVAPPL  =     F  apply vGv susceptibility instead of pGv for G=0

 Random number generation:
   RANDOM_GENERATOR = DEFAULT
   PCG_SEED         = not used


--------------------------------------------------------------------------------------------------------


 Static calculation
 charge density and potential will be updated during run
 spin polarized calculation
 Variant of blocked Davidson
 Davidson routine will perform the subspace rotation
 perform sub-space diagonalisation
    after iterative eigenvector-optimisation
 modified Broyden-mixing scheme, WC =      100.0
 initial mixing is a Kerker type mixing with AMIX =  0.6000 and BMIX =      1.0000
 Hartree-type preconditioning will be used
 using additional bands          108
 real space projection scheme for non local part
 use partial core corrections
 calculate Harris-corrections to forces 
   (improved forces if not selfconsistent)
 use gradient corrections 
 use of overlap-Matrix (Vanderbilt PP)
 Gauss-broadening in eV      SIGMA  =   0.01


--------------------------------------------------------------------------------------------------------


  energy-cutoff  :      700.00
  volume of cell :     7314.55
      direct lattice vectors                 reciprocal lattice vectors
    19.467599869  0.000000000  0.000000000     0.051367401  0.000000000  0.000000000
     0.000000000 19.467599869  0.000000000     0.000000000  0.051367401  0.000000000
     0.000000000  0.000000000 19.300252914     0.000000000  0.000000000  0.051812793

  length of vectors
    19.467599869 19.467599869 19.300252914     0.051367401  0.051367401  0.051812793


 
 k-points in units of 2pi/SCALE and weight: Automatic KPOINTS generated             
   0.00000000  0.00000000  0.00000000       0.125
   0.02568370  0.00000000  0.00000000       0.125
   0.00000000  0.02568370  0.00000000       0.125
   0.02568370  0.02568370  0.00000000       0.125
   0.00000000  0.00000000  0.02590640       0.125
   0.02568370  0.00000000  0.02590640       0.125
   0.00000000  0.02568370  0.02590640       0.125
   0.02568370  0.02568370  0.02590640       0.125
 
 k-points in reciprocal lattice and weights: Automatic KPOINTS generated             
   0.00000000  0.00000000  0.00000000       0.125
   0.50000000  0.00000000  0.00000000       0.125
   0.00000000  0.50000000  0.00000000       0.125
   0.50000000  0.50000000  0.00000000       0.125
   0.00000000  0.00000000  0.50000000       0.125
   0.50000000  0.00000000  0.50000000       0.125
   0.00000000  0.50000000  0.50000000       0.125
   0.50000000  0.50000000  0.50000000       0.125
 
 position of ions in fractional coordinates (direct lattice) 
   0.67452091  0.10444319  0.88601178
   0.82836843  0.66666669  0.16811179
   0.66170174  0.66666669  0.33622354
   0.05913627  0.18136621  0.88601178
   0.40529022  0.45059699  0.88601178
   0.66170174  0.33333334  0.33622354
   0.99503511  0.00000000  0.00000000
   0.25144404  0.21982789  0.88601178
   0.57836729  0.58521235  0.53426754
   0.32836846  0.66666669  0.00000000
   0.16170174  0.66666669  0.16811179
   0.99503511  0.66666669  0.33622354
   0.32836846  0.33333334  0.00000000
   0.52067471  0.87367392  0.88601178
   0.99503511  0.33333334  0.33622354
   0.32836846  0.00000000  0.00000000
   0.28990549  0.02752006  0.88601178
   0.99503511  0.00000000  0.33622354
   0.66170180  0.66666669  0.00000000
   0.71298259  0.91213548  0.88601178
   0.32836846  0.66666669  0.33622354
   0.17452094  0.60444313  0.88601178
   0.94375163  0.75828928  0.88601178
   0.32836846  0.33333334  0.33622354
   0.66170180  0.00000000  0.00000000
   0.44375166  0.25828934  0.88601178
   0.32836846  0.00000000  0.33622354
   0.07836843  0.91666675  0.08405589
   0.91170180  0.91666675  0.25216761
   0.42452115  0.35444304  0.53426754
   0.07836843  0.58333343  0.08405589
   0.27067497  0.12367377  0.53426754
   0.80913657  0.43136618  0.53426754
   0.07836843  0.25000000  0.08405589
   0.03990567  0.27751997  0.53426754
   0.74503505  0.25000000  0.42027944
   0.41170177  0.91666675  0.08405589
   0.46298268  0.16213530  0.53426754
   0.07836838  0.91666675  0.42027944
   0.41170177  0.58333343  0.08405589
   0.69375187  0.00828922  0.53426754
   0.07836838  0.58333343  0.42027944
   0.41170177  0.25000000  0.08405589
   0.19375187  0.50828922  0.53426754
   0.07836838  0.25000000  0.42027944
   0.74503517  0.91666675  0.08405589
   0.57836855  0.91666675  0.25216761
   0.41170180  0.91666675  0.42027944
   0.74503517  0.58333343  0.08405589
   0.15529031  0.70059687  0.53426754
   0.92452109  0.85444313  0.53426754
   0.74503517  0.25000000  0.08405589
   0.00144422  0.46982759  0.53426754
   0.41170180  0.25000000  0.42027944
   0.16170177  0.83333331  0.00000000
   0.48221326  0.06598163  0.88601178
   0.82836843  0.83333331  0.33622354
   0.78990543  0.52752006  0.88601178
   0.36682859  0.64290476  0.88601178
   0.82836843  0.50000000  0.33622354
   0.75144398  0.71982777  0.88601178
   0.96298248  0.66213548  0.81566292
   0.82836843  0.16666667  0.33622354
   0.49503511  0.83333331  0.00000000
   0.32836843  0.83333331  0.16811179
   0.16170175  0.83333331  0.33622354
   0.49503511  0.50000000  0.00000000
   0.32836843  0.50000000  0.16811179
   0.16170175  0.50000000  0.33622354
   0.09759780  0.98905855  0.88601178
   0.32836843  0.16666667  0.16811179
   0.16170175  0.16666667  0.33622354
   0.82836855  0.83333331  0.00000000
   0.13605934  0.79675090  0.88601178
   0.49503520  0.83333331  0.33622354
   0.82836855  0.50000000  0.00000000
   0.66170186  0.50000000  0.16811179
   0.49503520  0.50000000  0.33622354
   0.82836855  0.16666667  0.00000000
   0.92452091  0.85444319  0.81566292
   0.49503520  0.16666667  0.33622354
   0.24503510  0.75000006  0.08405589
   0.07836843  0.75000006  0.25216761
   0.53990573  0.77751988  0.53426754
   0.24503510  0.41666672  0.08405589
   0.07836843  0.41666672  0.25216761
   0.50144422  0.96982771  0.53426754
   0.24503510  0.08333334  0.08405589
   0.07836843  0.08333334  0.25216761
   0.91170174  0.08333334  0.42027944
   0.57836848  0.75000006  0.08405589
   0.41170186  0.75000006  0.25216761
   0.24503513  0.75000006  0.42027944
   0.57836848  0.41666672  0.08405589
   0.67452109  0.10444307  0.60461640
   0.84759813  0.23905837  0.53426754
   0.57836848  0.08333334  0.08405589
   0.88605958  0.04675078  0.53426754
   0.24503513  0.08333334  0.42027944
   0.82836700  0.33521238  0.88601178
   0.11682877  0.89290458  0.53426754
   0.57836837  0.75000006  0.42027944
   0.91170174  0.41666672  0.08405589
   0.71298271  0.91213542  0.60461640
   0.57836837  0.41666672  0.42027944
   0.91170174  0.08333334  0.08405589
   0.23221341  0.31598148  0.53426754
   0.57836837  0.08333334  0.42027944
   0.24503513  0.41666672  0.42027944
   0.73221344  0.31598151  0.67496520
   0.61682874  0.39290467  0.81566292
   0.57836855  0.25000000  0.25216761
   0.88605958  0.54675066  0.67496520
   0.77067488  0.62367386  0.81566292
   0.24503510  0.91666675  0.25216761
   0.34759799  0.23905843  0.67496520
   0.23221329  0.31598157  0.81566292
   0.61682886  0.39290458  0.53426754
   0.50144410  0.46982771  0.67496520
   0.38605943  0.54675084  0.81566292
   0.77067494  0.62367380  0.53426754
   0.65529025  0.70059693  0.67496520
   0.53990555  0.77752006  0.81566292
   0.41170180  0.58333343  0.42027944
   0.80913639  0.93136627  0.67496520
   0.69375169  0.00828934  0.81566292
   0.07836723  0.08521221  0.53426754
   0.96298254  0.16213533  0.67496520
   0.84759784  0.23905846  0.81566292
   0.74503505  0.08333334  0.25216761
   0.11682871  0.39290461  0.67496520
   0.00144398  0.46982774  0.81566292
   0.38605958  0.54675072  0.53426754
   0.27067486  0.62367386  0.67496520
   0.15529016  0.70059699  0.81566292
   0.91170174  0.75000006  0.42027944
   0.42452106  0.85444301  0.67496520
   0.30913633  0.93136615  0.81566292
   0.24503510  0.58333343  0.25216761
   0.57836717  0.08521234  0.67496520
   0.46298248  0.16213548  0.81566292
   0.57836855  0.58333343  0.25216761
   0.03990555  0.77752000  0.67496520
   0.66170186  0.16666667  0.16811179
   0.30913651  0.93136609  0.53426754
   0.19375181  0.00828910  0.67496520
   0.07836700  0.08521234  0.81566292
   0.05913639  0.18136609  0.60461640
   0.94375175  0.25828922  0.74531406
   0.91170174  0.75000006  0.08405589
   0.41170186  0.41666672  0.25216761
   0.55913639  0.18136621  0.74531406
   0.49503511  0.00000000  0.16811179
   0.82836735  0.33521223  0.60461640
   0.71298265  0.41213539  0.74531406
   0.59759796  0.48905852  0.88601178
   0.98221344  0.56598145  0.60461640
   0.86682874  0.64290464  0.74531406
   0.16170177  0.16666667  0.00000000
   0.44375190  0.25828916  0.60461640
   0.32836720  0.33521229  0.74531406
   0.21298248  0.41213542  0.88601178
   0.59759802  0.48905846  0.60461640
   0.48221332  0.56598157  0.74531406
   0.99503505  0.50000000  0.16811179
   0.75144416  0.71982765  0.60461640
   0.63605946  0.79675078  0.74531406
   0.16170174  0.33333334  0.16811179
   0.90529031  0.95059693  0.60461640
   0.78990561  0.02752006  0.74531406
   0.99503511  0.66666669  0.00000000
   0.21298263  0.41213533  0.60461640
   0.09759793  0.48905843  0.74531406
   0.98221320  0.56598157  0.88601178
   0.36682877  0.64290464  0.60461640
   0.25144407  0.71982771  0.74531406
   0.66170186  0.83333331  0.16811179
   0.52067488  0.87367380  0.60461640
   0.40529022  0.95059693  0.74531406
   0.16170174  0.00000000  0.16811179
   0.13605954  0.79675072  0.60461640
   0.02067483  0.87367392  0.74531406
   0.90529013  0.95059699  0.88601178
   0.28990570  0.02751994  0.60461640
   0.17452097  0.10444307  0.74531406
   0.99503511  0.33333334  0.00000000
   0.91170180  0.25000000  0.25216761
   0.92452103  0.35444310  0.67496520
   0.80913633  0.43136627  0.81566292
   0.65529031  0.20059687  0.53426754
   0.53990561  0.27752000  0.67496520
   0.42452091  0.35444313  0.81566292
   0.74503505  0.58333343  0.42027944
   0.69375181  0.50828928  0.67496520
   0.57836711  0.58521247  0.81566292
   0.96298271  0.66213542  0.53426754
   0.84759796  0.73905855  0.67496520
   0.73221326  0.81598169  0.81566292
   0.91170180  0.58333343  0.25216761
   0.15529028  0.20059690  0.67496520
   0.03990555  0.27752003  0.81566292
   0.74503505  0.91666675  0.42027944
   0.30913645  0.43136618  0.67496520
   0.19375172  0.50828928  0.81566292
   0.66170174  0.00000000  0.33622354
   0.46298256  0.66213548  0.67496520
   0.34759787  0.73905861  0.81566292
   0.73221338  0.81598151  0.53426754
   0.61682868  0.89290464  0.67496520
   0.50144398  0.96982777  0.81566292
   0.41170186  0.08333334  0.25216761
   0.77067488  0.12367391  0.67496520
   0.65529019  0.20059705  0.81566292
   0.24503510  0.25000000  0.25216761
   0.07836711  0.58521235  0.67496520
   0.99503505  0.16666667  0.16811179
   0.34759805  0.73905850  0.53426754
   0.23221335  0.81598163  0.67496520
   0.11682864  0.89290476  0.81566292
   0.91170174  0.41666672  0.42027944
   0.38605949  0.04675078  0.67496520
   0.27067479  0.12367391  0.81566292
   0.74503505  0.75000006  0.25216761
   0.00144410  0.96982771  0.67496520
   0.88605934  0.04675078  0.81566292
   0.86682892  0.14290453  0.60461640
   0.75144416  0.21982768  0.74531406
   0.63605946  0.29675081  0.88601178
   0.02067483  0.37367377  0.60461640
   0.90529019  0.45059693  0.74531406
   0.16170177  0.50000000  0.00000000
   0.63605964  0.29675070  0.60461640
   0.52067494  0.37367383  0.74531406
   0.82836843  0.33333334  0.16811179
   0.78990585  0.52751994  0.60461640
   0.67452115  0.60444307  0.74531406
   0.55913639  0.68136621  0.88601178
   0.94375205  0.75828922  0.60461640
   0.82836735  0.83521235  0.74531406
   0.49503511  0.66666669  0.16811179
   0.25144419  0.21982756  0.60461640
   0.13605948  0.29675070  0.74531406
   0.02067471  0.37367386  0.88601178
   0.40529036  0.45059687  0.60461640
   0.28990567  0.52752000  0.74531406
   0.66170180  0.33333334  0.00000000
   0.55913651  0.68136609  0.60461640
   0.44375181  0.75828922  0.74531406
   0.32836705  0.83521235  0.88601178
   0.74503505  0.41666672  0.25216761
   0.59759802  0.98905855  0.74531406
   0.99503505  0.83333331  0.16811179
   0.17452106  0.60444301  0.60461640
   0.05913639  0.68136615  0.74531406
   0.49503511  0.33333334  0.16811179
   0.32836723  0.83521223  0.60461640
   0.21298254  0.91213536  0.74531406
   0.49503511  0.16666667  0.00000000
   0.48221347  0.06598151  0.60461640
   0.36682877  0.14290476  0.74531406
   0.82836843  0.00000000  0.16811179
   0.09759800  0.98905837  0.60461640
   0.98221326  0.06598151  0.74531406
   0.86682856  0.14290464  0.88601178
 
 position of ions in cartesian coordinates  (Angst):
  13.13130318  2.03325813 17.10025142
  16.12634504 12.97840031  3.24459999
  12.88174469 12.97840031  6.48919942
   1.15124126  3.53076471 17.10025142
   7.89002776  8.77204186 17.10025142
  12.88174469  6.48920014  6.48919942
  19.37094542  0.00000000  0.00000000
   4.89501200  4.27952140 17.10025142
  11.25942304 11.39267987 10.31149874
   6.39254569 12.97840031  0.00000000
   3.14794475 12.97840031  3.24459999
  19.37094542 12.97840031  6.48919942
   6.39254569  6.48920014  0.00000000
  10.13628684 17.00833421 17.10025142
  19.37094542  6.48920014  6.48919942
   6.39254569  0.00000000  0.00000000
   5.64376404  0.53574954 17.10025142
  19.37094542  0.00000000  6.48919942
  12.88174584 12.97840031  0.00000000
  13.88005987 17.75708859 17.10025142
   6.39254569 12.97840031  6.48919942
   3.39750383 11.76705706 17.10025142
  18.37257917 14.76207225 17.10025142
   6.39254569  6.48920014  6.48919942
  12.88174584  0.00000000  0.00000000
   8.63877982  5.02827346 17.10025142
   6.39254569  0.00000000  6.48919942
   1.52564530 17.84530142  1.62229999
  17.74864580 17.84530142  4.86689869
   8.26440785  6.90015534 10.31149874
   1.52564530 11.35610186  1.62229999
   5.26939209  2.40763141 10.31149874
  15.75194696  8.39766409 10.31149874
   1.52564530  4.86689997  1.62229999
   0.77686756  5.40264775 10.31149874
  14.50404428  4.86689997  8.11149954
   8.01484530 17.84530142  1.62229999
   9.01316164  3.15638520 10.31149874
   1.52564428 17.84530142  8.11149954
   8.01484530 11.35610186  1.62229999
  13.50568385  0.16137118 10.31149874
   1.52564428 11.35610186  8.11149954
   8.01484530  4.86689997  1.62229999
   3.77188392  9.89517111 10.31149874
   1.52564428  4.86689997  8.11149954
  14.50404662 17.84530142  1.62229999
  11.25944741 17.84530142  4.86689869
   8.01484587 17.84530142  8.11149954
  14.50404662 11.35610186  1.62229999
   3.02312954 13.63893952 10.31149874
  17.99820663 16.63395702 10.31149874
  14.50404662  4.86689997  1.62229999
   0.02811552  9.14641557 10.31149874
   8.01484587  4.86689997  8.11149954
   3.14794534 16.22299949  0.00000000
   9.38753478  1.28450391 17.10025142
  16.12634504 16.22299949  6.48919942
  15.37756283 10.26954947 17.10025142
   7.14127223 12.51581258 17.10025142
  16.12634504  9.73379993  6.48919942
  14.62881077 14.01331902 17.10025142
  18.74695752 12.89018862 15.74250065
  16.12634504  3.24460008  6.48919942
   9.63714548 16.22299949  0.00000000
   6.39254511 16.22299949  3.24459999
   3.14794504 16.22299949  6.48919942
   9.63714548  9.73379993  0.00000000
   6.39254511  9.73379993  3.24459999
   3.14794504  9.73379993  6.48919942
   1.89999492 19.25459618 17.10025142
   6.39254511  3.24460008  3.24459999
   3.14794504  3.24460008  6.48919942
  16.12634738 16.22299949  0.00000000
   2.64874887 15.51082777 17.10025142
   9.63714721 16.22299949  6.48919942
  16.12634738  9.73379993  0.00000000
  12.88174700  9.73379993  3.24459999
   9.63714721  9.73379993  6.48919942
  16.12634738  3.24460008  0.00000000
  17.99820315 16.63395817 15.74250065
   9.63714721  3.24460008  6.48919942
   4.77024522 14.60070107  1.62229999
   1.52564530 14.60070107  4.86689869
  10.51066866 15.13644595 10.31149874
   4.77024522  8.11150091  1.62229999
   1.52564530  8.11150091  4.86689869
   9.76191545 18.88021784 10.31149874
   4.77024522  1.62230018  1.62229999
   1.52564530  1.62230018  4.86689869
  17.74864465  1.62230018  8.11149954
  11.25944624 14.60070107  1.62229999
   8.01484704 14.60070107  4.86689869
   4.77024581 14.60070107  8.11149954
  11.25944624  8.11150091  1.62229999
  13.13130666  2.03325582 11.66924951
  16.50070134  4.65389279 10.31149874
  11.25944624  1.62230018  1.62229999
  17.24945340  0.91012556 10.31149874
   4.77024581  1.62230018  8.11149954
  16.12631720  6.52578048 17.10025142
[...]
      0.02812      9.14642     10.31150        -0.142714      0.267272     -4.288449
      8.01485      4.86690      8.11150        -0.146080      0.185156      0.472768
      3.14795     16.22300      0.00000         1.495469      1.428827      4.599594
      9.38753      1.28450     17.10025         0.154009      0.825689      3.855847
     16.12635     16.22300      6.48920        -0.651462     -0.660403      0.396616
     15.37756     10.26955     17.10025        -1.659292      0.698348     -1.656226
      7.14127     12.51581     17.10025         1.793359     -0.514035     -1.953185
     16.12635      9.73380      6.48920         0.399086      0.042812      0.031383
     14.62881     14.01332     17.10025         0.105789      0.332635      3.784160
     18.74696     12.89019     15.74250         0.424369     -3.359907     -2.104200
     16.12635      3.24460      6.48920        -0.182240     -0.170787     -1.192146
      9.63715     16.22300      0.00000        -1.392390     -1.426610      4.069029
      6.39255     16.22300      3.24460        -0.619240      0.631138      0.609344
      3.14795     16.22300      6.48920         0.412353      0.814844     -0.639743
      9.63715      9.73380      0.00000         0.525068     -0.410950     -1.305545
      6.39255      9.73380      3.24460         0.084205     -0.118438      1.363183
      3.14795      9.73380      6.48920         1.163076     -0.125095     -0.322326
      1.89999     19.25460     17.10025         0.244984      0.535714      3.390169
      6.39255      3.24460      3.24460        -0.078527      0.121478      1.363964
      3.14795      3.24460      6.48920         0.765120      0.596636     -0.404195
     16.12635     16.22300      0.00000         0.741349     -0.682224     -0.739176
      2.64875     15.51083     17.10025        -1.234442     -1.539226     -1.940429
      9.63715     16.22300      6.48920         0.217104     -0.185076     -0.028974
     16.12635      9.73380      0.00000         1.457501     -0.884459      4.202631
     12.88175      9.73380      3.24460         0.073864      0.019996      1.235881
      9.63715      9.73380      6.48920        -0.792302      0.633925     -0.385015
     16.12635      3.24460      0.00000        -0.532945      0.116591      1.309281
     17.99820     16.63396     15.74250        -0.221215      3.326222     -1.733025
      9.63715      3.24460      6.48920         0.065551      0.110970     -1.595440
      4.77025     14.60070      1.62230        -0.120663      0.053885     -0.264236
      1.52565     14.60070      4.86690        -0.535917      0.499479     -0.758659
     10.51067     15.13645     10.31150        -1.659314      0.695847      1.647847
      4.77025      8.11150      1.62230        -1.203304      0.078190      0.213057
      1.52565      8.11150      4.86690        -0.067261      0.134001     -1.381893
      9.76192     18.88022     10.31150         0.102571      0.337291     -3.804855
      4.77025      1.62230      1.62230        -1.027344     -0.186967      0.075763
      1.52565      1.62230      4.86690         0.026525      0.014099     -1.257543
     17.74864      1.62230      8.11150         1.502433      1.431975     -4.633695
     11.25945     14.60070      1.62230         0.180986      0.112214      1.132150
      8.01485     14.60070      4.86690         0.697063     -0.577292     -0.599183
      4.77025     14.60070      8.11150         0.533044     -0.404926      1.316904
     11.25945      8.11150      1.62230        -0.334150     -1.329297     -0.094070
     13.13131      2.03326     11.66925        -0.209840      3.330465      1.749780
     16.50070      4.65389     10.31150         0.257078      0.549165     -3.412372
     11.25945      1.62230      1.62230        -0.705825      0.646439      0.838119
     17.24945      0.91013     10.31150        -1.235081     -1.546282      1.955118
      4.77025      1.62230      8.11150        -1.390279     -1.429775     -4.069806
     16.12632      6.52578     17.10025         0.025176     -0.061567      3.972429
      2.27438     17.38271     10.31150         1.808762     -0.524406      1.968722
     11.25944     14.60070      8.11150         1.450172     -0.880413     -4.184929
     17.74864      8.11150      1.62230         0.749693     -0.560304      0.385303
     13.88006     17.75709     11.66925         0.421875     -3.331890      2.106761
     11.25944      8.11150      8.11150        -0.530682      0.108477     -1.314307
     17.74864      1.62230      1.62230        -0.221411      0.137820      1.194159
      4.52064      6.15140     10.31150         0.162780      0.839763     -3.884712
     11.25944      1.62230      8.11150         0.734429     -0.685220      0.727854
      4.77025      8.11150      8.11150        -0.077669     -0.118595      0.229474
     14.25444      6.15140     13.02700        -0.007183      0.081393      0.077261
     12.00818      7.64891     15.74250        -0.325588     -0.079559      0.443692
     11.25945      4.86690      4.86690         0.095338     -0.102818     -0.979062
     17.24945     10.64392     13.02700        -0.022416      0.055005      0.093346
     15.00319     12.14143     15.74250         0.097392     -0.098486     -2.597483
      4.77025     17.84530      4.86690        -0.456326      0.379987     -0.411251
      6.76690      4.65389     13.02700         0.085773     -0.062421      0.125739
      4.52064      6.15140     15.74250        -0.943251      2.269971     -1.319907
     12.00818      7.64891     10.31150         0.860790      0.217307      2.066829
      9.76191      9.14642     13.02700         0.033943     -0.024933      0.124373
      7.51565     10.64393     15.74250        -0.099186      0.091194     -2.578439
     15.00319     12.14143     10.31150         0.144186     -0.475144     -0.542986
     12.75693     13.63894     13.02700         0.017593     -0.015970      0.103418
     10.51067     15.13645     15.74250         0.890385     -2.248988     -1.316114
      8.01485     11.35610      8.11150         0.399830     -0.324419     -0.006132
     15.75194     18.13147     13.02700         2.220036      0.510910      1.716780
     13.50568      0.16137     15.74250         0.233528      0.062576     -3.304764
      1.52562      1.65888     10.31150        -0.006080      0.027347     -0.759897
     18.74696      3.15639     13.02700         0.069442      0.054169      0.036642
     16.50070      4.65389     15.74250         0.334474     -2.392523     -1.349996
     14.50404      1.62230      4.86690        -0.327944     -0.492711     -0.524435
      2.27437      7.64891     13.02700         0.099804     -0.025708      0.136685
      0.02811      9.14642     15.74250        -0.266364      0.035404      0.696748
      7.51565     10.64392     10.31150        -0.185063      0.475361     -0.459779
      5.26939     12.14143     13.02700         0.033127     -0.048073      0.133862
      3.02313     13.63894     15.74250         0.225062      0.161351     -2.518489
     17.74864     14.60070      8.11150         0.135641     -0.035737      0.457314
      8.26441     16.63395     13.02700        -0.047073     -0.043759      0.093602
      6.01814     18.13146     15.74250         0.584336     -2.396912     -1.545733
      4.77025     11.35610      4.86690         0.107882     -0.061445     -0.050125
     11.25942      1.65888     13.02700        -2.280860     -0.457416      1.670527
      9.01316      3.15639     15.74250        -0.212209     -0.065072     -3.152732
     11.25945     11.35610      4.86690        -0.422930      0.411703     -0.410664
      0.77687     15.13645     13.02700        -0.027039      0.033928      0.054655
     12.88175      3.24460      3.24460         0.054525     -0.081077      0.940484
      6.01815     18.13146     10.31150        -0.031833     -0.711366     -0.649426
      3.77188      0.16137     13.02700        -0.024463     -0.114619      0.042179
      1.52562      1.65888     15.74250         0.001761     -0.014093     -2.988952
      1.15124      3.53076     11.66925         0.589989     -2.402818      1.529139
     18.37258      5.02827     14.38475        -0.012557     -0.108146     -0.011808
     17.74864     14.60070      1.62230         0.786748     -0.116322      0.298138
      8.01485      8.11150      4.86690         0.483896     -0.508716     -0.492144
     10.88504      3.53076     14.38475        -0.130676      0.126669     -0.050557
      9.63715      0.00000      3.24460        -0.476416      0.489031      0.492733
     16.12632      6.52578     11.66925        -0.007655     -0.013781      2.984969
     13.88006      8.02329     14.38475         0.018706      0.054877      0.004096
     11.63380      9.52080     17.10025         0.039277      0.680869      0.694006
     19.12134     11.01830     11.66925        -0.941520      2.273857      1.331944
     16.87508     12.51581     14.38475        -2.252865     -0.522441     -1.785204
      3.14795      3.24460      0.00000        -0.285873      0.642075     -0.607441
      8.63878      5.02827     11.66925         0.243131      0.058098      3.278877
      6.39252      6.52578     14.38475        -0.005068     -0.007799     -0.001723
      4.14626      8.02329     17.10025        -0.119630      0.686111      0.735207
     11.63380      9.52079     11.66925         0.334666     -2.397538      1.360466
      9.38754     11.01830     14.38475         0.065450      0.050533     -0.092039
     19.37094      9.73380      3.24460        -0.455298      0.488676      0.495766
     14.62881     14.01332     11.66925        -0.262061      0.041167     -0.711089
     12.38255     15.51083     14.38475        -0.094416      0.001230     -0.129744
      3.14794      6.48920      3.24460         0.302128     -0.348402      0.513367
     17.62383     18.50584     11.66925         0.222789      0.174327      2.538399
     15.37757      0.53575     14.38475         0.013036      0.052423     -0.029897
     19.37095     12.97840      0.00000        -0.542360      0.120335      0.011676
      4.14626      8.02329     11.66925        -0.203370     -0.063015      3.159320
      1.90000      9.52079     14.38475         0.090384     -0.095528     -0.028164
     19.12133     11.01830     17.10025         0.651966     -1.330307      2.551715
      7.14128     12.51581     11.66925        -0.328391     -0.070835     -0.453275
      4.89501     14.01332     14.38475         0.056439     -0.017349     -0.155849
     12.88175     16.22300      3.24460         0.302124     -0.386198      0.539343
     10.13629     17.00833     11.66925         0.084400     -0.090146      2.603909
      7.89003     18.50584     14.38475        -0.038465      0.010969     -0.163335
      3.14794      0.00000      3.24460         0.432371     -0.357925      0.406786
      2.64875     15.51082     11.66925        -0.097365      0.091662      2.560967
      0.40249     17.00833     14.38475         2.332635      0.461574     -1.829697
     17.62383     18.50584     17.10025        -0.463726      2.230806      2.643006
      5.64377      0.53575     11.66925         0.887289     -2.248805      1.336456
      3.39750      2.03326     14.38475        -0.025991     -0.004262     -0.144171
     19.37095      6.48920      0.00000        -0.392048      0.406915     -0.138363
     17.74865      4.86690      4.86690         0.007845      0.046258     -0.834053
     17.99821      6.90016     13.02700        -0.055754     -0.009724      0.130726
     15.75194      8.39767     15.74250         0.084139      0.034686     -3.097801
     12.75693      3.90514     10.31150        -0.464952      2.230891     -2.645342
     10.51067      5.40265     13.02700        -0.073480      0.040213      0.093304
      8.26440      6.90016     15.74250         0.417399      0.098119     -2.856657
     14.50404     11.35610      8.11150        -0.396115      0.409076      0.140843
     13.50568      9.89517     13.02700        -0.006425     -0.090363      0.008134
     11.25942     11.39268     15.74250        -0.013366     -0.010216      0.225836
     18.74696     12.89019     10.31150        -0.126148      0.669611     -0.738400
     16.50070     14.38770     13.02700         0.017039     -0.120411     -0.011721
     14.25443     15.88520     15.74250        -0.456411     -0.062280     -2.825465
     17.74865     11.35610      4.86690         0.311894     -0.352927     -0.515438
      3.02313      3.90514     13.02700        -0.065343      0.006029      0.168837
      0.77687      5.40265     15.74250        -0.201738      2.487348     -1.119343
     14.50404     17.84530      8.11150        -0.530818      0.109928     -0.012228
      6.01814      8.39766     13.02700        -0.088367      0.106881      0.090308
      3.77188      9.89517     15.74250         0.691057     -2.392822     -1.552545
     12.88174      0.00000      6.48920         0.773007     -0.128809     -0.301488
      9.01316     12.89019     13.02700         0.002590      0.059965      0.024722
      6.76690     14.38770     15.74250        -0.585188      2.399318     -1.513005
     14.25444     15.88520     10.31150         0.645661     -1.327480     -2.541412
     12.00817     17.38271     13.02700        -2.245754     -0.532031      1.800886
      9.76191     18.88022     15.74250        -0.206414     -0.168251     -2.462007
      8.01485      1.62230      4.86690         0.287233     -0.379832     -0.521209
     15.00319      2.40763     13.02700         2.333831      0.434321      1.826481
     12.75693      3.90514     15.74250        -0.191438      2.286109     -0.909162
      4.77025      4.86690      4.86690        -0.471144      0.488535     -0.491563
      1.52562     11.39268     13.02700         0.019003      0.002894     -0.013817
     19.37094      3.24460      3.24460        -0.483221      0.364299      0.416033
      6.76690     14.38770     10.31150         0.027607      0.669383     -0.689340
      4.52064     15.88520     13.02700         0.034337      0.053658      0.094601
      2.27437     17.38271     15.74250        -0.291372     -0.092513     -2.838428
     17.74864      8.11150      8.11150        -0.284540      0.648004      0.619861
      7.51565      0.91013     13.02700        -0.047386     -0.003976      0.170939
      5.26939      2.40763     15.74250         0.110220     -0.084898     -2.548040
     14.50404     14.60070      4.86690        -0.465946      0.486775     -0.477852
      0.02811     18.88022     13.02700         0.074180     -0.022491      0.118472
     17.24945      0.91013     15.74250        -0.072540     -0.148641      0.652994
     16.87508      2.78201     11.66925        -0.316072     -0.099940      2.861496
     14.62881      4.27952     14.38475         0.065058     -0.013371     -0.085580
     12.38255      5.77703     17.10025        -0.188068      0.488155      0.441246
      0.40249      7.27453     11.66925         0.114515     -0.082465      2.553160
     17.62383      8.77204     14.38475        -0.017041     -0.007627     -0.099407
      3.14795      9.73380      0.00000         0.134286     -0.040637     -0.453869
     12.38255      5.77702     11.66925        -0.083338     -0.144863     -0.633523
     10.13629      7.27453     14.38475         0.028680     -0.063956     -0.113743
     16.12635      6.48920      3.24460         0.024815     -0.010378      0.858364
     15.37757     10.26955     11.66925        -0.191756      2.485344      1.100831
     13.13131     11.76706     14.38475        -0.076950     -0.022685     -0.077131
     10.88504     13.26456     17.10025        -0.013048     -0.720549      0.655185
     18.37259     14.76207     11.66925         0.670164     -2.392121      1.578076
     16.12632     16.25958     14.38475        -2.264188     -0.467890     -1.639664
      9.63715     12.97840      3.24460         0.384324     -0.434282      0.418527
      4.89501      4.27952     11.66925        -0.194399     -0.161713      2.493217
      2.64875      5.77702     14.38475         0.008279      0.049718     -0.124338
      0.40249      7.27453     17.10025         0.146435     -0.483815      0.566776
      7.89003      8.77204     11.66925        -0.207813      2.296930      0.897484
      5.64377     10.26955     14.38475        -0.112153      0.022114     -0.087618
     12.88175      6.48920      0.00000         0.389576     -0.336074      0.032950
     10.88505     13.26456     11.66925         0.089863      0.049876      3.108633
      8.63878     14.76207     14.38475        -0.015532     -0.096561     -0.036516
      6.39252     16.25958     17.10025         0.006877      0.018116      0.766480
     14.50404      8.11150      4.86690         0.350178     -0.443725     -0.408041
     11.63380     19.25460     14.38475         0.006261     -0.083895     -0.077454
     19.37094     16.22300      3.24460        -0.321517     -0.483311     -0.327454
      3.39751     11.76705     11.66925         0.406335      0.096528      2.844326
      1.15124     13.26456     14.38475         2.260134      0.506100     -1.757158
      9.63715      6.48920      3.24460         0.115628     -0.067453      0.922368
      6.39252     16.25958     11.66925        -0.013958     -0.010677     -0.222903
      4.14626     17.75709     14.38475         0.044583      0.067828     -0.053956
      9.63715      3.24460      0.00000        -0.076947     -0.134504     -0.210304
      9.38754      1.28450     11.66925        -0.459785     -0.075031      2.823787
      7.14128      2.78201     14.38475         0.100207     -0.044378     -0.141557
     16.12635      0.00000      3.24460        -0.315703      0.309029      0.571958
      1.90000     19.25459     11.66925        -0.590252      2.413939      1.516206
     19.12133      1.28450     14.38475        -0.023585      0.074860     -0.081802
     16.87507      2.78201     17.10025         0.862723      0.216349     -2.077611
 -----------------------------------------------------------------------------------
    total drift:                               -0.039681      0.050868     -0.470931


--------------------------------------------------------------------------------------------------------



  FREE ENERGIE OF THE ION-ELECTRON SYSTEM (eV)
  ---------------------------------------------------
  free  energy   TOTEN  =     -1121.85439821 eV

  energy  without entropy=    -1121.85066555  energy(sigma->0) =    -1121.85253188
 


--------------------------------------------------------------------------------------------------------


    POTLOK:  cpu time      3.0698: real time      3.0895


--------------------------------------------------------------------------------------------------------


     LOOP+:  cpu time   6146.6849: real time   6205.5708
    4ORBIT:  cpu time      0.0000: real time      0.0000

 total amount of memory used by VASP MPI-rank0   916463. kBytes
=======================================================================

   base      :      30000. kBytes
   nonlr-proj:      25159. kBytes
   fftplans  :      40892. kBytes
   grid      :      30643. kBytes
   one-center:        275. kBytes
   wavefun   :     789494. kBytes
 
  
  
 General timing and accounting informations for this job:
 ========================================================
  
                  Total CPU time used (sec):     6474.365
                            User time (sec):     6217.673
                          System time (sec):      256.692
                         Elapsed time (sec):     6543.090
  
                   Maximum memory used (kb):     1209272.
                   Average memory used (kb):          N/A
  
                          Minor page faults:       914511
                          Major page faults:         1316
                 Voluntary context switches:         4579
