 vasp.6.4.3 19Mar24 (build Oct 22 2024 11:23:12) complex                        
  
 executed on             LinuxIFC date 2025.06.04  01:40:03
 running   64 mpi-ranks, on    4 nodes
 distrk:  each k-point on   64 cores,    1 groups
 distr:  one band on NCORE=  16 cores,    4 groups


--------------------------------------------------------------------------------------------------------


 INCAR:
   SYSTEM = Si and Ge interface calculation
   ISTART = 0
   ICHARG = 2
   LWAVE = .FALSE.
   LREAL = AUTO
   ENCUT = 700
   ENAUG = 900
   ADDGRID = .TRUE.
   LMAXMIX = 6
   LASPH = .TRUE.
   LMIXTAU = .TRUE.
   NCORE = 16
   NELM = 100
   NBANDS = 144
   EDIFF = 1d-7
   AMIX = 0.6
   ISMEAR = 0
   SIGMA = 0.01
   NELECT = 240
   ISPIN = 2
   NUPDOWN = 1
   LVTOT = .FALSE.
   LVHAR = .TRUE.

 POTCAR:    PAW_PBE Sn 08Apr2002                  
 POTCAR:    PAW_PBE Si 05Jan2001                  
 -----------------------------------------------------------------------------
|                                                                             |
|           W    W    AA    RRRRR   N    N  II  N    N   GGGG   !!!           |
|           W    W   A  A   R    R  NN   N  II  NN   N  G    G  !!!           |
|           W    W  A    A  R    R  N N  N  II  N N  N  G       !!!           |
|           W WW W  AAAAAA  RRRRR   N  N N  II  N  N N  G  GGG   !            |
|           WW  WW  A    A  R   R   N   NN  II  N   NN  G    G                |
|           W    W  A    A  R    R  N    N  II  N    N   GGGG   !!!           |
|                                                                             |
|     You use a magnetic or noncollinear calculation, but did not specify     |
|     the initial magnetic moment with the MAGMOM tag. Note that a            |
|     default of 0.017 will be used for all atoms. This ferromagnetic         |
|     setup may break the symmetry of the crystal, in particular it may       |
|     rule out finding an antiferromagnetic solution. Thence, we              |
|     recommend setting the initial magnetic moment manually or verifying     |
|     carefully that this magnetic setup is desired.                          |
|                                                                             |
 -----------------------------------------------------------------------------

 POTCAR:    PAW_PBE Sn 08Apr2002                  
   VRHFIN =Sn: s2p2                                                                                 
   LEXCH  = PE                                                                                      
   EATOM  =    94.0860 eV,    6.9151 Ry                                                             
                                                                                                    
   TITEL  = PAW_PBE Sn 08Apr2002                                                                    
   LULTRA =        F    use ultrasoft PP ?                                                          
   IUNSCR =        1    unscreen: 0-lin 1-nonlin 2-no                                               
   RPACOR =    2.000    partial core radius                                                         
   POMASS =  118.710; ZVAL   =    4.000    mass and valenz                                          
   RCORE  =    3.000    outmost cutoff radius                                                       
   RWIGS  =    2.960; RWIGS  =    1.566    wigner-seitz radius (au A)                               
   ENMAX  =  103.236; ENMIN  =   77.427 eV                                                          
   ICORE  =        3    local potential                                                             
   LCOR   =        T    correct aug charges                                                         
   LPAW   =        T    paw PP                                                                      
   EAUG   =  263.585                                                                                
   DEXC   =    0.000                                                                                
   RMAX   =    3.078    core radius for proj-oper                                                   
   RAUG   =    1.300    factor for augmentation sphere                                              
   RDEP   =    3.022    radius for radial grids                                                     
   RDEPT  =    2.655    core radius for aug-charge                                                  
                                                                                                    
   Atomic configuration                                                                             
   13 entries                                                                                       
     n  l   j            E        occ.                                                              
     1  0  0.50    -29007.2859   2.0000                                                             
     2  0  0.50     -4378.8056   2.0000                                                             
     2  1  1.50     -3930.4293   6.0000                                                             
     3  0  0.50      -845.0264   2.0000                                                             
     3  1  1.50      -698.5725   6.0000                                                             
     3  2  2.50      -473.2839  10.0000                                                             
     4  0  0.50      -133.9036   2.0000                                                             
     4  1  1.50       -89.6752   6.0000                                                             
     4  2  2.50       -25.8375  10.0000                                                             
     5  0  0.50       -10.5484   2.0000                                                             
     5  1  0.50        -3.6940   2.0000                                                             
     5  2  1.50        -1.3606   0.0000                                                             
     4  3  2.50        -4.0817   0.0000                                                             
   Description                                                                                      
     l       E           TYP  RCUT    TYP  RCUT                                                     
     0    -10.5483727     23  3.000                                                                 
     0     27.2116520     23  3.000                                                                 
     1     -3.6939829     23  3.000                                                                 
     1      1.9821976     23  3.000                                                                 
     2     -1.3605826     23  3.000                                                                 
     3     -2.7211652     23  3.000                                                                 
  local pseudopotential read in
  partial core-charges read in
  partial kinetic energy density read in
  atomic valenz-charges read in
  non local Contribution for L=           0  read in
    real space projection operators read in
  non local Contribution for L=           0  read in
    real space projection operators read in
  non local Contribution for L=           1  read in
    real space projection operators read in
  non local Contribution for L=           1  read in
    real space projection operators read in
  non local Contribution for L=           2  read in
    real space projection operators read in
    PAW grid and wavefunctions read in
 
   number of l-projection  operators is LMAX  =           5
   number of lm-projection operators is LMMAX =          13
 
 POTCAR:    PAW_PBE Si 05Jan2001                  
   VRHFIN =Si: s2p2                                                                                 
   LEXCH  = PE                                                                                      
   EATOM  =   103.0669 eV,    7.5752 Ry                                                             
                                                                                                    
   TITEL  = PAW_PBE Si 05Jan2001                                                                    
   LULTRA =        F    use ultrasoft PP ?                                                          
   IUNSCR =        1    unscreen: 0-lin 1-nonlin 2-no                                               
   RPACOR =    1.500    partial core radius                                                         
   POMASS =   28.085; ZVAL   =    4.000    mass and valenz                                          
   RCORE  =    1.900    outmost cutoff radius                                                       
   RWIGS  =    2.480; RWIGS  =    1.312    wigner-seitz radius (au A)                               
   ENMAX  =  245.345; ENMIN  =  184.009 eV                                                          
   ICORE  =        2    local potential                                                             
   LCOR   =        T    correct aug charges                                                         
   LPAW   =        T    paw PP                                                                      
   EAUG   =  322.069                                                                                
   DEXC   =    0.000                                                                                
   RMAX   =    1.950    core radius for proj-oper                                                   
   RAUG   =    1.300    factor for augmentation sphere                                              
   RDEP   =    1.993    radius for radial grids                                                     
   RDEPT  =    1.837    core radius for aug-charge                                                  
                                                                                                    
   Atomic configuration                                                                             
    6 entries                                                                                       
     n  l   j            E        occ.                                                              
     1  0  0.50     -1785.8828   2.0000                                                             
     2  0  0.50      -139.4969   2.0000                                                             
     2  1  1.50       -95.5546   6.0000                                                             
     3  0  0.50       -10.8127   2.0000                                                             
     3  1  0.50        -4.0811   2.0000                                                             
     3  2  1.50        -4.0817   0.0000                                                             
   Description                                                                                      
     l       E           TYP  RCUT    TYP  RCUT                                                     
     0    -10.8127223     23  1.900                                                                 
     0     -7.6451159     23  1.900                                                                 
     1     -4.0811372     23  1.900                                                                 
     1      2.4879257     23  1.900                                                                 
     2     -4.0817478      7  1.900                                                                 
  local pseudopotential read in
  partial core-charges read in
  partial kinetic energy density read in
  atomic valenz-charges read in
  non local Contribution for L=           0  read in
    real space projection operators read in
  non local Contribution for L=           0  read in
    real space projection operators read in
  non local Contribution for L=           1  read in
    real space projection operators read in
  non local Contribution for L=           1  read in
    real space projection operators read in
    PAW grid and wavefunctions read in
 
   number of l-projection  operators is LMAX  =           4
   number of lm-projection operators is LMMAX =           8
 
 Optimization of the real space projectors (new method)

 maximal supplied QI-value         = 12.47
 optimisation between [QCUT,QGAM] = [ 12.47, 27.06] = [ 43.56,205.12] Ry 
 Optimized for a Real-space Cutoff    1.58 Angstroem

   l    n(q)    QCUT    max X(q) W(low)/X(q) W(high)/X(q)  e(spline) 
   0     13    12.472    14.688    0.45E-04    0.45E-04    0.25E-05
   0     13    12.472     7.308    0.94E-04    0.11E-03    0.61E-05
   1     12    12.472    45.102    0.34E-03    0.14E-03    0.21E-05
   1     12    12.472    30.691    0.31E-03    0.13E-03    0.20E-05
   2     12    12.472     7.156    0.86E-04    0.11E-03    0.17E-05
 WARNING: PSMAXN for non-local potential too small
          PSMAXN should be >   13.5545592237991       NTYP=           1
 Optimization of the real space projectors (new method)

 maximal supplied QI-value         = 19.84
 optimisation between [QCUT,QGAM] = [ 13.49, 26.99] = [ 50.98,203.92] Ry 
 Optimized for a Real-space Cutoff    1.07 Angstroem

   l    n(q)    QCUT    max X(q) W(low)/X(q) W(high)/X(q)  e(spline) 
   0      9    13.493   159.560    0.22E-03    0.15E-03    0.72E-07
   0      9    13.493   115.863    0.21E-03    0.15E-03    0.71E-07
   1      8    13.493    88.339    0.15E-03    0.11E-03    0.13E-06
   1      8    13.493    48.592    0.15E-03    0.10E-03    0.13E-06
  PAW_PBE Sn 08Apr2002                  :
 energy of atom  1       EATOM=  -94.0860
 kinetic energy error for atom=    0.0000 (will be added to EATOM!!)
  PAW_PBE Si 05Jan2001                  :
 energy of atom  2       EATOM= -103.0669
 kinetic energy error for atom=    0.0003 (will be added to EATOM!!)
 
 
 POSCAR: Sn+Si
  positions in direct lattice
  No initial velocities read in


 exchange-correlation table for PE
   RHO(1)=    0.500       N(1)  =     2000
   RHO(2)=  100.500       N(2)  =     4000
 


--------------------------------------------------------------------------------------------------------


 ion  position               nearest neighbor table
   1  0.987  0.013  0.000-  59 2.34  45 2.45  22 2.81   8 2.81  58 3.07  31 3.09  57 3.11
   2  0.837  0.163  0.218-  23 2.81   9 2.81  22 2.81  54 2.82  28 2.88  56 2.95
   3  0.687  0.313  0.436-  37 1.66  26 2.32  49 2.59  24 2.81  10 2.81  23 2.81
   4  0.487  0.513  0.000-  35 2.34  30 2.45  19 2.81  11 2.81  34 3.07  46 3.09  42 3.11
   5  0.337  0.663  0.218-  20 2.81  12 2.81  19 2.81  39 2.82  43 2.88  41 2.95
   6  0.187  0.813  0.436-  52 1.66  50 2.32  25 2.59  21 2.81   7 2.81  20 2.81
   7  0.287  0.963  0.109-  36 2.30  38 2.66  16 2.81   6 2.81  17 2.81  48 2.87  50 3.17  39 3.36

   8  0.137  0.113  0.327-  58 2.19  31 2.40  17 2.81   1 2.81  18 2.81  36 3.10  47 3.23
   9  0.987  0.263  0.544-  28 0.76  56 2.01  55 2.77  18 2.81   2 2.81  45 3.28  29 3.30
  10  0.787  0.463  0.109-  60 2.30  53 2.66  13 2.81   3 2.81  14 2.81  33 2.87  26 3.17  54 3.36

  11  0.637  0.613  0.327-  34 2.19  46 2.40  14 2.81   4 2.81  15 2.81  60 3.10  32 3.23
  12  0.487  0.763  0.544-  43 0.76  41 2.01  40 2.77  15 2.81   5 2.81  30 3.28  44 3.30
  13  0.987  0.513  0.000-  51 1.41  53 1.57  10 2.81  20 2.81  39 3.01  26 3.08
  14  0.837  0.663  0.218-  60 1.99  11 2.81  21 2.81  10 2.81  25 3.36  32 3.42
  15  0.687  0.813  0.436-  34 2.40  12 2.81  22 2.81  11 2.81  57 3.05  29 3.06  43 3.27  30 3.43

  16  0.487  0.013  0.000-  27 1.41  38 1.57   7 2.81  23 2.81  54 3.01  50 3.08
  17  0.337  0.163  0.218-  36 1.99   8 2.81  24 2.81   7 2.81  49 3.36  47 3.42
  18  0.187  0.313  0.436-  58 2.40   9 2.81  19 2.81   8 2.81  42 3.05  44 3.06  28 3.27  45 3.43

  19  0.287  0.463  0.109-  42 1.12  44 2.66   4 2.81  18 2.81   5 2.81  41 3.33  45 3.35
  20  0.137  0.613  0.327-  39 2.57  55 2.80   5 2.81  13 2.81   6 2.81  51 2.91  25 3.13
  21  0.987  0.763  0.544-  25 1.89  52 1.92  48 2.79   6 2.81  14 2.81  32 2.81  59 2.84  31 3.41

  22  0.787  0.963  0.109-  57 1.12  29 2.66   1 2.81  15 2.81   2 2.81  56 3.33  30 3.35
  23  0.637  0.113  0.327-  54 2.57  40 2.80   2 2.81  16 2.81   3 2.81  27 2.91  49 3.13
  24  0.487  0.263  0.544-  49 1.89  37 1.92  33 2.79   3 2.81  17 2.81  47 2.81  35 2.84  46 3.41

  25  0.983  0.641  0.544-  21 1.89  52 2.30  53 2.33   6 2.59  20 3.13  14 3.36
  26  0.783  0.341  0.727-  53 2.30  37 2.30   3 2.32  54 2.33  13 3.08  10 3.17
  27  0.583  0.041  0.909-  16 1.41  38 2.30  54 2.30  40 2.33  23 2.91
  28  0.983  0.308  0.544-   9 0.76  55 2.30  56 2.33   2 2.88  18 3.27
  29  0.783  0.008  0.727-  56 2.30  40 2.30  57 2.33  22 2.66  15 3.06   9 3.30
  30  0.583  0.708  0.909-  41 2.30  57 2.30  34 2.33   4 2.45  12 3.28  22 3.35  15 3.43
  31  0.983  0.974  0.544-  58 2.30  59 2.33   8 2.40   1 3.09  21 3.41
  32  0.783  0.674  0.727-  34 2.30  59 2.30  60 2.33  21 2.81  11 3.23  14 3.42
  33  0.583  0.374  0.909-  35 2.30  60 2.30  37 2.33  24 2.79  10 2.87
  34  0.633  0.658  0.636-  11 2.19  32 2.30  46 2.30  30 2.33  15 2.40   4 3.07
  35  0.433  0.358  0.818-  33 2.30  47 2.30  46 2.33   4 2.34  24 2.84
  36  0.233  0.058  0.000-  17 1.99   7 2.30  48 2.30  47 2.33   8 3.10
  37  0.633  0.324  0.636-   3 1.66  24 1.92  49 2.30  26 2.30  33 2.33
  38  0.433  0.024  0.818-  16 1.57  27 2.30  50 2.30  49 2.33   7 2.66
  39  0.233  0.724  0.000-  51 2.30  50 2.33  20 2.57   5 2.82  13 3.01   7 3.36
  40  0.633  0.991  0.636-  29 2.30  43 2.30  27 2.33  12 2.77  23 2.80
  41  0.433  0.691  0.818-  12 2.01  30 2.30  44 2.30  43 2.33   5 2.95  19 3.33
  42  0.233  0.391  0.000-  19 1.12  45 2.30  44 2.33  18 3.05   4 3.11
  43  0.483  0.808  0.544-  12 0.76  40 2.30  41 2.33   5 2.88  15 3.27
  44  0.283  0.508  0.727-  55 2.30  41 2.30  42 2.33  19 2.66  18 3.06  12 3.30
  45  0.083  0.208  0.909-  56 2.30  42 2.30  58 2.33   1 2.45   9 3.28  19 3.35  18 3.43
  46  0.483  0.474  0.544-  34 2.30  35 2.33  11 2.40   4 3.09  24 3.41
  47  0.283  0.174  0.727-  35 2.30  58 2.30  36 2.33  24 2.81   8 3.23  17 3.42
  48  0.083  0.874  0.909-  36 2.30  59 2.30  52 2.33  21 2.79   7 2.87
  49  0.483  0.141  0.544-  24 1.89  37 2.30  38 2.33   3 2.59  23 3.13  17 3.36
  50  0.283  0.841  0.727-  52 2.30  38 2.30   6 2.32  39 2.33  16 3.08   7 3.17
  51  0.083  0.541  0.909-  13 1.41  53 2.30  39 2.30  55 2.33  20 2.91
  52  0.133  0.824  0.636-   6 1.66  21 1.92  50 2.30  25 2.30  48 2.33
  53  0.933  0.524  0.818-  13 1.57  51 2.30  26 2.30  25 2.33  10 2.66
  54  0.733  0.224  0.000-  27 2.30  26 2.33  23 2.57   2 2.82  16 3.01  10 3.36
  55  0.133  0.491  0.636-  44 2.30  28 2.30  51 2.33   9 2.77  20 2.80
  56  0.933  0.191  0.818-   9 2.01  45 2.30  29 2.30  28 2.33   2 2.95  22 3.33
  57  0.733  0.891  0.000-  22 1.12  30 2.30  29 2.33  15 3.05   1 3.11
  58  0.133  0.158  0.636-   8 2.19  47 2.30  31 2.30  45 2.33  18 2.40   1 3.07
  59  0.933  0.858  0.818-  48 2.30  32 2.30  31 2.33   1 2.34  21 2.84
  60  0.733  0.558  0.000-  14 1.99  10 2.30  33 2.30  32 2.33  11 3.10
 
 -----------------------------------------------------------------------------
|                                                                             |
|           W    W    AA    RRRRR   N    N  II  N    N   GGGG   !!!           |
|           W    W   A  A   R    R  NN   N  II  NN   N  G    G  !!!           |
|           W    W  A    A  R    R  N N  N  II  N N  N  G       !!!           |
|           W WW W  AAAAAA  RRRRR   N  N N  II  N  N N  G  GGG   !            |
|           WW  WW  A    A  R   R   N   NN  II  N   NN  G    G                |
|           W    W  A    A  R    R  N    N  II  N    N   GGGG   !!!           |
|                                                                             |
|     The distance between some ions is very small. Please check the          |
|     nearest-neighbor list in the OUTCAR file.                               |
|     I HOPE YOU KNOW WHAT YOU ARE DOING!                                     |
|                                                                             |
 -----------------------------------------------------------------------------

  LATTYP: Found a base centered orthorhombic cell.
 ALAT       =    12.9784001740
 B/A-ratio  =     2.2360679831
 C/A-ratio  =     0.5134372249
  
  Lattice vectors:
  
 A1 = (  15.8952283860,   0.0000000000,   0.0000000000)
 A2 = ( -10.5968198780,  11.8476047520,   0.0000000000)
 A3 = (   0.0000000000,   0.0000000000,   6.6635937690)


Analysis of symmetry for initial positions (statically):
=====================================================================
 Subroutine PRICEL returns following result:
 
  LATTYP: Found a simple orthorhombic cell.
 ALAT       =     6.4892001908
 B/A-ratio  =     1.0268744334
 C/A-ratio  =     2.2360679115
  
  Lattice vectors:
  
 A1 = (  -2.6492040845,  -5.9238025656,   0.0000000000)
 A2 = (   0.0000000000,   0.0000000000,   6.6635937690)
 A3 = ( -13.2460239625,   5.9238021864,   0.0000000000)
 
   2 primitive cells build up your supercell.
 

 Routine SETGRP: Setting up the symmetry group for a 
 base centered orthorhombic supercell.


 Subroutine GETGRP returns: Found  1 space group operations
 (whereof  1 operations were pure point group operations)
 out of a pool of  8 trial point group operations.


The static configuration has the point symmetry C_1 .


Analysis of symmetry for dynamics (positions and initial velocities):
=====================================================================
 Subroutine PRICEL returns following result:
 
  LATTYP: Found a simple orthorhombic cell.
 ALAT       =     6.4892001908
 B/A-ratio  =     1.0268744334
 C/A-ratio  =     2.2360679115
  
  Lattice vectors:
  
 A1 = (  -2.6492040845,  -5.9238025656,   0.0000000000)
 A2 = (   0.0000000000,   0.0000000000,   6.6635937690)
 A3 = ( -13.2460239625,   5.9238021864,   0.0000000000)
 
   2 primitive cells build up your supercell.
 

 Routine SETGRP: Setting up the symmetry group for a 
 base centered orthorhombic supercell.


 Subroutine GETGRP returns: Found  1 space group operations
 (whereof  1 operations were pure point group operations)
 out of a pool of  8 trial point group operations.


The dynamic configuration has the point symmetry C_1 .


Analysis of structural, dynamic, and magnetic symmetry:
=====================================================================
 Subroutine PRICEL returns following result:
 
  LATTYP: Found a simple orthorhombic cell.
 ALAT       =     6.4892001908
 B/A-ratio  =     1.0268744334
 C/A-ratio  =     2.2360679115
  
  Lattice vectors:
  
 A1 = (  -2.6492040845,  -5.9238025656,   0.0000000000)
 A2 = (   0.0000000000,   0.0000000000,   6.6635937690)
 A3 = ( -13.2460239625,   5.9238021864,   0.0000000000)
 
   2 primitive cells build up your supercell.
 

 Routine SETGRP: Setting up the symmetry group for a 
 base centered orthorhombic supercell.


 Subroutine GETGRP returns: Found  1 space group operations
 (whereof  1 operations were pure point group operations)
 out of a pool of  8 trial point group operations.


The overall configuration has the point symmetry C_1 .


 Subroutine INISYM returns: Found  1 space group operations
 (whereof  1 operations are pure point group operations),
 and found     2 'primitive' translations


----------------------------------------------------------------------------------------

                                     Primitive cell                                     

  volume of cell :     627.4453

  direct lattice vectors                    reciprocal lattice vectors
    -2.649204084 -5.923802566  0.000000000    -0.062911960 -0.140675414  0.000000000
     0.000000000  0.000000000  6.663593769     0.000000000  0.000000000  0.150069172
   -13.246023962  5.923802186  0.000000000    -0.062911964  0.028135075  0.000000000

  length of vectors
     6.489200191  6.663593769 14.510292318     0.154102196  0.150069172  0.068916599

  position of ions in fractional coordinates (direct lattice)
     0.000000048  0.000000018  0.025641512
     0.999999982  0.217754856  0.325641650
     0.999999902  0.435509712  0.625641832
     0.750000128  0.108877264  0.675641408
     0.750000018  0.326631993  0.975641500
     0.750000032  0.544386923  0.275641648
     0.500000032  0.000000000  0.525641528
     0.499999967  0.217754826  0.825641665
     0.499999903  0.435509652  0.125641801
     0.250000144  0.108877219  0.175641392
     0.249999901  0.326632053  0.475641589
     0.250000032  0.544386804  0.775641648
     0.376069279  0.544386864  0.658119469
     0.876069406  0.726632357  0.558119496
     0.376069672  0.908877730  0.458119504
     0.709402622  0.544386864  0.324786126
     0.209402731  0.726632357  0.224786111
     0.709402951  0.908877730  0.124786165
     0.042735906  0.544386864  0.991452842
     0.542736107  0.726632357  0.891452795
     0.042736265  0.908877730  0.791452851
     0.709402371  0.635509491  0.024786275
     0.209402591  0.817754865  0.924786299
     0.709402907  0.000000238  0.824786049
     0.042735804  0.635509491  0.691452842
     0.542736060  0.817754865  0.591452770
     0.042736136  0.000000238  0.491452850
     0.376069149  0.635509372  0.358119527
     0.876069367  0.817754865  0.258119523
     0.376069390  0.000000238  0.158119596

  ion indices of the primitive-cell ions
   primitive index   ion index
                 1           1
                 2           2
                 3           6
                 4           7
                 5           8
                 6           9
                 7          13
                 8          14
                 9          15
                10          22
                11          23
                12          21
                13          25
                14          50
                15          27
                16          28
                17          29
                18          45
                19          31
                20          47
                21          48
                22          58
                23          59
                24          36
                25          52
                26          38
                27          54
                28          40
                29          56
                30          57

----------------------------------------------------------------------------------------

 
 
 KPOINTS: Automatic KPOINTS generated             

Automatic generation of k-mesh.
 Grid dimensions read from file:
 generate k-points for:    3    3    5

 Generating k-lattice:

  Cartesian coordinates                     Fractional coordinates (reciprocal lattice)
     0.020970654  0.018756723  0.000000000     0.333333333  0.000000000  0.000000000
     0.000000000  0.028135082  0.000000000     0.000000000  0.333333333  0.000000000
     0.000000000  0.000000000  0.030013834     0.000000000  0.000000000  0.200000000

  Length of vectors
     0.028135085  0.028135082  0.030013834

  Shift w.r.t. Gamma in fractional coordinates (k-lattice)
     0.000000000  0.000000000  0.000000000

 
 Subroutine IBZKPT returns following result:
 ===========================================
 
 Found     23 irreducible k-points:
 
 Following reciprocal coordinates:
            Coordinates               Weight
  0.000000  0.000000  0.000000      1.000000
  0.333333 -0.000000  0.000000      2.000000
  0.000000  0.333333  0.000000      2.000000
  0.333333  0.333333  0.000000      2.000000
 -0.333333  0.333333  0.000000      2.000000
  0.000000  0.000000  0.200000      2.000000
  0.333333 -0.000000  0.200000      2.000000
 -0.333333  0.000000  0.200000      2.000000
  0.000000  0.333333 -0.200000      2.000000
  0.000000 -0.333333 -0.200000      2.000000
  0.333333  0.333333  0.200000      2.000000
 -0.333333 -0.333333  0.200000      2.000000
 -0.333333  0.333333  0.200000      2.000000
  0.333333 -0.333333  0.200000      2.000000
  0.000000  0.000000  0.400000      2.000000
  0.333333 -0.000000  0.400000      2.000000
 -0.333333  0.000000  0.400000      2.000000
  0.000000  0.333333 -0.400000      2.000000
  0.000000 -0.333333 -0.400000      2.000000
  0.333333  0.333333  0.400000      2.000000
 -0.333333 -0.333333  0.400000      2.000000
 -0.333333  0.333333  0.400000      2.000000
  0.333333 -0.333333  0.400000      2.000000
 
 Following cartesian coordinates:
            Coordinates               Weight
  0.000000  0.000000  0.000000      1.000000
  0.020971  0.018757  0.000000      2.000000
  0.000000  0.028135  0.000000      2.000000
  0.020971  0.046892  0.000000      2.000000
 -0.020971  0.009378  0.000000      2.000000
  0.000000  0.000000  0.030014      2.000000
  0.020971  0.018757  0.030014      2.000000
 -0.020971 -0.018757  0.030014      2.000000
  0.000000  0.028135 -0.030014      2.000000
  0.000000 -0.028135 -0.030014      2.000000
  0.020971  0.046892  0.030014      2.000000
 -0.020971 -0.046892  0.030014      2.000000
 -0.020971  0.009378  0.030014      2.000000
  0.020971 -0.009378  0.030014      2.000000
  0.000000  0.000000  0.060028      2.000000
  0.020971  0.018757  0.060028      2.000000
 -0.020971 -0.018757  0.060028      2.000000
  0.000000  0.028135 -0.060028      2.000000
  0.000000 -0.028135 -0.060028      2.000000
  0.020971  0.046892  0.060028      2.000000
 -0.020971 -0.046892  0.060028      2.000000
 -0.020971  0.009378  0.060028      2.000000
  0.020971 -0.009378  0.060028      2.000000
 


--------------------------------------------------------------------------------------------------------




 Dimension of arrays:
   k-points           NKPTS =     23   k-points in BZ     NKDIM =     23   number of bands    NBANDS=    144
   number of dos      NEDOS =    301   number of ions     NIONS =     60
   non local maximal  LDIM  =      5   non local SUM 2l+1 LMDIM =     13
   total plane-waves  NPLWV = 559872
   max r-space proj   IRMAX =   7400   max aug-charges    IRDMAX= 343725
   dimension x,y,z NGX =   108 NGY =  108 NGZ =   48
   dimension x,y,z NGXF=   216 NGYF=  216 NGZF=   96
   support grid    NGXF=   432 NGYF=  432 NGZF=  192
   ions per type =              24  36
   NGX,Y,Z   is equivalent  to a cutoff of  11.30, 11.30, 11.98 a.u.
   NGXF,Y,Z  is equivalent  to a cutoff of  22.59, 22.59, 23.95 a.u.

 SYSTEM =  Si and Ge interface calculation         
 POSCAR =  Sn+Si                                   

 Startparameter for this run:
   NWRITE =      2    write-flag & timer
   PREC   = normal    normal or accurate (medium, high low for compatibility)
   ISTART =      0    job   : 0-new  1-cont  2-samecut
   ICHARG =      2    charge: 1-file 2-atom 10-const
   ISPIN  =      2    spin polarized calculation?
   LNONCOLLINEAR =      F non collinear calculations
   LSORBIT =      F    spin-orbit coupling
   INIWAV =      1    electr: 0-lowe 1-rand  2-diag
   LASPH  =      T    aspherical Exc in radial PAW
 Electronic Relaxation 1
   ENCUT  =  700.0 eV  51.45 Ry    7.17 a.u.  34.29 34.29 14.38*2*pi/ulx,y,z
   ENINI  =  700.0     initial cutoff
   ENAUG  =  900.0 eV  augmentation charge cutoff
   NELM   =    100;   NELMIN=  2; NELMDL= -5     # of ELM steps 
   EDIFF  = 0.1E-06   stopping-criterion for ELM
   LREAL  =      T    real-space projection
   NLSPLINE    = F    spline interpolate recip. space projectors
   LCOMPAT=      F    compatible to vasp.4.4
   GGA_COMPAT  = T    GGA compatible to vasp.4.4-vasp.4.6
   LMAXPAW     = -100 max onsite density
   LMAXMIX     =    6 max onsite mixed and CHGCAR
   VOSKOWN=      0    Vosko Wilk Nusair interpolation
   ROPT   =   -0.00050  -0.00050
 Ionic relaxation
   EDIFFG = 0.1E-05   stopping-criterion for IOM
   NSW    =      0    number of steps for IOM
   NBLOCK =      1;   KBLOCK =      1    inner block; outer block 
   IBRION =     -1    ionic relax: 0-MD 1-quasi-New 2-CG
   NFREE  =      0    steps in history (QN), initial steepest desc. (CG)
   ISIF   =      2    stress and relaxation
   IWAVPR =     10    prediction:  0-non 1-charg 2-wave 3-comb
   ISYM   =      2    0-nonsym 1-usesym 2-fastsym
   LCORR  =      T    Harris-Foulkes like correction to forces

   POTIM  = 0.5000    time-step for ionic-motion
   TEIN   =    0.0    initial temperature
   TEBEG  =    0.0;   TEEND  =   0.0 temperature during run
   SMASS  =  -3.00    Nose mass-parameter (am)
   estimated Nose-frequenzy (Omega)   =  0.10E-29 period in steps = 0.13E+47 mass=  -0.577E-26a.u.
   SCALEE = 1.0000    scale energy and forces
   NPACO  =    256;   APACO  = 10.0  distance and # of slots for P.C.
   PSTRESS=    0.0 pullay stress

  Mass of Ions in am
   POMASS = 118.71 28.09
  Ionic Valenz
   ZVAL   =   4.00  4.00
  Atomic Wigner-Seitz radii
   RWIGS  =  -1.00 -1.00
  virtual crystal weights 
   VCA    =   1.00  1.00
   NELECT =     240.0000    total number of electrons
   NUPDOWN=       1.0000    fix difference up-down

 DOS related values:
   EMIN   =  10.00;   EMAX   =-10.00  energy-range for DOS
   EFERMI =   0.00;   METHOD = LEGACY      
   ISMEAR =     0;   SIGMA  =   0.01  broadening in eV -4-tet -1-fermi 0-gaus

 Electronic relaxation 2 (details)
   IALGO  =     38    algorithm
   LDIAG  =      T    sub-space diagonalisation (order eigenvalues)
   LSUBROT=      F    optimize rotation matrix (better conditioning)
   TURBO    =      0    0=normal 1=particle mesh
   IRESTART =      0    0=no restart 2=restart with 2 vectors
   NREBOOT  =      0    no. of reboots
   NMIN     =      0    reboot dimension
   EREF     =   0.00    reference energy to select bands
   IMIX   =      4    mixing-type and parameters
     AMIX     =   0.60;   BMIX     =  1.00
     AMIX_MAG =   2.40;   BMIX_MAG =  1.00
     AMIN     =   0.10
     WC   =   100.;   INIMIX=   1;  MIXPRE=   1;  MAXMIX= -45

 Intra band minimization:
   WEIMIN = 0.0000     energy-eigenvalue tresh-hold
   EBREAK =  0.17E-09  absolut break condition
   DEPER  =   0.30     relativ break condition  

   TIME   =   0.40     timestep for ELM

  volume/ion in A,a.u.               =      20.91       141.14
  Fermi-wavevector in a.u.,A,eV,Ry     =   0.943213  1.782415 12.104444  0.889652
  Thomas-Fermi vector in A             =   2.070899
 
 Write flags
   LWAVE        =      F    write WAVECAR
   LDOWNSAMPLE  =      F    k-point downsampling of WAVECAR
   LCHARG       =      T    write CHGCAR
   LVTOT        =      F    write LOCPOT, total local potential
   LVHAR        =      T    write LOCPOT, Hartree potential only
   WRT_POTENTIAL=  hartree ionic  ! write potential to hdf5 file
   LELF         =      F    write electronic localiz. function (ELF)
   LORBIT       =      0    0 simple, 1 ext, 2 COOP (PROOUT), +10 PAW based schemes


 Dipole corrections
   LMONO      =      F    monopole corrections only (constant potential shift)
   LDIPOL     =      F    correct potential (dipole corrections)
   IDIPOL     =      0    1-x, 2-y, 3-z, 4-all directions 
   EPSILON    =  1.0000000 bulk dielectric constant
   LVACPOTAV  =      F  vacuum potentials using an averaging scheme for the charge density
   VACPOTFLAT =  0.1000000 required flatness to determine vacuum potential
 Exchange correlation treatment:
   GGA     = PE    functional components
   XC_C    = 1    coefficients multiplying the functional components
   LIBXC   =     F    Libxc                    
   VOSKOWN =     0    Vosko Wilk Nusair interpolation
   LHFCALC =     F    Hartree Fock is set to
   LHFONE  =     F    Hartree Fock one center treatment
   AEXX    =    0.0000 exact exchange contribution

 Parameters of functionals:
   PE:
     No parameter
 
 Van der Waals corrections
   IVDW    =     0    specifies the selected vdW correction

 Linear response parameters
   LEPSILON=     F    determine dielectric tensor
   LRPA    =     F    only Hartree local field effects (RPA)
   LNABLA  =     F    use nabla operator in PAW spheres
   LVEL    =     F    velocity operator in full k-point grid
   CSHIFT  =0.1000    complex shift for real part using Kramers Kronig
   OMEGAMAX=  -1.0    maximum frequency
   DEG_THRESHOLD= 0.2000000E-02 threshold for treating states as degnerate
   RTIME   =   -0.100 relaxation time in fs
  (WPLASMAI=    0.000 imaginary part of plasma frequency in eV, 0.658/RTIME)
   DFIELD  = 0.0000000 0.0000000 0.0000000 field for delta impulse in time
 
  Optional k-point grid parameters
   LKPOINTS_OPT  =     F    use optional k-point grid
   KPOINTS_OPT_MODE=     1    mode for optional k-point grid
 
 Orbital magnetization related:
   ORBITALMAG=     F  switch on orbital magnetization
   LCHIMAG   =     F  perturbation theory with respect to B field
   DQ        =  0.001000  dq finite difference perturbation B field
   LLRAUG    =     F  two centre corrections for induced B field
   LBONE     =     F  B-component reconstruction in AE one-centre
   LVGVCALC  =     T  calculate vGv susceptibility
   LVGVAPPL  =     F  apply vGv susceptibility instead of pGv for G=0

 Random number generation:
   RANDOM_GENERATOR = DEFAULT
   PCG_SEED         = not used


--------------------------------------------------------------------------------------------------------


 Static calculation
 charge density and potential will be updated during run
 spin polarized calculation
 Variant of blocked Davidson
 Davidson routine will perform the subspace rotation
 perform sub-space diagonalisation
    after iterative eigenvector-optimisation
 modified Broyden-mixing scheme, WC =      100.0
 initial mixing is a Kerker type mixing with AMIX =  0.6000 and BMIX =      1.0000
 Hartree-type preconditioning will be used
 using additional bands           24
 real space projection scheme for non local part
 use partial core corrections
 calculate Harris-corrections to forces 
   (improved forces if not selfconsistent)
 use gradient corrections 
 use of overlap-Matrix (Vanderbilt PP)
 Gauss-broadening in eV      SIGMA  =   0.01


--------------------------------------------------------------------------------------------------------


  energy-cutoff  :      700.00
  volume of cell :     1254.89
      direct lattice vectors                 reciprocal lattice vectors
    15.895228386  0.000000000  0.000000000     0.062911962  0.056270169  0.000000000
   -10.596819878 11.847604752  0.000000000     0.000000000  0.084405247  0.000000000
     0.000000000  0.000000000  6.663593769     0.000000000  0.000000000  0.150069172

  length of vectors
    15.895228386 15.895229784  6.663593769     0.084405254  0.084405247  0.150069172


 
 k-points in units of 2pi/SCALE and weight: Automatic KPOINTS generated             
   0.00000000  0.00000000  0.00000000       0.022
   0.02097065  0.01875672  0.00000000       0.044
   0.00000000  0.02813508  0.00000000       0.044
   0.02097065  0.04689181  0.00000000       0.044
  -0.02097065  0.00937836  0.00000000       0.044
   0.00000000  0.00000000  0.03001383       0.044
   0.02097065  0.01875672  0.03001383       0.044
  -0.02097065 -0.01875672  0.03001383       0.044
   0.00000000  0.02813508 -0.03001383       0.044
   0.00000000 -0.02813508 -0.03001383       0.044
   0.02097065  0.04689181  0.03001383       0.044
  -0.02097065 -0.04689181  0.03001383       0.044
  -0.02097065  0.00937836  0.03001383       0.044
   0.02097065 -0.00937836  0.03001383       0.044
   0.00000000  0.00000000  0.06002767       0.044
   0.02097065  0.01875672  0.06002767       0.044
  -0.02097065 -0.01875672  0.06002767       0.044
   0.00000000  0.02813508 -0.06002767       0.044
   0.00000000 -0.02813508 -0.06002767       0.044
   0.02097065  0.04689181  0.06002767       0.044
  -0.02097065 -0.04689181  0.06002767       0.044
  -0.02097065  0.00937836  0.06002767       0.044
   0.02097065 -0.00937836  0.06002767       0.044
 
 k-points in reciprocal lattice and weights: Automatic KPOINTS generated             
   0.00000000  0.00000000  0.00000000       0.022
   0.33333333 -0.00000000  0.00000000       0.044
   0.00000000  0.33333333  0.00000000       0.044
   0.33333333  0.33333333  0.00000000       0.044
  -0.33333333  0.33333333  0.00000000       0.044
   0.00000000  0.00000000  0.20000000       0.044
   0.33333333 -0.00000000  0.20000000       0.044
  -0.33333333  0.00000000  0.20000000       0.044
   0.00000000  0.33333333 -0.20000000       0.044
   0.00000000 -0.33333333 -0.20000000       0.044
   0.33333333  0.33333333  0.20000000       0.044
  -0.33333333 -0.33333333  0.20000000       0.044
  -0.33333333  0.33333333  0.20000000       0.044
   0.33333333 -0.33333333  0.20000000       0.044
   0.00000000  0.00000000  0.40000000       0.044
   0.33333333 -0.00000000  0.40000000       0.044
  -0.33333333  0.00000000  0.40000000       0.044
   0.00000000  0.33333333 -0.40000000       0.044
   0.00000000 -0.33333333 -0.40000000       0.044
   0.33333333  0.33333333  0.40000000       0.044
  -0.33333333 -0.33333333  0.40000000       0.044
  -0.33333333  0.33333333  0.40000000       0.044
   0.33333333 -0.33333333  0.40000000       0.044
 
 position of ions in fractional coordinates (direct lattice) 
   0.98717922  0.01282076  0.00000002
   0.83717918  0.16282086  0.21775486
   0.68717915  0.31282097  0.43550971
   0.48717922  0.51282078  0.00000002
   0.33717915  0.66282082  0.21775484
   0.18717913  0.81282097  0.43550971
   0.28717923  0.96282065  0.10887726
   0.13717924  0.11282075  0.32663199
   0.98717916  0.26282084  0.54438692
   0.78717935  0.46282065  0.10887723
   0.63717931  0.61282080  0.32663205
   0.48717928  0.76282084  0.54438692
   0.98717922  0.51282078  0.00000000
   0.83717918  0.66282088  0.21775483
   0.68717915  0.81282097  0.43550965
   0.48717922  0.01282078  0.00000001
   0.33717921  0.16282086  0.21775486
   0.18717913  0.31282097  0.43550971
   0.28717923  0.46282065  0.10887723
   0.13717920  0.61282075  0.32663211
   0.98717916  0.76282084  0.54438680
   0.78717923  0.96282065  0.10887722
   0.63717925  0.11282086  0.32663205
   0.48717922  0.26282084  0.54438680
   0.98290563  0.64102513  0.54438686
   0.78290558  0.34102503  0.72663236
   0.58290541  0.04102494  0.90887773
   0.98290563  0.30769178  0.54438686
   0.78290558  0.00769171  0.72663236
   0.58290541  0.70769167  0.90887773
   0.98290563  0.97435850  0.54438686
   0.78290558  0.67435837  0.72663236
   0.58290541  0.37435830  0.90887773
   0.63290566  0.65769172  0.63550937
   0.43290559  0.35769162  0.81775486
   0.23290552  0.05769158  0.00000024
   0.63290566  0.32435846  0.63550937
   0.43290559  0.02435837  0.81775486
   0.23290552  0.72435832  0.00000024
   0.63290566  0.99102521  0.63550937
   0.43290559  0.69102514  0.81775486
   0.23290552  0.39102507  0.00000024
   0.48290563  0.80769175  0.54438686
   0.28290555  0.50769162  0.72663236
   0.08290544  0.20769161  0.90887773
   0.48290563  0.47435844  0.54438686
   0.28290555  0.17435835  0.72663236
   0.08290544  0.87435830  0.90887773
   0.48290563  0.14102514  0.54438686
   0.28290555  0.84102505  0.72663236
   0.08290544  0.54102498  0.90887773
   0.13290568  0.82435852  0.63550949
   0.93290555  0.52435839  0.81775486
   0.73290551  0.22435838  0.00000024
   0.13290568  0.49102521  0.63550949
   0.93290555  0.19102511  0.81775486
   0.73290551  0.89102513  0.00000024
   0.13290568  0.15769196  0.63550949
   0.93290555  0.85769188  0.81775486
   0.73290551  0.55769193  0.00000024
 
 position of ions in cartesian coordinates  (Angst):
  15.55557983  0.15189534  0.00000012
  11.58177099  1.92903721  1.45102990
   7.60796202  3.70617922  2.90205980
   2.30955553  6.07569791  0.00000011
  -1.66425314  7.85283905  1.45102980
  -5.63806235  9.62998160  2.90205980
  -5.63805751 11.40711850  0.72551386
   0.98495425  1.33665559  2.17654291
  12.90637310  3.11379743  3.62757331
   7.60796851  5.48331612  0.72551361
   3.63415906  7.26045867  2.17654331
  -0.33964914  9.03759981  3.62757331
  10.25716972  6.07569791  0.00000000
   6.28336090  7.85283976  1.45102970
   2.30955208  9.62998160  2.90205940
   7.60796550  0.15189550  0.00000004
   3.63415728  1.92903721  1.45102990
  -0.33965242  3.70617922  2.90205980
  -0.33964757  5.48331612  0.72551361
  -4.31345640  7.26045797  2.17654371
   7.60796317  9.03759981  3.62757252
   2.30955668 11.40711850  0.72551356
   8.93256741  1.33665700  2.17654331
   4.95875987  3.11379743  3.62757252
   8.83068161  7.59461233  3.62757291
   8.83068222  4.04032971  4.84198285
   8.83068080  0.48604721  6.05639198
  12.36295500  3.64541063  3.62757291
  12.36295526  0.09112840  4.84198285
   1.76613351  8.38445118  6.05639198
   5.29840790 11.54381438  3.62757291
   5.29840882  7.98953141  4.84198285
   5.29840722  4.43524913  6.05639198
   3.09073938  7.79207151  4.23477629
   3.09073952  4.23778889  5.44918622
   3.09073920  0.68350701  0.00000159
   6.62301184  3.84287087  4.23477629
   6.62301189  0.28858833  5.44918622
  -3.97380818  8.58191107  0.00000159
  -0.44153559 11.74127498  4.23477629
  -0.44153578  8.18699271  5.44918622
  -0.44153573  4.63271043  0.00000159
  -0.88306881  9.56921265  3.62757291
  -0.88306836  6.01492967  4.84198285
  -0.88306965  2.46064811  6.05639198
   2.64920428  5.62001130  3.62757291
   2.64920425  2.06572885  4.84198285
  -7.94761644 10.35905150  6.05639198
   6.18147720  1.67081013  3.62757291
  -4.41534270  9.96413243  4.84198285
  -4.41534336  6.40985016  6.05639198
  -6.62301269  9.76667395  4.23477708
   9.27221543  6.21239098  5.44918622
   9.27221508  2.65810941  0.00000159
  -3.09073961  5.81747260  4.23477708
  12.80448820  2.26318998  5.44918622
   2.20766765 10.55651352  0.00000159
   0.44153284  1.86827197  4.23477708
   5.73994045 10.16159444  5.44918622
   5.73993947  6.60731358  0.00000159
 


--------------------------------------------------------------------------------------------------------


 k-point     1 :   0.0000 0.0000 0.0000  plane waves:   52757
 k-point     2 :   0.3333-0.0000 0.0000  plane waves:   52796
 k-point     3 :   0.0000 0.3333 0.0000  plane waves:   52796
 k-point     4 :   0.3333 0.3333 0.0000  plane waves:   52828
 k-point     5 :  -0.3333 0.3333 0.0000  plane waves:   52796
 k-point     6 :   0.0000 0.0000 0.2000  plane waves:   52753
 k-point     7 :   0.3333-0.0000 0.2000  plane waves:   52783
 k-point     8 :  -0.3333 0.0000 0.2000  plane waves:   52783
 k-point     9 :   0.0000 0.3333-0.2000  plane waves:   52783
 k-point    10 :   0.0000-0.3333-0.2000  plane waves:   52783
 k-point    11 :   0.3333 0.3333 0.2000  plane waves:   52797
 k-point    12 :  -0.3333-0.3333 0.2000  plane waves:   52797
 k-point    13 :  -0.3333 0.3333 0.2000  plane waves:   52764
 k-point    14 :   0.3333-0.3333 0.2000  plane waves:   52764
 k-point    15 :   0.0000 0.0000 0.4000  plane waves:   52734
 k-point    16 :   0.3333-0.0000 0.4000  plane waves:   52773
 k-point    17 :  -0.3333 0.0000 0.4000  plane waves:   52773
 k-point    18 :   0.0000 0.3333-0.4000  plane waves:   52773
 k-point    19 :   0.0000-0.3333-0.4000  plane waves:   52773
 k-point    20 :   0.3333 0.3333 0.4000  plane waves:   52747
 k-point    21 :  -0.3333-0.3333 0.4000  plane waves:   52747
 k-point    22 :  -0.3333 0.3333 0.4000  plane waves:   52710
 k-point    23 :   0.3333-0.3333 0.4000  plane waves:   52710

 maximum and minimum number of plane-waves per node :      3370     3208

 maximum number of plane-waves:     52828
 maximum index in each direction: 
   IXMAX=   34   IYMAX=   34   IZMAX=   14
   IXMIN=  -34   IYMIN=  -34   IZMIN=  -14


 real space projection operators:
  total allocation   :      22436.50 KBytes
  max/ min on nodes  :       1493.47       1237.05


 parallel 3D FFT for wavefunctions:
    minimum data exchange during FFTs selected (reduces bandwidth)
 parallel 3D FFT for charge:
    minimum data exchange during FFTs selected (reduces bandwidth)


 total amount of memory used by VASP MPI-rank0   151353. kBytes
=======================================================================

   base      :      30000. kBytes
   nonlr-proj:       9371. kBytes
   fftplans  :      11841. kBytes
   grid      :       9673. kBytes
   one-center:         64. kBytes
   wavefun   :      90404. kBytes
 
     INWAV:  cpu time      0.0000: real time      0.0001
 Broyden mixing: mesh for mixing (old mesh)
   NGX = 69   NGY = 69   NGZ = 29
  (NGX  =216   NGY  =216   NGZ  = 96)
  gives a total of 138069 points

 initial charge density was supplied:
 charge density of overlapping atoms calculated
 number of electron     240.0000000 magnetization       1.0000000
 keeping initial charge density in first step


--------------------------------------------------------------------------------------------------------


 Maximum index for non-local projection operator          540
 Maximum index for augmentation-charges         6361 (set IRDMAX)


--------------------------------------------------------------------------------------------------------


 First call to EWALD:  gamma=   0.164
 Maximum number of real-space cells 3x 3x 4
 Maximum number of reciprocal cells 4x 4x 2

    FEWALD:  cpu time      0.0027: real time      0.0028


--------------------------------------- Ionic step        1  -------------------------------------------




--------------------------------------- Iteration      1(   1)  ---------------------------------------


    POTLOK:  cpu time      0.1600: real time      0.1625
    SETDIJ:  cpu time      0.8678: real time      0.8729
     EDDAV:  cpu time     18.6503: real time     18.8082
       DOS:  cpu time      0.0029: real time      0.0029
    --------------------------------------------
      LOOP:  cpu time     19.6810: real time     19.8465

 eigenvalue-minimisations  : 13248
 total energy-change (2. order) : 0.1743134E+04  (-0.1084487E+05)
 number of electron     240.0000000 magnetization       1.0000000
 augmentation part      240.0000000 magnetization       1.0000000

 Free energy of the ion-electron system (eV)
  ---------------------------------------------------
  alpha Z        PSCENC =       201.48765134
  Ewald energy   TEWEN  =     -5667.28906415
  -Hartree energ DENC   =      -713.92085256
  -exchange      EXHF   =         0.00000000
  -V(xc)+E(xc)   XCENC  =     -3177.98798914
  PAW double counting   =      7718.42320762    -4112.57403773
  entropy T*S    EENTRO =        -0.00067109
  eigenvalues    EBANDS =      1526.53402278
  atomic energy  EATOM  =      5968.46204355
  Solvation  Ediel_sol  =         0.00000000
  ---------------------------------------------------
  free energy    TOTEN  =      1743.13431063 eV

  energy without entropy =     1743.13498172  energy(sigma->0) =     1743.13464617


--------------------------------------------------------------------------------------------------------




--------------------------------------- Iteration      1(   2)  ---------------------------------------


     EDDAV:  cpu time     21.0205: real time     21.1930
       DOS:  cpu time      0.0025: real time      0.0026
    --------------------------------------------
      LOOP:  cpu time     21.0230: real time     21.1955

 eigenvalue-minimisations  : 15744
 total energy-change (2. order) :-0.1288882E+04  (-0.1248082E+04)
 number of electron     240.0000000 magnetization       1.0000000
 augmentation part      240.0000000 magnetization       1.0000000

 Free energy of the ion-electron system (eV)
  ---------------------------------------------------
  alpha Z        PSCENC =       201.48765134
  Ewald energy   TEWEN  =     -5667.28906415
  -Hartree energ DENC   =      -713.92085256
  -exchange      EXHF   =         0.00000000
  -V(xc)+E(xc)   XCENC  =     -3177.98798914
  PAW double counting   =      7718.42320762    -4112.57403773
  entropy T*S    EENTRO =        -0.00071376
  eigenvalues    EBANDS =       237.65206833
  atomic energy  EATOM  =      5968.46204355
  Solvation  Ediel_sol  =         0.00000000
  ---------------------------------------------------
  free energy    TOTEN  =       454.25231350 eV

  energy without entropy =      454.25302727  energy(sigma->0) =      454.25267039


--------------------------------------------------------------------------------------------------------




--------------------------------------- Iteration      1(   3)  ---------------------------------------


     EDDAV:  cpu time     23.6328: real time     23.8238
       DOS:  cpu time      0.0024: real time      0.0024
    --------------------------------------------
      LOOP:  cpu time     23.6351: real time     23.8262

 eigenvalue-minimisations  : 17864
 total energy-change (2. order) :-0.1335103E+03  (-0.1278944E+03)
 number of electron     240.0000000 magnetization       1.0000000
 augmentation part      240.0000000 magnetization       1.0000000

 Free energy of the ion-electron system (eV)
  ---------------------------------------------------
  alpha Z        PSCENC =       201.48765134
  Ewald energy   TEWEN  =     -5667.28906415
  -Hartree energ DENC   =      -713.92085256
  -exchange      EXHF   =         0.00000000
  -V(xc)+E(xc)   XCENC  =     -3177.98798914
  PAW double counting   =      7718.42320762    -4112.57403773
  entropy T*S    EENTRO =        -0.00182787
  eigenvalues    EBANDS =       104.14284526
  atomic energy  EATOM  =      5968.46204355
  Solvation  Ediel_sol  =         0.00000000
  ---------------------------------------------------
  free energy    TOTEN  =       320.74197632 eV

  energy without entropy =      320.74380419  energy(sigma->0) =      320.74289026


--------------------------------------------------------------------------------------------------------




--------------------------------------- Iteration      1(   4)  ---------------------------------------


     EDDAV:  cpu time     23.5060: real time     23.6945
       DOS:  cpu time      0.0026: real time      0.0026
    --------------------------------------------
      LOOP:  cpu time     23.5086: real time     23.6971

 eigenvalue-minimisations  : 18192
 total energy-change (2. order) :-0.8070491E+01  (-0.7730163E+01)
 number of electron     240.0000000 magnetization       1.0000000
 augmentation part      240.0000000 magnetization       1.0000000

 Free energy of the ion-electron system (eV)
  ---------------------------------------------------
  alpha Z        PSCENC =       201.48765134
  Ewald energy   TEWEN  =     -5667.28906415
  -Hartree energ DENC   =      -713.92085256
  -exchange      EXHF   =         0.00000000
  -V(xc)+E(xc)   XCENC  =     -3177.98798914
  PAW double counting   =      7718.42320762    -4112.57403773
  entropy T*S    EENTRO =        -0.00145233
  eigenvalues    EBANDS =        96.07197853
  atomic energy  EATOM  =      5968.46204355
  Solvation  Ediel_sol  =         0.00000000
  ---------------------------------------------------
  free energy    TOTEN  =       312.67148514 eV

  energy without entropy =      312.67293747  energy(sigma->0) =      312.67221130


--------------------------------------------------------------------------------------------------------




--------------------------------------- Iteration      1(   5)  ---------------------------------------


     EDDAV:  cpu time     25.7826: real time     26.0090
       DOS:  cpu time      0.0023: real time      0.0023
    CHARGE:  cpu time      1.2143: real time      1.2226
    MIXING:  cpu time      0.0037: real time      0.0037
    --------------------------------------------
      LOOP:  cpu time     27.0028: real time     27.2376

 eigenvalue-minimisations  : 20360
 total energy-change (2. order) :-0.4965093E+00  (-0.4853193E+00)
 number of electron     239.9999998 magnetization       1.0000000
 augmentation part      -37.3989553 magnetization      -0.0804994

 Broyden mixing:
  rms(total) = 0.55021E+02    rms(broyden)= 0.55021E+02
  rms(prec ) = 0.55042E+02
  weight for this iteration     100.00

 Free energy of the ion-electron system (eV)
  ---------------------------------------------------
  alpha Z        PSCENC =       201.48765134
  Ewald energy   TEWEN  =     -5667.28906415
  -Hartree energ DENC   =      -713.92085256
  -exchange      EXHF   =         0.00000000
  -V(xc)+E(xc)   XCENC  =     -3177.98798914
  PAW double counting   =      7718.42320762    -4112.57403773
  entropy T*S    EENTRO =        -0.00134885
  eigenvalues    EBANDS =        95.57536578
  atomic energy  EATOM  =      5968.46204355
  Solvation  Ediel_sol  =         0.00000000
  ---------------------------------------------------
  free energy    TOTEN  =       312.17497586 eV

  energy without entropy =      312.17632471  energy(sigma->0) =      312.17565028


--------------------------------------------------------------------------------------------------------




--------------------------------------- Iteration      1(   6)  ---------------------------------------


    POTLOK:  cpu time      0.1385: real time      0.1405
    SETDIJ:  cpu time      0.8692: real time      0.8743
     EDDAV:  cpu time     20.5125: real time     20.6731
       DOS:  cpu time      0.0025: real time      0.0025
    CHARGE:  cpu time      1.2063: real time      1.2136
    MIXING:  cpu time      0.0033: real time      0.0033
    --------------------------------------------
      LOOP:  cpu time     22.7324: real time     22.9075

 eigenvalue-minimisations  : 15208
 total energy-change (2. order) : 0.2627480E+02  (-0.8734937E+01)
 number of electron     239.9999998 magnetization       1.0000000
 augmentation part      -37.6896613 magnetization      -0.0742071

 Broyden mixing:
  rms(total) = 0.26144E+02    rms(broyden)= 0.26144E+02
  rms(prec ) = 0.26161E+02
  weight for this iteration     100.00

 eigenvalues of (default mixing * dielectric matrix)
  average eigenvalue GAMMA=   1.8994
  1.8994

 Free energy of the ion-electron system (eV)
  ---------------------------------------------------
  alpha Z        PSCENC =       201.48765134
  Ewald energy   TEWEN  =     -5667.28906415
  -Hartree energ DENC   =      -831.09054417
  -exchange      EXHF   =         0.00000000
  -V(xc)+E(xc)   XCENC  =     -3162.35605294
  PAW double counting   =    337797.78519215  -334213.22605414
  entropy T*S    EENTRO =        -0.00157640
  eigenvalues    EBANDS =       244.67817847
  atomic energy  EATOM  =      5968.46204355
  Solvation  Ediel_sol  =         0.00000000
  ---------------------------------------------------
  free energy    TOTEN  =       338.44977371 eV

  energy without entropy =      338.45135011  energy(sigma->0) =      338.45056191


--------------------------------------------------------------------------------------------------------




--------------------------------------- Iteration      1(   7)  ---------------------------------------


    POTLOK:  cpu time      0.1395: real time      0.1404
    SETDIJ:  cpu time      0.8695: real time      0.8745
     EDDAV:  cpu time     23.4049: real time     23.5925
       DOS:  cpu time      0.0025: real time      0.0025
    CHARGE:  cpu time      1.2069: real time      1.2145
    MIXING:  cpu time      0.0051: real time      0.0051
    --------------------------------------------
      LOOP:  cpu time     25.6283: real time     25.8293

 eigenvalue-minimisations  : 18000
 total energy-change (2. order) :-0.1876362E+02  (-0.1087213E+02)
 number of electron     239.9999998 magnetization       1.0000000
 augmentation part      -36.7624785 magnetization      -0.0986381

 Broyden mixing:
  rms(total) = 0.11523E+02    rms(broyden)= 0.11523E+02
  rms(prec ) = 0.12029E+02
  weight for this iteration     100.00

 eigenvalues of (default mixing * dielectric matrix)
  average eigenvalue GAMMA=   1.1823
  2.0492  0.3153

 Free energy of the ion-electron system (eV)
  ---------------------------------------------------
  alpha Z        PSCENC =       201.48765134
  Ewald energy   TEWEN  =     -5667.28906415
  -Hartree energ DENC   =      -818.82970207
  -exchange      EXHF   =         0.00000000
  -V(xc)+E(xc)   XCENC  =     -3152.38326349
  PAW double counting   =   1159955.65118003 -1156388.81881637
  entropy T*S    EENTRO =        -0.00142855
  eigenvalues    EBANDS =       221.40755651
  atomic energy  EATOM  =      5968.46204355
  Solvation  Ediel_sol  =         0.00000000
  ---------------------------------------------------
  free energy    TOTEN  =       319.68615680 eV

  energy without entropy =      319.68758535  energy(sigma->0) =      319.68687108


--------------------------------------------------------------------------------------------------------




--------------------------------------- Iteration      1(   8)  ---------------------------------------


    POTLOK:  cpu time      0.1386: real time      0.1402
    SETDIJ:  cpu time      0.8695: real time      0.8746
     EDDAV:  cpu time     22.8369: real time     23.0174
       DOS:  cpu time      0.0023: real time      0.0024
    CHARGE:  cpu time      1.2189: real time      1.2265
    MIXING:  cpu time      0.0044: real time      0.0044
    --------------------------------------------
      LOOP:  cpu time     25.0706: real time     25.2655

 eigenvalue-minimisations  : 17400
 total energy-change (2. order) : 0.2389773E+02  (-0.6314359E+01)
 number of electron     239.9999998 magnetization       1.0000000
 augmentation part      -37.6477544 magnetization      -0.0751629

 Broyden mixing:
  rms(total) = 0.87399E+01    rms(broyden)= 0.87399E+01
  rms(prec ) = 0.87898E+01
  weight for this iteration     100.00

 eigenvalues of (default mixing * dielectric matrix)
  average eigenvalue GAMMA=   0.8570
  2.0763  0.2474  0.2474

 Free energy of the ion-electron system (eV)
  ---------------------------------------------------
  alpha Z        PSCENC =       201.48765134
  Ewald energy   TEWEN  =     -5667.28906415
  -Hartree energ DENC   =      -830.85269317
  -exchange      EXHF   =         0.00000000
  -V(xc)+E(xc)   XCENC  =     -3151.82656046
  PAW double counting   =   1334321.18026558 -1330758.19609196
  entropy T*S    EENTRO =        -0.00124492
  eigenvalues    EBANDS =       260.61958548
  atomic energy  EATOM  =      5968.46204355
  Solvation  Ediel_sol  =         0.00000000
  ---------------------------------------------------
  free energy    TOTEN  =       343.58389128 eV

  energy without entropy =      343.58513620  energy(sigma->0) =      343.58451374


--------------------------------------------------------------------------------------------------------




--------------------------------------- Iteration      1(   9)  ---------------------------------------


    POTLOK:  cpu time      0.1382: real time      0.1401
    SETDIJ:  cpu time      0.8682: real time      0.8734
     EDDAV:  cpu time     22.1180: real time     22.2931
       DOS:  cpu time      0.0024: real time      0.0024
    CHARGE:  cpu time      1.2185: real time      1.2262
    MIXING:  cpu time      0.0043: real time      0.0043
    --------------------------------------------
      LOOP:  cpu time     24.3497: real time     24.5395

 eigenvalue-minimisations  : 16728
 total energy-change (2. order) :-0.2050252E+01  (-0.1990642E+01)
 number of electron     239.9999998 magnetization       1.0000000
 augmentation part      -37.5728042 magnetization      -0.0729286

 Broyden mixing:
  rms(total) = 0.16492E+01    rms(broyden)= 0.16492E+01
  rms(prec ) = 0.17862E+01
  weight for this iteration     100.00

 eigenvalues of (default mixing * dielectric matrix)
  average eigenvalue GAMMA=   0.8202
  2.0667  0.4959  0.3590  0.3590

 Free energy of the ion-electron system (eV)
  ---------------------------------------------------
  alpha Z        PSCENC =       201.48765134
  Ewald energy   TEWEN  =     -5667.28906415
  -Hartree energ DENC   =      -829.89835581
  -exchange      EXHF   =         0.00000000
  -V(xc)+E(xc)   XCENC  =     -3151.77426937
  PAW double counting   =   1394539.72202407 -1390976.69596799
  entropy T*S    EENTRO =        -0.00171172
  eigenvalues    EBANDS =       257.52128981
  atomic energy  EATOM  =      5968.46204355
  Solvation  Ediel_sol  =         0.00000000
  ---------------------------------------------------
  free energy    TOTEN  =       341.53363973 eV

  energy without entropy =      341.53535145  energy(sigma->0) =      341.53449559


--------------------------------------------------------------------------------------------------------




--------------------------------------- Iteration      1(  10)  ---------------------------------------


    POTLOK:  cpu time      0.1382: real time      0.1399
    SETDIJ:  cpu time      0.8654: real time      0.8706
     EDDAV:  cpu time     21.9559: real time     22.1282
       DOS:  cpu time      0.0024: real time      0.0024
    CHARGE:  cpu time      1.2145: real time      1.2220
    MIXING:  cpu time      0.0055: real time      0.0055
    --------------------------------------------
      LOOP:  cpu time     24.1818: real time     24.3685

 eigenvalue-minimisations  : 16568
 total energy-change (2. order) : 0.9977882E+00  (-0.6601686E+00)
 number of electron     239.9999998 magnetization       1.0000000
 augmentation part      -37.7915415 magnetization      -0.0738009

 Broyden mixing:
  rms(total) = 0.36013E+01    rms(broyden)= 0.36013E+01
  rms(prec ) = 0.36081E+01
  weight for this iteration     100.00

 eigenvalues of (default mixing * dielectric matrix)
  average eigenvalue GAMMA=   0.8154
  2.1475  0.6455  0.6455  0.3808  0.2574

 Free energy of the ion-electron system (eV)
  ---------------------------------------------------
  alpha Z        PSCENC =       201.48765134
  Ewald energy   TEWEN  =     -5667.28906415
  -Hartree energ DENC   =      -832.36193534
  -exchange      EXHF   =         0.00000000
  -V(xc)+E(xc)   XCENC  =     -3152.80117931
  PAW double counting   =   1376896.79664452 -1373332.95121828
  entropy T*S    EENTRO =        -0.00127231
  eigenvalues    EBANDS =       261.18975792
  atomic energy  EATOM  =      5968.46204355
  Solvation  Ediel_sol  =         0.00000000
  ---------------------------------------------------
  free energy    TOTEN  =       342.53142794 eV

  energy without entropy =      342.53270025  energy(sigma->0) =      342.53206409


--------------------------------------------------------------------------------------------------------




--------------------------------------- Iteration      1(  11)  ---------------------------------------


    POTLOK:  cpu time      0.1389: real time      0.1405
    SETDIJ:  cpu time      0.8672: real time      0.8726
     EDDAV:  cpu time     22.6937: real time     22.8718
       DOS:  cpu time      0.0027: real time      0.0027
    CHARGE:  cpu time      1.2112: real time      1.2187
    MIXING:  cpu time      0.0047: real time      0.0047
    --------------------------------------------
      LOOP:  cpu time     24.9184: real time     25.1110

 eigenvalue-minimisations  : 17352
 total energy-change (2. order) :-0.1266074E+00  (-0.1514421E+00)
 number of electron     239.9999998 magnetization       1.0000000
 augmentation part      -37.8368211 magnetization      -0.0706974

 Broyden mixing:
  rms(total) = 0.91957E+00    rms(broyden)= 0.91957E+00
  rms(prec ) = 0.96475E+00
  weight for this iteration     100.00

 eigenvalues of (default mixing * dielectric matrix)
  average eigenvalue GAMMA=   0.9085
  2.3850  0.9806  0.9806  0.4711  0.3169  0.3169

 Free energy of the ion-electron system (eV)
  ---------------------------------------------------
  alpha Z        PSCENC =       201.48765134
  Ewald energy   TEWEN  =     -5667.28906415
  -Hartree energ DENC   =      -830.49036780
  -exchange      EXHF   =         0.00000000
  -V(xc)+E(xc)   XCENC  =     -3153.27661994
  PAW double counting   =   1448214.04848782 -1444650.13202548
  entropy T*S    EENTRO =        -0.00150625
  eigenvalues    EBANDS =       259.59622142
  atomic energy  EATOM  =      5968.46204355
  Solvation  Ediel_sol  =         0.00000000
  ---------------------------------------------------
  free energy    TOTEN  =       342.40482051 eV

  energy without entropy =      342.40632676  energy(sigma->0) =      342.40557363


--------------------------------------------------------------------------------------------------------




--------------------------------------- Iteration      1(  12)  ---------------------------------------


    POTLOK:  cpu time      0.1386: real time      0.1410
    SETDIJ:  cpu time      0.8669: real time      0.8721
     EDDAV:  cpu time     22.2936: real time     22.4707
       DOS:  cpu time      0.0025: real time      0.0025
    CHARGE:  cpu time      1.2153: real time      1.2232
    MIXING:  cpu time      0.0045: real time      0.0045
    --------------------------------------------
      LOOP:  cpu time     24.5214: real time     24.7142

 eigenvalue-minimisations  : 16896
 total energy-change (2. order) : 0.1041129E+00  (-0.4408018E-01)
 number of electron     239.9999998 magnetization       1.0000000
 augmentation part      -37.7993422 magnetization      -0.0686804

 Broyden mixing:
  rms(total) = 0.36621E+00    rms(broyden)= 0.36621E+00
  rms(prec ) = 0.37089E+00
  weight for this iteration     100.00

 eigenvalues of (default mixing * dielectric matrix)
  average eigenvalue GAMMA=   0.9609
  2.0776  1.4325  1.4325  0.5783  0.5783  0.3135  0.3135

 Free energy of the ion-electron system (eV)
  ---------------------------------------------------
  alpha Z        PSCENC =       201.48765134
  Ewald energy   TEWEN  =     -5667.28906415
  -Hartree energ DENC   =      -828.95175777
  -exchange      EXHF   =         0.00000000
  -V(xc)+E(xc)   XCENC  =     -3153.65188952
  PAW double counting   =   1490609.90936965 -1487045.70835471
  entropy T*S    EENTRO =        -0.00193025
  eigenvalues    EBANDS =       258.25286526
  atomic energy  EATOM  =      5968.46204355
  Solvation  Ediel_sol  =         0.00000000
  ---------------------------------------------------
  free energy    TOTEN  =       342.50893340 eV

  energy without entropy =      342.51086365  energy(sigma->0) =      342.50989853


--------------------------------------------------------------------------------------------------------




--------------------------------------- Iteration      1(  13)  ---------------------------------------


    POTLOK:  cpu time      0.1393: real time      0.1406
    SETDIJ:  cpu time      0.8674: real time      0.8724
     EDDAV:  cpu time     22.1086: real time     22.2817
       DOS:  cpu time      0.0024: real time      0.0024
    CHARGE:  cpu time      1.2145: real time      1.2222
    MIXING:  cpu time      0.0043: real time      0.0043
    --------------------------------------------
      LOOP:  cpu time     24.3365: real time     24.5236

 eigenvalue-minimisations  : 16768
 total energy-change (2. order) : 0.9334834E-02  (-0.1284611E-01)
 number of electron     239.9999998 magnetization       1.0000000
 augmentation part      -37.7940278 magnetization      -0.0651284

 Broyden mixing:
  rms(total) = 0.54875E+00    rms(broyden)= 0.54875E+00
  rms(prec ) = 0.55057E+00
  weight for this iteration     100.00

 eigenvalues of (default mixing * dielectric matrix)
  average eigenvalue GAMMA=   0.9461
  1.8992  1.8992  1.4020  0.6201  0.6201  0.5003  0.3141  0.3141

 Free energy of the ion-electron system (eV)
  ---------------------------------------------------
  alpha Z        PSCENC =       201.48765134
  Ewald energy   TEWEN  =     -5667.28906415
  -Hartree energ DENC   =      -829.00455525
  -exchange      EXHF   =         0.00000000
  -V(xc)+E(xc)   XCENC  =     -3154.06822793
  PAW double counting   =   1460787.79911909 -1457222.76389724
  entropy T*S    EENTRO =        -0.00187779
  eigenvalues    EBANDS =       257.89707662
  atomic energy  EATOM  =      5968.46204355
  Solvation  Ediel_sol  =         0.00000000
  ---------------------------------------------------
  free energy    TOTEN  =       342.51826824 eV

  energy without entropy =      342.52014603  energy(sigma->0) =      342.51920713


--------------------------------------------------------------------------------------------------------




--------------------------------------- Iteration      1(  14)  ---------------------------------------


    POTLOK:  cpu time      0.1395: real time      0.1404
    SETDIJ:  cpu time      0.8683: real time      0.8733
     EDDAV:  cpu time     22.0890: real time     22.2655
       DOS:  cpu time      0.0023: real time      0.0024
    CHARGE:  cpu time      1.2162: real time      1.2236
    MIXING:  cpu time      0.0052: real time      0.0053
    --------------------------------------------
      LOOP:  cpu time     24.3206: real time     24.5105

 eigenvalue-minimisations  : 16768
 total energy-change (2. order) :-0.9741191E-03  (-0.4045001E-02)
 number of electron     239.9999998 magnetization       1.0000000
 augmentation part      -37.7936462 magnetization      -0.0637412

 Broyden mixing:
  rms(total) = 0.47152E+00    rms(broyden)= 0.47152E+00
  rms(prec ) = 0.47373E+00
  weight for this iteration     100.00

 eigenvalues of (default mixing * dielectric matrix)
  average eigenvalue GAMMA=   0.9389
  2.0509  2.0509  1.2249  0.7100  0.7100  0.5731  0.4992  0.3154  0.3154

 Free energy of the ion-electron system (eV)
  ---------------------------------------------------
  alpha Z        PSCENC =       201.48765134
  Ewald energy   TEWEN  =     -5667.28906415
  -Hartree energ DENC   =      -828.66842917
  -exchange      EXHF   =         0.00000000
  -V(xc)+E(xc)   XCENC  =     -3154.20937802
  PAW double counting   =   1467900.09273459 -1464334.87139368
  entropy T*S    EENTRO =        -0.00193322
  eigenvalues    EBANDS =       257.51506288
  atomic energy  EATOM  =      5968.46204355
  Solvation  Ediel_sol  =         0.00000000
  ---------------------------------------------------
  free energy    TOTEN  =       342.51729412 eV

  energy without entropy =      342.51922734  energy(sigma->0) =      342.51826073


--------------------------------------------------------------------------------------------------------




--------------------------------------- Iteration      1(  15)  ---------------------------------------


    POTLOK:  cpu time      0.1385: real time      0.1404
    SETDIJ:  cpu time      0.8668: real time      0.8719
     EDDAV:  cpu time     21.7673: real time     21.9391
       DOS:  cpu time      0.0023: real time      0.0023
    CHARGE:  cpu time      1.2083: real time      1.2161
    MIXING:  cpu time      0.0057: real time      0.0057
    --------------------------------------------
      LOOP:  cpu time     23.9888: real time     24.1757

 eigenvalue-minimisations  : 16448
 total energy-change (2. order) : 0.1101986E-02  (-0.2539844E-02)
 number of electron     239.9999998 magnetization       1.0000000
 augmentation part      -37.7974118 magnetization      -0.0633868

 Broyden mixing:
  rms(total) = 0.44873E+00    rms(broyden)= 0.44873E+00
  rms(prec ) = 0.45043E+00
  weight for this iteration     100.00

 eigenvalues of (default mixing * dielectric matrix)
  average eigenvalue GAMMA=   0.9360
  2.0918  2.0918  1.2350  0.9045  0.9045  0.6731  0.4880  0.3126  0.3126  0.3459

 Free energy of the ion-electron system (eV)
  ---------------------------------------------------
  alpha Z        PSCENC =       201.48765134
  Ewald energy   TEWEN  =     -5667.28906415
  -Hartree energ DENC   =      -828.68704714
  -exchange      EXHF   =         0.00000000
  -V(xc)+E(xc)   XCENC  =     -3154.22595650
  PAW double counting   =   1468859.06947034 -1465293.81608748
  entropy T*S    EENTRO =        -0.00194475
  eigenvalues    EBANDS =       257.51933090
  atomic energy  EATOM  =      5968.46204355
  Solvation  Ediel_sol  =         0.00000000
  ---------------------------------------------------
  free energy    TOTEN  =       342.51839610 eV

  energy without entropy =      342.52034085  energy(sigma->0) =      342.51936848


--------------------------------------------------------------------------------------------------------




--------------------------------------- Iteration      1(  16)  ---------------------------------------


    POTLOK:  cpu time      0.1390: real time      0.1400
    SETDIJ:  cpu time      0.8751: real time      0.8801
     EDDAV:  cpu time     20.7509: real time     20.9218
       DOS:  cpu time      0.0027: real time      0.0027
    CHARGE:  cpu time      1.2077: real time      1.2152
    MIXING:  cpu time      0.0051: real time      0.0051
    --------------------------------------------
      LOOP:  cpu time     22.9804: real time     23.1649

 eigenvalue-minimisations  : 15464
 total energy-change (2. order) : 0.1971973E-02  (-0.1076841E-02)
 number of electron     239.9999998 magnetization       1.0000000
 augmentation part      -37.8017274 magnetization      -0.0628660

 Broyden mixing:
  rms(total) = 0.39668E+00    rms(broyden)= 0.39668E+00
  rms(prec ) = 0.39703E+00
  weight for this iteration     100.00

 eigenvalues of (default mixing * dielectric matrix)
  average eigenvalue GAMMA=   0.9390
  2.1501  2.1501  1.4236  0.9575  0.9575  0.7620  0.4979  0.4979  0.3151  0.3151
  0.3026

 Free energy of the ion-electron system (eV)
  ---------------------------------------------------
  alpha Z        PSCENC =       201.48765134
  Ewald energy   TEWEN  =     -5667.28906415
  -Hartree energ DENC   =      -828.83246471
  -exchange      EXHF   =         0.00000000
  -V(xc)+E(xc)   XCENC  =     -3154.20785391
  PAW double counting   =   1468519.13086999 -1464953.86940901
  entropy T*S    EENTRO =        -0.00193293
  eigenvalues    EBANDS =       257.64052791
  atomic energy  EATOM  =      5968.46204355
  Solvation  Ediel_sol  =         0.00000000
  ---------------------------------------------------
  free energy    TOTEN  =       342.52036808 eV

  energy without entropy =      342.52230100  energy(sigma->0) =      342.52133454


--------------------------------------------------------------------------------------------------------




--------------------------------------- Iteration      1(  17)  ---------------------------------------


    POTLOK:  cpu time      0.1379: real time      0.1404
    SETDIJ:  cpu time      0.8660: real time      0.8710
     EDDAV:  cpu time     22.3654: real time     22.5393
       DOS:  cpu time      0.0029: real time      0.0029
    CHARGE:  cpu time      1.2100: real time      1.2175
    MIXING:  cpu time      0.0047: real time      0.0048
    --------------------------------------------
      LOOP:  cpu time     24.5869: real time     24.7759

 eigenvalue-minimisations  : 16856
 total energy-change (2. order) :-0.1959516E-03  (-0.3663862E-03)
 number of electron     239.9999998 magnetization       1.0000000
 augmentation part      -37.8010182 magnetization      -0.0621129

 Broyden mixing:
  rms(total) = 0.30220E+00    rms(broyden)= 0.30220E+00
  rms(prec ) = 0.30249E+00
  weight for this iteration     100.00

 eigenvalues of (default mixing * dielectric matrix)
  average eigenvalue GAMMA=   0.9297
  2.4706  2.0423  1.3368  1.0396  0.7981  0.7981  0.6333  0.6333  0.4749  0.3145
  0.3145  0.3007

 Free energy of the ion-electron system (eV)
  ---------------------------------------------------
  alpha Z        PSCENC =       201.48765134
  Ewald energy   TEWEN  =     -5667.28906415
  -Hartree energ DENC   =      -828.87407712
  -exchange      EXHF   =         0.00000000
  -V(xc)+E(xc)   XCENC  =     -3154.19519728
  PAW double counting   =   1470400.57569863 -1466835.31001368
  entropy T*S    EENTRO =        -0.00191767
  eigenvalues    EBANDS =       257.66504850
  atomic energy  EATOM  =      5968.46204355
  Solvation  Ediel_sol  =         0.00000000
  ---------------------------------------------------
  free energy    TOTEN  =       342.52017212 eV

[...]
  0.049   0.012  -0.156  -0.788   0.054   0.055   0.252  -0.026  -0.044   0.001   0.014  -0.035  -0.049
 -0.018   0.005   0.099   0.055  -0.792  -0.028  -0.026   0.262   0.030  -0.048  -0.042  -0.010   0.043
 -0.066   0.001   0.019   0.151  -0.038  -0.005  -0.044   0.030   0.087  -0.012   0.017   0.009   0.040
  0.058   0.006  -0.307   0.007   0.156   0.098   0.001  -0.048  -0.012   0.104   0.014  -0.002  -0.014
 -0.048  -0.002  -0.029  -0.015   0.124   0.008   0.014  -0.042   0.017   0.014   0.094   0.007   0.023
 -0.010  -0.004   0.122   0.100   0.031  -0.043  -0.035  -0.010   0.009  -0.002   0.007   0.060  -0.012
 -0.083  -0.005  -0.085   0.183  -0.112   0.035  -0.049   0.043   0.040  -0.014   0.023  -0.012   0.124
 total augmentation occupancy for first ion, spin component:           2
  0.002  -0.000   0.001   0.001  -0.000  -0.000  -0.000  -0.000  -0.000  -0.000   0.000  -0.000   0.001
 -0.000   0.000  -0.000  -0.000   0.000  -0.000   0.000  -0.000   0.000   0.000  -0.000   0.000  -0.000
  0.001  -0.000   0.006   0.001   0.004  -0.001  -0.000  -0.000   0.000  -0.001  -0.000  -0.000   0.001
  0.001  -0.000   0.001   0.006  -0.001  -0.000  -0.001  -0.000   0.000   0.000   0.001  -0.000   0.001
 -0.000   0.000   0.004  -0.001   0.014  -0.000  -0.000  -0.001   0.001  -0.000  -0.002  -0.000   0.001
 -0.000  -0.000  -0.001  -0.000  -0.000   0.000   0.000   0.000  -0.000   0.000   0.000   0.000  -0.000
 -0.000   0.000  -0.000  -0.001  -0.000   0.000   0.000  -0.000  -0.000  -0.000  -0.000   0.000  -0.000
 -0.000  -0.000  -0.000  -0.000  -0.001   0.000  -0.000   0.000  -0.000   0.000   0.000  -0.000  -0.000
 -0.000   0.000   0.000   0.000   0.001  -0.000  -0.000  -0.000   0.000   0.000  -0.000   0.000  -0.000
 -0.000   0.000  -0.001   0.000  -0.000   0.000  -0.000   0.000   0.000   0.001   0.000   0.000   0.000
  0.000  -0.000  -0.000   0.001  -0.002   0.000  -0.000   0.000  -0.000   0.000   0.001  -0.000   0.000
 -0.000   0.000  -0.000  -0.000  -0.000   0.000   0.000  -0.000   0.000   0.000  -0.000   0.000  -0.000
  0.001  -0.000   0.001   0.001   0.001  -0.000  -0.000  -0.000  -0.000   0.000   0.000  -0.000   0.001


------------------------ aborting loop because EDIFF is reached ----------------------------------------


    CHARGE:  cpu time      1.2138: real time      1.2213
    FORLOC:  cpu time      0.0163: real time      0.0164
    FORNL :  cpu time      6.4691: real time      6.5214
    STRESS:  cpu time     19.5908: real time     19.7572
    FORCOR:  cpu time      0.1472: real time      0.1481
    FORHAR:  cpu time      0.0274: real time      0.0275
    MIXING:  cpu time      0.0077: real time      0.0078
    OFIELD:  cpu time      0.0000: real time      0.0000

  FORCE on cell =-STRESS in cart. coord.  units (eV):
  Direction    XX          YY          ZZ          XY          YZ          ZX
  --------------------------------------------------------------------------------------
  Alpha Z   201.48765   201.48765   201.48765
  Ewald   -1773.50102 -1650.37312 -2243.45391   -53.30368   281.87914   154.69262
  Hartree   368.39731   413.21208    47.36909    55.05804    44.81674    43.91811
  E(xc)    -981.15210  -979.36885  -975.33889     9.65417    -7.20882     0.38110
  Local   -1348.06342 -1572.46606  -785.52578  -236.37879  -164.96577  -210.76926
  n-local  2938.21136  2900.67363  2957.84938     0.83760     0.09482    12.11390
  augment  -514.41413  -527.10137  -526.90903    -9.07964    23.23632    -5.83112
  Kinetic  1926.02419  1917.14499  1941.06754    -6.28578   -12.32183   -18.91155
  Fock        0.00000     0.00000     0.00000     0.00000     0.00000     0.00000
  -------------------------------------------------------------------------------------
  Total     816.98984   703.20896   616.54604  -239.49808   165.53060   -24.40620
  in kB    1043.08907   897.81971   787.17312  -305.77837   211.34065   -31.16053
  external pressure =      909.36 kB  Pullay stress =        0.00 kB


 VOLUME and BASIS-vectors are now :
 -----------------------------------------------------------------------------
  energy-cutoff  :      700.00
  volume of cell :     1254.89
      direct lattice vectors                 reciprocal lattice vectors
    15.895228386  0.000000000  0.000000000     0.062911962  0.056270169  0.000000000
   -10.596819878 11.847604752  0.000000000     0.000000000  0.084405247  0.000000000
     0.000000000  0.000000000  6.663593769     0.000000000  0.000000000  0.150069172

  length of vectors
    15.895228386 15.895229784  6.663593769     0.084405254  0.084405247  0.150069172


 FORCES acting on ions
    electron-ion (+dipol)            ewald-force                    non-local-force                 convergence-correction
 -----------------------------------------------------------------------------------------------
   -.343E+01 0.970E+01 -.354E+02   0.402E+01 -.947E+01 0.351E+02   -.148E+00 0.818E+00 0.202E+01   0.532E-03 -.294E-03 0.121E-03
   -.504E+00 -.866E+01 -.212E+01   0.657E+00 0.820E+01 0.184E+01   0.461E+00 0.167E+01 -.312E+00   -.379E-03 -.700E-04 -.159E-03
   -.374E+02 -.143E+02 0.737E+02   0.452E+02 0.136E+02 -.839E+02   0.180E+02 -.132E+01 -.275E+02   -.220E-03 0.261E-04 -.883E-04
   -.343E+01 0.970E+01 -.354E+02   0.402E+01 -.947E+01 0.351E+02   -.148E+00 0.818E+00 0.202E+01   0.428E-03 -.427E-03 0.156E-03
   -.504E+00 -.866E+01 -.212E+01   0.657E+00 0.820E+01 0.184E+01   0.461E+00 0.167E+01 -.312E+00   -.505E-03 -.198E-03 -.266E-03
   -.374E+02 -.143E+02 0.737E+02   0.452E+02 0.136E+02 -.839E+02   0.180E+02 -.132E+01 -.275E+02   -.323E-03 0.121E-03 -.914E-04
   -.102E+02 0.978E+01 -.351E+02   0.928E+01 -.107E+02 0.351E+02   0.367E+01 -.209E+01 0.143E+01   -.235E-03 0.101E-03 0.470E-05
   -.131E+02 0.341E+01 0.336E+02   0.134E+02 -.364E+01 -.336E+02   0.248E+01 -.956E+00 -.717E+01   0.414E-03 -.248E-03 -.604E-04
   -.212E+02 0.243E+02 0.514E+02   0.261E+03 -.259E+03 -.493E+02   0.336E+02 -.267E+02 -.126E+02   0.118E-03 -.967E-04 -.302E-04
   -.102E+02 0.978E+01 -.351E+02   0.928E+01 -.107E+02 0.351E+02   0.367E+01 -.209E+01 0.143E+01   -.102E-03 0.692E-04 0.744E-05
   -.131E+02 0.341E+01 0.336E+02   0.134E+02 -.364E+01 -.336E+02   0.248E+01 -.956E+00 -.717E+01   0.489E-03 -.173E-03 -.746E-04
   -.212E+02 0.243E+02 0.514E+02   0.261E+03 -.259E+03 -.493E+02   0.336E+02 -.267E+02 -.126E+02   0.163E-03 -.101E-03 -.368E-04
   0.828E+01 0.282E+02 -.820E+02   -.327E+02 -.409E+02 0.117E+03   -.153E+02 -.130E+02 0.450E+02   -.521E-03 0.298E-03 0.379E-04
   -.861E+01 -.332E+02 -.264E+02   0.897E+01 0.353E+02 0.267E+02   0.291E+01 0.755E+01 0.873E+01   0.153E-03 0.908E-05 -.225E-04
   -.102E+02 -.187E+02 0.215E+02   0.109E+02 0.195E+02 -.206E+02   -.105E+01 0.184E+01 -.737E+00   0.876E-03 -.593E-04 -.229E-03
   0.828E+01 0.282E+02 -.820E+02   -.327E+02 -.409E+02 0.117E+03   -.153E+02 -.130E+02 0.450E+02   -.553E-03 0.371E-03 0.469E-04
   -.861E+01 -.332E+02 -.264E+02   0.897E+01 0.353E+02 0.267E+02   0.291E+01 0.755E+01 0.873E+01   0.327E-04 -.160E-03 -.177E-04
   -.102E+02 -.187E+02 0.215E+02   0.109E+02 0.195E+02 -.206E+02   -.105E+01 0.184E+01 -.737E+00   0.691E-03 -.314E-03 -.216E-03
   -.446E+01 -.345E+02 -.614E+02   0.136E+02 0.120E+03 0.135E+03   0.445E+01 0.367E+02 0.319E+02   0.481E-03 -.524E-03 -.476E-04
   -.461E+01 0.121E+02 -.142E+02   0.427E+01 -.123E+02 0.146E+02   -.231E+00 -.827E+00 0.232E+01   -.737E-03 0.293E-03 -.116E-03
   0.642E+02 -.138E+02 0.415E+02   -.680E+02 0.153E+02 -.420E+02   -.264E+02 0.588E+01 -.538E+01   -.208E-04 0.324E-04 -.340E-04
   -.446E+01 -.345E+02 -.614E+02   0.136E+02 0.120E+03 0.135E+03   0.445E+01 0.367E+02 0.319E+02   0.591E-03 -.299E-03 -.428E-04
   -.461E+01 0.121E+02 -.142E+02   0.427E+01 -.123E+02 0.146E+02   -.231E+00 -.827E+00 0.232E+01   -.686E-03 0.368E-03 -.106E-03
   0.642E+02 -.138E+02 0.415E+02   -.680E+02 0.153E+02 -.420E+02   -.264E+02 0.588E+01 -.538E+01   -.286E-04 -.179E-03 -.401E-04
   -.333E+01 0.596E+02 0.353E+02   0.465E+01 -.624E+02 -.356E+02   0.113E+02 -.137E+02 0.444E+00   -.154E-03 0.538E-04 -.295E-04
   -.366E+02 0.990E+01 0.138E+02   0.365E+02 -.947E+01 -.124E+02   0.313E+01 -.477E+00 0.103E+01   -.488E-03 0.147E-03 0.128E-03
   -.492E+02 0.122E+02 -.237E+01   0.979E+02 0.605E+00 -.198E+02   0.287E+02 0.770E+01 -.153E+02   -.555E-03 0.527E-03 0.480E-04
   0.377E+02 -.514E+01 0.379E+02   -.300E+03 0.271E+03 -.374E+02   -.112E+02 0.286E+01 -.119E+01   -.223E-03 0.133E-03 0.321E-04
   -.819E+01 0.173E+01 0.341E+02   0.829E+01 -.145E+01 -.338E+02   0.465E+00 -.884E+00 -.170E+01   0.359E-03 -.151E-03 0.157E-03
   -.445E+01 -.813E+00 -.331E+02   0.358E+01 -.238E-01 0.324E+02   0.466E+00 0.197E+01 0.783E+00   0.885E-03 -.660E-04 0.296E-03
   0.187E+02 0.293E+02 0.383E+02   -.190E+02 -.295E+02 -.380E+02   -.138E+01 -.196E+01 0.236E+00   0.534E-03 -.184E-03 -.818E-04
   -.105E+02 0.807E+01 0.164E+02   0.996E+01 -.819E+01 -.152E+02   0.816E+00 -.123E+00 -.121E+01   0.362E-03 0.528E-04 0.150E-04
   0.255E+01 0.144E+02 -.417E+02   -.275E+01 -.147E+02 0.416E+02   0.478E+00 -.283E-01 0.136E+01   0.781E-04 -.114E-03 0.746E-04
   -.266E+01 -.828E+01 -.172E+00   0.292E+01 0.790E+01 0.108E+01   -.967E+00 0.340E+00 0.660E+01   0.732E-03 -.201E-03 -.780E-04
   0.161E+02 0.784E+01 -.180E+02   -.151E+02 -.819E+01 0.172E+02   -.571E+00 -.159E+01 -.302E+00   0.168E-03 -.309E-03 0.709E-04
   0.138E+02 0.142E+01 -.206E+01   -.149E+02 -.215E+01 0.665E+00   -.544E+01 -.537E+01 -.989E+01   0.643E-04 -.252E-04 0.590E-04
   0.215E+01 -.402E+02 -.210E+02   -.899E+01 0.434E+02 0.350E+02   -.426E+01 0.740E+01 0.262E+02   -.330E-04 -.378E-04 0.281E-04
   0.356E+02 -.110E+02 0.292E+02   -.539E+02 0.128E+02 -.486E+02   -.184E+02 0.315E+01 -.247E+02   -.459E-03 0.247E-03 -.363E-04
   -.197E+02 -.255E+02 -.199E+02   0.191E+02 0.241E+02 0.205E+02   0.151E+01 0.285E+01 -.145E+01   -.743E-03 0.215E-03 0.895E-04
   0.463E+01 -.271E+02 0.244E+02   -.494E+01 0.229E+02 -.239E+02   -.477E+00 0.327E+01 -.824E+00   -.502E-03 0.753E-03 0.148E-03
   0.245E+02 0.116E+01 -.540E+02   -.236E+02 -.120E+01 0.523E+02   -.190E+01 -.494E+01 0.133E+02   0.647E-04 -.285E-03 0.324E-03
   -.430E+01 0.178E+02 -.169E+02   -.103E+02 -.121E+03 -.715E+02   -.355E+00 -.196E+02 -.166E+02   0.651E-03 -.239E-03 0.284E-03
   0.377E+02 -.514E+01 0.379E+02   -.300E+03 0.271E+03 -.374E+02   -.112E+02 0.286E+01 -.119E+01   -.396E-03 0.351E-03 0.346E-04
   -.819E+01 0.173E+01 0.341E+02   0.829E+01 -.145E+01 -.338E+02   0.465E+00 -.884E+00 -.170E+01   0.223E-03 -.435E-03 0.190E-03
   -.444E+01 -.813E+00 -.331E+02   0.358E+01 -.238E-01 0.324E+02   0.466E+00 0.197E+01 0.783E+00   0.864E-03 -.169E-03 0.252E-03
   0.187E+02 0.293E+02 0.383E+02   -.190E+02 -.295E+02 -.380E+02   -.138E+01 -.196E+01 0.236E+00   0.469E-03 -.346E-03 -.107E-03
   -.105E+02 0.807E+01 0.164E+02   0.996E+01 -.819E+01 -.152E+02   0.816E+00 -.123E+00 -.121E+01   0.214E-03 -.179E-03 0.207E-04
   0.255E+01 0.144E+02 -.417E+02   -.275E+01 -.147E+02 0.416E+02   0.478E+00 -.283E-01 0.136E+01   0.157E-04 0.562E-04 0.594E-04
   -.333E+01 0.596E+02 0.353E+02   0.465E+01 -.624E+02 -.356E+02   0.113E+02 -.137E+02 0.444E+00   -.181E-03 -.233E-04 -.315E-04
   -.366E+02 0.990E+01 0.138E+02   0.365E+02 -.947E+01 -.124E+02   0.313E+01 -.477E+00 0.103E+01   -.622E-03 0.235E-03 0.132E-03
   -.492E+02 0.122E+02 -.237E+01   0.979E+02 0.605E+00 -.198E+02   0.287E+02 0.770E+01 -.153E+02   -.595E-03 0.401E-03 0.511E-04
   0.215E+01 -.402E+02 -.210E+02   -.899E+01 0.434E+02 0.350E+02   -.426E+01 0.740E+01 0.262E+02   -.136E-03 0.106E-03 0.454E-04
   0.356E+02 -.110E+02 0.292E+02   -.539E+02 0.128E+02 -.486E+02   -.184E+02 0.315E+01 -.247E+02   -.377E-03 0.209E-03 -.989E-05
   -.197E+02 -.255E+02 -.199E+02   0.191E+02 0.241E+02 0.205E+02   0.151E+01 0.285E+01 -.145E+01   -.647E-03 0.208E-03 0.737E-04
   0.463E+01 -.271E+02 0.244E+02   -.494E+01 0.229E+02 -.239E+02   -.477E+00 0.327E+01 -.824E+00   -.569E-03 0.364E-03 0.908E-04
   0.245E+02 0.116E+01 -.540E+02   -.236E+02 -.120E+01 0.523E+02   -.190E+01 -.494E+01 0.133E+02   0.115E-03 -.158E-03 0.686E-04
   -.430E+01 0.178E+02 -.169E+02   -.103E+02 -.121E+03 -.715E+02   -.355E+00 -.196E+02 -.166E+02   0.737E-03 -.451E-04 0.247E-03
   -.266E+01 -.828E+01 -.172E+00   0.292E+01 0.790E+01 0.108E+01   -.967E+00 0.340E+00 0.660E+01   0.644E-03 -.336E-03 -.686E-04
   0.161E+02 0.784E+01 -.180E+02   -.151E+02 -.819E+01 0.172E+02   -.571E+00 -.159E+01 -.302E+00   0.289E-03 -.412E-04 0.310E-04
   0.138E+02 0.142E+01 -.206E+01   -.149E+02 -.215E+01 0.665E+00   -.544E+01 -.537E+01 -.989E+01   0.220E-03 0.492E-04 0.975E-04
 -----------------------------------------------------------------------------------------------
   -.487E+02 0.189E+02 -.294E+02   0.425E-12 -.320E-13 -.102E-12   0.490E+02 -.190E+02 0.290E+02   0.167E-02 -.693E-03 0.140E-02
 
 
 POSITION                                       TOTAL-FORCE (eV/Angst)
 -----------------------------------------------------------------------------------
     15.55558      0.15190      0.00000         0.445266      1.048903      1.711845
     11.58177      1.92904      1.45103         0.609006      1.209495     -0.583534
      7.60796      3.70618      2.90206        25.868531     -2.085542    -37.727508
      2.30956      6.07570      0.00000         0.445266      1.048903      1.711845
     -1.66425      7.85284      1.45103         0.609006      1.209495     -0.583534
     -5.63806      9.62998      2.90206        25.868531     -2.085542    -37.727508
     -5.63806     11.40712      0.72551         2.740648     -3.029274      1.507677
      0.98495      1.33666      2.17654         2.759915     -1.178785     -7.141195
     12.90637      3.11380      3.62757       273.857096   -261.744111    -10.524520
      7.60797      5.48332      0.72551         2.740648     -3.029274      1.507677
      3.63416      7.26046      2.17654         2.759915     -1.178785     -7.141195
     -0.33965      9.03760      3.62757       273.857096   -261.744111    -10.524520
     10.25717      6.07570      0.00000       -39.702166    -25.705253     80.048882
      6.28336      7.85284      1.45103         3.258827      9.677787      9.073222
      2.30955      9.62998      2.90206        -0.322226      2.639946      0.150872
      7.60797      0.15190      0.00000       -39.702166    -25.705253     80.048882
      3.63416      1.92904      1.45103         3.258827      9.677787      9.073222
     -0.33965      3.70618      2.90206        -0.322226      2.639946      0.150872
     -0.33965      5.48332      0.72551        13.560636    122.621673    105.102622
     -4.31346      7.26046      2.17654        -0.577847     -1.087968      2.750313
      7.60796      9.03760      3.62757       -30.106208      7.402871     -5.916436
      2.30956     11.40712      0.72551        13.560636    122.621673    105.102622
      8.93257      1.33666      2.17654        -0.577847     -1.087968      2.750313
      4.95876      3.11380      3.62757       -30.106208      7.402871     -5.916436
      8.83068      7.59461      3.62757        12.645023    -16.472647      0.189061
      8.83068      4.04033      4.84198         3.026852     -0.047292      2.416942
      8.83068      0.48605      6.05639        77.417568     20.485161    -37.429453
     12.36296      3.64541      3.62757      -273.961154    268.253989     -0.681612
     12.36296      0.09113      4.84198         0.553798     -0.607148     -1.459734
      1.76613      8.38445      6.05639        -0.406196      1.134744      0.073001
      5.29841     11.54381      3.62757        -1.688489     -2.216929      0.509614
      5.29841      7.98953      4.84198         0.253586     -0.239149     -0.009850
      5.29841      4.43525      6.05639         0.279900     -0.290183      1.278640
      3.09074      7.79207      4.23478        -0.711263     -0.035857      7.517727
      3.09074      4.23779      5.44919         0.398757     -1.944019     -1.062778
      3.09074      0.68351      0.00000        -6.499280     -6.110589    -11.276076
      6.62301      3.84287      4.23478       -11.106063     10.581323     40.238636
      6.62301      0.28859      5.44919       -36.735145      4.930986    -44.078215
     -3.97381      8.58191      0.00000         0.956004      1.408939     -0.886553
     -0.44154     11.74127      4.23478        -0.792171     -0.953380     -0.333750
     -0.44154      8.18699      5.44919        -1.049830     -4.972125     11.517431
     -0.44154      4.63271      0.00000       -14.973376   -122.675567   -104.975271
     -0.88307      9.56921      3.62757      -273.961154    268.253989     -0.681612
     -0.88307      6.01493      4.84198         0.553798     -0.607148     -1.459734
     -0.88307      2.46065      6.05639        -0.406196      1.134744      0.073001
      2.64920      5.62001      3.62757        -1.688489     -2.216929      0.509614
      2.64920      2.06573      4.84198         0.253586     -0.239149     -0.009850
     -7.94762     10.35905      6.05639         0.279900     -0.290183      1.278640
      6.18148      1.67081      3.62757        12.645023    -16.472647      0.189061
     -4.41534      9.96413      4.84198         3.026852     -0.047292      2.416942
     -4.41534      6.40985      6.05639        77.417568     20.485161    -37.429453
     -6.62301      9.76667      4.23478       -11.106063     10.581323     40.238636
      9.27222      6.21239      5.44919       -36.735145      4.930986    -44.078215
      9.27222      2.65811      0.00000         0.956004      1.408939     -0.886553
     -3.09074      5.81747      4.23478        -0.792171     -0.953380     -0.333750
     12.80449      2.26319      5.44919        -1.049830     -4.972125     11.517431
      2.20767     10.55651      0.00000       -14.973376   -122.675567   -104.975271
      0.44153      1.86827      4.23478        -0.711263     -0.035857      7.517727
      5.73994     10.16159      5.44919         0.398757     -1.944019     -1.062778
      5.73994      6.60731      0.00000        -6.499280     -6.110589    -11.276076
 -----------------------------------------------------------------------------------
    total drift:                                0.238249     -0.069610     -0.334103


--------------------------------------------------------------------------------------------------------



  FREE ENERGIE OF THE ION-ELECTRON SYSTEM (eV)
  ---------------------------------------------------
  free  energy   TOTEN  =       342.52091198 eV

  energy  without entropy=      342.52279420  energy(sigma->0) =      342.52185309
 


--------------------------------------------------------------------------------------------------------


    POTLOK:  cpu time      1.0035: real time      1.0092


--------------------------------------------------------------------------------------------------------


     LOOP+:  cpu time    781.0768: real time    787.8199
    4ORBIT:  cpu time      0.0000: real time      0.0000

 total amount of memory used by VASP MPI-rank0   151353. kBytes
=======================================================================

   base      :      30000. kBytes
   nonlr-proj:       9371. kBytes
   fftplans  :      11841. kBytes
   grid      :       9673. kBytes
   one-center:         64. kBytes
   wavefun   :      90404. kBytes
 
  
  
 General timing and accounting informations for this job:
 ========================================================
  
                  Total CPU time used (sec):      823.892
                            User time (sec):      767.494
                          System time (sec):       56.398
                         Elapsed time (sec):      832.071
  
                   Maximum memory used (kb):      449272.
                   Average memory used (kb):          N/A
  
                          Minor page faults:       282822
                          Major page faults:           40
                 Voluntary context switches:         1529
