  96  96   0   0
  0.2009955E+02  0.1789154E-08  0.1789153E-08  0.1382884E-08  0.5000000E-15
  1.000000000000000E-004
  CAR 
 Si and Ge interface calculation         
      7.93501126     -9.92703790  301      4.63050886      1.00000000
     -9.927  0.0000E+00  0.0000E+00  0.0000E+00  0.0000E+00
     -9.867  0.0000E+00  0.0000E+00  0.0000E+00  0.0000E+00
     -9.808  0.0000E+00  0.0000E+00  0.0000E+00  0.0000E+00
     -9.748  0.0000E+00  0.0000E+00  0.0000E+00  0.0000E+00
     -9.689  0.0000E+00  0.0000E+00  0.0000E+00  0.0000E+00
     -9.629  0.0000E+00  0.0000E+00  0.0000E+00  0.0000E+00
     -9.570  0.0000E+00  0.0000E+00  0.0000E+00  0.0000E+00
     -9.510  0.0000E+00  0.0000E+00  0.0000E+00  0.0000E+00
     -9.451  0.0000E+00  0.0000E+00  0.0000E+00  0.0000E+00
     -9.391  0.0000E+00  0.0000E+00  0.0000E+00  0.0000E+00
     -9.332  0.0000E+00  0.0000E+00  0.0000E+00  0.0000E+00
     -9.272  0.0000E+00  0.0000E+00  0.0000E+00  0.0000E+00
     -9.213  0.0000E+00  0.0000E+00  0.0000E+00  0.0000E+00
     -9.153  0.5194E-07  0.3387E-11  0.3093E-08  0.2017E-12
     -9.093  0.7788E+01  0.4996E+01  0.4637E+00  0.2975E+00
     -9.034  0.9522E+01  0.1099E+02  0.1031E+01  0.9517E+00
     -8.974  0.2091E+02  0.1805E+02  0.2276E+01  0.2026E+01
     -8.915  0.1216E+02  0.1635E+02  0.3000E+01  0.3000E+01
     -8.855  0.0000E+00  0.0000E+00  0.3000E+01  0.3000E+01
     -8.796  0.3145E-02  0.6208E-05  0.3000E+01  0.3000E+01
     -8.736  0.2022E+02  0.1616E+02  0.4204E+01  0.3962E+01
     -8.677  0.2142E+02  0.2490E+02  0.5480E+01  0.5445E+01
     -8.617  0.8453E+01  0.6390E+01  0.5983E+01  0.5826E+01
     -8.558  0.1201E+02  0.1340E+02  0.6698E+01  0.6624E+01
     -8.498  0.3160E+01  0.4212E+01  0.6886E+01  0.6875E+01
     -8.439  0.1027E+02  0.9737E+01  0.7497E+01  0.7455E+01
     -8.379  0.1285E+01  0.8303E+00  0.7574E+01  0.7504E+01
     -8.319  0.2949E+02  0.2816E+02  0.9330E+01  0.9181E+01
     -8.260  0.2108E+02  0.2302E+02  0.1059E+02  0.1055E+02
     -8.200  0.8383E+01  0.8041E+01  0.1108E+02  0.1103E+02
     -8.141  0.6886E+00  0.1586E+01  0.1113E+02  0.1113E+02
     -8.081  0.1253E+02  0.1040E+02  0.1187E+02  0.1174E+02
     -8.022  0.6302E+01  0.7248E+01  0.1225E+02  0.1218E+02
     -7.962  0.1344E+02  0.9828E+01  0.1305E+02  0.1276E+02
     -7.903  0.2430E+02  0.2685E+02  0.1449E+02  0.1436E+02
     -7.843  0.9865E-01  0.2353E+01  0.1450E+02  0.1450E+02
     -7.784  0.2834E-05  0.5979E-09  0.1450E+02  0.1450E+02
     -7.724  0.1147E+02  0.6146E+01  0.1518E+02  0.1487E+02
     -7.665  0.6154E+01  0.1061E+02  0.1555E+02  0.1550E+02
     -7.605  0.8589E+01  0.8640E+01  0.1606E+02  0.1601E+02
     -7.545  0.5967E+01  0.5874E+01  0.1642E+02  0.1636E+02
     -7.486  0.3367E+01  0.3426E+01  0.1662E+02  0.1657E+02
     -7.426  0.1347E+02  0.1241E+02  0.1742E+02  0.1730E+02
     -7.367  0.2637E+02  0.2588E+02  0.1899E+02  0.1885E+02
     -7.307  0.2240E+02  0.2127E+02  0.2032E+02  0.2011E+02
     -7.248  0.1716E+02  0.1908E+02  0.2134E+02  0.2125E+02
     -7.188  0.1623E+02  0.1467E+02  0.2231E+02  0.2212E+02
     -7.129  0.1526E+02  0.1591E+02  0.2322E+02  0.2307E+02
     -7.069  0.1502E+02  0.1652E+02  0.2411E+02  0.2405E+02
     -7.010  0.1393E+02  0.1392E+02  0.2494E+02  0.2488E+02
     -6.950  0.2567E+02  0.2316E+02  0.2647E+02  0.2626E+02
     -6.890  0.3380E+02  0.2814E+02  0.2848E+02  0.2794E+02
     -6.831  0.4475E+02  0.4824E+02  0.3115E+02  0.3081E+02
     -6.771  0.2135E+02  0.2456E+02  0.3242E+02  0.3227E+02
     -6.712  0.2471E+02  0.2277E+02  0.3389E+02  0.3363E+02
     -6.652  0.2979E+02  0.2812E+02  0.3567E+02  0.3530E+02
     -6.593  0.2815E+02  0.3189E+02  0.3734E+02  0.3720E+02
     -6.533  0.1369E+02  0.1298E+02  0.3816E+02  0.3797E+02
     -6.474  0.2582E+02  0.2236E+02  0.3969E+02  0.3930E+02
     -6.414  0.2182E+02  0.2659E+02  0.4099E+02  0.4089E+02
     -6.355  0.3071E+02  0.2806E+02  0.4282E+02  0.4256E+02
     -6.295  0.3202E+02  0.3307E+02  0.4473E+02  0.4453E+02
     -6.236  0.3671E+02  0.3423E+02  0.4691E+02  0.4656E+02
     -6.176  0.1980E+02  0.2447E+02  0.4809E+02  0.4802E+02
     -6.116  0.2104E+02  0.1742E+02  0.4935E+02  0.4906E+02
     -6.057  0.4093E+02  0.3862E+02  0.5178E+02  0.5136E+02
     -5.997  0.3758E+02  0.3695E+02  0.5402E+02  0.5356E+02
     -5.938  0.3730E+02  0.3950E+02  0.5624E+02  0.5591E+02
     -5.878  0.2921E+02  0.2929E+02  0.5798E+02  0.5765E+02
     -5.819  0.3325E+02  0.3346E+02  0.5996E+02  0.5965E+02
     -5.759  0.3510E+02  0.3533E+02  0.6205E+02  0.6175E+02
     -5.700  0.2903E+02  0.3094E+02  0.6378E+02  0.6359E+02
     -5.640  0.2849E+02  0.2853E+02  0.6548E+02  0.6529E+02
     -5.581  0.3211E+02  0.3161E+02  0.6739E+02  0.6717E+02
     -5.521  0.3891E+02  0.3263E+02  0.6970E+02  0.6912E+02
     -5.462  0.3679E+02  0.4157E+02  0.7189E+02  0.7159E+02
     -5.402  0.2740E+02  0.2946E+02  0.7353E+02  0.7335E+02
     -5.342  0.3520E+02  0.3028E+02  0.7562E+02  0.7515E+02
     -5.283  0.4619E+02  0.4238E+02  0.7837E+02  0.7767E+02
     -5.223  0.4130E+02  0.4856E+02  0.8083E+02  0.8056E+02
     -5.164  0.2506E+02  0.2510E+02  0.8232E+02  0.8206E+02
     -5.104  0.3231E+02  0.3447E+02  0.8425E+02  0.8411E+02
     -5.045  0.1797E+02  0.1759E+02  0.8532E+02  0.8516E+02
     -4.985  0.2816E+02  0.2655E+02  0.8699E+02  0.8674E+02
     -4.926  0.2604E+02  0.2560E+02  0.8854E+02  0.8826E+02
     -4.866  0.1792E+02  0.1868E+02  0.8961E+02  0.8938E+02
     -4.807  0.1908E+02  0.1837E+02  0.9075E+02  0.9047E+02
     -4.747  0.1817E+02  0.2042E+02  0.9183E+02  0.9169E+02
     -4.688  0.1576E+02  0.1632E+02  0.9277E+02  0.9266E+02
     -4.628  0.1879E+02  0.1695E+02  0.9389E+02  0.9367E+02
     -4.568  0.2562E+02  0.2455E+02  0.9541E+02  0.9513E+02
     -4.509  0.2328E+02  0.2587E+02  0.9680E+02  0.9667E+02
     -4.449  0.1150E+02  0.1148E+02  0.9748E+02  0.9735E+02
     -4.390  0.1910E+02  0.1836E+02  0.9862E+02  0.9845E+02
     -4.330  0.3523E+02  0.3291E+02  0.1007E+03  0.1004E+03
     -4.271  0.2212E+02  0.2547E+02  0.1020E+03  0.1019E+03
     -4.211  0.1337E+02  0.1249E+02  0.1028E+03  0.1027E+03
     -4.152  0.2680E+02  0.2345E+02  0.1044E+03  0.1041E+03
     -4.092  0.2279E+02  0.2602E+02  0.1058E+03  0.1056E+03
     -4.033  0.2813E+02  0.2409E+02  0.1075E+03  0.1070E+03
     -3.973  0.2758E+02  0.2991E+02  0.1091E+03  0.1088E+03
     -3.913  0.2518E+02  0.2476E+02  0.1106E+03  0.1103E+03
     -3.854  0.1856E+02  0.2041E+02  0.1117E+03  0.1115E+03
     -3.794  0.2667E+02  0.2305E+02  0.1133E+03  0.1129E+03
     -3.735  0.2946E+02  0.3176E+02  0.1150E+03  0.1148E+03
     -3.675  0.2187E+02  0.2223E+02  0.1164E+03  0.1161E+03
     -3.616  0.2059E+02  0.2011E+02  0.1176E+03  0.1173E+03
     -3.556  0.2230E+02  0.2423E+02  0.1189E+03  0.1187E+03
     -3.497  0.2102E+02  0.2158E+02  0.1202E+03  0.1200E+03
     -3.437  0.2709E+02  0.2507E+02  0.1218E+03  0.1215E+03
     -3.378  0.1231E+02  0.1333E+02  0.1225E+03  0.1223E+03
     -3.318  0.1942E+02  0.1595E+02  0.1237E+03  0.1233E+03
     -3.259  0.2785E+02  0.3216E+02  0.1253E+03  0.1252E+03
     -3.199  0.2778E+02  0.2470E+02  0.1270E+03  0.1267E+03
     -3.139  0.3332E+02  0.3286E+02  0.1290E+03  0.1286E+03
     -3.080  0.3249E+02  0.3327E+02  0.1309E+03  0.1306E+03
     -3.020  0.2641E+02  0.2797E+02  0.1325E+03  0.1323E+03
     -2.961  0.3275E+02  0.3083E+02  0.1344E+03  0.1341E+03
     -2.901  0.2266E+02  0.2481E+02  0.1358E+03  0.1356E+03
     -2.842  0.2664E+02  0.2604E+02  0.1373E+03  0.1371E+03
     -2.782  0.2760E+02  0.2573E+02  0.1390E+03  0.1387E+03
     -2.723  0.3780E+02  0.3915E+02  0.1412E+03  0.1410E+03
     -2.663  0.2014E+02  0.2225E+02  0.1424E+03  0.1423E+03
     -2.604  0.3058E+02  0.2848E+02  0.1443E+03  0.1440E+03
     -2.544  0.2196E+02  0.2267E+02  0.1456E+03  0.1454E+03
     -2.485  0.2277E+02  0.2361E+02  0.1469E+03  0.1468E+03
     -2.425  0.1952E+02  0.1937E+02  0.1481E+03  0.1479E+03
     -2.365  0.2523E+02  0.2280E+02  0.1496E+03  0.1493E+03
     -2.306  0.2770E+02  0.2894E+02  0.1512E+03  0.1510E+03
     -2.246  0.3091E+02  0.2662E+02  0.1531E+03  0.1526E+03
     -2.187  0.2040E+02  0.2676E+02  0.1543E+03  0.1542E+03
     -2.127  0.1606E+02  0.1527E+02  0.1553E+03  0.1551E+03
     -2.068  0.1522E+02  0.1675E+02  0.1562E+03  0.1561E+03
     -2.008  0.1573E+02  0.1254E+02  0.1571E+03  0.1568E+03
     -1.949  0.1860E+02  0.2290E+02  0.1582E+03  0.1582E+03
     -1.889  0.1941E+02  0.1577E+02  0.1594E+03  0.1591E+03
     -1.830  0.1328E+02  0.1420E+02  0.1601E+03  0.1600E+03
     -1.770  0.2109E+02  0.1929E+02  0.1614E+03  0.1611E+03
     -1.710  0.1787E+02  0.1984E+02  0.1625E+03  0.1623E+03
     -1.651  0.2038E+02  0.2056E+02  0.1637E+03  0.1635E+03
     -1.591  0.2680E+02  0.2140E+02  0.1653E+03  0.1648E+03
     -1.532  0.2429E+02  0.2993E+02  0.1667E+03  0.1666E+03
     -1.472  0.2009E+02  0.1929E+02  0.1679E+03  0.1677E+03
     -1.413  0.2846E+02  0.2768E+02  0.1696E+03  0.1694E+03
     -1.353  0.2276E+02  0.2252E+02  0.1710E+03  0.1707E+03
     -1.294  0.3557E+02  0.3381E+02  0.1731E+03  0.1727E+03
     -1.234  0.2996E+02  0.3106E+02  0.1749E+03  0.1746E+03
     -1.175  0.3657E+02  0.3313E+02  0.1770E+03  0.1766E+03
     -1.115  0.3042E+02  0.3150E+02  0.1789E+03  0.1784E+03
     -1.056  0.3171E+02  0.3470E+02  0.1807E+03  0.1805E+03
     -0.996  0.2184E+02  0.2125E+02  0.1820E+03  0.1818E+03
     -0.936  0.2317E+02  0.2338E+02  0.1834E+03  0.1832E+03
     -0.877  0.2755E+02  0.2744E+02  0.1851E+03  0.1848E+03
     -0.817  0.3507E+02  0.3169E+02  0.1872E+03  0.1867E+03
     -0.758  0.2212E+02  0.2724E+02  0.1885E+03  0.1883E+03
     -0.698  0.2331E+02  0.2344E+02  0.1899E+03  0.1897E+03
     -0.639  0.2850E+02  0.2664E+02  0.1916E+03  0.1913E+03
     -0.579  0.2490E+02  0.2526E+02  0.1930E+03  0.1928E+03
     -0.520  0.2573E+02  0.2655E+02  0.1946E+03  0.1944E+03
     -0.460  0.2396E+02  0.2451E+02  0.1960E+03  0.1958E+03
     -0.401  0.2640E+02  0.2804E+02  0.1976E+03  0.1975E+03
     -0.341  0.1825E+02  0.1505E+02  0.1987E+03  0.1984E+03
     -0.282  0.2023E+02  0.2102E+02  0.1999E+03  0.1996E+03
     -0.222  0.1282E+02  0.1522E+02  0.2006E+03  0.2005E+03
     -0.162  0.1332E+02  0.1250E+02  0.2014E+03  0.2013E+03
     -0.103  0.9024E+01  0.8681E+01  0.2020E+03  0.2018E+03
     -0.043  0.6144E+01  0.8495E+01  0.2023E+03  0.2023E+03
      0.016  0.1687E+02  0.1541E+02  0.2033E+03  0.2032E+03
      0.076  0.1565E+02  0.1512E+02  0.2043E+03  0.2041E+03
      0.135  0.1842E+02  0.1923E+02  0.2054E+03  0.2053E+03
      0.195  0.2371E+02  0.1952E+02  0.2068E+03  0.2064E+03
      0.254  0.1158E+02  0.1536E+02  0.2075E+03  0.2074E+03
      0.314  0.3525E+02  0.3256E+02  0.2096E+03  0.2093E+03
      0.373  0.3793E+02  0.3812E+02  0.2118E+03  0.2116E+03
      0.433  0.1897E+02  0.2035E+02  0.2129E+03  0.2128E+03
      0.492  0.2722E+02  0.2719E+02  0.2146E+03  0.2144E+03
      0.552  0.3000E+02  0.2592E+02  0.2163E+03  0.2159E+03
      0.612  0.3156E+02  0.3469E+02  0.2182E+03  0.2180E+03
      0.671  0.3500E+02  0.3298E+02  0.2203E+03  0.2200E+03
      0.731  0.2432E+02  0.2466E+02  0.2218E+03  0.2214E+03
      0.790  0.3760E+02  0.3967E+02  0.2240E+03  0.2238E+03
      0.850  0.2777E+02  0.2667E+02  0.2257E+03  0.2254E+03
      0.909  0.2972E+02  0.2910E+02  0.2274E+03  0.2271E+03
      0.969  0.3769E+02  0.3694E+02  0.2297E+03  0.2293E+03
      1.028  0.3626E+02  0.3699E+02  0.2318E+03  0.2315E+03
      1.088  0.3522E+02  0.3685E+02  0.2339E+03  0.2337E+03
      1.147  0.3237E+02  0.2960E+02  0.2358E+03  0.2355E+03
      1.207  0.3768E+02  0.3855E+02  0.2381E+03  0.2378E+03
      1.267  0.4013E+02  0.3733E+02  0.2405E+03  0.2400E+03
      1.326  0.4154E+02  0.4400E+02  0.2430E+03  0.2426E+03
      1.386  0.3398E+02  0.3547E+02  0.2450E+03  0.2447E+03
      1.445  0.4056E+02  0.3982E+02  0.2474E+03  0.2471E+03
      1.505  0.4209E+02  0.3678E+02  0.2499E+03  0.2493E+03
      1.564  0.4802E+02  0.4848E+02  0.2528E+03  0.2522E+03
      1.624  0.4390E+02  0.4672E+02  0.2554E+03  0.2550E+03
      1.683  0.3377E+02  0.3518E+02  0.2574E+03  0.2570E+03
      1.743  0.5631E+02  0.5696E+02  0.2607E+03  0.2604E+03
      1.802  0.3791E+02  0.3899E+02  0.2630E+03  0.2628E+03
      1.862  0.4760E+02  0.4273E+02  0.2658E+03  0.2653E+03
      1.921  0.5391E+02  0.5445E+02  0.2690E+03  0.2685E+03
      1.981  0.4980E+02  0.5032E+02  0.2720E+03  0.2715E+03
      2.041  0.5992E+02  0.6015E+02  0.2756E+03  0.2751E+03
      2.100  0.4521E+02  0.4456E+02  0.2783E+03  0.2778E+03
      2.160  0.5032E+02  0.4853E+02  0.2813E+03  0.2807E+03
      2.219  0.6298E+02  0.6512E+02  0.2850E+03  0.2845E+03
      2.279  0.3552E+02  0.3688E+02  0.2871E+03  0.2867E+03
      2.338  0.4278E+02  0.4027E+02  0.2897E+03  0.2891E+03
      2.398  0.4892E+02  0.4905E+02  0.2926E+03  0.2921E+03
      2.457  0.4590E+02  0.4797E+02  0.2953E+03  0.2949E+03
      2.517  0.4104E+02  0.3753E+02  0.2978E+03  0.2972E+03
      2.576  0.4653E+02  0.4992E+02  0.3005E+03  0.3001E+03
      2.636  0.4757E+02  0.4468E+02  0.3034E+03  0.3028E+03
      2.695  0.3418E+02  0.3765E+02  0.3054E+03  0.3050E+03
      2.755  0.5883E+02  0.5220E+02  0.3089E+03  0.3081E+03
      2.815  0.4618E+02  0.5356E+02  0.3117E+03  0.3113E+03
      2.874  0.3903E+02  0.3931E+02  0.3140E+03  0.3137E+03
      2.934  0.4327E+02  0.4184E+02  0.3166E+03  0.3162E+03
      2.993  0.3626E+02  0.3531E+02  0.3187E+03  0.3183E+03
      3.053  0.4040E+02  0.4267E+02  0.3211E+03  0.3208E+03
      3.112  0.4081E+02  0.3963E+02  0.3235E+03  0.3232E+03
      3.172  0.3620E+02  0.3382E+02  0.3257E+03  0.3252E+03
      3.231  0.3733E+02  0.4090E+02  0.3279E+03  0.3276E+03
      3.291  0.4604E+02  0.4298E+02  0.3307E+03  0.3302E+03
      3.350  0.3645E+02  0.3725E+02  0.3328E+03  0.3324E+03
      3.410  0.5440E+02  0.5601E+02  0.3361E+03  0.3357E+03
      3.469  0.4302E+02  0.4289E+02  0.3386E+03  0.3383E+03
      3.529  0.3997E+02  0.3891E+02  0.3410E+03  0.3406E+03
      3.589  0.3754E+02  0.3635E+02  0.3433E+03  0.3428E+03
      3.648  0.2934E+02  0.3333E+02  0.3450E+03  0.3447E+03
      3.708  0.4227E+02  0.3921E+02  0.3475E+03  0.3471E+03
      3.767  0.3329E+02  0.3264E+02  0.3495E+03  0.3490E+03
      3.827  0.4520E+02  0.4744E+02  0.3522E+03  0.3518E+03
      3.886  0.3458E+02  0.3299E+02  0.3543E+03  0.3538E+03
      3.946  0.4171E+02  0.4124E+02  0.3567E+03  0.3563E+03
      4.005  0.4662E+02  0.4926E+02  0.3595E+03  0.3592E+03
      4.065  0.4351E+02  0.3780E+02  0.3621E+03  0.3614E+03
      4.124  0.4382E+02  0.4835E+02  0.3647E+03  0.3643E+03
      4.184  0.3596E+02  0.3307E+02  0.3669E+03  0.3663E+03
      4.244  0.4065E+02  0.4356E+02  0.3693E+03  0.3689E+03
      4.303  0.4547E+02  0.4190E+02  0.3720E+03  0.3714E+03
      4.363  0.3538E+02  0.3985E+02  0.3741E+03  0.3738E+03
      4.422  0.3786E+02  0.3552E+02  0.3763E+03  0.3759E+03
      4.482  0.3774E+02  0.3620E+02  0.3786E+03  0.3780E+03
      4.541  0.3231E+02  0.3611E+02  0.3805E+03  0.3802E+03
      4.601  0.3251E+02  0.3080E+02  0.3824E+03  0.3820E+03
      4.660  0.3631E+02  0.3413E+02  0.3846E+03  0.3840E+03
      4.720  0.4584E+02  0.4920E+02  0.3873E+03  0.3870E+03
      4.779  0.2583E+02  0.2381E+02  0.3889E+03  0.3884E+03
      4.839  0.3939E+02  0.3699E+02  0.3912E+03  0.3906E+03
      4.898  0.2955E+02  0.3329E+02  0.3930E+03  0.3926E+03
      4.958  0.4179E+02  0.3593E+02  0.3955E+03  0.3947E+03
      5.018  0.3160E+02  0.3511E+02  0.3974E+03  0.3968E+03
      5.077  0.2856E+02  0.2844E+02  0.3991E+03  0.3985E+03
      5.137  0.2489E+02  0.2624E+02  0.4005E+03  0.4001E+03
      5.196  0.3225E+02  0.3262E+02  0.4025E+03  0.4020E+03
      5.256  0.3139E+02  0.2796E+02  0.4043E+03  0.4037E+03
      5.315  0.2569E+02  0.3147E+02  0.4059E+03  0.4055E+03
      5.375  0.3431E+02  0.3080E+02  0.4079E+03  0.4074E+03
      5.434  0.2770E+02  0.3092E+02  0.4095E+03  0.4092E+03
      5.494  0.3528E+02  0.3486E+02  0.4116E+03  0.4113E+03
      5.553  0.3113E+02  0.2871E+02  0.4135E+03  0.4130E+03
      5.613  0.4295E+02  0.4197E+02  0.4161E+03  0.4155E+03
      5.672  0.2489E+02  0.2834E+02  0.4175E+03  0.4172E+03
      5.732  0.4508E+02  0.4500E+02  0.4202E+03  0.4199E+03
      5.792  0.2288E+02  0.2298E+02  0.4216E+03  0.4212E+03
      5.851  0.3371E+02  0.3351E+02  0.4236E+03  0.4232E+03
      5.911  0.2906E+02  0.2852E+02  0.4253E+03  0.4249E+03
      5.970  0.4517E+02  0.4300E+02  0.4280E+03  0.4275E+03
      6.030  0.4193E+02  0.4220E+02  0.4305E+03  0.4300E+03
      6.089  0.2967E+02  0.3314E+02  0.4323E+03  0.4320E+03
      6.149  0.3850E+02  0.3500E+02  0.4346E+03  0.4341E+03
      6.208  0.3753E+02  0.3642E+02  0.4368E+03  0.4362E+03
      6.268  0.3826E+02  0.3910E+02  0.4391E+03  0.4386E+03
      6.327  0.3131E+02  0.3393E+02  0.4409E+03  0.4406E+03
      6.387  0.3636E+02  0.3539E+02  0.4431E+03  0.4427E+03
      6.447  0.3774E+02  0.3870E+02  0.4454E+03  0.4450E+03
      6.506  0.3440E+02  0.3406E+02  0.4474E+03  0.4470E+03
      6.566  0.2842E+02  0.3013E+02  0.4491E+03  0.4488E+03
      6.625  0.4627E+02  0.4483E+02  0.4519E+03  0.4515E+03
      6.685  0.2525E+02  0.2673E+02  0.4534E+03  0.4531E+03
      6.744  0.3138E+02  0.3199E+02  0.4552E+03  0.4550E+03
      6.804  0.2749E+02  0.2753E+02  0.4569E+03  0.4566E+03
      6.863  0.2735E+02  0.2748E+02  0.4585E+03  0.4583E+03
      6.923  0.3686E+02  0.3455E+02  0.4607E+03  0.4603E+03
      6.982  0.3318E+02  0.3463E+02  0.4627E+03  0.4624E+03
      7.042  0.1972E+02  0.2012E+02  0.4638E+03  0.4636E+03
      7.101  0.8151E+00  0.6219E+01  0.4639E+03  0.4639E+03
      7.161  0.1907E+01  0.1057E+01  0.4640E+03  0.4640E+03
      7.221  0.0000E+00  0.0000E+00  0.4640E+03  0.4640E+03
      7.280  0.0000E+00  0.0000E+00  0.4640E+03  0.4640E+03
      7.340  0.0000E+00  0.0000E+00  0.4640E+03  0.4640E+03
      7.399  0.0000E+00  0.0000E+00  0.4640E+03  0.4640E+03
      7.459  0.0000E+00  0.0000E+00  0.4640E+03  0.4640E+03
      7.518  0.0000E+00  0.0000E+00  0.4640E+03  0.4640E+03
      7.578  0.0000E+00  0.0000E+00  0.4640E+03  0.4640E+03
      7.637  0.0000E+00  0.0000E+00  0.4640E+03  0.4640E+03
      7.697  0.0000E+00  0.0000E+00  0.4640E+03  0.4640E+03
      7.756  0.0000E+00  0.0000E+00  0.4640E+03  0.4640E+03
      7.816  0.0000E+00  0.0000E+00  0.4640E+03  0.4640E+03
      7.875  0.0000E+00  0.0000E+00  0.4640E+03  0.4640E+03
      7.935  0.0000E+00  0.0000E+00  0.4640E+03  0.4640E+03
