 vasp.6.4.3 19Mar24 (build Oct 22 2024 11:23:12) complex                        
  
 executed on             LinuxIFC date 2025.06.04  11:24:45
 running   64 mpi-ranks, on    4 nodes
 distrk:  each k-point on   64 cores,    1 groups
 distr:  one band on NCORE=  16 cores,    4 groups


--------------------------------------------------------------------------------------------------------


 INCAR:
   SYSTEM = Si and Ge interface calculation
   ISTART = 0
   ICHARG = 2
   LWAVE = .FALSE.
   LREAL = AUTO
   ENCUT = 700
   ENAUG = 900
   ADDGRID = .TRUE.
   LMAXMIX = 6
   LASPH = .TRUE.
   LMIXTAU = .TRUE.
   NCORE = 16
   NELM = 100
   NBANDS = 231
   EDIFF = 1d-7
   AMIX = 0.6
   ISMEAR = 0
   SIGMA = 0.01
   NELECT = 384
   ISPIN = 2
   NUPDOWN = 1
   LVTOT = .FALSE.
   LVHAR = .TRUE.

 POTCAR:    PAW_PBE Ge 05Jan2001                  
 -----------------------------------------------------------------------------
|                                                                             |
|           W    W    AA    RRRRR   N    N  II  N    N   GGGG   !!!           |
|           W    W   A  A   R    R  NN   N  II  NN   N  G    G  !!!           |
|           W    W  A    A  R    R  N N  N  II  N N  N  G       !!!           |
|           W WW W  AAAAAA  RRRRR   N  N N  II  N  N N  G  GGG   !            |
|           WW  WW  A    A  R   R   N   NN  II  N   NN  G    G                |
|           W    W  A    A  R    R  N    N  II  N    N   GGGG   !!!           |
|                                                                             |
|     You use a magnetic or noncollinear calculation, but did not specify     |
|     the initial magnetic moment with the MAGMOM tag. Note that a            |
|     default of 0.01 will be used for all atoms. This ferromagnetic          |
|     setup may break the symmetry of the crystal, in particular it may       |
|     rule out finding an antiferromagnetic solution. Thence, we              |
|     recommend setting the initial magnetic moment manually or verifying     |
|     carefully that this magnetic setup is desired.                          |
|                                                                             |
 -----------------------------------------------------------------------------

 POTCAR:    PAW_PBE Ge 05Jan2001                  
   VRHFIN =Ge: s2p2                                                                                 
   LEXCH  = PE                                                                                      
   EATOM  =   104.9960 eV,    7.7170 Ry                                                             
                                                                                                    
   TITEL  = PAW_PBE Ge 05Jan2001                                                                    
   LULTRA =        F    use ultrasoft PP ?                                                          
   IUNSCR =        1    unscreen: 0-lin 1-nonlin 2-no                                               
   RPACOR =    2.170    partial core radius                                                         
   POMASS =   72.610; ZVAL   =    4.000    mass and valenz                                          
   RCORE  =    2.300    outmost cutoff radius                                                       
   RWIGS  =    2.300; RWIGS  =    1.217    wigner-seitz radius (au A)                               
   ENMAX  =  173.807; ENMIN  =  130.355 eV                                                          
   ICORE  =        3    local potential                                                             
   LCOR   =        T    correct aug charges                                                         
   LPAW   =        T    paw PP                                                                      
   EAUG   =  385.843                                                                                
   DEXC   =    0.000                                                                                
   RMAX   =    2.342    core radius for proj-oper                                                   
   RAUG   =    1.300    factor for augmentation sphere                                              
   RDEP   =    2.318    radius for radial grids                                                     
   RDEPT  =    2.103    core radius for aug-charge                                                  
                                                                                                    
   Atomic configuration                                                                             
   10 entries                                                                                       
     n  l   j            E        occ.                                                              
     1  0  0.50    -10959.8463   2.0000                                                             
     2  0  0.50     -1371.6056   2.0000                                                             
     2  1  1.50     -1198.4791   6.0000                                                             
     3  0  0.50      -168.4733   2.0000                                                             
     3  1  1.50      -115.6019   6.0000                                                             
     3  2  2.50       -29.3106  10.0000                                                             
     4  0  0.50       -11.7309   2.0000                                                             
     4  1  0.50        -3.8952   2.0000                                                             
     4  2  1.50        -4.0817   0.0000                                                             
     4  3  2.50        -4.0817   0.0000                                                             
   Description                                                                                      
     l       E           TYP  RCUT    TYP  RCUT                                                     
     0    -11.7309493     23  2.300                                                                 
     0     -7.4578696     23  2.300                                                                 
     1     -3.8952261     23  2.300                                                                 
     1      6.1178114     23  2.300                                                                 
     2     -4.0817478     23  2.300                                                                 
     3     -1.3605826      7  2.300                                                                 
  local pseudopotential read in
  partial core-charges read in
  partial kinetic energy density read in
  atomic valenz-charges read in
  non local Contribution for L=           0  read in
    real space projection operators read in
  non local Contribution for L=           0  read in
    real space projection operators read in
  non local Contribution for L=           1  read in
    real space projection operators read in
  non local Contribution for L=           1  read in
    real space projection operators read in
  non local Contribution for L=           2  read in
    real space projection operators read in
    PAW grid and wavefunctions read in
 
   number of l-projection  operators is LMAX  =           5
   number of lm-projection operators is LMMAX =          13
 
 Optimization of the real space projectors (new method)

 maximal supplied QI-value         = 16.25
 optimisation between [QCUT,QGAM] = [ 13.49, 26.98] = [ 50.95,203.80] Ry 
 Optimized for a Real-space Cutoff    1.25 Angstroem

   l    n(q)    QCUT    max X(q) W(low)/X(q) W(high)/X(q)  e(spline) 
   0     10    13.489    65.336    0.91E-04    0.11E-03    0.34E-06
   0     10    13.489    52.220    0.89E-04    0.11E-03    0.34E-06
   1     10    13.489    36.409    0.22E-03    0.27E-03    0.14E-06
   1     10    13.489    21.334    0.21E-03    0.27E-03    0.14E-06
   2      9    13.489     4.673    0.11E-03    0.12E-03    0.19E-06
  PAW_PBE Ge 05Jan2001                  :
 energy of atom  1       EATOM= -104.9960
 kinetic energy error for atom=    0.0001 (will be added to EATOM!!)
 
 
 POSCAR: Ge+Ge
  positions in direct lattice
  No initial velocities read in


 exchange-correlation table for PE
   RHO(1)=    0.500       N(1)  =     2000
   RHO(2)=  100.500       N(2)  =     4000
 


--------------------------------------------------------------------------------------------------------


 ion  position               nearest neighbor table
   1  0.812  0.188  0.469-  11 2.45   5 2.45  75 2.45  69 2.45  63 2.52  56 2.91
   2  0.023  0.977  0.000-  73 0.58  55 2.05  21 2.45  44 2.45  32 2.45  67 2.52
   3  0.181  0.819  0.094-  22 2.45  45 2.45  33 2.45
   4  0.339  0.661  0.188-   7 2.45  46 2.45  34 2.45   8 2.45
   5  0.102  0.398  0.493-  75 0.00  30 2.45   1 2.45  24 2.45  62 2.88
   6  0.654  0.346  0.375-  36 2.45  10 2.45  19 2.45
   7  0.286  0.714  0.305-  24 2.45   4 2.45  80 2.45  29 2.45
   8  0.312  0.688  0.023-  79 0.58  38 2.45  26 2.45   4 2.45  61 2.52  90 2.58  49 2.91
   9  0.470  0.530  0.117-  14 2.45  39 2.45  27 2.45  43 2.45  85 2.58
  10  0.628  0.372  0.211-  15 2.45  40 2.45  28 2.45   6 2.45
  11  0.786  0.214  0.305-  16 2.45   1 2.45  80 2.45  29 2.45
  12  0.944  0.056  0.399-  17 2.45  42 2.45  30 2.45  64 2.48  87 2.88
  13  0.444  0.556  0.399-  43 2.45  42 2.45  30 2.45  87 2.48  64 2.88
  14  0.523  0.477  0.000-  85 0.58  67 2.05   9 2.45  44 2.45  32 2.45  55 2.52
  15  0.681  0.319  0.094-  10 2.45  45 2.45  33 2.45
  16  0.839  0.161  0.188-  11 2.45  20 2.45  46 2.45  34 2.45
  17  0.996  0.004  0.282-  12 2.45  47 2.45  21 2.45  35 2.45
  18  0.691  0.241  0.500-  81 2.45  63 2.45  56 2.45  19 2.48
  19  0.444  0.056  0.399-  80 2.45   6 2.45  86 2.45  18 2.48  48 2.88  58 2.88
  20  0.812  0.188  0.023-  91 0.58  16 2.45  38 2.45  26 2.45  49 2.52  78 2.58  61 2.91
  21  0.970  0.030  0.117-   2 2.45  39 2.45  27 2.45  17 2.45  73 2.58
  22  0.128  0.872  0.211-   3 2.45  86 2.45  40 2.45  28 2.45
  23  0.102  0.898  0.493-  86 2.45  25 2.45  82 2.45  51 2.48  68 2.88
  24  0.312  0.688  0.469-   7 2.45   5 2.45  75 2.45  69 2.45  56 2.52  63 2.91
  25  0.312  0.188  0.469-  35 2.45  23 2.45  36 2.45  41 2.52  92 2.91
  26  0.523  0.977  0.000-  61 0.58  91 2.05  45 2.45   8 2.45  20 2.45  79 2.52
  27  0.681  0.819  0.094-  46 2.45  21 2.45   9 2.45
  28  0.839  0.661  0.188-  47 2.45  32 2.45  22 2.45  10 2.45
  29  0.996  0.504  0.282-  33 2.45   7 2.45  11 2.45
  30  0.154  0.346  0.375-   5 2.45  75 2.45  34 2.45  13 2.45  12 2.45
  31  0.139  0.294  0.617-  64 2.45  65 2.45  62 2.45
  32  0.812  0.688  0.023-  67 0.58  28 2.45   2 2.45  14 2.45  73 2.52  54 2.58  85 2.91
  33  0.970  0.530  0.117-  38 2.45  29 2.45   3 2.45  15 2.45  49 2.58
  34  0.128  0.372  0.211-  39 2.45  30 2.45   4 2.45  16 2.45
  35  0.286  0.214  0.305-  40 2.45  25 2.45  43 2.45  17 2.45
  36  0.602  0.398  0.493-   6 2.45  82 2.45  25 2.45  68 2.48  51 2.88
  37  0.797  0.136  0.711-  62 2.45  50 2.45  52 2.45  78 2.45
  38  0.023  0.477  0.000-  49 0.58  79 2.05  33 2.45   8 2.45  20 2.45  91 2.52
  39  0.181  0.319  0.094-  34 2.45  21 2.45   9 2.45
  40  0.339  0.161  0.188-  35 2.45  10 2.45  22 2.45  44 2.45
  41  0.481  0.452  0.523-  76 2.45  87 2.45  64 2.45  25 2.52  82 2.91
  42  0.654  0.846  0.375-  69 2.45  46 2.45  13 2.45  12 2.45
  43  0.496  0.504  0.282-  13 2.45  47 2.45   9 2.45  35 2.45
  44  0.312  0.188  0.023-  55 0.58  40 2.45   2 2.45  14 2.45  85 2.52  66 2.58  73 2.91
  45  0.470  0.030  0.117-  26 2.45  80 2.45   3 2.45  15 2.45  61 2.58
  46  0.628  0.872  0.211-  27 2.45  42 2.45   4 2.45  16 2.45
  47  0.786  0.714  0.305-  28 2.45  82 2.45  17 2.45  43 2.45
  48  0.191  0.741  0.500-  58 0.00  93 2.45  56 2.45  63 2.45  19 2.88
  49  0.981  0.452  0.969-  38 0.58  59 2.45  79 2.45  91 2.45  20 2.52  33 2.58   8 2.91
  50  0.007  0.425  0.688-  59 2.45  63 2.45  37 2.45  94 2.45
  51  0.349  0.083  0.594-  70 2.45  81 2.45  93 2.45  23 2.48  36 2.88
  52  0.507  0.925  0.688-  71 2.45  37 2.45  56 2.45  94 2.45
  53  0.665  0.768  0.782-  72 2.45  83 2.45  57 2.45  95 2.45
  54  0.823  0.610  0.875-  67 2.45  84 2.45  74 2.45  96 2.45  32 2.58
  55  0.270  0.162  0.993-  44 0.58   2 2.05  66 2.45  73 2.45  85 2.45  14 2.52
  56  0.481  0.952  0.523-  48 2.45  58 2.45  52 2.45  18 2.45  24 2.52   1 2.91
  57  0.639  0.794  0.617-  87 2.45  62 2.45  53 2.45
  58  0.191  0.741  0.500-  48 0.00  93 2.45  56 2.45  63 2.45  19 2.88
  59  0.955  0.478  0.805-  50 2.45  49 2.45  77 2.45  89 2.45
  60  0.112  0.320  0.899-  65 2.45  78 2.45  90 2.45
  61  0.481  0.952  0.969-  26 0.58  71 2.45  79 2.45  91 2.45   8 2.52  45 2.58  20 2.91
  62  0.849  0.083  0.594-  37 2.45  31 2.45  57 2.45  69 2.48   5 2.88  75 2.88
  63  0.981  0.452  0.523-  48 2.45  58 2.45  50 2.45  18 2.45   1 2.52  24 2.91
  64  0.191  0.241  0.500-  31 2.45  41 2.45  92 2.45  12 2.48  13 2.88
  65  0.165  0.268  0.782-  60 2.45  31 2.45  83 2.45  95 2.45
  66  0.323  0.110  0.875-  55 2.45  70 2.45  84 2.45  96 2.45  44 2.58
  67  0.770  0.662  0.993-  32 0.58  14 2.05  54 2.45  73 2.45  85 2.45   2 2.52
  68  0.849  0.583  0.594-  74 2.45  81 2.45  93 2.45  36 2.48  23 2.88
  69  0.602  0.898  0.493-  42 2.45   1 2.45  24 2.45  62 2.48
  70  0.297  0.136  0.711-  51 2.45  66 2.45  76 2.45  88 2.45
  71  0.455  0.978  0.805-  61 2.45  52 2.45  77 2.45  89 2.45
  72  0.612  0.820  0.899-  53 2.45  78 2.45  90 2.45
  73  0.981  0.952  0.969-   2 0.58  83 2.45  55 2.45  67 2.45  32 2.52  21 2.58  44 2.91
  74  0.797  0.636  0.711-  68 2.45  76 2.45  88 2.45  54 2.45
  75  0.102  0.398  0.493-   5 0.00  30 2.45   1 2.45  24 2.45  62 2.88
  76  0.507  0.425  0.688-  95 2.45  70 2.45  74 2.45  41 2.45
  77  0.665  0.268  0.782-  96 2.45  81 2.45  71 2.45  59 2.45
  78  0.823  0.110  0.875-  91 2.45  60 2.45  37 2.45  72 2.45  20 2.58
  79  0.270  0.662  0.993-   8 0.58  38 2.05  90 2.45  49 2.45  61 2.45  26 2.52
  80  0.496  0.004  0.282-  19 2.45  45 2.45  11 2.45   7 2.45
  81  0.639  0.294  0.617-  18 2.45  77 2.45  51 2.45  68 2.45
  82  0.812  0.688  0.469-  36 2.45  23 2.45  47 2.45  92 2.52  41 2.91
  83  0.955  0.978  0.805-  88 2.45  73 2.45  65 2.45  53 2.45
  84  0.112  0.820  0.899-  89 2.45  54 2.45  66 2.45
  85  0.481  0.452  0.969-  14 0.58  95 2.45  55 2.45  67 2.45  44 2.52   9 2.58  32 2.91
  86  0.154  0.846  0.375-  23 2.45  22 2.45  19 2.45
  87  0.691  0.741  0.500-  57 2.45  41 2.45  92 2.45  13 2.48  12 2.88
  88  0.007  0.925  0.688-  92 2.45  83 2.45  74 2.45  70 2.45
  89  0.165  0.768  0.782-  84 2.45  93 2.45  71 2.45  59 2.45
  90  0.323  0.610  0.875-  94 2.45  79 2.45  60 2.45  72 2.45   8 2.58
  91  0.770  0.162  0.993-  20 0.58  26 2.05  78 2.45  49 2.45  61 2.45  38 2.52
  92  0.981  0.952  0.523-  88 2.45  64 2.45  87 2.45  82 2.52  25 2.91
  93  0.139  0.794  0.617-  48 2.45  58 2.45  89 2.45  51 2.45  68 2.45
  94  0.297  0.636  0.711-  90 2.45  52 2.45  50 2.45
  95  0.455  0.478  0.805-  76 2.45  85 2.45  53 2.45  65 2.45
  96  0.612  0.320  0.899-  77 2.45  54 2.45  66 2.45
 
 -----------------------------------------------------------------------------
|                                                                             |
|           W    W    AA    RRRRR   N    N  II  N    N   GGGG   !!!           |
|           W    W   A  A   R    R  NN   N  II  NN   N  G    G  !!!           |
|           W    W  A    A  R    R  N N  N  II  N N  N  G       !!!           |
|           W WW W  AAAAAA  RRRRR   N  N N  II  N  N N  G  GGG   !            |
|           WW  WW  A    A  R   R   N   NN  II  N   NN  G    G                |
|           W    W  A    A  R    R  N    N  II  N    N   GGGG   !!!           |
|                                                                             |
|     The distance between some ions is very small. Please check the          |
|     nearest-neighbor list in the OUTCAR file.                               |
|     I HOPE YOU KNOW WHAT YOU ARE DOING!                                     |
|                                                                             |
 -----------------------------------------------------------------------------

  LATTYP: Found a base centered orthorhombic cell.
 ALAT       =     8.0013379485
 B/A-ratio  =     4.3588986951
 C/A-ratio  =     1.7283153863
  
  Lattice vectors:
  
 A1 = (  17.8915348050,   0.0000000000,   0.0000000000)
 A2 = ( -16.1023807530,   7.7987394330,   0.0000000000)
 A3 = (   0.0000002830,  -0.0000000650,  13.8288354870)


Analysis of symmetry for initial positions (statically):
=====================================================================
 Subroutine PRICEL returns:
 Original cell was already a primitive cell.
 

 Routine SETGRP: Setting up the symmetry group for a 
 base centered orthorhombic supercell.


 Subroutine GETGRP returns: Found  2 space group operations
 (whereof  1 operations were pure point group operations)
 out of a pool of  8 trial point group operations.


The static configuration has the point symmetry C_1 .
 The point group associated with its full space group is S_2 .


Analysis of symmetry for dynamics (positions and initial velocities):
=====================================================================
 Subroutine PRICEL returns:
 Original cell was already a primitive cell.
 

 Routine SETGRP: Setting up the symmetry group for a 
 base centered orthorhombic supercell.


 Subroutine GETGRP returns: Found  2 space group operations
 (whereof  1 operations were pure point group operations)
 out of a pool of  8 trial point group operations.


The dynamic configuration has the point symmetry C_1 .
 The point group associated with its full space group is S_2 .


Analysis of structural, dynamic, and magnetic symmetry:
=====================================================================
 Subroutine PRICEL returns:
 Original cell was already a primitive cell.
 

 Routine SETGRP: Setting up the symmetry group for a 
 base centered orthorhombic supercell.


 Subroutine GETGRP returns: Found  2 space group operations
 (whereof  1 operations were pure point group operations)
 out of a pool of  8 trial point group operations.


The overall configuration has the point symmetry C_1 .
 The point group associated with its full space group is S_2 .


 Subroutine INISYM returns: Found  2 space group operations
 (whereof  1 operations are pure point group operations),
 and found     1 'primitive' translations


----------------------------------------------------------------------------------------

                                     Primitive cell                                     

  volume of cell :    1929.5570

  direct lattice vectors                    reciprocal lattice vectors
    17.891534805  0.000000000  0.000000000     0.055892354  0.115403262 -0.000000001
   -16.102380753  7.798739433  0.000000000     0.000000000  0.128225851  0.000000001
     0.000000283 -0.000000065 13.828835487     0.000000000  0.000000000  0.072312669

  length of vectors
    17.891534805 17.891534385 13.828835487     0.128225848  0.128225851  0.072312669

  position of ions in fractional coordinates (direct lattice)
     0.812287450  0.187712550  0.469305247
     0.022813324  0.977186680  0.000000010
     0.180708155  0.819291830  0.093861058
     0.338602990  0.661396980  0.187722117
     0.101761222  0.398238778  0.492770672
     0.654392600  0.345607400  0.375444233
     0.285971522  0.714028358  0.305048615
     0.312287062  0.687712908  0.023465294
     0.470181882  0.529818058  0.117326319
     0.628076732  0.371923268  0.211187407
     0.785971582  0.214028403  0.305048466
     0.943866432  0.056133550  0.398909539
     0.443866372  0.556133628  0.398909658
     0.522813261  0.477186650  0.000000000
     0.680708110  0.319291830  0.093861051
     0.838602960  0.161397010  0.187722087
     0.996497810  0.003502154  0.281583130
     0.691352606  0.241231680  0.499999940
     0.443866730  0.056133520  0.398909628
     0.812287092  0.187712908  0.023465462
     0.970181823  0.029818127  0.117326453
     0.128076673  0.871923268  0.211187586
     0.101761222  0.898238838  0.492770463
     0.312287331  0.687712610  0.469305217
     0.312287450  0.187712491  0.469305277
     0.522813261  0.977186680  0.000000011
     0.680708110  0.819291890  0.093861051
     0.838602960  0.661397040  0.187722087
     0.996497750  0.503502250  0.281583130
     0.154392600  0.345607400  0.375444233
     0.138721108  0.293863028  0.617326438
     0.812287271  0.687712848  0.023465434
     0.970182121  0.529818058  0.117326483
     0.128076911  0.371923238  0.211187512
     0.285971761  0.214028388  0.305048615
     0.601761222  0.398238838  0.492770672
     0.796615958  0.135968208  0.711187482
     0.022813387  0.477186650  0.000000014
     0.180708200  0.319291830  0.093861043
     0.338603050  0.161396980  0.187722117
     0.480826378  0.451757818  0.523465395
     0.654392660  0.845607340  0.375444233
     0.496497810  0.503502190  0.281583160
     0.312287062  0.187712878  0.023465449
     0.470181882  0.029818086  0.117326483
     0.628076732  0.871923268  0.211187556
     0.785971522  0.714028418  0.305048615
     0.191352725  0.741231561  0.499999940
     0.980826557  0.451757491  0.969305217
     0.007142186  0.425441891  0.687722087
     0.349247456  0.083336830  0.593861043
     0.507142246  0.925441921  0.687722087
     0.665036976  0.767547071  0.781583130
     0.822931826  0.609652221  0.875444233
     0.270300329  0.162283659  0.992770612
     0.480826378  0.951757848  0.523465276
     0.638721168  0.793863058  0.617326260
     0.191352725  0.741231561  0.499999940
     0.954510808  0.478073299  0.805048466
     0.112405539  0.320178449  0.898909509
     0.480826437  0.951757491  0.969305217
     0.849247396  0.083336830  0.593861043
     0.980826378  0.451757878  0.523465395
     0.191352651  0.241231680  0.499999940
     0.165036917  0.267547071  0.781583130
     0.322931707  0.109652281  0.875444114
     0.770300329  0.662283659  0.992770731
     0.849247396  0.583336771  0.593860924
     0.601761460  0.898238719  0.492770642
     0.296616018  0.135968208  0.711187422
     0.454510748  0.978073359  0.805048585
     0.612405598  0.820178449  0.898909628
     0.980826616  0.951757371  0.969305098
     0.796615958  0.635968149  0.711187363
     0.101761222  0.398238778  0.492770672
     0.507142305  0.425441861  0.687722087
     0.665037036  0.267547071  0.781583130
     0.822931886  0.109652281  0.875444233
     0.270300329  0.662283599  0.992770731
     0.496497840  0.003502190  0.281583130
     0.638721168  0.293862998  0.617326438
     0.812287509  0.687712491  0.469305247
     0.954510748  0.978073359  0.805048525
     0.112405539  0.820178449  0.898909628
     0.480826557  0.451757431  0.969305098
     0.154392600  0.845607400  0.375444233
     0.691352606  0.741231561  0.499999940
     0.007142186  0.925441921  0.687722087
     0.165036917  0.767547190  0.781583130
     0.322931707  0.609652281  0.875444114
     0.770300567  0.162283659  0.992770731
     0.980826676  0.951757789  0.523465395
     0.138721347  0.793862939  0.617326438
     0.296616256  0.635968089  0.711187422
     0.454510987  0.478073299  0.805048525
     0.612405837  0.320178390  0.898909628

  ion indices of the primitive-cell ions
   primitive index   ion index
                 1           1
                 2           2
                 3           3
                 4           4
                 5           5
                 6           6
                 7           7
                 8           8
                 9           9
                10          10
                11          11
                12          12
                13          13
                14          14
                15          15
                16          16
                17          17
                18          18
                19          19
                20          20
                21          21
                22          22
                23          23
                24          24
                25          25
                26          26
                27          27
                28          28
                29          29
                30          30
                31          31
                32          32
                33          33
                34          34
                35          35
                36          36
                37          37
                38          38
                39          39
                40          40
                41          41
                42          42
                43          43
                44          44
                45          45
                46          46
                47          47
                48          48
                49          49
                50          50
                51          51
                52          52
                53          53
                54          54
                55          55
                56          56
                57          57
                58          58
                59          59
                60          60
                61          61
                62          62
                63          63
                64          64
                65          65
                66          66
                67          67
                68          68
                69          69
                70          70
                71          71
                72          72
                73          73
                74          74
                75          75
                76          76
                77          77
                78          78
                79          79
                80          80
                81          81
                82          82
                83          83
                84          84
                85          85
                86          86
                87          87
                88          88
                89          89
                90          90
                91          91
                92          92
                93          93
                94          94
                95          95
                96          96

----------------------------------------------------------------------------------------

 
 
 KPOINTS: Automatic KPOINTS generated             

Automatic generation of k-mesh.
 Grid dimensions read from file:
 generate k-points for:    4    4    2

 Generating k-lattice:

  Cartesian coordinates                     Fractional coordinates (reciprocal lattice)
     0.013973089  0.028850815 -0.000000000     0.250000000 -0.000000000  0.000000000
     0.000000000  0.032056463  0.000000000     0.000000000  0.250000000  0.000000000
     0.000000000  0.000000000  0.036156334     0.000000000  0.000000000  0.500000000

  Length of vectors
     0.032056462  0.032056463  0.036156334

  Shift w.r.t. Gamma in fractional coordinates (k-lattice)
     0.000000000  0.000000000  0.000000000

 
 Subroutine IBZKPT returns following result:
 ===========================================
 
 Found     20 irreducible k-points:
 
 Following reciprocal coordinates:
            Coordinates               Weight
  0.000000  0.000000  0.000000      1.000000
  0.250000  0.000000 -0.000000      2.000000
  0.000000  0.250000  0.000000      2.000000
  0.500000  0.000000 -0.000000      1.000000
  0.000000  0.500000  0.000000      1.000000
  0.250000  0.250000 -0.000000      2.000000
  0.500000  0.250000 -0.000000      2.000000
  0.250000  0.500000  0.000000      2.000000
 -0.250000  0.250000 -0.000000      2.000000
  0.500000  0.500000 -0.000000      1.000000
  0.000000  0.000000  0.500000      1.000000
  0.250000  0.000000  0.500000      2.000000
  0.000000  0.250000  0.500000      2.000000
  0.500000  0.000000  0.500000      1.000000
  0.000000  0.500000  0.500000      1.000000
  0.250000  0.250000  0.500000      2.000000
  0.500000  0.250000  0.500000      2.000000
  0.250000  0.500000  0.500000      2.000000
 -0.250000  0.250000  0.500000      2.000000
  0.500000  0.500000  0.500000      1.000000
 
 Following cartesian coordinates:
            Coordinates               Weight
  0.000000  0.000000  0.000000      1.000000
  0.013973  0.028851 -0.000000      2.000000
  0.000000  0.032056  0.000000      2.000000
  0.027946  0.057702 -0.000000      1.000000
  0.000000  0.064113  0.000000      1.000000
  0.013973  0.060907  0.000000      2.000000
  0.027946  0.089758 -0.000000      2.000000
  0.013973  0.092964  0.000000      2.000000
 -0.013973  0.003206  0.000000      2.000000
  0.027946  0.121815  0.000000      1.000000
  0.000000  0.000000  0.036156      1.000000
  0.013973  0.028851  0.036156      2.000000
  0.000000  0.032056  0.036156      2.000000
  0.027946  0.057702  0.036156      1.000000
  0.000000  0.064113  0.036156      1.000000
  0.013973  0.060907  0.036156      2.000000
  0.027946  0.089758  0.036156      2.000000
  0.013973  0.092964  0.036156      2.000000
 -0.013973  0.003206  0.036156      2.000000
  0.027946  0.121815  0.036156      1.000000
 
 -----------------------------------------------------------------------------
|                                                                             |
|           W    W    AA    RRRRR   N    N  II  N    N   GGGG   !!!           |
|           W    W   A  A   R    R  NN   N  II  NN   N  G    G  !!!           |
|           W    W  A    A  R    R  N N  N  II  N N  N  G       !!!           |
|           W WW W  AAAAAA  RRRRR   N  N N  II  N  N N  G  GGG   !            |
|           WW  WW  A    A  R   R   N   NN  II  N   NN  G    G                |
|           W    W  A    A  R    R  N    N  II  N    N   GGGG   !!!           |
|                                                                             |
|     The number of bands has been changed from the values supplied in        |
|     the INCAR file. This is a result of running the parallel version.       |
|     The orbitals not found in the WAVECAR file will be initialized with     |
|     random numbers, which is usually adequate. For correlated               |
|     calculations, however, you should redo the groundstate calculation.     |
|     I found NBANDS = 231. Now, NBANDS = 232.                                |
|                                                                             |
 -----------------------------------------------------------------------------



--------------------------------------------------------------------------------------------------------




 Dimension of arrays:
   k-points           NKPTS =     20   k-points in BZ     NKDIM =     20   number of bands    NBANDS=    232
   number of dos      NEDOS =    301   number of ions     NIONS =     96
   non local maximal  LDIM  =      5   non local SUM 2l+1 LMDIM =     13
   total plane-waves  NPLWV = ******
   max r-space proj   IRMAX =   5493   max aug-charges    IRDMAX= 292203
   dimension x,y,z NGX =   120 NGY =  120 NGZ =   90
   dimension x,y,z NGXF=   240 NGYF=  240 NGZF=  180
   support grid    NGXF=   480 NGYF=  480 NGZF=  360
   ions per type =              96
   NGX,Y,Z   is equivalent  to a cutoff of  11.15, 11.15, 10.82 a.u.
   NGXF,Y,Z  is equivalent  to a cutoff of  22.30, 22.30, 21.64 a.u.

 SYSTEM =  Si and Ge interface calculation         
 POSCAR =  Ge+Ge                                   

 Startparameter for this run:
   NWRITE =      2    write-flag & timer
   PREC   = normal    normal or accurate (medium, high low for compatibility)
   ISTART =      0    job   : 0-new  1-cont  2-samecut
   ICHARG =      2    charge: 1-file 2-atom 10-const
   ISPIN  =      2    spin polarized calculation?
   LNONCOLLINEAR =      F non collinear calculations
   LSORBIT =      F    spin-orbit coupling
   INIWAV =      1    electr: 0-lowe 1-rand  2-diag
   LASPH  =      T    aspherical Exc in radial PAW
 Electronic Relaxation 1
   ENCUT  =  700.0 eV  51.45 Ry    7.17 a.u.  38.60 38.60 29.83*2*pi/ulx,y,z
   ENINI  =  700.0     initial cutoff
   ENAUG  =  900.0 eV  augmentation charge cutoff
   NELM   =    100;   NELMIN=  2; NELMDL= -5     # of ELM steps 
   EDIFF  = 0.1E-06   stopping-criterion for ELM
   LREAL  =      T    real-space projection
   NLSPLINE    = F    spline interpolate recip. space projectors
   LCOMPAT=      F    compatible to vasp.4.4
   GGA_COMPAT  = T    GGA compatible to vasp.4.4-vasp.4.6
   LMAXPAW     = -100 max onsite density
   LMAXMIX     =    6 max onsite mixed and CHGCAR
   VOSKOWN=      0    Vosko Wilk Nusair interpolation
   ROPT   =   -0.00050
 Ionic relaxation
   EDIFFG = 0.1E-05   stopping-criterion for IOM
   NSW    =      0    number of steps for IOM
   NBLOCK =      1;   KBLOCK =      1    inner block; outer block 
   IBRION =     -1    ionic relax: 0-MD 1-quasi-New 2-CG
   NFREE  =      0    steps in history (QN), initial steepest desc. (CG)
   ISIF   =      2    stress and relaxation
   IWAVPR =     10    prediction:  0-non 1-charg 2-wave 3-comb
   ISYM   =      2    0-nonsym 1-usesym 2-fastsym
   LCORR  =      T    Harris-Foulkes like correction to forces

   POTIM  = 0.5000    time-step for ionic-motion
   TEIN   =    0.0    initial temperature
   TEBEG  =    0.0;   TEEND  =   0.0 temperature during run
   SMASS  =  -3.00    Nose mass-parameter (am)
   estimated Nose-frequenzy (Omega)   =  0.10E-29 period in steps = 0.13E+47 mass=  -0.732E-26a.u.
   SCALEE = 1.0000    scale energy and forces
   NPACO  =    256;   APACO  = 10.0  distance and # of slots for P.C.
   PSTRESS=    0.0 pullay stress

  Mass of Ions in am
   POMASS =  72.61
  Ionic Valenz
   ZVAL   =   4.00
  Atomic Wigner-Seitz radii
   RWIGS  =  -1.00
  virtual crystal weights 
   VCA    =   1.00
   NELECT =     384.0000    total number of electrons
   NUPDOWN=       1.0000    fix difference up-down

 DOS related values:
   EMIN   =  10.00;   EMAX   =-10.00  energy-range for DOS
   EFERMI =   0.00;   METHOD = LEGACY      
   ISMEAR =     0;   SIGMA  =   0.01  broadening in eV -4-tet -1-fermi 0-gaus

 Electronic relaxation 2 (details)
   IALGO  =     38    algorithm
   LDIAG  =      T    sub-space diagonalisation (order eigenvalues)
   LSUBROT=      F    optimize rotation matrix (better conditioning)
   TURBO    =      0    0=normal 1=particle mesh
   IRESTART =      0    0=no restart 2=restart with 2 vectors
   NREBOOT  =      0    no. of reboots
   NMIN     =      0    reboot dimension
   EREF     =   0.00    reference energy to select bands
   IMIX   =      4    mixing-type and parameters
     AMIX     =   0.60;   BMIX     =  1.00
     AMIX_MAG =   2.40;   BMIX_MAG =  1.00
     AMIN     =   0.10
     WC   =   100.;   INIMIX=   1;  MIXPRE=   1;  MAXMIX= -45

 Intra band minimization:
   WEIMIN = 0.0000     energy-eigenvalue tresh-hold
   EBREAK =  0.11E-09  absolut break condition
   DEPER  =   0.30     relativ break condition  

   TIME   =   0.40     timestep for ELM

  volume/ion in A,a.u.               =      20.10       135.64
  Fermi-wavevector in a.u.,A,eV,Ry     =   0.955798  1.806196 12.429595  0.913549
  Thomas-Fermi vector in A             =   2.084668
 
 Write flags
   LWAVE        =      F    write WAVECAR
   LDOWNSAMPLE  =      F    k-point downsampling of WAVECAR
   LCHARG       =      T    write CHGCAR
   LVTOT        =      F    write LOCPOT, total local potential
   LVHAR        =      T    write LOCPOT, Hartree potential only
   WRT_POTENTIAL=  hartree ionic  ! write potential to hdf5 file
   LELF         =      F    write electronic localiz. function (ELF)
   LORBIT       =      0    0 simple, 1 ext, 2 COOP (PROOUT), +10 PAW based schemes


 Dipole corrections
   LMONO      =      F    monopole corrections only (constant potential shift)
   LDIPOL     =      F    correct potential (dipole corrections)
   IDIPOL     =      0    1-x, 2-y, 3-z, 4-all directions 
   EPSILON    =  1.0000000 bulk dielectric constant
   LVACPOTAV  =      F  vacuum potentials using an averaging scheme for the charge density
   VACPOTFLAT =  0.1000000 required flatness to determine vacuum potential
 Exchange correlation treatment:
   GGA     = PE    functional components
   XC_C    = 1    coefficients multiplying the functional components
   LIBXC   =     F    Libxc                    
   VOSKOWN =     0    Vosko Wilk Nusair interpolation
   LHFCALC =     F    Hartree Fock is set to
   LHFONE  =     F    Hartree Fock one center treatment
   AEXX    =    0.0000 exact exchange contribution

 Parameters of functionals:
   PE:
     No parameter
 
 Van der Waals corrections
   IVDW    =     0    specifies the selected vdW correction

 Linear response parameters
   LEPSILON=     F    determine dielectric tensor
   LRPA    =     F    only Hartree local field effects (RPA)
   LNABLA  =     F    use nabla operator in PAW spheres
   LVEL    =     F    velocity operator in full k-point grid
   CSHIFT  =0.1000    complex shift for real part using Kramers Kronig
   OMEGAMAX=  -1.0    maximum frequency
   DEG_THRESHOLD= 0.2000000E-02 threshold for treating states as degnerate
   RTIME   =   -0.100 relaxation time in fs
  (WPLASMAI=    0.000 imaginary part of plasma frequency in eV, 0.658/RTIME)
   DFIELD  = 0.0000000 0.0000000 0.0000000 field for delta impulse in time
 
  Optional k-point grid parameters
   LKPOINTS_OPT  =     F    use optional k-point grid
   KPOINTS_OPT_MODE=     1    mode for optional k-point grid
 
 Orbital magnetization related:
   ORBITALMAG=     F  switch on orbital magnetization
   LCHIMAG   =     F  perturbation theory with respect to B field
   DQ        =  0.001000  dq finite difference perturbation B field
   LLRAUG    =     F  two centre corrections for induced B field
   LBONE     =     F  B-component reconstruction in AE one-centre
   LVGVCALC  =     T  calculate vGv susceptibility
   LVGVAPPL  =     F  apply vGv susceptibility instead of pGv for G=0

 Random number generation:
   RANDOM_GENERATOR = DEFAULT
   PCG_SEED         = not used


--------------------------------------------------------------------------------------------------------


 Static calculation
 charge density and potential will be updated during run
 spin polarized calculation
 Variant of blocked Davidson
 Davidson routine will perform the subspace rotation
 perform sub-space diagonalisation
    after iterative eigenvector-optimisation
 modified Broyden-mixing scheme, WC =      100.0
 initial mixing is a Kerker type mixing with AMIX =  0.6000 and BMIX =      1.0000
 Hartree-type preconditioning will be used
 using additional bands           40
 real space projection scheme for non local part
 use partial core corrections
 calculate Harris-corrections to forces 
   (improved forces if not selfconsistent)
 use gradient corrections 
 use of overlap-Matrix (Vanderbilt PP)
 Gauss-broadening in eV      SIGMA  =   0.01


--------------------------------------------------------------------------------------------------------


  energy-cutoff  :      700.00
  volume of cell :     1929.56
      direct lattice vectors                 reciprocal lattice vectors
    17.891534805  0.000000000  0.000000000     0.055892354  0.115403262 -0.000000001
   -16.102380753  7.798739433  0.000000000     0.000000000  0.128225851  0.000000001
     0.000000283 -0.000000065 13.828835487     0.000000000  0.000000000  0.072312669

  length of vectors
    17.891534805 17.891534385 13.828835487     0.128225848  0.128225851  0.072312669


 
 k-points in units of 2pi/SCALE and weight: Automatic KPOINTS generated             
   0.00000000  0.00000000  0.00000000       0.031
   0.01397309  0.02885082 -0.00000000       0.062
   0.00000000  0.03205646  0.00000000       0.062
   0.02794618  0.05770163 -0.00000000       0.031
   0.00000000  0.06411293  0.00000000       0.031
   0.01397309  0.06090728  0.00000000       0.062
   0.02794618  0.08975809 -0.00000000       0.062
   0.01397309  0.09296374  0.00000000       0.062
  -0.01397309  0.00320565  0.00000000       0.062
   0.02794618  0.12181456  0.00000000       0.031
   0.00000000  0.00000000  0.03615633       0.031
   0.01397309  0.02885082  0.03615633       0.062
   0.00000000  0.03205646  0.03615633       0.062
   0.02794618  0.05770163  0.03615633       0.031
   0.00000000  0.06411293  0.03615633       0.031
   0.01397309  0.06090728  0.03615633       0.062
   0.02794618  0.08975809  0.03615633       0.062
   0.01397309  0.09296374  0.03615633       0.062
  -0.01397309  0.00320565  0.03615633       0.062
   0.02794618  0.12181456  0.03615633       0.031
 
 k-points in reciprocal lattice and weights: Automatic KPOINTS generated             
   0.00000000  0.00000000  0.00000000       0.031
   0.25000000  0.00000000 -0.00000000       0.062
   0.00000000  0.25000000  0.00000000       0.062
   0.50000000  0.00000000 -0.00000000       0.031
   0.00000000  0.50000000  0.00000000       0.031
   0.25000000  0.25000000 -0.00000000       0.062
   0.50000000  0.25000000 -0.00000000       0.062
   0.25000000  0.50000000  0.00000000       0.062
  -0.25000000  0.25000000 -0.00000000       0.062
   0.50000000  0.50000000 -0.00000000       0.031
   0.00000000  0.00000000  0.50000000       0.031
   0.25000000  0.00000000  0.50000000       0.062
   0.00000000  0.25000000  0.50000000       0.062
   0.50000000  0.00000000  0.50000000       0.031
   0.00000000  0.50000000  0.50000000       0.031
   0.25000000  0.25000000  0.50000000       0.062
   0.50000000  0.25000000  0.50000000       0.062
   0.25000000  0.50000000  0.50000000       0.062
  -0.25000000  0.25000000  0.50000000       0.062
   0.50000000  0.50000000  0.50000000       0.031
 
 position of ions in fractional coordinates (direct lattice) 
   0.81228745  0.18771255  0.46930525
   0.02281332  0.97718668  0.00000001
   0.18070815  0.81929183  0.09386106
   0.33860299  0.66139698  0.18772212
   0.10176122  0.39823878  0.49277067
   0.65439260  0.34560740  0.37544423
   0.28597152  0.71402836  0.30504861
   0.31228706  0.68771291  0.02346529
   0.47018188  0.52981806  0.11732632
   0.62807673  0.37192327  0.21118741
   0.78597158  0.21402840  0.30504847
   0.94386643  0.05613355  0.39890954
   0.44386637  0.55613363  0.39890966
   0.52281326  0.47718665  0.00000000
   0.68070811  0.31929183  0.09386105
   0.83860296  0.16139701  0.18772209
   0.99649781  0.00350215  0.28158313
   0.69135261  0.24123168  0.49999994
   0.44386673  0.05613352  0.39890963
   0.81228709  0.18771291  0.02346546
   0.97018182  0.02981813  0.11732645
   0.12807667  0.87192327  0.21118759
   0.10176122  0.89823884  0.49277046
   0.31228733  0.68771261  0.46930522
   0.31228745  0.18771249  0.46930528
   0.52281326  0.97718668  0.00000001
   0.68070811  0.81929189  0.09386105
   0.83860296  0.66139704  0.18772209
   0.99649775  0.50350225  0.28158313
   0.15439260  0.34560740  0.37544423
   0.13872111  0.29386303  0.61732644
   0.81228727  0.68771285  0.02346543
   0.97018212  0.52981806  0.11732648
   0.12807691  0.37192324  0.21118751
   0.28597176  0.21402839  0.30504861
   0.60176122  0.39823884  0.49277067
   0.79661596  0.13596821  0.71118748
   0.02281339  0.47718665  0.00000001
   0.18070820  0.31929183  0.09386104
   0.33860305  0.16139698  0.18772212
   0.48082638  0.45175782  0.52346540
   0.65439266  0.84560734  0.37544423
   0.49649781  0.50350219  0.28158316
   0.31228706  0.18771288  0.02346545
   0.47018188  0.02981809  0.11732648
   0.62807673  0.87192327  0.21118756
   0.78597152  0.71402842  0.30504861
   0.19135273  0.74123156  0.49999994
   0.98082656  0.45175749  0.96930522
   0.00714219  0.42544189  0.68772209
   0.34924746  0.08333683  0.59386104
   0.50714225  0.92544192  0.68772209
   0.66503698  0.76754707  0.78158313
   0.82293183  0.60965222  0.87544423
   0.27030033  0.16228366  0.99277061
   0.48082638  0.95175785  0.52346528
   0.63872117  0.79386306  0.61732626
   0.19135273  0.74123156  0.49999994
   0.95451081  0.47807330  0.80504847
   0.11240554  0.32017845  0.89890951
   0.48082644  0.95175749  0.96930522
   0.84924740  0.08333683  0.59386104
   0.98082638  0.45175788  0.52346540
   0.19135265  0.24123168  0.49999994
   0.16503692  0.26754707  0.78158313
   0.32293171  0.10965228  0.87544411
   0.77030033  0.66228366  0.99277073
   0.84924740  0.58333677  0.59386092
   0.60176146  0.89823872  0.49277064
   0.29661602  0.13596821  0.71118742
   0.45451075  0.97807336  0.80504859
   0.61240560  0.82017845  0.89890963
   0.98082662  0.95175737  0.96930510
   0.79661596  0.63596815  0.71118736
   0.10176122  0.39823878  0.49277067
   0.50714231  0.42544186  0.68772209
   0.66503704  0.26754707  0.78158313
   0.82293189  0.10965228  0.87544423
   0.27030033  0.66228360  0.99277073
   0.49649784  0.00350219  0.28158313
   0.63872117  0.29386300  0.61732644
   0.81228751  0.68771249  0.46930525
   0.95451075  0.97807336  0.80504852
   0.11240554  0.82017845  0.89890963
   0.48082656  0.45175743  0.96930510
   0.15439260  0.84560740  0.37544423
   0.69135261  0.74123156  0.49999994
   0.00714219  0.92544192  0.68772209
   0.16503692  0.76754719  0.78158313
   0.32293171  0.60965228  0.87544411
   0.77030057  0.16228366  0.99277073
   0.98082668  0.95175779  0.52346540
   0.13872135  0.79386294  0.61732644
   0.29661626  0.63596809  0.71118742
   0.45451099  0.47807330  0.80504852
   0.61240584  0.32017839  0.89890963
 
 position of ions in cartesian coordinates  (Angst):
  11.51045036  1.46392124  6.48994505
 -15.32686661  7.62082429  0.00000014
  -9.95940272  6.38944350  1.29798913
  -4.59193877  5.15806270  2.59597827
  -4.59192785  3.10576043  6.81444456
   6.14298614  2.69530203  5.19195653
  -6.38108696  5.56852109  4.21846711
  -5.48652025  5.36329377  0.32449769
  -0.11905656  4.13191297  1.62248636
   5.24840670  2.90053264  2.92047591
  10.61587116  1.66915173  4.21846505
  15.98333544  0.43777090  5.51645439
  -1.01362467  4.33714123  5.51645603
   1.67009053  3.72145434  0.00000000
   7.03755425  2.49007378  1.29798903
  12.40501799  1.25869321  2.59597786
  17.77248231  0.02731237  3.89396678
   8.48495499  1.88130298  6.91441691
   7.03757385  0.43777067  5.51645562
  11.51043807  1.46392406  0.32450001
  16.87789905  0.23254380  1.62248822
 -11.74855214  6.79990236  2.92047838
 -12.64311919  7.00513061  6.81444167
  -5.48651051  5.36329142  6.48994464
   2.56468391  1.46392078  6.48994547
  -6.38110033  7.62082429  0.00000015
  -1.01363709  6.38944396  1.29798903
   4.35382713  5.15806316  2.59597786
   9.72128932  3.92668283  3.89396678
  -2.80278126  2.69530203  5.19195653
  -2.24996066  2.29176114  8.53690575
   3.45925186  5.36329330  0.32449963
   8.82671512  4.13191297  1.62248863
  -3.69735702  2.90053241  2.92047736
   1.67010721  1.66915161  4.21846711
   4.35383859  3.10576090  6.81444456
  12.06327048  1.06038058  9.83489469
  -7.27567462  3.72145434  0.00000019
  -1.90821154  2.49007378  1.29798892
   3.45925268  1.25869298  2.59597827
   1.32834563  3.52314148  7.23891683
  -1.90820220  6.59467128  5.19195653
   0.77552395  3.92668237  3.89396720
   2.56467061  1.46392382  0.32449983
   7.93213337  0.23254348  1.62248863
  -2.80278368  6.79990236  2.92047797
   2.56467947  5.56852156  4.21846711
  -8.51199874  5.78067177  6.91441691
  10.27412163  3.52313890 13.40436238
  -6.72284245  3.31791041  9.51039560
   4.90665182  0.64992218  8.21240667
  -5.82826484  7.21728036  9.51039560
  -0.46080276  5.98589956 10.80838452
   4.90666147  4.75451876 12.10637428
   2.22293476  1.26560791 13.72886147
  -6.72284523  7.42251143  7.23891518
  -1.35538304  6.19113109  8.53690329
  -8.51199874  5.78067177  6.91441691
   9.37954528  3.72836904 11.13288280
  -3.14452743  2.49698824 12.43087172
  -6.72283830  7.42250861 13.40436238
  13.85241814  0.64992218  8.21240667
  10.27411207  3.52314194  7.23891683
  -0.46081160  1.88130298  6.91441691
  -1.35538084  2.08652984 10.80838452
   4.01208134  0.85514951 12.10637263
   3.11751178  5.16497762 13.72886312
   5.80122872  4.54929144  8.21240502
  -3.69734562  7.00512969  6.81444414
   3.11750416  1.06038058  9.83489386
  -7.61741454  7.62773922 11.13288444
  -2.24994935  6.39635795 12.43087336
   2.22293424  7.42250768 13.40436074
   4.01208106  4.95974984  9.83489304
  -4.59192785  3.10576043  6.81444456
   2.22292756  3.31791017  9.51039560
   7.59038869  2.08652984 10.80838452
  12.95785195  0.85514951 12.10637428
  -5.82825465  5.16497715 13.72886312
   8.82671487  0.02731265  3.89396678
   6.69580830  2.29176091  8.53690575
   3.45926199  5.36329049  6.48994505
   1.32835287  7.62773922 11.13288361
 -11.19571780  6.39635795 12.43087336
   1.32835519  3.52313843 13.40436074
 -10.85397164  6.59467175  5.19195653
   0.43376653  5.78067177  6.91441691
 -14.77403331  7.21728036  9.51039560
  -9.40657313  5.98590049 10.80838452
  -4.03910903  4.75451923 12.10637263
  11.16870642  1.26560791 13.72886312
   2.22292846  7.42251097  7.23891683
 -10.30114533  6.19113017  8.53690575
  -4.93368005  4.95974937  9.83489386
   0.43378108  3.72836904 11.13288361
   5.80124626  2.49698778 12.43087336
 


--------------------------------------------------------------------------------------------------------


 k-point     1 :   0.0000 0.0000 0.0000  plane waves:   81189
 k-point     2 :   0.2500 0.0000-0.0000  plane waves:   81100
 k-point     3 :   0.0000 0.2500 0.0000  plane waves:   81100
 k-point     4 :   0.5000 0.0000-0.0000  plane waves:   81162
 k-point     5 :   0.0000 0.5000 0.0000  plane waves:   81162
 k-point     6 :   0.2500 0.2500-0.0000  plane waves:   81139
 k-point     7 :   0.5000 0.2500-0.0000  plane waves:   81165
 k-point     8 :   0.2500 0.5000 0.0000  plane waves:   81165
 k-point     9 :  -0.2500 0.2500-0.0000  plane waves:   81181
 k-point    10 :   0.5000 0.5000-0.0000  plane waves:   81094
 k-point    11 :   0.0000 0.0000 0.5000  plane waves:   81032
 k-point    12 :   0.2500 0.0000 0.5000  plane waves:   81150
 k-point    13 :   0.0000 0.2500 0.5000  plane waves:   81150
 k-point    14 :   0.5000 0.0000 0.5000  plane waves:   81184
 k-point    15 :   0.0000 0.5000 0.5000  plane waves:   81184
 k-point    16 :   0.2500 0.2500 0.5000  plane waves:   81172
 k-point    17 :   0.5000 0.2500 0.5000  plane waves:   81142
 k-point    18 :   0.2500 0.5000 0.5000  plane waves:   81142
 k-point    19 :  -0.2500 0.2500 0.5000  plane waves:   81104
 k-point    20 :   0.5000 0.5000 0.5000  plane waves:   81180

 maximum and minimum number of plane-waves per node :      5110     5040

 maximum number of plane-waves:     81189
 maximum index in each direction: 
   IXMAX=   38   IYMAX=   38   IZMAX=   29
   IXMIN=  -39   IYMIN=  -39   IZMIN=  -30


 real space projection operators:
  total allocation   :      51483.05 KBytes
  max/ min on nodes  :       3454.45       2989.80


 parallel 3D FFT for wavefunctions:
    minimum data exchange during FFTs selected (reduces bandwidth)
 parallel 3D FFT for charge:
    minimum data exchange during FFTs selected (reduces bandwidth)


 total amount of memory used by VASP MPI-rank0   281579. kBytes
=======================================================================

   base      :      30000. kBytes
   nonlr-proj:      13094. kBytes
   fftplans  :      27507. kBytes
   grid      :      19491. kBytes
   one-center:         97. kBytes
   wavefun   :     191390. kBytes
 
     INWAV:  cpu time      0.0000: real time      0.0002
 Broyden mixing: mesh for mixing (old mesh)
   NGX = 77   NGY = 77   NGZ = 59
  (NGX  =240   NGY  =240   NGZ  =180)
  gives a total of 349811 points

 initial charge density was supplied:
 charge density of overlapping atoms calculated
 number of electron     384.0000000 magnetization       1.0000000
 keeping initial charge density in first step


--------------------------------------------------------------------------------------------------------


 Maximum index for non-local projection operator          454
 Maximum index for augmentation-charges         6140 (set IRDMAX)


--------------------------------------------------------------------------------------------------------


 First call to EWALD:  gamma=   0.142
 Maximum number of real-space cells 4x 4x 3
 Maximum number of reciprocal cells 4x 4x 3

    FEWALD:  cpu time      0.0029: real time      0.0029


--------------------------------------- Ionic step        1  -------------------------------------------




--------------------------------------- Iteration      1(   1)  ---------------------------------------


    POTLOK:  cpu time      0.3266: real time      0.3295
    SETDIJ:  cpu time      1.7907: real time      1.8021
     EDDAV:  cpu time     65.1393: real time     65.8728
       DOS:  cpu time      0.0037: real time      0.0037
    --------------------------------------------
      LOOP:  cpu time     67.2602: real time     68.0081

 eigenvalue-minimisations  : 18560
 total energy-change (2. order) : 0.3571834E+04  (-0.1742226E+05)
 number of electron     384.0000000 magnetization       1.0000000
 augmentation part      384.0000000 magnetization       1.0000000

 Free energy of the ion-electron system (eV)
  ---------------------------------------------------
  alpha Z        PSCENC =       912.89109449
  Ewald energy   TEWEN  =     -8610.09374266
  -Hartree energ DENC   =     -1245.32171831
  -exchange      EXHF   =         0.00000000
  -V(xc)+E(xc)   XCENC  =      -741.68896221
  PAW double counting   =      8461.93788731    -7071.13096423
  entropy T*S    EENTRO =        -0.00092213
  eigenvalues    EBANDS =      1785.63402871
  atomic energy  EATOM  =     10079.60734648
  Solvation  Ediel_sol  =         0.00000000
  ---------------------------------------------------
  free energy    TOTEN  =      3571.83404747 eV

  energy without entropy =     3571.83496960  energy(sigma->0) =     3571.83450853


--------------------------------------------------------------------------------------------------------




--------------------------------------- Iteration      1(   2)  ---------------------------------------


     EDDAV:  cpu time     73.0197: real time     73.8288
       DOS:  cpu time      0.0031: real time      0.0031
    --------------------------------------------
      LOOP:  cpu time     73.0228: real time     73.8319

 eigenvalue-minimisations  : 21640
 total energy-change (2. order) :-0.2134062E+04  (-0.2063696E+04)
 number of electron     384.0000000 magnetization       1.0000000
 augmentation part      384.0000000 magnetization       1.0000000

 Free energy of the ion-electron system (eV)
  ---------------------------------------------------
  alpha Z        PSCENC =       912.89109449
  Ewald energy   TEWEN  =     -8610.09374266
  -Hartree energ DENC   =     -1245.32171831
  -exchange      EXHF   =         0.00000000
  -V(xc)+E(xc)   XCENC  =      -741.68896221
  PAW double counting   =      8461.93788731    -7071.13096423
  entropy T*S    EENTRO =        -0.00157430
  eigenvalues    EBANDS =      -348.42744995
  atomic energy  EATOM  =     10079.60734648
  Solvation  Ediel_sol  =         0.00000000
  ---------------------------------------------------
  free energy    TOTEN  =      1437.77191664 eV

  energy without entropy =     1437.77349094  energy(sigma->0) =     1437.77270379


--------------------------------------------------------------------------------------------------------




--------------------------------------- Iteration      1(   3)  ---------------------------------------


     EDDAV:  cpu time     76.8636: real time     77.7058
       DOS:  cpu time      0.0035: real time      0.0035
    --------------------------------------------
      LOOP:  cpu time     76.8671: real time     77.7093

 eigenvalue-minimisations  : 23104
 total energy-change (2. order) :-0.2229187E+03  (-0.2135441E+03)
 number of electron     384.0000000 magnetization       1.0000000
 augmentation part      384.0000000 magnetization       1.0000000

 Free energy of the ion-electron system (eV)
  ---------------------------------------------------
  alpha Z        PSCENC =       912.89109449
  Ewald energy   TEWEN  =     -8610.09374266
  -Hartree energ DENC   =     -1245.32171831
  -exchange      EXHF   =         0.00000000
  -V(xc)+E(xc)   XCENC  =      -741.68896221
  PAW double counting   =      8461.93788731    -7071.13096423
  entropy T*S    EENTRO =        -0.00154991
  eigenvalues    EBANDS =      -571.34617842
  atomic energy  EATOM  =     10079.60734648
  Solvation  Ediel_sol  =         0.00000000
  ---------------------------------------------------
  free energy    TOTEN  =      1214.85321255 eV

  energy without entropy =     1214.85476246  energy(sigma->0) =     1214.85398751


--------------------------------------------------------------------------------------------------------




--------------------------------------- Iteration      1(   4)  ---------------------------------------


     EDDAV:  cpu time     74.8314: real time     75.6473
       DOS:  cpu time      0.0031: real time      0.0031
    --------------------------------------------
      LOOP:  cpu time     74.8345: real time     75.6503

 eigenvalue-minimisations  : 22328
 total energy-change (2. order) :-0.9597703E+01  (-0.9276440E+01)
 number of electron     384.0000000 magnetization       1.0000000
 augmentation part      384.0000000 magnetization       1.0000000

 Free energy of the ion-electron system (eV)
  ---------------------------------------------------
  alpha Z        PSCENC =       912.89109449
  Ewald energy   TEWEN  =     -8610.09374266
  -Hartree energ DENC   =     -1245.32171831
  -exchange      EXHF   =         0.00000000
  -V(xc)+E(xc)   XCENC  =      -741.68896221
  PAW double counting   =      8461.93788731    -7071.13096423
  entropy T*S    EENTRO =        -0.00194670
  eigenvalues    EBANDS =      -580.94348431
  atomic energy  EATOM  =     10079.60734648
  Solvation  Ediel_sol  =         0.00000000
  ---------------------------------------------------
  free energy    TOTEN  =      1205.25550987 eV

  energy without entropy =     1205.25745658  energy(sigma->0) =     1205.25648322


--------------------------------------------------------------------------------------------------------




--------------------------------------- Iteration      1(   5)  ---------------------------------------


     EDDAV:  cpu time     78.3305: real time     79.1817
       DOS:  cpu time      0.0032: real time      0.0032
    CHARGE:  cpu time      4.2884: real time      4.3518
    MIXING:  cpu time      0.0171: real time      0.0174
    --------------------------------------------
      LOOP:  cpu time     82.6392: real time     83.5542

 eigenvalue-minimisations  : 23672
 total energy-change (2. order) :-0.3995617E+00  (-0.3948405E+00)
 number of electron     383.9999997 magnetization       1.0000000
 augmentation part      -58.4034510 magnetization      -0.0411325

 Broyden mixing:
  rms(total) = 0.94737E+01    rms(broyden)= 0.94737E+01
  rms(prec ) = 0.95753E+01
  weight for this iteration     100.00

 Free energy of the ion-electron system (eV)
  ---------------------------------------------------
  alpha Z        PSCENC =       912.89109449
  Ewald energy   TEWEN  =     -8610.09374266
  -Hartree energ DENC   =     -1245.32171831
  -exchange      EXHF   =         0.00000000
  -V(xc)+E(xc)   XCENC  =      -741.68896221
  PAW double counting   =      8461.93788731    -7071.13096423
  entropy T*S    EENTRO =        -0.00192997
  eigenvalues    EBANDS =      -581.34306272
  atomic energy  EATOM  =     10079.60734648
  Solvation  Ediel_sol  =         0.00000000
  ---------------------------------------------------
  free energy    TOTEN  =      1204.85594819 eV

  energy without entropy =     1204.85787817  energy(sigma->0) =     1204.85691318


--------------------------------------------------------------------------------------------------------




--------------------------------------- Iteration      1(   6)  ---------------------------------------


    POTLOK:  cpu time      0.3161: real time      0.3191
    SETDIJ:  cpu time      1.7875: real time      1.7994
     EDDAV:  cpu time     73.3923: real time     74.1662
       DOS:  cpu time      0.0030: real time      0.0030
    CHARGE:  cpu time      4.3202: real time      4.3661
    MIXING:  cpu time      0.0150: real time      0.0178
    --------------------------------------------
      LOOP:  cpu time     79.8342: real time     80.6717

 eigenvalue-minimisations  : 21744
 total energy-change (2. order) : 0.2806964E+02  (-0.1464195E+02)
 number of electron     383.9999997 magnetization       1.0000000
 augmentation part      -60.1048830 magnetization      -0.0646700

 Broyden mixing:
  rms(total) = 0.44700E+01    rms(broyden)= 0.44700E+01
  rms(prec ) = 0.50256E+01
  weight for this iteration     100.00

 eigenvalues of (default mixing * dielectric matrix)
  average eigenvalue GAMMA=   1.7125
  1.7125

 Free energy of the ion-electron system (eV)
  ---------------------------------------------------
  alpha Z        PSCENC =       912.89109449
  Ewald energy   TEWEN  =     -8610.09374266
  -Hartree energ DENC   =     -1360.27730677
  -exchange      EXHF   =         0.00000000
  -V(xc)+E(xc)   XCENC  =      -723.52863489
  PAW double counting   =     25084.44881144   -23733.30094845
  entropy T*S    EENTRO =        -0.00129136
  eigenvalues    EBANDS =      -416.81974110
  atomic energy  EATOM  =     10079.60734648
  Solvation  Ediel_sol  =         0.00000000
  ---------------------------------------------------
  free energy    TOTEN  =      1232.92558717 eV

  energy without entropy =     1232.92687853  energy(sigma->0) =     1232.92623285


--------------------------------------------------------------------------------------------------------




--------------------------------------- Iteration      1(   7)  ---------------------------------------


    POTLOK:  cpu time      0.3173: real time      0.3201
    SETDIJ:  cpu time      1.7857: real time      1.7972
     EDDAV:  cpu time     97.5488: real time     98.5824
       DOS:  cpu time      0.0030: real time      0.0030
    CHARGE:  cpu time      4.2851: real time      4.3314
    MIXING:  cpu time      0.0202: real time      0.0217
    --------------------------------------------
      LOOP:  cpu time    103.9601: real time    105.0558

 eigenvalue-minimisations  : 30896
 total energy-change (2. order) :-0.3778220E+02  (-0.2620113E+02)
 number of electron     383.9999997 magnetization       1.0000000
 augmentation part      -53.4218905 magnetization      -0.0773181

 Broyden mixing:
  rms(total) = 0.38907E+01    rms(broyden)= 0.38907E+01
  rms(prec ) = 0.69276E+01
  weight for this iteration     100.00

 eigenvalues of (default mixing * dielectric matrix)
  average eigenvalue GAMMA=   1.1751
  1.9883  0.3619

 Free energy of the ion-electron system (eV)
  ---------------------------------------------------
  alpha Z        PSCENC =       912.89109449
  Ewald energy   TEWEN  =     -8610.09374266
  -Hartree energ DENC   =     -1249.22431087
  -exchange      EXHF   =         0.00000000
  -V(xc)+E(xc)   XCENC  =      -712.25818844
  PAW double counting   =     40392.86163990   -39051.73222827
  entropy T*S    EENTRO =        -0.00215895
  eigenvalues    EBANDS =      -566.90606634
  atomic energy  EATOM  =     10079.60734648
  Solvation  Ediel_sol  =         0.00000000
  ---------------------------------------------------
  free energy    TOTEN  =      1195.14338536 eV

  energy without entropy =     1195.14554431  energy(sigma->0) =     1195.14446483


--------------------------------------------------------------------------------------------------------




--------------------------------------- Iteration      1(   8)  ---------------------------------------


    POTLOK:  cpu time      0.3164: real time      0.3194
    SETDIJ:  cpu time      1.7778: real time      1.7906
     EDDAV:  cpu time     89.9819: real time     91.1204
       DOS:  cpu time      0.0030: real time      0.0031
    CHARGE:  cpu time      4.2965: real time      4.3492
    MIXING:  cpu time      0.0187: real time      0.0189
    --------------------------------------------
      LOOP:  cpu time     96.3942: real time     97.6015

 eigenvalue-minimisations  : 28152
 total energy-change (2. order) : 0.5701625E+02  (-0.3858196E+02)
 number of electron     383.9999997 magnetization       1.0000000
 augmentation part      -57.2758058 magnetization      -0.0632539

 Broyden mixing:
  rms(total) = 0.12574E+01    rms(broyden)= 0.12574E+01
  rms(prec ) = 0.25444E+01
  weight for this iteration     100.00

 eigenvalues of (default mixing * dielectric matrix)
  average eigenvalue GAMMA=   0.9792
  2.1149  0.4986  0.3240

 Free energy of the ion-electron system (eV)
  ---------------------------------------------------
  alpha Z        PSCENC =       912.89109449
  Ewald energy   TEWEN  =     -8610.09374266
  -Hartree energ DENC   =     -1323.64619865
  -exchange      EXHF   =         0.00000000
  -V(xc)+E(xc)   XCENC  =      -707.01983466
  PAW double counting   =     53474.55439363   -52164.27178874
  entropy T*S    EENTRO =        -0.00167902
  eigenvalues    EBANDS =      -409.85995383
  atomic energy  EATOM  =     10079.60734648
  Solvation  Ediel_sol  =         0.00000000
  ---------------------------------------------------
  free energy    TOTEN  =      1252.15963705 eV

  energy without entropy =     1252.16131606  energy(sigma->0) =     1252.16047656


--------------------------------------------------------------------------------------------------------




--------------------------------------- Iteration      1(   9)  ---------------------------------------


    POTLOK:  cpu time      0.3154: real time      0.3192
    SETDIJ:  cpu time      1.7846: real time      1.7959
     EDDAV:  cpu time     74.5243: real time     75.3066
       DOS:  cpu time      0.0032: real time      0.0032
    CHARGE:  cpu time      4.2919: real time      4.3377
    MIXING:  cpu time      0.0181: real time      0.0185
    --------------------------------------------
      LOOP:  cpu time     80.9375: real time     81.7809

 eigenvalue-minimisations  : 22224
 total energy-change (2. order) : 0.6429929E+00  (-0.8912723E+01)
 number of electron     383.9999997 magnetization       1.0000000
 augmentation part      -58.7074097 magnetization      -0.0656432

 Broyden mixing:
  rms(total) = 0.80319E+00    rms(broyden)= 0.80319E+00
  rms(prec ) = 0.97697E+00
  weight for this iteration     100.00

 eigenvalues of (default mixing * dielectric matrix)
  average eigenvalue GAMMA=   0.8082
  2.1277  0.5532  0.2759  0.2759

 Free energy of the ion-electron system (eV)
  ---------------------------------------------------
  alpha Z        PSCENC =       912.89109449
  Ewald energy   TEWEN  =     -8610.09374266
  -Hartree energ DENC   =     -1334.15141540
  -exchange      EXHF   =         0.00000000
  -V(xc)+E(xc)   XCENC  =      -706.22316655
  PAW double counting   =     55694.51205674   -54386.73690596
  entropy T*S    EENTRO =        -0.00137567
  eigenvalues    EBANDS =      -397.00126156
  atomic energy  EATOM  =     10079.60734648
  Solvation  Ediel_sol  =         0.00000000
  ---------------------------------------------------
  free energy    TOTEN  =      1252.80262991 eV

  energy without entropy =     1252.80400558  energy(sigma->0) =     1252.80331775


--------------------------------------------------------------------------------------------------------




--------------------------------------- Iteration      1(  10)  ---------------------------------------


    POTLOK:  cpu time      0.3161: real time      0.3193
    SETDIJ:  cpu time      1.7852: real time      1.7963
     EDDAV:  cpu time     71.2351: real time     71.9775
       DOS:  cpu time      0.0031: real time      0.0032
    CHARGE:  cpu time      4.2858: real time      4.3321
    MIXING:  cpu time      0.0214: real time      0.0215
    --------------------------------------------
      LOOP:  cpu time     77.6466: real time     78.4498

 eigenvalue-minimisations  : 20968
 total energy-change (2. order) : 0.1554956E+01  (-0.1539834E+01)
 number of electron     383.9999997 magnetization       1.0000000
 augmentation part      -59.0381748 magnetization      -0.0642454

 Broyden mixing:
  rms(total) = 0.56057E+00    rms(broyden)= 0.56057E+00
  rms(prec ) = 0.64983E+00
  weight for this iteration     100.00

 eigenvalues of (default mixing * dielectric matrix)
  average eigenvalue GAMMA=   0.7371
  2.1175  0.3906  0.3906  0.4928  0.2940

 Free energy of the ion-electron system (eV)
  ---------------------------------------------------
  alpha Z        PSCENC =       912.89109449
  Ewald energy   TEWEN  =     -8610.09374266
  -Hartree energ DENC   =     -1327.12473165
  -exchange      EXHF   =         0.00000000
  -V(xc)+E(xc)   XCENC  =      -706.25604126
  PAW double counting   =     56044.60620573   -54734.00105210
  entropy T*S    EENTRO =        -0.00221025
  eigenvalues    EBANDS =      -405.26928292
  atomic energy  EATOM  =     10079.60734648
  Solvation  Ediel_sol  =         0.00000000
  ---------------------------------------------------
  free energy    TOTEN  =      1254.35758586 eV

  energy without entropy =     1254.35979611  energy(sigma->0) =     1254.35869099


--------------------------------------------------------------------------------------------------------




--------------------------------------- Iteration      1(  11)  ---------------------------------------


    POTLOK:  cpu time      0.3175: real time      0.3204
    SETDIJ:  cpu time      1.7831: real time      1.7948
     EDDAV:  cpu time     72.8635: real time     73.6306
       DOS:  cpu time      0.0031: real time      0.0032
    CHARGE:  cpu time      4.2912: real time      4.3371
    MIXING:  cpu time      0.0162: real time      0.0163
    --------------------------------------------
      LOOP:  cpu time     79.2747: real time     80.1023

 eigenvalue-minimisations  : 21576
 total energy-change (2. order) : 0.6703101E+00  (-0.2312285E+00)
 number of electron     383.9999997 magnetization       1.0000000
 augmentation part      -58.8696477 magnetization      -0.0651830

 Broyden mixing:
  rms(total) = 0.39893E+00    rms(broyden)= 0.39893E+00
  rms(prec ) = 0.48793E+00
  weight for this iteration     100.00

 eigenvalues of (default mixing * dielectric matrix)
  average eigenvalue GAMMA=   0.8647
  2.1399  0.9651  0.9651  0.3195  0.3993  0.3993

 Free energy of the ion-electron system (eV)
  ---------------------------------------------------
  alpha Z        PSCENC =       912.89109449
  Ewald energy   TEWEN  =     -8610.09374266
  -Hartree energ DENC   =     -1322.25440438
  -exchange      EXHF   =         0.00000000
  -V(xc)+E(xc)   XCENC  =      -706.54561630
  PAW double counting   =     55890.86802156   -54577.38592860
  entropy T*S    EENTRO =        -0.00231798
  eigenvalues    EBANDS =      -412.05655664
  atomic energy  EATOM  =     10079.60734648
  Solvation  Ediel_sol  =         0.00000000
  ---------------------------------------------------
  free energy    TOTEN  =      1255.02789598 eV

  energy without entropy =     1255.03021396  energy(sigma->0) =     1255.02905497


--------------------------------------------------------------------------------------------------------




--------------------------------------- Iteration      1(  12)  ---------------------------------------


    POTLOK:  cpu time      0.3166: real time      0.3203
    SETDIJ:  cpu time      1.7911: real time      1.8025
     EDDAV:  cpu time     71.4224: real time     72.2986
       DOS:  cpu time      0.0031: real time      0.0031
    CHARGE:  cpu time      4.2860: real time      4.3395
    MIXING:  cpu time      0.0181: real time      0.0182
    --------------------------------------------
      LOOP:  cpu time     77.8374: real time     78.7823

 eigenvalue-minimisations  : 21048
 total energy-change (2. order) : 0.6224385E+00  (-0.3131936E+00)
 number of electron     383.9999997 magnetization       1.0000000
 augmentation part      -58.6727632 magnetization      -0.0560658

 Broyden mixing:
  rms(total) = 0.25973E+00    rms(broyden)= 0.25973E+00
  rms(prec ) = 0.32707E+00
  weight for this iteration     100.00

 eigenvalues of (default mixing * dielectric matrix)
  average eigenvalue GAMMA=   0.8595
  2.1740  1.1398  1.1398  0.4397  0.4397  0.3182  0.3654

 Free energy of the ion-electron system (eV)
  ---------------------------------------------------
  alpha Z        PSCENC =       912.89109449
  Ewald energy   TEWEN  =     -8610.09374266
  -Hartree energ DENC   =     -1318.82711240
  -exchange      EXHF   =         0.00000000
  -V(xc)+E(xc)   XCENC  =      -706.78995949
  PAW double counting   =     55802.59361326   -54485.27009835
  entropy T*S    EENTRO =        -0.00236045
  eigenvalues    EBANDS =      -418.45844644
  atomic energy  EATOM  =     10079.60734648
  Solvation  Ediel_sol  =         0.00000000
  ---------------------------------------------------
  free energy    TOTEN  =      1255.65033445 eV

  energy without entropy =     1255.65269490  energy(sigma->0) =     1255.65151468


--------------------------------------------------------------------------------------------------------




--------------------------------------- Iteration      1(  13)  ---------------------------------------


    POTLOK:  cpu time      0.3179: real time      0.3205
    SETDIJ:  cpu time      1.7894: real time      1.8010
     EDDAV:  cpu time     72.6782: real time     73.4477
       DOS:  cpu time      0.0032: real time      0.0032
    CHARGE:  cpu time      4.2823: real time      4.3280
    MIXING:  cpu time      0.0178: real time      0.0178
    --------------------------------------------
      LOOP:  cpu time     79.0888: real time     79.9182

 eigenvalue-minimisations  : 21488
 total energy-change (2. order) : 0.7456784E-01  (-0.7870630E-01)
 number of electron     383.9999997 magnetization       1.0000000
 augmentation part      -58.7140132 magnetization      -0.0628471

 Broyden mixing:
  rms(total) = 0.14688E+00    rms(broyden)= 0.14688E+00
  rms(prec ) = 0.19657E+00
  weight for this iteration     100.00

 eigenvalues of (default mixing * dielectric matrix)
  average eigenvalue GAMMA=   0.8585
  2.2073  1.1984  1.1984  0.5982  0.5982  0.3073  0.3801  0.3801

 Free energy of the ion-electron system (eV)
  ---------------------------------------------------
  alpha Z        PSCENC =       912.89109449
  Ewald energy   TEWEN  =     -8610.09374266
  -Hartree energ DENC   =     -1320.60867145
  -exchange      EXHF   =         0.00000000
  -V(xc)+E(xc)   XCENC  =      -706.77497741
  PAW double counting   =     56090.95354374   -54773.40440468
  entropy T*S    EENTRO =        -0.00202541
  eigenvalues    EBANDS =      -416.84326082
  atomic energy  EATOM  =     10079.60734648
  Solvation  Ediel_sol  =         0.00000000
  ---------------------------------------------------
  free energy    TOTEN  =      1255.72490229 eV

  energy without entropy =     1255.72692770  energy(sigma->0) =     1255.72591500


--------------------------------------------------------------------------------------------------------




--------------------------------------- Iteration      1(  14)  ---------------------------------------


    POTLOK:  cpu time      0.3161: real time      0.3205
    SETDIJ:  cpu time      1.7943: real time      1.8055
     EDDAV:  cpu time     73.4177: real time     74.1911
       DOS:  cpu time      0.0032: real time      0.0032
    CHARGE:  cpu time      4.2814: real time      4.3283
    MIXING:  cpu time      0.0233: real time      0.0234
    --------------------------------------------
      LOOP:  cpu time     79.8360: real time     80.6721

 eigenvalue-minimisations  : 21776
 total energy-change (2. order) : 0.4329013E-01  (-0.1735437E-01)
 number of electron     383.9999997 magnetization       1.0000000
 augmentation part      -58.7394425 magnetization      -0.0598602

 Broyden mixing:
  rms(total) = 0.88817E-01    rms(broyden)= 0.88817E-01
  rms(prec ) = 0.10035E+00
  weight for this iteration     100.00

 eigenvalues of (default mixing * dielectric matrix)
  average eigenvalue GAMMA=   0.8699
  2.1847  1.2093  1.2093  0.8544  0.8544  0.4047  0.4047  0.3062  0.4011

 Free energy of the ion-electron system (eV)
  ---------------------------------------------------
  alpha Z        PSCENC =       912.89109449
  Ewald energy   TEWEN  =     -8610.09374266
  -Hartree energ DENC   =     -1321.36279628
  -exchange      EXHF   =         0.00000000
  -V(xc)+E(xc)   XCENC  =      -706.82335600
  PAW double counting   =     56097.01489741   -54779.06722271
  entropy T*S    EENTRO =        -0.00259126
  eigenvalues    EBANDS =      -416.39543705
  atomic energy  EATOM  =     10079.60734648
  Solvation  Ediel_sol  =         0.00000000
  ---------------------------------------------------
  free energy    TOTEN  =      1255.76819243 eV

  energy without entropy =     1255.77078369  energy(sigma->0) =     1255.76948806


--------------------------------------------------------------------------------------------------------




--------------------------------------- Iteration      1(  15)  ---------------------------------------


    POTLOK:  cpu time      0.3176: real time      0.3204
    SETDIJ:  cpu time      1.7890: real time      1.8003
     EDDAV:  cpu time     74.1257: real time     74.9087
       DOS:  cpu time      0.0032: real time      0.0032
    CHARGE:  cpu time      4.2828: real time      4.3295
    MIXING:  cpu time      0.0184: real time      0.0185
    --------------------------------------------
      LOOP:  cpu time     80.5367: real time     81.3807

 eigenvalue-minimisations  : 22040
 total energy-change (2. order) : 0.7913228E-02  (-0.9779226E-02)
 number of electron     383.9999997 magnetization       1.0000000
 augmentation part      -58.7446488 magnetization      -0.0573825

 Broyden mixing:
  rms(total) = 0.56386E-01    rms(broyden)= 0.56386E-01
  rms(prec ) = 0.63346E-01
  weight for this iteration     100.00

 eigenvalues of (default mixing * dielectric matrix)
  average eigenvalue GAMMA=   0.8805
  2.1136  1.3994  1.3994  0.9118  0.9118  0.4887  0.4887  0.3057  0.3931  0.3931

 Free energy of the ion-electron system (eV)
  ---------------------------------------------------
  alpha Z        PSCENC =       912.89109449
  Ewald energy   TEWEN  =     -8610.09374266
  -Hartree energ DENC   =     -1320.59895666
  -exchange      EXHF   =         0.00000000
  -V(xc)+E(xc)   XCENC  =      -706.95312559
  PAW double counting   =     55906.15847307   -54587.50481152
  entropy T*S    EENTRO =        -0.00244490
  eigenvalues    EBANDS =      -417.72772705
  atomic energy  EATOM  =     10079.60734648
  Solvation  Ediel_sol  =         0.00000000
  ---------------------------------------------------
  free energy    TOTEN  =      1255.77610565 eV

  energy without entropy =     1255.77855056  energy(sigma->0) =     1255.77732811


--------------------------------------------------------------------------------------------------------




--------------------------------------- Iteration      1(  16)  ---------------------------------------


    POTLOK:  cpu time      0.3161: real time      0.3198
    SETDIJ:  cpu time      1.7961: real time      1.8076
     EDDAV:  cpu time     72.8386: real time     73.6068
       DOS:  cpu time      0.0031: real time      0.0031
    CHARGE:  cpu time      4.3164: real time      4.3622
    MIXING:  cpu time      0.0183: real time      0.0345
    --------------------------------------------
      LOOP:  cpu time     79.2886: real time     80.1341

[...]
   0.276E+01 0.789E+01 0.160E+02   -.254E+01 -.792E+01 -.163E+02   0.155E+00 -.229E+00 -.118E+00   -.152E-03 -.501E-05 0.588E-04
   -.236E+02 -.150E+02 0.754E+01   0.231E+02 0.158E+02 -.727E+01   0.201E+00 0.446E-01 -.595E+00   -.146E-03 -.288E-03 0.100E-03
   -.490E+01 0.411E+01 0.116E+02   0.462E+01 -.433E+01 -.116E+02   -.501E+00 0.231E-01 -.544E+00   -.108E-03 0.165E-04 0.695E-04
   0.296E+02 -.671E+01 -.171E+02   0.349E+03 0.227E+03 0.488E+03   0.114E+01 -.480E+00 0.708E+01   -.169E-03 0.120E-03 0.246E-04
   0.176E+02 -.418E+01 0.134E+02   -.180E+02 0.417E+01 -.134E+02   -.454E+00 -.244E-01 -.133E+01   0.228E-03 -.335E-03 0.406E-04
   -.259E+02 0.545E+01 -.240E+02   0.261E+02 -.564E+01 0.244E+02   0.993E-01 0.470E-01 -.274E+00   -.271E-03 -.133E-03 -.347E-03
   0.356E+02 -.191E+01 0.376E+01   -.370E+02 0.228E+01 -.276E+01   0.701E+00 -.252E+00 -.489E+00   0.147E-04 0.448E-04 0.322E-03
   -.187E+02 -.259E+01 0.348E+02   0.194E+02 0.204E+01 -.360E+02   -.133E+00 0.480E+00 -.375E+00   -.187E-03 0.415E-04 0.170E-03
   -.152E+02 -.210E+02 -.345E+02   0.150E+02 0.217E+02 0.342E+02   0.179E+00 0.196E+00 0.816E+00   0.171E-04 0.519E-04 -.116E-03
   -.609E+02 0.466E+01 -.399E+02   0.442E+03 0.217E+03 0.512E+03   0.604E+01 0.188E+01 0.686E+01   -.329E-03 -.872E-03 -.182E-03
   0.451E+02 -.107E+02 -.270E+02   -.451E+02 0.107E+02 0.276E+02   -.104E+01 0.258E+00 0.691E-01   -.340E-03 0.647E-04 0.235E-03
   -.150E+02 0.306E+01 0.980E+01   0.151E+02 -.291E+01 -.994E+01   -.280E+00 -.131E-01 -.130E+00   0.188E-03 -.334E-04 0.180E-03
   -.898E+01 0.195E+01 0.754E+01   0.899E+01 -.184E+01 -.697E+01   -.204E+00 -.367E-01 -.969E+00   -.184E-04 0.114E-03 0.147E-03
   -.306E+01 0.129E+01 0.156E+02   0.338E+01 -.134E+01 -.162E+02   0.873E-01 -.179E+00 0.192E+00   -.188E-03 0.850E-04 0.832E-04
   -.117E+02 0.772E+01 -.175E+02   0.117E+02 -.780E+01 0.172E+02   -.259E+00 0.296E+00 0.397E+00   -.899E-05 0.341E-04 -.275E-03
   0.298E+02 -.684E+01 -.178E+02   0.349E+03 0.227E+03 0.488E+03   0.147E+01 -.332E+00 0.720E+01   -.192E-03 0.145E-04 0.595E-04
   0.174E+02 -.475E+01 0.138E+02   -.176E+02 0.471E+01 -.141E+02   -.678E+00 -.972E-02 -.105E+01   0.199E-03 0.239E-03 0.101E-03
   -.237E+02 0.430E+01 -.221E+02   0.240E+02 -.442E+01 0.224E+02   0.279E-01 -.317E-01 -.243E+00   0.808E-04 0.175E-03 0.250E-03
   0.728E+01 -.655E+01 -.123E+02   -.686E+01 0.663E+01 0.123E+02   0.285E+00 0.142E+00 0.563E+00   0.751E-04 -.258E-04 -.230E-04
   0.261E+01 0.379E+01 0.195E+02   -.338E+01 -.413E+01 -.197E+02   0.336E-01 0.424E+00 -.503E+00   0.582E-04 -.807E-05 -.498E-05
   0.404E+01 -.134E+01 0.810E+01   -.386E+01 0.125E+01 -.796E+01   0.304E-01 -.947E-01 -.416E+00   0.771E-04 0.762E-04 -.130E-03
   -.606E+02 0.433E+01 -.396E+02   0.441E+03 0.217E+03 0.512E+03   0.600E+01 0.193E+01 0.684E+01   0.838E-04 0.895E-03 0.932E-04
   0.426E+02 -.117E+02 -.221E+02   -.430E+02 0.119E+02 0.223E+02   -.714E+00 0.122E+00 0.289E+00   -.211E-03 0.654E-04 0.183E-03
   -.135E+02 0.387E+01 0.463E+01   0.138E+02 -.387E+01 -.445E+01   -.176E+00 0.618E-01 -.415E+00   0.186E-03 -.572E-04 0.135E-03
   -.965E+01 0.296E+01 0.712E+01   0.970E+01 -.287E+01 -.659E+01   -.303E+00 -.190E-01 -.941E+00   0.239E-04 -.111E-03 -.882E-04
   0.256E+02 0.102E+02 0.766E+01   -.252E+02 -.111E+02 -.800E+01   -.121E+01 0.891E+00 -.400E+00   0.177E-03 -.169E-04 0.669E-04
   0.610E+02 -.444E+01 0.371E+02   -.442E+03 -.217E+03 -.509E+03   -.578E+01 -.197E+01 -.708E+01   -.317E-03 0.163E-04 -.162E-03
   0.388E+01 0.391E+00 -.214E+02   -.356E+01 0.522E-01 0.217E+02   -.237E+00 -.254E+00 0.219E+00   0.411E-04 0.616E-04 -.431E-03
   -.666E+01 -.735E+01 -.158E+02   0.639E+01 0.746E+01 0.159E+02   0.410E+00 0.276E+00 0.542E+00   -.910E-04 -.199E-04 -.375E-05
   -.422E+01 -.424E+00 -.153E+02   0.425E+01 -.146E+00 0.150E+02   0.387E-01 0.451E+00 0.647E+00   -.940E-04 -.379E-04 -.314E-03
   0.141E+02 0.795E+00 0.347E+01   -.145E+02 -.801E+00 -.385E+01   0.289E+00 -.728E-01 0.463E+00   0.241E-03 -.242E-03 0.977E-04
   -.370E+02 0.987E+01 0.201E+02   0.375E+02 -.101E+02 -.203E+02   0.730E+00 -.132E+00 -.237E+00   -.480E-03 -.189E-04 0.342E-03
   -.288E+02 0.649E+01 0.163E+02   -.350E+03 -.227E+03 -.487E+03   -.121E+01 0.381E+00 -.709E+01   0.461E-04 0.805E-03 -.692E-04
   -.137E+02 -.259E+02 -.144E+02   0.147E+02 0.262E+02 0.142E+02   0.617E+00 0.116E+01 0.117E+01   -.220E-03 -.262E-03 -.496E-04
   0.843E+01 0.244E+02 -.255E+02   -.877E+01 -.248E+02 0.252E+02   -.141E+00 -.286E+00 0.710E+00   0.127E-03 -.647E-04 0.593E-05
   0.256E+02 0.102E+02 0.766E+01   -.252E+02 -.111E+02 -.800E+01   -.121E+01 0.891E+00 -.400E+00   0.177E-03 -.169E-04 0.669E-04
   0.241E+02 -.321E+01 0.144E+02   -.242E+02 0.318E+01 -.150E+02   -.254E+00 0.895E-01 0.474E+00   -.229E-03 0.972E-04 -.334E-03
   -.228E+02 0.372E+01 -.717E+01   0.231E+02 -.365E+01 0.718E+01   0.565E+00 -.353E-02 0.131E+01   0.298E-03 0.420E-04 -.564E-04
   0.609E+02 -.477E+01 0.377E+02   -.442E+03 -.217E+03 -.510E+03   -.603E+01 -.184E+01 -.698E+01   -.275E-03 0.122E-03 -.166E-03
   -.235E+02 0.170E+02 -.308E+02   0.239E+02 -.175E+02 0.312E+02   -.616E-01 0.419E+00 0.442E+00   -.867E-04 0.213E-03 -.228E-03
   0.236E+02 0.150E+02 -.754E+01   -.231E+02 -.158E+02 0.727E+01   -.201E+00 -.446E-01 0.595E+00   0.143E-03 0.288E-03 -.107E-03
   -.276E+01 -.789E+01 -.160E+02   0.254E+01 0.792E+01 0.163E+02   -.155E+00 0.229E+00 0.118E+00   0.155E-03 0.435E-05 -.643E-04
   0.111E+02 -.692E+01 0.205E+01   -.115E+02 0.691E+01 -.239E+01   0.303E+00 0.557E-01 0.453E+00   0.201E-03 0.142E-03 -.377E-04
   -.369E+02 0.938E+01 0.199E+02   0.374E+02 -.955E+01 -.202E+02   0.631E+00 -.198E+00 -.210E+00   0.184E-03 0.908E-04 -.287E-03
   -.289E+02 0.664E+01 0.161E+02   -.350E+03 -.227E+03 -.487E+03   -.116E+01 0.429E+00 -.708E+01   -.180E-03 -.775E-03 0.112E-03
   -.112E+02 0.282E-01 -.756E+01   0.109E+02 -.487E+00 0.783E+01   0.467E+00 0.460E+00 0.341E+00   -.129E-03 0.766E-04 0.438E-04
   -.117E+02 0.228E+02 -.946E+00   0.119E+02 -.230E+02 0.908E+00   0.587E+00 -.400E+00 0.847E-02   -.127E-03 0.446E-04 -.575E-04
   -.361E+01 -.291E-01 -.899E+01   0.351E+01 0.283E-01 0.879E+01   -.111E+00 0.929E-01 0.517E+00   -.872E-05 0.974E-04 -.187E-03
   0.222E+02 -.566E+01 0.143E+02   -.224E+02 0.609E+01 -.148E+02   -.604E-01 -.166E+00 0.334E+00   -.188E-03 -.589E-05 -.317E-03
   -.216E+02 0.738E+01 -.615E+01   0.220E+02 -.741E+01 0.620E+01   0.528E+00 0.499E-01 0.126E+01   0.308E-03 -.180E-03 -.452E-04
   0.606E+02 -.433E+01 0.396E+02   -.441E+03 -.217E+03 -.512E+03   -.600E+01 -.193E+01 -.684E+01   -.788E-04 -.897E-03 -.880E-04
   -.404E+01 0.134E+01 -.810E+01   0.386E+01 -.125E+01 0.796E+01   -.304E-01 0.947E-01 0.416E+00   -.729E-04 -.772E-04 0.129E-03
   -.256E+02 -.102E+02 -.766E+01   0.252E+02 0.111E+02 0.800E+01   0.121E+01 -.891E+00 0.400E+00   -.180E-03 0.177E-04 -.735E-04
   0.965E+01 -.296E+01 -.712E+01   -.970E+01 0.287E+01 0.659E+01   0.303E+00 0.190E-01 0.941E+00   -.185E-04 0.110E-03 0.863E-04
   0.135E+02 -.387E+01 -.463E+01   -.138E+02 0.387E+01 0.445E+01   0.176E+00 -.618E-01 0.415E+00   -.189E-03 0.580E-04 -.133E-03
   -.426E+02 0.117E+02 0.221E+02   0.430E+02 -.119E+02 -.223E+02   0.714E+00 -.122E+00 -.289E+00   0.208E-03 -.646E-04 -.178E-03
   -.298E+02 0.684E+01 0.178E+02   -.349E+03 -.227E+03 -.488E+03   -.147E+01 0.332E+00 -.720E+01   0.187E-03 -.137E-04 -.525E-04
   0.117E+02 -.772E+01 0.175E+02   -.117E+02 0.780E+01 -.172E+02   0.259E+00 -.296E+00 -.397E+00   0.582E-05 -.333E-04 0.273E-03
   -.261E+01 -.379E+01 -.195E+02   0.338E+01 0.413E+01 0.197E+02   -.336E-01 -.424E+00 0.503E+00   -.600E-04 0.845E-05 0.785E-06
   -.728E+01 0.655E+01 0.123E+02   0.686E+01 -.663E+01 -.123E+02   -.285E+00 -.142E+00 -.563E+00   -.700E-04 0.246E-04 0.177E-04
   0.237E+02 -.430E+01 0.221E+02   -.240E+02 0.442E+01 -.224E+02   -.279E-01 0.317E-01 0.243E+00   -.766E-04 -.176E-03 -.248E-03
   -.174E+02 0.475E+01 -.138E+02   0.176E+02 -.471E+01 0.141E+02   0.678E+00 0.972E-02 0.105E+01   -.199E-03 -.239E-03 -.962E-04
   0.609E+02 -.466E+01 0.399E+02   -.442E+03 -.217E+03 -.512E+03   -.604E+01 -.188E+01 -.686E+01   0.334E-03 0.871E-03 0.187E-03
   0.152E+02 0.210E+02 0.345E+02   -.150E+02 -.217E+02 -.342E+02   -.179E+00 -.196E+00 -.816E+00   -.171E-04 -.518E-04 0.112E-03
   0.306E+01 -.129E+01 -.156E+02   -.338E+01 0.134E+01 0.162E+02   -.873E-01 0.179E+00 -.192E+00   0.191E-03 -.858E-04 -.887E-04
   0.898E+01 -.195E+01 -.754E+01   -.899E+01 0.184E+01 0.697E+01   0.204E+00 0.367E-01 0.969E+00   0.238E-04 -.115E-03 -.149E-03
   0.150E+02 -.306E+01 -.980E+01   -.151E+02 0.291E+01 0.994E+01   0.280E+00 0.131E-01 0.130E+00   -.191E-03 0.341E-04 -.178E-03
   -.451E+02 0.107E+02 0.270E+02   0.451E+02 -.107E+02 -.276E+02   0.104E+01 -.258E+00 -.691E-01   0.338E-03 -.642E-04 -.231E-03
   -.296E+02 0.671E+01 0.171E+02   -.349E+03 -.227E+03 -.488E+03   -.114E+01 0.480E+00 -.708E+01   0.165E-03 -.119E-03 -.176E-04
   0.490E+01 -.411E+01 -.116E+02   -.462E+01 0.433E+01 0.116E+02   0.501E+00 -.231E-01 0.544E+00   0.114E-03 -.177E-04 -.747E-04
   0.187E+02 0.259E+01 -.348E+02   -.194E+02 -.204E+01 0.360E+02   0.133E+00 -.480E+00 0.375E+00   0.185E-03 -.411E-04 -.175E-03
   -.356E+02 0.191E+01 -.376E+01   0.370E+02 -.228E+01 0.276E+01   -.701E+00 0.252E+00 0.489E+00   -.178E-04 -.442E-04 -.324E-03
   0.259E+02 -.545E+01 0.240E+02   -.261E+02 0.564E+01 -.244E+02   -.993E-01 -.470E-01 0.274E+00   0.275E-03 0.132E-03 0.349E-03
   -.176E+02 0.418E+01 -.134E+02   0.180E+02 -.417E+01 0.134E+02   0.454E+00 0.244E-01 0.133E+01   -.228E-03 0.335E-03 -.358E-04
 -----------------------------------------------------------------------------------------------
   -.113E-01 0.182E-04 0.965E-04   -.504E-12 0.320E-13 -.727E-12   0.711E-14 -.357E-15 0.600E-14   0.871E-06 -.698E-07 -.106E-05
 
 
 POSITION                                       TOTAL-FORCE (eV/Angst)
 -----------------------------------------------------------------------------------
     11.51045      1.46392      6.48995        -1.656722     -1.444085     -1.005033
    -15.32687      7.62082      0.00000       379.883821    219.694396    477.896905
     -9.95940      6.38944      1.29799        -0.838777     -0.071278     -1.320247
     -4.59194      5.15806      2.59598         0.365505     -0.060862      0.086928
     -4.59193      3.10576      6.81444         0.812222      0.046782      0.743881
      6.14299      2.69530      5.19196         0.474062      0.713829     -0.441094
     -6.38109      5.56852      4.21847        -0.075616     -0.189501     -0.552858
     -5.48652      5.36329      0.32450       386.943334    223.265183    479.087776
     -0.11906      4.13191      1.62249        -1.154926      0.375640      0.440027
      5.24841      2.90053      2.92048         0.123643      0.079477     -0.080712
     10.61587      1.66915      4.21847        -0.070946      0.118484     -0.434044
     15.98334      0.43777      5.51645        -0.147470     -0.380501     -0.600312
     -1.01362      4.33714      5.51646        -0.150708     -0.001189     -0.613220
      1.67009      3.72145      0.00000       379.910595    219.740552    477.884595
      7.03755      2.49007      1.29799        -0.866131     -0.026210     -1.303537
     12.40502      1.25869      2.59598         0.278169     -0.256023      0.176423
     17.77248      0.02731      3.89397         0.208425     -0.092129     -0.322119
      8.48495      1.88130      6.91442        -0.820323      0.592987      0.028927
      7.03757      0.43777      5.51646        -0.402218      0.089471     -0.848907
     11.51044      1.46392      0.32450       386.772700    223.419097    479.000716
     16.87790      0.23254      1.62249        -1.155252      0.365385      0.477256
    -11.74855      6.79990      2.92048         0.054719     -0.040088     -0.116554
    -12.64312      7.00513      6.81444         0.375979     -0.256387     -0.403195
     -5.48651      5.36329      6.48994        -0.325296      0.855511     -0.323388
      2.56468      1.46392      6.48995        -0.783750     -0.202505     -0.564667
     -6.38110      7.62082      0.00000       379.933618    219.737467    477.886014
     -1.01364      6.38944      1.29799        -0.881395     -0.028767     -1.309809
      4.35383      5.15806      2.59598         0.305164     -0.137705      0.058750
      9.72129      3.92668      3.89397        -0.640895      0.108982      0.512471
     -2.80278      2.69530      5.19196         0.485884     -0.073555     -1.607946
     -2.24996      2.29176      8.53691         0.012326      0.904808      0.438823
      3.45925      5.36329      0.32450       386.762992    223.308590    478.945121
      8.82672      4.13191      1.62249        -1.039104      0.338168      0.645241
     -3.69736      2.90053      2.92048        -0.182195      0.137671     -0.263977
      1.67011      1.66915      4.21847        -0.196880      0.071926     -0.401821
      4.35384      3.10576      6.81444         0.402579     -0.229843     -0.429200
     12.06327      1.06038      9.83489        -0.270519      0.212987      0.036400
     -7.27567      3.72145      0.00000       379.939593    219.705306    477.888043
     -1.90821      2.49007      1.29799        -0.821961     -0.055359     -1.301408
      3.45925      1.25869      2.59598         0.300370     -0.157750      0.113031
      1.32835      3.52314      7.23892         0.703420      0.225520      0.552337
     -1.90820      6.59467      5.19196        -0.737024      0.082693     -0.654440
      0.77552      3.92668      3.89397         0.208899     -0.180325     -0.274827
      2.56467      1.46392      0.32450       386.788126    223.340627    478.944716
      7.93213      0.23254      1.62249        -1.194073      0.355902      0.478575
     -2.80278      6.79990      2.92048         0.034193      0.061793     -0.232742
      2.56468      5.56852      4.21847        -0.244306      0.074385     -0.411699
     -8.51200      5.78067      6.91442        -0.812222     -0.046782     -0.743881
     10.27412      3.52314     13.40436      -386.943334   -223.265183   -479.087776
     -6.72284      3.31791      9.51040         0.075616      0.189501      0.552858
      4.90665      0.64992      8.21241         0.147470      0.380501      0.600312
     -5.82826      7.21728      9.51040         0.070946     -0.118484      0.434044
     -0.46080      5.98590     10.80838        -0.123643     -0.079477      0.080712
      4.90666      4.75452     12.10637         1.154926     -0.375640     -0.440027
      2.22293      1.26561     13.72886      -379.883821   -219.694396   -477.896905
     -6.72285      7.42251      7.23892         1.656722      1.444085      1.005033
     -1.35538      6.19113      8.53690        -0.474062     -0.713829      0.441094
     -8.51200      5.78067      6.91442        -0.812222     -0.046782     -0.743881
      9.37955      3.72837     11.13288        -0.365505      0.060862     -0.086928
     -3.14453      2.49699     12.43087         0.838777      0.071278      1.320247
     -6.72284      7.42251     13.40436      -386.772700   -223.419097   -479.000716
     13.85242      0.64992      8.21241         0.402218     -0.089471      0.848907
     10.27411      3.52314      7.23892         0.325296     -0.855511      0.323388
     -0.46081      1.88130      6.91442        -0.375979      0.256387      0.403195
     -1.35538      2.08653     10.80838        -0.054719      0.040088      0.116554
      4.01208      0.85515     12.10637         1.155252     -0.365385     -0.477256
      3.11751      5.16498     13.72886      -379.910595   -219.740552   -477.884595
      5.80123      4.54929      8.21241         0.150708      0.001189      0.613220
     -3.69735      7.00513      6.81444         0.820323     -0.592987     -0.028927
      3.11750      1.06038      9.83489        -0.208425      0.092129      0.322119
     -7.61741      7.62774     11.13288        -0.278169      0.256023     -0.176423
     -2.24995      6.39636     12.43087         0.866131      0.026210      1.303537
      2.22293      7.42251     13.40436      -386.788126   -223.340627   -478.944716
      4.01208      4.95975      9.83489        -0.208899      0.180325      0.274827
     -4.59193      3.10576      6.81444         0.812222      0.046782      0.743881
      2.22293      3.31791      9.51040         0.244306     -0.074385      0.411699
      7.59039      2.08653     10.80838        -0.034193     -0.061793      0.232742
     12.95785      0.85515     12.10637         1.194073     -0.355902     -0.478575
     -5.82825      5.16498     13.72886      -379.939593   -219.705306   -477.888043
      8.82671      0.02731      3.89397         0.270519     -0.212987     -0.036400
      6.69581      2.29176      8.53691         0.737024     -0.082693      0.654440
      3.45926      5.36329      6.48995        -0.703420     -0.225520     -0.552337
      1.32835      7.62774     11.13288        -0.300370      0.157750     -0.113031
    -11.19572      6.39636     12.43087         0.821961      0.055359      1.301408
      1.32836      3.52314     13.40436      -386.762992   -223.308590   -478.945121
    -10.85397      6.59467      5.19196        -0.012326     -0.904808     -0.438823
      0.43377      5.78067      6.91442        -0.402579      0.229843      0.429200
    -14.77403      7.21728      9.51040         0.196880     -0.071926      0.401821
     -9.40657      5.98590     10.80838         0.182195     -0.137671      0.263977
     -4.03911      4.75452     12.10637         1.039104     -0.338168     -0.645241
     11.16871      1.26561     13.72886      -379.933618   -219.737467   -477.886014
      2.22293      7.42251      7.23892         0.783750      0.202505      0.564667
    -10.30115      6.19113      8.53691        -0.485884      0.073555      1.607946
     -4.93368      4.95975      9.83489         0.640895     -0.108982     -0.512471
      0.43378      3.72837     11.13288        -0.305164      0.137705     -0.058750
      5.80125      2.49699     12.43087         0.881395      0.028767      1.309809
 -----------------------------------------------------------------------------------
    total drift:                               -0.011304      0.000018      0.000095


--------------------------------------------------------------------------------------------------------



  FREE ENERGIE OF THE ION-ELECTRON SYSTEM (eV)
  ---------------------------------------------------
  free  energy   TOTEN  =      1255.78137839 eV

  energy  without entropy=     1255.78390629  energy(sigma->0) =     1255.78264234
 


--------------------------------------------------------------------------------------------------------


    POTLOK:  cpu time      2.1130: real time      2.1263


--------------------------------------------------------------------------------------------------------


     LOOP+:  cpu time   2023.8085: real time   2046.6213
    4ORBIT:  cpu time      0.0000: real time      0.0000

 total amount of memory used by VASP MPI-rank0   281579. kBytes
=======================================================================

   base      :      30000. kBytes
   nonlr-proj:      13094. kBytes
   fftplans  :      27507. kBytes
   grid      :      19491. kBytes
   one-center:         97. kBytes
   wavefun   :     191390. kBytes
 
  
  
 General timing and accounting informations for this job:
 ========================================================
  
                  Total CPU time used (sec):     2124.496
                            User time (sec):     1969.915
                          System time (sec):      154.581
                         Elapsed time (sec):     2151.116
  
                   Maximum memory used (kb):      600504.
                   Average memory used (kb):          N/A
  
                          Minor page faults:       389368
                          Major page faults:          983
                 Voluntary context switches:         3473
