       N       E                     dE             d eps       ncg     rms          rms(c)
DAV:   1     0.342671338531E+04    0.34267E+04   -0.27908E+05  8080   0.167E+03
DAV:   2    -0.255372521881E+03   -0.36821E+04   -0.35633E+04  9480   0.197E+02
DAV:   3    -0.662348158304E+03   -0.40698E+03   -0.39400E+03  9968   0.645E+01
DAV:   4    -0.679361526317E+03   -0.17013E+02   -0.16625E+02  9760   0.129E+01
DAV:   5    -0.680086850726E+03   -0.72532E+00   -0.71914E+00 10800   0.230E+00    0.282E+01
DAV:   6    -0.676379879320E+03    0.37070E+01   -0.35942E+01 13704   0.123E+01    0.147E+01
DAV:   7    -0.677537016073E+03   -0.11571E+01   -0.55983E+01 12536   0.178E+01    0.104E+01
DAV:   8    -0.676901521921E+03    0.63549E+00   -0.36450E+01 13928   0.129E+01    0.752E+00
DAV:   9    -0.669287008305E+03    0.76145E+01   -0.20696E+01 12424   0.843E+00    0.228E+00
DAV:  10    -0.669360792307E+03   -0.73784E-01   -0.48166E+00  9424   0.260E+00    0.150E+00
DAV:  11    -0.669314612310E+03    0.46180E-01   -0.59271E-01 10144   0.835E-01    0.750E-01
DAV:  12    -0.669314859093E+03   -0.24678E-03   -0.84587E-02  9456   0.359E-01    0.333E-01
DAV:  13    -0.669317221091E+03   -0.23620E-02   -0.25160E-02  9424   0.199E-01    0.178E-01
DAV:  14    -0.669317175596E+03    0.45495E-04   -0.43732E-03  9248   0.929E-02    0.103E-01
DAV:  15    -0.669317331160E+03   -0.15556E-03   -0.12626E-03  9608   0.397E-02    0.604E-02
DAV:  16    -0.669317407141E+03   -0.75981E-04   -0.35469E-04  9488   0.272E-02    0.329E-02
DAV:  17    -0.669317428144E+03   -0.21003E-04   -0.79039E-05  9048   0.126E-02    0.193E-02
DAV:  18    -0.669317432268E+03   -0.41243E-05   -0.19245E-05  9576   0.533E-03    0.149E-02
DAV:  19    -0.669317438338E+03   -0.60701E-05   -0.56270E-06  9136   0.356E-03    0.124E-02
DAV:  20    -0.669317447592E+03   -0.92537E-05   -0.47302E-06  9128   0.304E-03    0.935E-03
DAV:  21    -0.669317453654E+03   -0.60618E-05   -0.48854E-06  9440   0.315E-03    0.674E-03
DAV:  22    -0.669317456180E+03   -0.25264E-05   -0.28148E-06  9392   0.254E-03    0.430E-03
DAV:  23    -0.669317457724E+03   -0.15434E-05   -0.14781E-06  9568   0.183E-03    0.207E-03
DAV:  24    -0.669317458237E+03   -0.51334E-06   -0.37051E-07  7128   0.905E-04    0.109E-03
DAV:  25    -0.669317458383E+03   -0.14543E-06   -0.11268E-07  5096   0.487E-04    0.624E-04
DAV:  26    -0.669317458434E+03   -0.51801E-07   -0.40437E-08  4856   0.280E-04
   1 F= -.66931746E+03 E0= -.66931578E+03  d E =-.336215E-02  mag=     1.0000
