 168 168   0   0
  0.2314489E+02  0.1131560E-08  0.1600268E-08  0.2147307E-08  0.5000000E-15
  1.000000000000000E-004
  CAR 
 Si and Ge interface calculation         
      8.16227015    -11.79895821  301      5.35777933      1.00000000
    -11.799  0.0000E+00  0.0000E+00  0.0000E+00  0.0000E+00
    -11.732  0.0000E+00  0.0000E+00  0.0000E+00  0.0000E+00
    -11.666  0.0000E+00  0.0000E+00  0.0000E+00  0.0000E+00
    -11.599  0.0000E+00  0.0000E+00  0.0000E+00  0.0000E+00
    -11.533  0.0000E+00  0.0000E+00  0.0000E+00  0.0000E+00
    -11.466  0.0000E+00  0.0000E+00  0.0000E+00  0.0000E+00
    -11.400  0.0000E+00  0.0000E+00  0.0000E+00  0.0000E+00
    -11.333  0.0000E+00  0.0000E+00  0.0000E+00  0.0000E+00
    -11.267  0.0000E+00  0.0000E+00  0.0000E+00  0.0000E+00
    -11.200  0.0000E+00  0.0000E+00  0.0000E+00  0.0000E+00
    -11.134  0.0000E+00  0.0000E+00  0.0000E+00  0.0000E+00
    -11.067  0.0000E+00  0.0000E+00  0.0000E+00  0.0000E+00
    -11.001  0.0000E+00  0.0000E+00  0.0000E+00  0.0000E+00
    -10.934  0.7151E-08  0.1217E-10  0.4758E-09  0.8095E-12
    -10.867  0.2107E+02  0.1596E+02  0.1402E+01  0.1062E+01
    -10.801  0.3904E+02  0.4397E+02  0.4000E+01  0.3999E+01
    -10.734  0.0000E+00  0.0000E+00  0.4000E+01  0.4000E+01
    -10.668  0.0000E+00  0.0000E+00  0.4000E+01  0.4000E+01
    -10.601  0.0000E+00  0.0000E+00  0.4000E+01  0.4000E+01
    -10.535  0.0000E+00  0.0000E+00  0.4000E+01  0.4000E+01
    -10.468  0.0000E+00  0.0000E+00  0.4000E+01  0.4000E+01
    -10.402  0.0000E+00  0.0000E+00  0.4000E+01  0.4000E+01
    -10.335  0.0000E+00  0.0000E+00  0.4000E+01  0.4000E+01
    -10.269  0.0000E+00  0.0000E+00  0.4000E+01  0.4000E+01
    -10.202  0.0000E+00  0.0000E+00  0.4000E+01  0.4000E+01
    -10.136  0.7474E-09  0.2603E-12  0.4000E+01  0.4000E+01
    -10.069  0.1993E+02  0.1499E+02  0.5326E+01  0.4997E+01
    -10.002  0.4016E+02  0.4498E+02  0.8000E+01  0.7999E+01
     -9.936  0.0000E+00  0.0000E+00  0.8000E+01  0.8000E+01
     -9.869  0.0000E+00  0.0000E+00  0.8000E+01  0.8000E+01
     -9.803  0.0000E+00  0.0000E+00  0.8000E+01  0.8000E+01
     -9.736  0.0000E+00  0.0000E+00  0.8000E+01  0.8000E+01
     -9.670  0.0000E+00  0.0000E+00  0.8000E+01  0.8000E+01
     -9.603  0.0000E+00  0.0000E+00  0.8000E+01  0.8000E+01
     -9.537  0.0000E+00  0.0000E+00  0.8000E+01  0.8000E+01
     -9.470  0.0000E+00  0.0000E+00  0.8000E+01  0.8000E+01
     -9.404  0.0000E+00  0.0000E+00  0.8000E+01  0.8000E+01
     -9.337  0.0000E+00  0.0000E+00  0.8000E+01  0.8000E+01
     -9.271  0.3543E+00  0.1893E-01  0.8024E+01  0.8001E+01
     -9.204  0.2864E+02  0.2557E+02  0.9929E+01  0.9702E+01
     -9.137  0.2616E+02  0.2951E+02  0.1167E+02  0.1167E+02
     -9.071  0.4958E+01  0.5009E+01  0.1200E+02  0.1200E+02
     -9.004  0.0000E+00  0.0000E+00  0.1200E+02  0.1200E+02
     -8.938  0.0000E+00  0.0000E+00  0.1200E+02  0.1200E+02
     -8.871  0.0000E+00  0.0000E+00  0.1200E+02  0.1200E+02
     -8.805  0.0000E+00  0.0000E+00  0.1200E+02  0.1200E+02
     -8.738  0.6133E-07  0.3976E-09  0.1200E+02  0.1200E+02
     -8.672  0.8124E+01  0.5901E+01  0.1254E+02  0.1239E+02
     -8.605  0.2168E+02  0.2085E+02  0.1398E+02  0.1378E+02
     -8.539  0.6320E+02  0.6346E+02  0.1819E+02  0.1800E+02
     -8.472  0.1705E+02  0.1994E+02  0.1933E+02  0.1933E+02
     -8.406  0.1002E+02  0.1002E+02  0.2000E+02  0.2000E+02
     -8.339  0.1139E+02  0.9584E+01  0.2076E+02  0.2064E+02
     -8.272  0.1355E+02  0.1546E+02  0.2167E+02  0.2167E+02
     -8.206  0.3392E+01  0.9807E+00  0.2189E+02  0.2173E+02
     -8.139  0.2667E+02  0.2908E+02  0.2367E+02  0.2367E+02
     -8.073  0.2723E+02  0.2440E+02  0.2548E+02  0.2529E+02
     -8.006  0.3736E+02  0.3982E+02  0.2799E+02  0.2795E+02
     -7.940  0.5578E-08  0.7811E+00  0.2800E+02  0.2800E+02
     -7.873  0.1699E+02  0.1100E+02  0.2913E+02  0.2873E+02
     -7.807  0.3937E+02  0.4156E+02  0.3175E+02  0.3150E+02
     -7.740  0.3734E+01  0.7366E+01  0.3200E+02  0.3200E+02
     -7.674  0.1339E+00  0.7317E-02  0.3201E+02  0.3200E+02
     -7.607  0.4876E+01  0.5002E+01  0.3233E+02  0.3233E+02
     -7.541  0.1064E+02  0.1007E+02  0.3304E+02  0.3300E+02
     -7.474  0.2872E+02  0.2659E+02  0.3495E+02  0.3477E+02
     -7.407  0.7253E+00  0.3417E+01  0.3500E+02  0.3500E+02
     -7.341  0.1289E+02  0.1131E+02  0.3586E+02  0.3575E+02
     -7.274  0.2258E+02  0.1960E+02  0.3736E+02  0.3706E+02
     -7.208  0.1667E+02  0.1673E+02  0.3847E+02  0.3817E+02
     -7.141  0.2868E+02  0.3262E+02  0.4038E+02  0.4034E+02
     -7.075  0.9584E+01  0.9937E+01  0.4101E+02  0.4100E+02
     -7.008  0.2981E+02  0.2984E+02  0.4300E+02  0.4299E+02
     -6.942  0.1433E+02  0.1336E+02  0.4395E+02  0.4389E+02
     -6.875  0.2420E+02  0.2289E+02  0.4556E+02  0.4541E+02
     -6.809  0.2050E+02  0.2066E+02  0.4693E+02  0.4679E+02
     -6.742  0.1837E+02  0.1934E+02  0.4815E+02  0.4808E+02
     -6.676  0.1277E+02  0.9054E+01  0.4900E+02  0.4868E+02
     -6.609  0.3487E+02  0.3788E+02  0.5132E+02  0.5120E+02
     -6.543  0.2052E+02  0.2209E+02  0.5269E+02  0.5267E+02
     -6.476  0.2987E+02  0.3003E+02  0.5467E+02  0.5467E+02
     -6.409  0.2496E+02  0.2504E+02  0.5633E+02  0.5633E+02
     -6.343  0.3214E+02  0.3001E+02  0.5847E+02  0.5833E+02
     -6.276  0.8238E+01  0.1017E+02  0.5903E+02  0.5901E+02
     -6.210  0.2732E+02  0.2636E+02  0.6085E+02  0.6076E+02
     -6.143  0.5558E+02  0.5273E+02  0.6455E+02  0.6427E+02
     -6.077  0.4524E+02  0.4672E+02  0.6757E+02  0.6739E+02
     -6.010  0.1250E+02  0.1433E+02  0.6840E+02  0.6834E+02
     -5.944  0.6181E+02  0.5540E+02  0.7251E+02  0.7203E+02
     -5.877  0.2168E+02  0.2768E+02  0.7396E+02  0.7387E+02
     -5.811  0.3175E+02  0.2946E+02  0.7607E+02  0.7583E+02
     -5.744  0.2885E+02  0.2896E+02  0.7799E+02  0.7776E+02
     -5.678  0.3094E+02  0.3354E+02  0.8005E+02  0.8000E+02
     -5.611  0.2126E+02  0.1675E+02  0.8147E+02  0.8113E+02
     -5.544  0.2805E+02  0.3314E+02  0.8333E+02  0.8333E+02
     -5.478  0.2333E+02  0.2123E+02  0.8489E+02  0.8475E+02
     -5.411  0.3453E+02  0.3452E+02  0.8718E+02  0.8704E+02
     -5.345  0.2194E+02  0.2258E+02  0.8864E+02  0.8855E+02
     -5.278  0.2658E+02  0.2705E+02  0.9042E+02  0.9036E+02
     -5.212  0.3621E+02  0.3466E+02  0.9282E+02  0.9266E+02
     -5.145  0.4288E+02  0.4163E+02  0.9569E+02  0.9544E+02
     -5.079  0.3505E+02  0.3785E+02  0.9803E+02  0.9797E+02
     -5.012  0.3069E+02  0.2905E+02  0.1001E+03  0.9991E+02
     -4.946  0.2587E+02  0.2346E+02  0.1018E+03  0.1015E+03
     -4.879  0.5232E+02  0.5237E+02  0.1053E+03  0.1050E+03
     -4.813  0.3985E+02  0.4151E+02  0.1079E+03  0.1077E+03
     -4.746  0.2948E+02  0.3080E+02  0.1099E+03  0.1098E+03
     -4.679  0.3662E+02  0.3852E+02  0.1123E+03  0.1123E+03
     -4.613  0.4211E+02  0.3857E+02  0.1151E+03  0.1149E+03
     -4.546  0.1341E+02  0.1282E+02  0.1160E+03  0.1158E+03
     -4.480  0.4598E+02  0.4706E+02  0.1191E+03  0.1189E+03
     -4.413  0.3323E+02  0.3376E+02  0.1213E+03  0.1211E+03
     -4.347  0.4944E+02  0.4880E+02  0.1246E+03  0.1244E+03
     -4.280  0.4520E+02  0.4704E+02  0.1276E+03  0.1275E+03
     -4.214  0.2578E+02  0.2673E+02  0.1293E+03  0.1293E+03
     -4.147  0.4064E+02  0.4069E+02  0.1321E+03  0.1320E+03
     -4.081  0.6078E+02  0.5239E+02  0.1361E+03  0.1355E+03
     -4.014  0.3857E+02  0.4606E+02  0.1387E+03  0.1386E+03
     -3.948  0.4499E+02  0.4625E+02  0.1417E+03  0.1416E+03
     -3.881  0.4924E+02  0.4843E+02  0.1449E+03  0.1449E+03
     -3.814  0.2863E+02  0.2560E+02  0.1468E+03  0.1466E+03
     -3.748  0.5501E+02  0.5498E+02  0.1505E+03  0.1502E+03
     -3.681  0.5005E+02  0.5193E+02  0.1538E+03  0.1537E+03
     -3.615  0.5414E+02  0.5368E+02  0.1575E+03  0.1573E+03
     -3.548  0.5545E+02  0.5301E+02  0.1611E+03  0.1608E+03
     -3.482  0.3816E+02  0.4332E+02  0.1637E+03  0.1637E+03
     -3.415  0.6478E+02  0.6321E+02  0.1680E+03  0.1679E+03
     -3.349  0.5174E+02  0.4936E+02  0.1714E+03  0.1712E+03
     -3.282  0.6055E+02  0.6163E+02  0.1755E+03  0.1753E+03
     -3.216  0.2324E+02  0.2605E+02  0.1770E+03  0.1770E+03
     -3.149  0.7478E+02  0.7155E+02  0.1820E+03  0.1818E+03
     -3.083  0.3879E+02  0.3705E+02  0.1846E+03  0.1842E+03
     -3.016  0.5601E+02  0.5630E+02  0.1883E+03  0.1880E+03
     -2.949  0.5992E+02  0.6397E+02  0.1923E+03  0.1922E+03
     -2.883  0.2961E+02  0.2482E+02  0.1943E+03  0.1939E+03
     -2.816  0.7245E+02  0.7371E+02  0.1991E+03  0.1988E+03
     -2.750  0.2627E+02  0.2753E+02  0.2009E+03  0.2006E+03
     -2.683  0.3652E+02  0.3893E+02  0.2033E+03  0.2032E+03
     -2.617  0.5028E+02  0.4516E+02  0.2066E+03  0.2062E+03
     -2.550  0.5878E+02  0.5413E+02  0.2106E+03  0.2098E+03
     -2.484  0.5361E+02  0.5860E+02  0.2141E+03  0.2137E+03
     -2.417  0.3939E+02  0.4146E+02  0.2168E+03  0.2165E+03
     -2.351  0.2398E+02  0.2296E+02  0.2184E+03  0.2180E+03
     -2.284  0.4113E+02  0.4507E+02  0.2211E+03  0.2210E+03
     -2.218  0.5603E+02  0.5333E+02  0.2248E+03  0.2246E+03
     -2.151  0.3484E+02  0.3478E+02  0.2271E+03  0.2269E+03
     -2.084  0.4407E+02  0.4467E+02  0.2301E+03  0.2299E+03
     -2.018  0.4366E+02  0.4467E+02  0.2330E+03  0.2328E+03
     -1.951  0.2585E+02  0.2400E+02  0.2347E+03  0.2344E+03
     -1.885  0.3896E+02  0.3782E+02  0.2373E+03  0.2370E+03
     -1.818  0.5421E+02  0.5298E+02  0.2409E+03  0.2405E+03
     -1.752  0.2635E+02  0.3285E+02  0.2427E+03  0.2427E+03
     -1.685  0.5867E+02  0.5098E+02  0.2466E+03  0.2461E+03
     -1.619  0.3417E+02  0.3841E+02  0.2489E+03  0.2486E+03
     -1.552  0.3654E+02  0.3734E+02  0.2513E+03  0.2511E+03
     -1.486  0.4795E+02  0.4657E+02  0.2545E+03  0.2542E+03
     -1.419  0.4993E+02  0.5147E+02  0.2578E+03  0.2576E+03
     -1.353  0.5254E+02  0.5502E+02  0.2613E+03  0.2613E+03
     -1.286  0.3896E+02  0.3179E+02  0.2639E+03  0.2634E+03
     -1.220  0.7471E+02  0.7789E+02  0.2689E+03  0.2686E+03
     -1.153  0.3194E+02  0.3331E+02  0.2710E+03  0.2708E+03
     -1.086  0.5257E+02  0.4791E+02  0.2745E+03  0.2740E+03
     -1.020  0.5514E+02  0.6037E+02  0.2782E+03  0.2780E+03
     -0.953  0.5272E+02  0.5107E+02  0.2817E+03  0.2814E+03
     -0.887  0.4781E+02  0.4893E+02  0.2849E+03  0.2847E+03
     -0.820  0.3484E+02  0.3304E+02  0.2872E+03  0.2869E+03
     -0.754  0.6240E+02  0.6003E+02  0.2914E+03  0.2909E+03
     -0.687  0.2712E+02  0.3168E+02  0.2932E+03  0.2930E+03
     -0.621  0.6982E+02  0.6727E+02  0.2978E+03  0.2975E+03
     -0.554  0.5201E+02  0.5074E+02  0.3013E+03  0.3008E+03
     -0.488  0.4913E+02  0.4687E+02  0.3046E+03  0.3040E+03
     -0.421  0.5600E+02  0.6328E+02  0.3083E+03  0.3082E+03
     -0.355  0.4353E+02  0.4295E+02  0.3112E+03  0.3110E+03
     -0.288  0.3726E+02  0.3599E+02  0.3137E+03  0.3134E+03
     -0.221  0.5903E+02  0.5778E+02  0.3176E+03  0.3173E+03
     -0.155  0.4594E+02  0.5088E+02  0.3207E+03  0.3207E+03
     -0.088  0.4471E+02  0.4364E+02  0.3237E+03  0.3236E+03
     -0.022  0.7043E+02  0.6439E+02  0.3284E+03  0.3279E+03
      0.045  0.2517E+02  0.3217E+02  0.3300E+03  0.3300E+03
      0.111  0.6049E+02  0.5624E+02  0.3341E+03  0.3337E+03
      0.178  0.2769E+02  0.2984E+02  0.3359E+03  0.3357E+03
      0.244  0.4307E+02  0.4437E+02  0.3388E+03  0.3387E+03
      0.311  0.4307E+02  0.4023E+02  0.3417E+03  0.3414E+03
      0.377  0.4347E+02  0.4519E+02  0.3446E+03  0.3444E+03
      0.444  0.4757E+02  0.4583E+02  0.3477E+03  0.3474E+03
      0.510  0.5442E+02  0.5446E+02  0.3513E+03  0.3511E+03
      0.577  0.4230E+02  0.4090E+02  0.3542E+03  0.3538E+03
      0.644  0.5007E+02  0.5045E+02  0.3575E+03  0.3571E+03
      0.710  0.4831E+02  0.5163E+02  0.3607E+03  0.3606E+03
      0.777  0.4289E+02  0.4002E+02  0.3636E+03  0.3633E+03
      0.843  0.6865E+02  0.6843E+02  0.3681E+03  0.3678E+03
      0.910  0.5786E+02  0.6227E+02  0.3720E+03  0.3720E+03
      0.976  0.5158E+02  0.4536E+02  0.3754E+03  0.3750E+03
      1.043  0.5520E+02  0.6019E+02  0.3791E+03  0.3790E+03
      1.109  0.4104E+02  0.3745E+02  0.3818E+03  0.3815E+03
      1.176  0.4833E+02  0.4775E+02  0.3851E+03  0.3847E+03
      1.242  0.5919E+02  0.6029E+02  0.3890E+03  0.3887E+03
      1.309  0.7672E+02  0.7600E+02  0.3941E+03  0.3937E+03
      1.375  0.5219E+02  0.5604E+02  0.3976E+03  0.3975E+03
      1.442  0.5542E+02  0.5233E+02  0.4013E+03  0.4010E+03
      1.509  0.4904E+02  0.5126E+02  0.4045E+03  0.4044E+03
      1.575  0.5638E+02  0.5690E+02  0.4083E+03  0.4082E+03
      1.642  0.5302E+02  0.5165E+02  0.4118E+03  0.4116E+03
      1.708  0.6788E+02  0.6620E+02  0.4163E+03  0.4160E+03
      1.775  0.7770E+02  0.7845E+02  0.4215E+03  0.4212E+03
      1.841  0.7258E+02  0.6630E+02  0.4264E+03  0.4257E+03
      1.908  0.6170E+02  0.6442E+02  0.4305E+03  0.4300E+03
      1.974  0.8619E+02  0.8669E+02  0.4362E+03  0.4357E+03
      2.041  0.6559E+02  0.6365E+02  0.4406E+03  0.4400E+03
      2.107  0.8125E+02  0.8423E+02  0.4460E+03  0.4456E+03
      2.174  0.6339E+02  0.6227E+02  0.4502E+03  0.4497E+03
      2.240  0.1012E+03  0.1064E+03  0.4569E+03  0.4568E+03
      2.307  0.7609E+02  0.7224E+02  0.4620E+03  0.4616E+03
      2.374  0.8892E+02  0.8989E+02  0.4679E+03  0.4676E+03
      2.440  0.9662E+02  0.9415E+02  0.4744E+03  0.4739E+03
      2.507  0.9980E+02  0.1021E+03  0.4810E+03  0.4807E+03
      2.573  0.8910E+02  0.8759E+02  0.4870E+03  0.4865E+03
      2.640  0.8951E+02  0.9005E+02  0.4929E+03  0.4925E+03
      2.706  0.1005E+03  0.1008E+03  0.4996E+03  0.4992E+03
      2.773  0.8449E+02  0.8621E+02  0.5053E+03  0.5050E+03
      2.839  0.1056E+03  0.1004E+03  0.5123E+03  0.5117E+03
      2.906  0.6224E+02  0.6485E+02  0.5164E+03  0.5160E+03
      2.972  0.8214E+02  0.8187E+02  0.5219E+03  0.5215E+03
      3.039  0.8093E+02  0.8354E+02  0.5273E+03  0.5270E+03
      3.105  0.8249E+02  0.7930E+02  0.5328E+03  0.5323E+03
      3.172  0.1013E+03  0.1054E+03  0.5395E+03  0.5393E+03
      3.239  0.7188E+02  0.6944E+02  0.5443E+03  0.5439E+03
      3.305  0.7895E+02  0.7988E+02  0.5496E+03  0.5493E+03
      3.372  0.5767E+02  0.5692E+02  0.5534E+03  0.5531E+03
      3.438  0.9527E+02  0.9402E+02  0.5598E+03  0.5593E+03
      3.505  0.5149E+02  0.5346E+02  0.5632E+03  0.5629E+03
      3.571  0.6372E+02  0.6246E+02  0.5674E+03  0.5671E+03
      3.638  0.5966E+02  0.6400E+02  0.5714E+03  0.5713E+03
      3.704  0.8041E+02  0.7392E+02  0.5768E+03  0.5763E+03
      3.771  0.6299E+02  0.6467E+02  0.5810E+03  0.5806E+03
      3.837  0.7407E+02  0.7242E+02  0.5859E+03  0.5854E+03
      3.904  0.7362E+02  0.7675E+02  0.5908E+03  0.5905E+03
      3.970  0.5278E+02  0.5149E+02  0.5943E+03  0.5939E+03
      4.037  0.6766E+02  0.6499E+02  0.5988E+03  0.5982E+03
      4.103  0.4171E+02  0.4790E+02  0.6016E+03  0.6014E+03
      4.170  0.5297E+02  0.5008E+02  0.6051E+03  0.6048E+03
      4.237  0.5838E+02  0.6023E+02  0.6090E+03  0.6088E+03
      4.303  0.7251E+02  0.6949E+02  0.6139E+03  0.6134E+03
      4.370  0.6017E+02  0.6323E+02  0.6179E+03  0.6176E+03
      4.436  0.5019E+02  0.5185E+02  0.6212E+03  0.6211E+03
      4.503  0.6080E+02  0.5342E+02  0.6253E+03  0.6246E+03
      4.569  0.5968E+02  0.5892E+02  0.6293E+03  0.6285E+03
      4.636  0.4313E+02  0.4787E+02  0.6321E+03  0.6317E+03
      4.702  0.6342E+02  0.6848E+02  0.6364E+03  0.6363E+03
      4.769  0.5960E+02  0.5511E+02  0.6403E+03  0.6400E+03
      4.835  0.5800E+02  0.6016E+02  0.6442E+03  0.6440E+03
      4.902  0.6288E+02  0.5728E+02  0.6484E+03  0.6478E+03
      4.968  0.6399E+02  0.7176E+02  0.6527E+03  0.6526E+03
      5.035  0.2431E+02  0.2190E+02  0.6543E+03  0.6540E+03
      5.102  0.6160E+02  0.5500E+02  0.6584E+03  0.6577E+03
      5.168  0.3610E+02  0.4133E+02  0.6608E+03  0.6604E+03
      5.235  0.6256E+02  0.6227E+02  0.6650E+03  0.6646E+03
      5.301  0.5080E+02  0.5568E+02  0.6683E+03  0.6683E+03
      5.368  0.5531E+02  0.5017E+02  0.6720E+03  0.6716E+03
      5.434  0.5879E+02  0.6016E+02  0.6759E+03  0.6756E+03
      5.501  0.5193E+02  0.5272E+02  0.6794E+03  0.6792E+03
      5.567  0.5883E+02  0.5991E+02  0.6833E+03  0.6832E+03
      5.634  0.6097E+02  0.6105E+02  0.6874E+03  0.6872E+03
      5.700  0.6146E+02  0.5562E+02  0.6915E+03  0.6909E+03
      5.767  0.5624E+02  0.5762E+02  0.6952E+03  0.6948E+03
      5.833  0.5244E+02  0.5531E+02  0.6987E+03  0.6985E+03
      5.900  0.7771E+02  0.7641E+02  0.7039E+03  0.7036E+03
      5.967  0.5985E+02  0.5841E+02  0.7079E+03  0.7074E+03
      6.033  0.6921E+02  0.6895E+02  0.7125E+03  0.7120E+03
      6.100  0.6010E+02  0.5375E+02  0.7165E+03  0.7156E+03
      6.166  0.5667E+02  0.6331E+02  0.7203E+03  0.7198E+03
      6.233  0.6194E+02  0.5796E+02  0.7244E+03  0.7237E+03
      6.299  0.7320E+02  0.7900E+02  0.7293E+03  0.7289E+03
      6.366  0.7817E+02  0.7640E+02  0.7345E+03  0.7340E+03
      6.432  0.7606E+02  0.7367E+02  0.7396E+03  0.7389E+03
      6.499  0.9531E+02  0.8893E+02  0.7459E+03  0.7449E+03
      6.565  0.8294E+02  0.9258E+02  0.7514E+03  0.7510E+03
      6.632  0.7974E+02  0.8036E+02  0.7567E+03  0.7564E+03
      6.698  0.7378E+02  0.6883E+02  0.7616E+03  0.7610E+03
      6.765  0.8249E+02  0.8518E+02  0.7671E+03  0.7666E+03
      6.832  0.8684E+02  0.9026E+02  0.7729E+03  0.7727E+03
      6.898  0.8993E+02  0.8859E+02  0.7789E+03  0.7786E+03
      6.965  0.1026E+03  0.9813E+02  0.7857E+03  0.7851E+03
      7.031  0.8076E+02  0.8321E+02  0.7911E+03  0.7907E+03
      7.098  0.1002E+03  0.9392E+02  0.7978E+03  0.7969E+03
      7.164  0.8276E+02  0.9754E+02  0.8033E+03  0.8034E+03
      7.231  0.5854E+02  0.5366E+02  0.8072E+03  0.8070E+03
      7.297  0.1156E+02  0.1542E+02  0.8080E+03  0.8080E+03
      7.364  0.0000E+00  0.0000E+00  0.8080E+03  0.8080E+03
      7.430  0.0000E+00  0.0000E+00  0.8080E+03  0.8080E+03
      7.497  0.0000E+00  0.0000E+00  0.8080E+03  0.8080E+03
      7.563  0.0000E+00  0.0000E+00  0.8080E+03  0.8080E+03
      7.630  0.0000E+00  0.0000E+00  0.8080E+03  0.8080E+03
      7.697  0.0000E+00  0.0000E+00  0.8080E+03  0.8080E+03
      7.763  0.0000E+00  0.0000E+00  0.8080E+03  0.8080E+03
      7.830  0.0000E+00  0.0000E+00  0.8080E+03  0.8080E+03
      7.896  0.0000E+00  0.0000E+00  0.8080E+03  0.8080E+03
      7.963  0.0000E+00  0.0000E+00  0.8080E+03  0.8080E+03
      8.029  0.0000E+00  0.0000E+00  0.8080E+03  0.8080E+03
      8.096  0.0000E+00  0.0000E+00  0.8080E+03  0.8080E+03
      8.162  0.0000E+00  0.0000E+00  0.8080E+03  0.8080E+03
