 240 240   0   0
  0.2197472E+02  0.1629300E-08  0.1629300E-08  0.2107214E-08  0.5000000E-15
  1.000000000000000E-004
  CAR 
 Si and Ge interface calculation         
      8.89309073     -9.50314407  301      6.26762489      1.00000000
     -9.503  0.0000E+00  0.0000E+00  0.0000E+00  0.0000E+00
     -9.442  0.0000E+00  0.0000E+00  0.0000E+00  0.0000E+00
     -9.381  0.0000E+00  0.0000E+00  0.0000E+00  0.0000E+00
     -9.319  0.0000E+00  0.0000E+00  0.0000E+00  0.0000E+00
     -9.258  0.0000E+00  0.0000E+00  0.0000E+00  0.0000E+00
     -9.197  0.0000E+00  0.0000E+00  0.0000E+00  0.0000E+00
     -9.135  0.0000E+00  0.0000E+00  0.0000E+00  0.0000E+00
     -9.074  0.0000E+00  0.0000E+00  0.0000E+00  0.0000E+00
     -9.013  0.0000E+00  0.0000E+00  0.0000E+00  0.0000E+00
     -8.951  0.0000E+00  0.0000E+00  0.0000E+00  0.0000E+00
     -8.890  0.0000E+00  0.0000E+00  0.0000E+00  0.0000E+00
     -8.829  0.0000E+00  0.0000E+00  0.0000E+00  0.0000E+00
     -8.767  0.0000E+00  0.0000E+00  0.0000E+00  0.0000E+00
     -8.706  0.1393E-06  0.3416E-07  0.8543E-08  0.2095E-08
     -8.645  0.3143E+02  0.2780E+02  0.1928E+01  0.1705E+01
     -8.583  0.5010E+02  0.5350E+02  0.5000E+01  0.4986E+01
     -8.522  0.4890E+02  0.4910E+02  0.7999E+01  0.7997E+01
     -8.461  0.0000E+00  0.5042E-01  0.8000E+01  0.8000E+01
     -8.399  0.0000E+00  0.0000E+00  0.8000E+01  0.8000E+01
     -8.338  0.0000E+00  0.0000E+00  0.8000E+01  0.8000E+01
     -8.277  0.1977E+00  0.6659E-01  0.8012E+01  0.8004E+01
     -8.215  0.4720E+02  0.4544E+02  0.1091E+02  0.1079E+02
     -8.154  0.2595E+02  0.2514E+02  0.1250E+02  0.1233E+02
     -8.093  0.2671E+02  0.2402E+02  0.1414E+02  0.1381E+02
     -8.031  0.3037E+02  0.3571E+02  0.1600E+02  0.1600E+02
     -7.970  0.0000E+00  0.4919E-01  0.1600E+02  0.1600E+02
     -7.909  0.0000E+00  0.0000E+00  0.1600E+02  0.1600E+02
     -7.847  0.0000E+00  0.0000E+00  0.1600E+02  0.1600E+02
     -7.786  0.0000E+00  0.0000E+00  0.1600E+02  0.1600E+02
     -7.725  0.0000E+00  0.0000E+00  0.1600E+02  0.1600E+02
     -7.664  0.0000E+00  0.0000E+00  0.1600E+02  0.1600E+02
     -7.602  0.0000E+00  0.0000E+00  0.1600E+02  0.1600E+02
     -7.541  0.0000E+00  0.0000E+00  0.1600E+02  0.1600E+02
     -7.480  0.0000E+00  0.0000E+00  0.1600E+02  0.1600E+02
     -7.418  0.8126E-05  0.2960E-05  0.1600E+02  0.1600E+02
     -7.357  0.1156E+02  0.1069E+02  0.1671E+02  0.1666E+02
     -7.296  0.6419E+02  0.6268E+02  0.2065E+02  0.2050E+02
     -7.234  0.5458E+02  0.5686E+02  0.2399E+02  0.2399E+02
     -7.173  0.1271E+00  0.2185E+00  0.2400E+02  0.2400E+02
     -7.112  0.4926E+00  0.6200E-01  0.2403E+02  0.2400E+02
     -7.050  0.8058E+01  0.8132E+01  0.2452E+02  0.2450E+02
     -6.989  0.3900E+02  0.3101E+02  0.2692E+02  0.2640E+02
     -6.928  0.1795E+02  0.2605E+02  0.2802E+02  0.2800E+02
     -6.866  0.4044E+02  0.3991E+02  0.3050E+02  0.3045E+02
     -6.805  0.1635E+02  0.1697E+02  0.3150E+02  0.3149E+02
     -6.744  0.1628E+01  0.4323E+00  0.3160E+02  0.3152E+02
     -6.682  0.6526E+01  0.7886E+01  0.3200E+02  0.3200E+02
     -6.621  0.4531E-02  0.3663E-03  0.3200E+02  0.3200E+02
     -6.560  0.8149E+01  0.8153E+01  0.3250E+02  0.3250E+02
     -6.498  0.0000E+00  0.0000E+00  0.3250E+02  0.3250E+02
     -6.437  0.2750E-05  0.6460E-07  0.3250E+02  0.3250E+02
     -6.376  0.2209E+02  0.1900E+02  0.3385E+02  0.3367E+02
     -6.314  0.3499E+02  0.3806E+02  0.3600E+02  0.3600E+02
     -6.253  0.0000E+00  0.0000E+00  0.3600E+02  0.3600E+02
     -6.192  0.4951E-08  0.1935E-10  0.3600E+02  0.3600E+02
     -6.131  0.1590E+02  0.1544E+02  0.3698E+02  0.3695E+02
     -6.069  0.1690E+02  0.1708E+02  0.3801E+02  0.3799E+02
     -6.008  0.7316E+02  0.7343E+02  0.4250E+02  0.4250E+02
     -5.947  0.9366E+01  0.8203E+01  0.4307E+02  0.4300E+02
     -5.885  0.7027E+01  0.8158E+01  0.4351E+02  0.4350E+02
     -5.824  0.2550E+02  0.2435E+02  0.4507E+02  0.4500E+02
     -5.763  0.2262E+02  0.2353E+02  0.4646E+02  0.4644E+02
     -5.701  0.1693E+02  0.1715E+02  0.4749E+02  0.4749E+02
     -5.640  0.1651E+02  0.1648E+02  0.4851E+02  0.4850E+02
     -5.579  0.2665E+02  0.2575E+02  0.5014E+02  0.5008E+02
     -5.517  0.9982E+02  0.9796E+02  0.5626E+02  0.5609E+02
     -5.456  0.5757E+02  0.5854E+02  0.5979E+02  0.5968E+02
     -5.395  0.1963E+02  0.2136E+02  0.6100E+02  0.6099E+02
     -5.333  0.1526E+02  0.1407E+02  0.6194E+02  0.6185E+02
     -5.272  0.2517E+02  0.2599E+02  0.6348E+02  0.6344E+02
     -5.211  0.8480E+01  0.9010E+01  0.6400E+02  0.6400E+02
     -5.149  0.1615E+02  0.1447E+02  0.6499E+02  0.6488E+02
     -5.088  0.6854E+02  0.6703E+02  0.6919E+02  0.6899E+02
     -5.027  0.3724E+02  0.4021E+02  0.7148E+02  0.7146E+02
     -4.965  0.3528E+01  0.2900E+01  0.7169E+02  0.7164E+02
     -4.904  0.5191E+02  0.5178E+02  0.7488E+02  0.7481E+02
     -4.843  0.3948E+01  0.4233E+01  0.7512E+02  0.7507E+02
     -4.781  0.5318E+02  0.5105E+02  0.7838E+02  0.7820E+02
     -4.720  0.2561E+02  0.2594E+02  0.7995E+02  0.7980E+02
     -4.659  0.2918E+02  0.2768E+02  0.8174E+02  0.8149E+02
     -4.597  0.7249E+02  0.7510E+02  0.8619E+02  0.8610E+02
     -4.536  0.4649E+02  0.4450E+02  0.8904E+02  0.8883E+02
     -4.475  0.2495E+02  0.2778E+02  0.9057E+02  0.9053E+02
     -4.414  0.3613E+02  0.3241E+02  0.9278E+02  0.9252E+02
     -4.352  0.7213E+02  0.6983E+02  0.9721E+02  0.9680E+02
     -4.291  0.6264E+02  0.6663E+02  0.1010E+03  0.1009E+03
     -4.230  0.2724E+02  0.2753E+02  0.1027E+03  0.1026E+03
     -4.168  0.5498E+02  0.5630E+02  0.1061E+03  0.1060E+03
     -4.107  0.3688E+02  0.3568E+02  0.1084E+03  0.1082E+03
     -4.046  0.2761E+02  0.2791E+02  0.1100E+03  0.1099E+03
     -3.984  0.2549E+02  0.2651E+02  0.1116E+03  0.1116E+03
     -3.923  0.5532E+02  0.5623E+02  0.1150E+03  0.1150E+03
     -3.862  0.2109E+02  0.1712E+02  0.1163E+03  0.1160E+03
     -3.800  0.7387E+02  0.7696E+02  0.1208E+03  0.1208E+03
     -3.739  0.4760E+02  0.4591E+02  0.1237E+03  0.1236E+03
     -3.678  0.7543E+02  0.7595E+02  0.1284E+03  0.1282E+03
     -3.616  0.9477E+02  0.9459E+02  0.1342E+03  0.1340E+03
     -3.555  0.3581E+02  0.3666E+02  0.1364E+03  0.1363E+03
     -3.494  0.6469E+02  0.6328E+02  0.1403E+03  0.1402E+03
     -3.432  0.6117E+02  0.6022E+02  0.1441E+03  0.1439E+03
     -3.371  0.9672E+02  0.9512E+02  0.1500E+03  0.1497E+03
     -3.310  0.6498E+02  0.7005E+02  0.1540E+03  0.1540E+03
     -3.248  0.7437E+02  0.6874E+02  0.1586E+03  0.1582E+03
     -3.187  0.5214E+02  0.5363E+02  0.1618E+03  0.1615E+03
     -3.126  0.8688E+02  0.8879E+02  0.1671E+03  0.1669E+03
     -3.064  0.3951E+02  0.3855E+02  0.1695E+03  0.1693E+03
     -3.003  0.7971E+02  0.8182E+02  0.1744E+03  0.1743E+03
     -2.942  0.5263E+02  0.5232E+02  0.1776E+03  0.1775E+03
     -2.880  0.5723E+02  0.5779E+02  0.1811E+03  0.1811E+03
     -2.819  0.6757E+02  0.6285E+02  0.1853E+03  0.1849E+03
     -2.758  0.1013E+03  0.1026E+03  0.1915E+03  0.1912E+03
     -2.697  0.5261E+02  0.5529E+02  0.1947E+03  0.1946E+03
     -2.635  0.9753E+02  0.9699E+02  0.2007E+03  0.2006E+03
     -2.574  0.1052E+03  0.1026E+03  0.2072E+03  0.2069E+03
     -2.513  0.4270E+02  0.4564E+02  0.2098E+03  0.2097E+03
     -2.451  0.5286E+02  0.5131E+02  0.2130E+03  0.2128E+03
     -2.390  0.7484E+02  0.7736E+02  0.2176E+03  0.2176E+03
     -2.329  0.5425E+02  0.4691E+02  0.2209E+03  0.2204E+03
     -2.267  0.4054E+02  0.4546E+02  0.2234E+03  0.2232E+03
     -2.206  0.1043E+03  0.1015E+03  0.2298E+03  0.2294E+03
     -2.145  0.1023E+03  0.1047E+03  0.2361E+03  0.2359E+03
     -2.083  0.7105E+02  0.7415E+02  0.2405E+03  0.2404E+03
     -2.022  0.3663E+02  0.3549E+02  0.2427E+03  0.2426E+03
     -1.961  0.1064E+03  0.1055E+03  0.2492E+03  0.2491E+03
     -1.899  0.3385E+02  0.3255E+02  0.2513E+03  0.2511E+03
     -1.838  0.9159E+02  0.9254E+02  0.2569E+03  0.2567E+03
     -1.777  0.6642E+02  0.6880E+02  0.2610E+03  0.2609E+03
     -1.715  0.6838E+02  0.6383E+02  0.2652E+03  0.2649E+03
     -1.654  0.5458E+02  0.5923E+02  0.2685E+03  0.2685E+03
     -1.593  0.6536E+02  0.5971E+02  0.2725E+03  0.2722E+03
     -1.531  0.8072E+02  0.8571E+02  0.2775E+03  0.2774E+03
     -1.470  0.5270E+02  0.4978E+02  0.2807E+03  0.2805E+03
     -1.409  0.9590E+02  0.9798E+02  0.2866E+03  0.2865E+03
     -1.347  0.4757E+02  0.4881E+02  0.2895E+03  0.2895E+03
     -1.286  0.6603E+02  0.6406E+02  0.2936E+03  0.2934E+03
     -1.225  0.2832E+02  0.2943E+02  0.2953E+03  0.2952E+03
     -1.164  0.5291E+02  0.5010E+02  0.2986E+03  0.2983E+03
     -1.102  0.8544E+02  0.8701E+02  0.3038E+03  0.3036E+03
     -1.041  0.4441E+02  0.4707E+02  0.3065E+03  0.3065E+03
     -0.980  0.7020E+02  0.6885E+02  0.3108E+03  0.3107E+03
     -0.918  0.1673E+02  0.1607E+02  0.3119E+03  0.3117E+03
     -0.857  0.9515E+02  0.9635E+02  0.3177E+03  0.3176E+03
     -0.796  0.7259E+02  0.6932E+02  0.3221E+03  0.3219E+03
     -0.734  0.5956E+02  0.6124E+02  0.3258E+03  0.3256E+03
     -0.673  0.6098E+02  0.6107E+02  0.3295E+03  0.3294E+03
     -0.612  0.9503E+02  0.9575E+02  0.3354E+03  0.3352E+03
     -0.550  0.4522E+02  0.4316E+02  0.3381E+03  0.3379E+03
     -0.489  0.7689E+02  0.7818E+02  0.3428E+03  0.3427E+03
     -0.428  0.6457E+02  0.6449E+02  0.3468E+03  0.3466E+03
     -0.366  0.5999E+02  0.6220E+02  0.3505E+03  0.3504E+03
     -0.305  0.3531E+02  0.3137E+02  0.3527E+03  0.3524E+03
     -0.244  0.9410E+02  0.9436E+02  0.3584E+03  0.3582E+03
     -0.182  0.8028E+02  0.8043E+02  0.3633E+03  0.3631E+03
     -0.121  0.9766E+02  0.9926E+02  0.3693E+03  0.3692E+03
     -0.060  0.3485E+02  0.3409E+02  0.3715E+03  0.3713E+03
      0.002  0.8925E+02  0.8867E+02  0.3769E+03  0.3767E+03
      0.063  0.5988E+02  0.6103E+02  0.3806E+03  0.3805E+03
      0.124  0.7188E+02  0.6854E+02  0.3850E+03  0.3847E+03
      0.186  0.1002E+03  0.1033E+03  0.3912E+03  0.3910E+03
      0.247  0.6278E+02  0.6160E+02  0.3950E+03  0.3948E+03
      0.308  0.7854E+02  0.7890E+02  0.3998E+03  0.3996E+03
      0.370  0.3526E+02  0.3904E+02  0.4020E+03  0.4020E+03
      0.431  0.5809E+02  0.5236E+02  0.4056E+03  0.4052E+03
      0.492  0.1009E+03  0.1027E+03  0.4118E+03  0.4115E+03
      0.553  0.8525E+02  0.8446E+02  0.4170E+03  0.4167E+03
      0.615  0.8053E+02  0.8385E+02  0.4219E+03  0.4218E+03
      0.676  0.7396E+02  0.7192E+02  0.4265E+03  0.4262E+03
      0.737  0.7000E+02  0.7101E+02  0.4308E+03  0.4306E+03
      0.799  0.9095E+02  0.8914E+02  0.4363E+03  0.4361E+03
      0.860  0.7454E+02  0.7535E+02  0.4409E+03  0.4407E+03
      0.921  0.6473E+02  0.6542E+02  0.4449E+03  0.4447E+03
      0.983  0.8176E+02  0.8159E+02  0.4499E+03  0.4497E+03
      1.044  0.6292E+02  0.6172E+02  0.4537E+03  0.4535E+03
      1.105  0.8286E+02  0.8442E+02  0.4588E+03  0.4587E+03
      1.167  0.7121E+02  0.6753E+02  0.4632E+03  0.4628E+03
      1.228  0.7239E+02  0.7072E+02  0.4676E+03  0.4671E+03
      1.289  0.4672E+02  0.5038E+02  0.4705E+03  0.4702E+03
      1.351  0.7346E+02  0.7463E+02  0.4750E+03  0.4748E+03
      1.412  0.5926E+02  0.5949E+02  0.4786E+03  0.4785E+03
      1.473  0.8621E+02  0.8404E+02  0.4839E+03  0.4836E+03
      1.535  0.9346E+02  0.9570E+02  0.4897E+03  0.4895E+03
      1.596  0.5880E+02  0.5572E+02  0.4933E+03  0.4929E+03
      1.657  0.9792E+02  0.9663E+02  0.4993E+03  0.4988E+03
      1.719  0.7835E+02  0.8357E+02  0.5041E+03  0.5040E+03
      1.780  0.1023E+03  0.9769E+02  0.5103E+03  0.5100E+03
      1.841  0.7085E+02  0.7373E+02  0.5147E+03  0.5145E+03
      1.903  0.9853E+02  0.9598E+02  0.5207E+03  0.5204E+03
      1.964  0.6311E+02  0.6446E+02  0.5246E+03  0.5243E+03
      2.025  0.7067E+02  0.6931E+02  0.5289E+03  0.5286E+03
      2.086  0.1101E+03  0.1125E+03  0.5357E+03  0.5355E+03
      2.148  0.1051E+03  0.1009E+03  0.5421E+03  0.5417E+03
      2.209  0.7896E+02  0.8123E+02  0.5470E+03  0.5466E+03
      2.270  0.8509E+02  0.8558E+02  0.5522E+03  0.5519E+03
      2.332  0.8325E+02  0.8032E+02  0.5573E+03  0.5568E+03
      2.393  0.9434E+02  0.9529E+02  0.5631E+03  0.5627E+03
      2.454  0.9548E+02  0.1000E+03  0.5689E+03  0.5688E+03
      2.516  0.7812E+02  0.7577E+02  0.5737E+03  0.5734E+03
      2.577  0.1136E+03  0.1136E+03  0.5807E+03  0.5804E+03
      2.638  0.1174E+03  0.1187E+03  0.5879E+03  0.5877E+03
      2.700  0.1387E+03  0.1358E+03  0.5964E+03  0.5960E+03
      2.761  0.8383E+02  0.8645E+02  0.6015E+03  0.6013E+03
      2.822  0.9201E+02  0.8899E+02  0.6072E+03  0.6068E+03
      2.884  0.1130E+03  0.1139E+03  0.6141E+03  0.6138E+03
      2.945  0.8975E+02  0.8929E+02  0.6196E+03  0.6192E+03
      3.006  0.1244E+03  0.1207E+03  0.6272E+03  0.6266E+03
      3.068  0.7437E+02  0.7215E+02  0.6318E+03  0.6311E+03
      3.129  0.9416E+02  0.1006E+03  0.6376E+03  0.6372E+03
      3.190  0.1207E+03  0.1169E+03  0.6450E+03  0.6444E+03
      3.252  0.1489E+03  0.1536E+03  0.6541E+03  0.6538E+03
      3.313  0.1159E+03  0.1137E+03  0.6612E+03  0.6608E+03
      3.374  0.1633E+03  0.1614E+03  0.6712E+03  0.6707E+03
      3.436  0.1300E+03  0.1318E+03  0.6792E+03  0.6788E+03
      3.497  0.1307E+03  0.1287E+03  0.6872E+03  0.6867E+03
      3.558  0.1034E+03  0.1084E+03  0.6936E+03  0.6933E+03
      3.620  0.1009E+03  0.9758E+02  0.6998E+03  0.6993E+03
      3.681  0.1375E+03  0.1331E+03  0.7082E+03  0.7075E+03
      3.742  0.1736E+03  0.1780E+03  0.7188E+03  0.7184E+03
      3.803  0.8538E+02  0.8674E+02  0.7241E+03  0.7237E+03
      3.865  0.1697E+03  0.1635E+03  0.7345E+03  0.7337E+03
      3.926  0.1184E+03  0.1275E+03  0.7417E+03  0.7416E+03
      3.987  0.1053E+03  0.1016E+03  0.7482E+03  0.7478E+03
      4.049  0.1326E+03  0.1353E+03  0.7563E+03  0.7561E+03
      4.110  0.1195E+03  0.1186E+03  0.7637E+03  0.7634E+03
      4.171  0.9691E+02  0.9612E+02  0.7696E+03  0.7693E+03
      4.233  0.1491E+03  0.1517E+03  0.7787E+03  0.7786E+03
      4.294  0.1074E+03  0.1033E+03  0.7853E+03  0.7849E+03
      4.355  0.7693E+02  0.8206E+02  0.7900E+03  0.7899E+03
      4.417  0.1475E+03  0.1383E+03  0.7991E+03  0.7984E+03
      4.478  0.1029E+03  0.1108E+03  0.8054E+03  0.8052E+03
      4.539  0.8025E+02  0.8048E+02  0.8103E+03  0.8101E+03
      4.601  0.1210E+03  0.1164E+03  0.8177E+03  0.8173E+03
      4.662  0.1131E+03  0.1104E+03  0.8247E+03  0.8241E+03
      4.723  0.4708E+02  0.5386E+02  0.8276E+03  0.8274E+03
      4.785  0.9315E+02  0.9021E+02  0.8333E+03  0.8329E+03
      4.846  0.9410E+02  0.9555E+02  0.8390E+03  0.8388E+03
      4.907  0.8608E+02  0.7798E+02  0.8443E+03  0.8435E+03
      4.969  0.1144E+03  0.1189E+03  0.8513E+03  0.8508E+03
      5.030  0.6902E+02  0.7606E+02  0.8556E+03  0.8555E+03
      5.091  0.1194E+03  0.1077E+03  0.8629E+03  0.8621E+03
      5.153  0.6083E+02  0.6742E+02  0.8666E+03  0.8662E+03
      5.214  0.9038E+02  0.8910E+02  0.8722E+03  0.8717E+03
      5.275  0.8786E+02  0.8137E+02  0.8776E+03  0.8767E+03
      5.336  0.3334E+02  0.4072E+02  0.8796E+03  0.8792E+03
      5.398  0.8616E+02  0.7610E+02  0.8849E+03  0.8839E+03
      5.459  0.1173E+03  0.1330E+03  0.8921E+03  0.8920E+03
      5.520  0.7227E+02  0.6389E+02  0.8965E+03  0.8959E+03
      5.582  0.8645E+02  0.8588E+02  0.9018E+03  0.9012E+03
      5.643  0.7725E+02  0.8062E+02  0.9066E+03  0.9061E+03
      5.704  0.8963E+02  0.8632E+02  0.9121E+03  0.9114E+03
      5.766  0.6926E+02  0.5818E+02  0.9163E+03  0.9150E+03
      5.827  0.9450E+02  0.1023E+03  0.9221E+03  0.9213E+03
      5.888  0.1069E+03  0.9732E+02  0.9287E+03  0.9272E+03
      5.950  0.6882E+02  0.8189E+02  0.9329E+03  0.9323E+03
      6.011  0.7879E+02  0.6657E+02  0.9377E+03  0.9363E+03
      6.072  0.9886E+02  0.1136E+03  0.9438E+03  0.9433E+03
      6.134  0.8123E+02  0.7155E+02  0.9488E+03  0.9477E+03
      6.195  0.1026E+03  0.8618E+02  0.9550E+03  0.9530E+03
      6.256  0.6924E+02  0.8724E+02  0.9593E+03  0.9583E+03
      6.318  0.7757E+02  0.8106E+02  0.9640E+03  0.9633E+03
      6.379  0.1035E+03  0.9009E+02  0.9704E+03  0.9688E+03
      6.440  0.1084E+03  0.1108E+03  0.9770E+03  0.9756E+03
      6.502  0.7125E+02  0.8382E+02  0.9814E+03  0.9808E+03
      6.563  0.9728E+02  0.8490E+02  0.9874E+03  0.9860E+03
      6.624  0.8461E+02  0.9702E+02  0.9926E+03  0.9919E+03
      6.686  0.1040E+03  0.1044E+03  0.9990E+03  0.9983E+03
      6.747  0.1158E+03  0.1118E+03  0.1006E+04  0.1005E+04
      6.808  0.1239E+03  0.1233E+03  0.1014E+04  0.1013E+04
      6.870  0.7401E+02  0.6915E+02  0.1018E+04  0.1017E+04
      6.931  0.1216E+03  0.1234E+03  0.1026E+04  0.1025E+04
      6.992  0.6726E+02  0.7210E+02  0.1030E+04  0.1029E+04
      7.053  0.1011E+03  0.9717E+02  0.1036E+04  0.1035E+04
      7.115  0.1090E+03  0.1188E+03  0.1043E+04  0.1042E+04
      7.176  0.9276E+02  0.9504E+02  0.1048E+04  0.1048E+04
      7.237  0.1482E+03  0.1356E+03  0.1057E+04  0.1056E+04
      7.299  0.9762E+02  0.9974E+02  0.1063E+04  0.1062E+04
      7.360  0.7493E+02  0.8995E+02  0.1068E+04  0.1068E+04
      7.421  0.6185E+02  0.5096E+02  0.1072E+04  0.1071E+04
      7.483  0.1283E+03  0.1336E+03  0.1080E+04  0.1079E+04
      7.544  0.1253E+03  0.1158E+03  0.1087E+04  0.1086E+04
      7.605  0.1397E+03  0.1488E+03  0.1096E+04  0.1096E+04
      7.667  0.7503E+02  0.6835E+02  0.1101E+04  0.1100E+04
      7.728  0.1078E+03  0.1174E+03  0.1107E+04  0.1107E+04
      7.789  0.1435E+03  0.1356E+03  0.1116E+04  0.1115E+04
      7.851  0.1408E+03  0.1421E+03  0.1125E+04  0.1124E+04
      7.912  0.1282E+03  0.1320E+03  0.1132E+04  0.1132E+04
      7.973  0.1058E+03  0.1021E+03  0.1139E+04  0.1138E+04
      8.035  0.1709E+03  0.1631E+03  0.1149E+04  0.1148E+04
      8.096  0.4213E+02  0.6004E+02  0.1152E+04  0.1152E+04
      8.157  0.0000E+00  0.0000E+00  0.1152E+04  0.1152E+04
      8.219  0.0000E+00  0.0000E+00  0.1152E+04  0.1152E+04
      8.280  0.0000E+00  0.0000E+00  0.1152E+04  0.1152E+04
      8.341  0.0000E+00  0.0000E+00  0.1152E+04  0.1152E+04
      8.403  0.0000E+00  0.0000E+00  0.1152E+04  0.1152E+04
      8.464  0.0000E+00  0.0000E+00  0.1152E+04  0.1152E+04
      8.525  0.0000E+00  0.0000E+00  0.1152E+04  0.1152E+04
      8.586  0.0000E+00  0.0000E+00  0.1152E+04  0.1152E+04
      8.648  0.0000E+00  0.0000E+00  0.1152E+04  0.1152E+04
      8.709  0.0000E+00  0.0000E+00  0.1152E+04  0.1152E+04
      8.770  0.0000E+00  0.0000E+00  0.1152E+04  0.1152E+04
      8.832  0.0000E+00  0.0000E+00  0.1152E+04  0.1152E+04
      8.893  0.0000E+00  0.0000E+00  0.1152E+04  0.1152E+04
