 264 264   0   0
  0.2774202E+02  0.1958175E-08  0.1958175E-08  0.1910025E-08  0.5000000E-15
  1.000000000000000E-004
  CAR 
 Si and Ge interface calculation         
      6.68536641     -8.43945518  301      4.08029543      1.00000000
     -8.439  0.0000E+00  0.0000E+00  0.0000E+00  0.0000E+00
     -8.389  0.0000E+00  0.0000E+00  0.0000E+00  0.0000E+00
     -8.339  0.0000E+00  0.0000E+00  0.0000E+00  0.0000E+00
     -8.288  0.0000E+00  0.0000E+00  0.0000E+00  0.0000E+00
     -8.238  0.0000E+00  0.0000E+00  0.0000E+00  0.0000E+00
     -8.187  0.0000E+00  0.0000E+00  0.0000E+00  0.0000E+00
     -8.137  0.0000E+00  0.0000E+00  0.0000E+00  0.0000E+00
     -8.087  0.0000E+00  0.0000E+00  0.0000E+00  0.0000E+00
     -8.036  0.0000E+00  0.0000E+00  0.0000E+00  0.0000E+00
     -7.986  0.0000E+00  0.0000E+00  0.0000E+00  0.0000E+00
     -7.935  0.0000E+00  0.0000E+00  0.0000E+00  0.0000E+00
     -7.885  0.0000E+00  0.0000E+00  0.0000E+00  0.0000E+00
     -7.834  0.0000E+00  0.0000E+00  0.0000E+00  0.0000E+00
     -7.784  0.2562E-04  0.5552E-05  0.1292E-05  0.2799E-06
     -7.734  0.9867E+01  0.9799E+01  0.4975E+00  0.4940E+00
     -7.683  0.1630E+01  0.8972E+00  0.5796E+00  0.5393E+00
     -7.633  0.3809E+02  0.3889E+02  0.2500E+01  0.2500E+01
     -7.582  0.3117E+02  0.2808E+02  0.4072E+01  0.3916E+01
     -7.532  0.8499E+01  0.1159E+02  0.4500E+01  0.4500E+01
     -7.482  0.1311E-07  0.1565E-08  0.4500E+01  0.4500E+01
     -7.431  0.1883E+02  0.1631E+02  0.5449E+01  0.5323E+01
     -7.381  0.2084E+02  0.2336E+02  0.6500E+01  0.6500E+01
     -7.330  0.7889E+02  0.7837E+02  0.1048E+02  0.1045E+02
     -7.280  0.4437E+00  0.9704E+00  0.1050E+02  0.1050E+02
     -7.229  0.0000E+00  0.0000E+00  0.1050E+02  0.1050E+02
     -7.179  0.1301E-08  0.2059E-09  0.1050E+02  0.1050E+02
     -7.129  0.8259E+01  0.7186E+01  0.1092E+02  0.1086E+02
     -7.078  0.3118E+02  0.3197E+02  0.1249E+02  0.1247E+02
     -7.028  0.3540E+02  0.3351E+02  0.1427E+02  0.1416E+02
     -6.977  0.3335E+02  0.3480E+02  0.1595E+02  0.1592E+02
     -6.927  0.3954E+02  0.3938E+02  0.1795E+02  0.1790E+02
     -6.877  0.1095E+02  0.1180E+02  0.1850E+02  0.1850E+02
     -6.826  0.1730E-01  0.3418E-01  0.1850E+02  0.1850E+02
     -6.776  0.9442E+01  0.8868E+01  0.1898E+02  0.1895E+02
     -6.725  0.6034E+02  0.5695E+02  0.2202E+02  0.2182E+02
     -6.675  0.6424E+02  0.6737E+02  0.2526E+02  0.2522E+02
     -6.624  0.3406E+02  0.3400E+02  0.2697E+02  0.2693E+02
     -6.574  0.5979E+00  0.1431E+01  0.2700E+02  0.2700E+02
     -6.524  0.3942E+02  0.3918E+02  0.2899E+02  0.2898E+02
     -6.473  0.7398E+02  0.6933E+02  0.3272E+02  0.3247E+02
     -6.423  0.9112E+02  0.9101E+02  0.3732E+02  0.3706E+02
     -6.372  0.4714E+02  0.5176E+02  0.3969E+02  0.3967E+02
     -6.322  0.3057E+02  0.2667E+02  0.4123E+02  0.4101E+02
     -6.272  0.7309E+02  0.7219E+02  0.4492E+02  0.4465E+02
     -6.221  0.4651E+02  0.5155E+02  0.4726E+02  0.4725E+02
     -6.171  0.9397E+02  0.8970E+02  0.5200E+02  0.5178E+02
     -6.120  0.5489E+02  0.5831E+02  0.5477E+02  0.5472E+02
     -6.070  0.1802E+02  0.1829E+02  0.5568E+02  0.5564E+02
     -6.019  0.5846E+02  0.5489E+02  0.5862E+02  0.5840E+02
     -5.969  0.8701E+02  0.8680E+02  0.6301E+02  0.6278E+02
     -5.919  0.1225E+03  0.1244E+03  0.6919E+02  0.6905E+02
     -5.868  0.7239E+02  0.7042E+02  0.7284E+02  0.7260E+02
     -5.818  0.1347E+03  0.1336E+03  0.7963E+02  0.7934E+02
     -5.767  0.7942E+02  0.7645E+02  0.8363E+02  0.8319E+02
     -5.717  0.1133E+03  0.1156E+03  0.8935E+02  0.8902E+02
     -5.667  0.5447E+02  0.5839E+02  0.9209E+02  0.9197E+02
     -5.616  0.8942E+02  0.8977E+02  0.9660E+02  0.9649E+02
     -5.566  0.6491E+02  0.6310E+02  0.9987E+02  0.9967E+02
     -5.515  0.1241E+03  0.1206E+03  0.1061E+03  0.1058E+03
     -5.465  0.1135E+03  0.1159E+03  0.1119E+03  0.1116E+03
     -5.414  0.7117E+02  0.7269E+02  0.1154E+03  0.1153E+03
     -5.364  0.1127E+03  0.1087E+03  0.1211E+03  0.1207E+03
     -5.314  0.1113E+03  0.1149E+03  0.1267E+03  0.1265E+03
     -5.263  0.6207E+02  0.6379E+02  0.1299E+03  0.1298E+03
     -5.213  0.8500E+02  0.8565E+02  0.1341E+03  0.1341E+03
     -5.162  0.7837E+02  0.7660E+02  0.1381E+03  0.1379E+03
     -5.112  0.5336E+02  0.5440E+02  0.1408E+03  0.1407E+03
     -5.062  0.1012E+03  0.9815E+02  0.1459E+03  0.1456E+03
     -5.011  0.9975E+02  0.1011E+03  0.1509E+03  0.1507E+03
     -4.961  0.1084E+03  0.1066E+03  0.1564E+03  0.1561E+03
     -4.910  0.1199E+03  0.1243E+03  0.1624E+03  0.1624E+03
     -4.860  0.7595E+02  0.7230E+02  0.1663E+03  0.1660E+03
     -4.809  0.8902E+02  0.8705E+02  0.1707E+03  0.1704E+03
     -4.759  0.8026E+02  0.8372E+02  0.1748E+03  0.1746E+03
     -4.709  0.1066E+03  0.1043E+03  0.1802E+03  0.1799E+03
     -4.658  0.9801E+02  0.9810E+02  0.1851E+03  0.1848E+03
     -4.608  0.1110E+03  0.1134E+03  0.1907E+03  0.1905E+03
     -4.557  0.8414E+02  0.8273E+02  0.1949E+03  0.1947E+03
     -4.507  0.9017E+02  0.8674E+02  0.1995E+03  0.1991E+03
     -4.457  0.1380E+03  0.1380E+03  0.2065E+03  0.2060E+03
     -4.406  0.8009E+02  0.8470E+02  0.2105E+03  0.2103E+03
     -4.356  0.1464E+03  0.1435E+03  0.2179E+03  0.2176E+03
     -4.305  0.6810E+02  0.7093E+02  0.2213E+03  0.2211E+03
     -4.255  0.7691E+02  0.7480E+02  0.2252E+03  0.2249E+03
     -4.205  0.5372E+02  0.5696E+02  0.2279E+03  0.2278E+03
     -4.154  0.8253E+02  0.8189E+02  0.2320E+03  0.2319E+03
     -4.104  0.5853E+02  0.6148E+02  0.2350E+03  0.2350E+03
     -4.053  0.1451E+02  0.1134E+02  0.2357E+03  0.2356E+03
     -4.003  0.6341E+02  0.6415E+02  0.2389E+03  0.2388E+03
     -3.952  0.3652E+02  0.3862E+02  0.2408E+03  0.2408E+03
     -3.902  0.4755E+02  0.4646E+02  0.2432E+03  0.2431E+03
     -3.852  0.8859E+02  0.8490E+02  0.2476E+03  0.2474E+03
     -3.801  0.7850E+02  0.7760E+02  0.2516E+03  0.2513E+03
     -3.751  0.3398E+02  0.3641E+02  0.2533E+03  0.2531E+03
     -3.700  0.5867E+02  0.5183E+02  0.2563E+03  0.2557E+03
     -3.650  0.6877E+02  0.7372E+02  0.2597E+03  0.2595E+03
     -3.600  0.4104E+02  0.3909E+02  0.2618E+03  0.2614E+03
     -3.549  0.5049E+02  0.5179E+02  0.2643E+03  0.2640E+03
     -3.499  0.8019E+02  0.8238E+02  0.2684E+03  0.2682E+03
     -3.448  0.4726E+02  0.5095E+02  0.2708E+03  0.2708E+03
     -3.398  0.8005E+02  0.7251E+02  0.2748E+03  0.2744E+03
     -3.347  0.6703E+02  0.6916E+02  0.2782E+03  0.2779E+03
     -3.297  0.9341E+02  0.9407E+02  0.2829E+03  0.2826E+03
     -3.247  0.4002E+02  0.4269E+02  0.2849E+03  0.2848E+03
     -3.196  0.9965E+02  0.9534E+02  0.2899E+03  0.2896E+03
     -3.146  0.6525E+02  0.7003E+02  0.2932E+03  0.2931E+03
     -3.095  0.6104E+02  0.5726E+02  0.2963E+03  0.2960E+03
     -3.045  0.8057E+02  0.8451E+02  0.3004E+03  0.3003E+03
     -2.995  0.4267E+02  0.3730E+02  0.3025E+03  0.3022E+03
     -2.944  0.6865E+02  0.7161E+02  0.3060E+03  0.3058E+03
     -2.894  0.6634E+02  0.6428E+02  0.3093E+03  0.3090E+03
     -2.843  0.9551E+02  0.9689E+02  0.3141E+03  0.3139E+03
     -2.793  0.1080E+03  0.1092E+03  0.3196E+03  0.3194E+03
     -2.742  0.4866E+02  0.4641E+02  0.3220E+03  0.3217E+03
     -2.692  0.8171E+02  0.8222E+02  0.3262E+03  0.3259E+03
     -2.642  0.1128E+03  0.1114E+03  0.3318E+03  0.3315E+03
     -2.591  0.1295E+03  0.1283E+03  0.3384E+03  0.3380E+03
     -2.541  0.1009E+03  0.1020E+03  0.3435E+03  0.3431E+03
     -2.490  0.1479E+03  0.1475E+03  0.3509E+03  0.3505E+03
     -2.440  0.1347E+03  0.1360E+03  0.3577E+03  0.3574E+03
     -2.390  0.1070E+03  0.1091E+03  0.3631E+03  0.3629E+03
     -2.339  0.9820E+02  0.9594E+02  0.3680E+03  0.3677E+03
     -2.289  0.7431E+02  0.7592E+02  0.3718E+03  0.3716E+03
     -2.238  0.1067E+03  0.1082E+03  0.3772E+03  0.3770E+03
     -2.188  0.8468E+02  0.7831E+02  0.3814E+03  0.3810E+03
     -2.137  0.6667E+02  0.7490E+02  0.3848E+03  0.3848E+03
     -2.087  0.6988E+02  0.6644E+02  0.3883E+03  0.3881E+03
     -2.037  0.9982E+02  0.9565E+02  0.3934E+03  0.3929E+03
     -1.986  0.9982E+02  0.1050E+03  0.3984E+03  0.3982E+03
     -1.936  0.5632E+02  0.5825E+02  0.4012E+03  0.4012E+03
     -1.885  0.7381E+02  0.6847E+02  0.4050E+03  0.4046E+03
     -1.835  0.7932E+02  0.8194E+02  0.4090E+03  0.4087E+03
     -1.785  0.9843E+02  0.1004E+03  0.4139E+03  0.4138E+03
     -1.734  0.7453E+02  0.7207E+02  0.4177E+03  0.4174E+03
     -1.684  0.6927E+02  0.6892E+02  0.4212E+03  0.4209E+03
     -1.633  0.1006E+03  0.1027E+03  0.4262E+03  0.4261E+03
     -1.583  0.6508E+02  0.6572E+02  0.4295E+03  0.4294E+03
     -1.532  0.8624E+02  0.8487E+02  0.4339E+03  0.4337E+03
     -1.482  0.7950E+02  0.7727E+02  0.4379E+03  0.4376E+03
     -1.432  0.6782E+02  0.6482E+02  0.4413E+03  0.4408E+03
     -1.381  0.3469E+02  0.4324E+02  0.4430E+03  0.4430E+03
     -1.331  0.7884E+02  0.7397E+02  0.4470E+03  0.4467E+03
     -1.280  0.4025E+02  0.4314E+02  0.4490E+03  0.4489E+03
     -1.230  0.3246E+02  0.2982E+02  0.4507E+03  0.4504E+03
     -1.180  0.6950E+02  0.7126E+02  0.4542E+03  0.4540E+03
     -1.129  0.4250E+02  0.4286E+02  0.4563E+03  0.4562E+03
     -1.079  0.4298E+02  0.4348E+02  0.4585E+03  0.4584E+03
     -1.028  0.7028E+02  0.6796E+02  0.4620E+03  0.4618E+03
     -0.978  0.4012E+02  0.3672E+02  0.4641E+03  0.4636E+03
     -0.927  0.6779E+02  0.7558E+02  0.4675E+03  0.4675E+03
     -0.877  0.5665E+02  0.5260E+02  0.4703E+03  0.4701E+03
     -0.827  0.6898E+02  0.7161E+02  0.4738E+03  0.4737E+03
     -0.776  0.6511E+02  0.6380E+02  0.4771E+03  0.4769E+03
     -0.726  0.2851E+02  0.2944E+02  0.4785E+03  0.4784E+03
     -0.675  0.4691E+02  0.4117E+02  0.4809E+03  0.4805E+03
     -0.625  0.7117E+02  0.7407E+02  0.4845E+03  0.4842E+03
     -0.575  0.4022E+02  0.4317E+02  0.4865E+03  0.4864E+03
     -0.524  0.2679E+02  0.2695E+02  0.4879E+03  0.4878E+03
     -0.474  0.1277E+02  0.1460E+02  0.4885E+03  0.4885E+03
     -0.423  0.3749E+02  0.3558E+02  0.4904E+03  0.4903E+03
     -0.373  0.2746E+02  0.2574E+02  0.4918E+03  0.4916E+03
     -0.322  0.4928E+02  0.5238E+02  0.4943E+03  0.4942E+03
     -0.272  0.4357E+02  0.4357E+02  0.4965E+03  0.4964E+03
     -0.222  0.3221E+02  0.2748E+02  0.4981E+03  0.4978E+03
     -0.171  0.8179E+02  0.8374E+02  0.5022E+03  0.5020E+03
     -0.121  0.3227E+02  0.3327E+02  0.5038E+03  0.5037E+03
     -0.070  0.6316E+02  0.5979E+02  0.5070E+03  0.5067E+03
     -0.020  0.7348E+02  0.7767E+02  0.5107E+03  0.5106E+03
      0.030  0.8023E+02  0.7254E+02  0.5148E+03  0.5143E+03
      0.081  0.1248E+03  0.1299E+03  0.5211E+03  0.5208E+03
      0.131  0.1072E+03  0.1024E+03  0.5265E+03  0.5260E+03
      0.182  0.1267E+03  0.1263E+03  0.5329E+03  0.5324E+03
      0.232  0.1579E+03  0.1600E+03  0.5408E+03  0.5404E+03
      0.283  0.1139E+03  0.1155E+03  0.5466E+03  0.5463E+03
      0.333  0.1245E+03  0.1239E+03  0.5528E+03  0.5525E+03
      0.383  0.9132E+02  0.8632E+02  0.5574E+03  0.5569E+03
      0.434  0.1119E+03  0.1179E+03  0.5631E+03  0.5628E+03
      0.484  0.1328E+03  0.1288E+03  0.5698E+03  0.5693E+03
      0.535  0.1017E+03  0.1038E+03  0.5749E+03  0.5745E+03
      0.585  0.6182E+02  0.6556E+02  0.5780E+03  0.5778E+03
      0.635  0.9623E+02  0.9391E+02  0.5829E+03  0.5826E+03
      0.686  0.1604E+03  0.1584E+03  0.5909E+03  0.5906E+03
      0.736  0.1617E+03  0.1603E+03  0.5991E+03  0.5986E+03
      0.787  0.1429E+03  0.1442E+03  0.6063E+03  0.6059E+03
      0.837  0.2187E+03  0.2106E+03  0.6173E+03  0.6165E+03
      0.888  0.1325E+03  0.1444E+03  0.6240E+03  0.6238E+03
      0.938  0.1235E+03  0.1156E+03  0.6302E+03  0.6296E+03
      0.988  0.1893E+03  0.1880E+03  0.6398E+03  0.6391E+03
      1.039  0.1723E+03  0.1793E+03  0.6485E+03  0.6482E+03
      1.089  0.1508E+03  0.1493E+03  0.6561E+03  0.6557E+03
      1.140  0.2097E+03  0.2062E+03  0.6666E+03  0.6661E+03
      1.190  0.1392E+03  0.1396E+03  0.6737E+03  0.6731E+03
      1.240  0.2086E+03  0.2093E+03  0.6842E+03  0.6837E+03
      1.291  0.1501E+03  0.1557E+03  0.6917E+03  0.6915E+03
      1.341  0.1287E+03  0.1278E+03  0.6982E+03  0.6980E+03
      1.392  0.1827E+03  0.1784E+03  0.7074E+03  0.7070E+03
      1.442  0.1876E+03  0.1860E+03  0.7169E+03  0.7163E+03
      1.493  0.2350E+03  0.2327E+03  0.7287E+03  0.7281E+03
      1.543  0.2213E+03  0.2256E+03  0.7399E+03  0.7395E+03
      1.593  0.1444E+03  0.1472E+03  0.7472E+03  0.7469E+03
      1.644  0.1617E+03  0.1609E+03  0.7553E+03  0.7550E+03
      1.694  0.2017E+03  0.1954E+03  0.7655E+03  0.7648E+03
      1.745  0.1742E+03  0.1783E+03  0.7743E+03  0.7738E+03
      1.795  0.1753E+03  0.1717E+03  0.7831E+03  0.7825E+03
      1.845  0.1874E+03  0.1908E+03  0.7926E+03  0.7921E+03
      1.896  0.1732E+03  0.1698E+03  0.8013E+03  0.8007E+03
      1.946  0.1780E+03  0.1825E+03  0.8103E+03  0.8099E+03
      1.997  0.1782E+03  0.1785E+03  0.8193E+03  0.8189E+03
      2.047  0.2276E+03  0.2235E+03  0.8307E+03  0.8301E+03
      2.098  0.1544E+03  0.1592E+03  0.8385E+03  0.8382E+03
      2.148  0.1700E+03  0.1724E+03  0.8471E+03  0.8469E+03
      2.198  0.1268E+03  0.1204E+03  0.8535E+03  0.8529E+03
      2.249  0.1758E+03  0.1734E+03  0.8624E+03  0.8617E+03
      2.299  0.1618E+03  0.1626E+03  0.8705E+03  0.8699E+03
      2.350  0.2035E+03  0.2008E+03  0.8808E+03  0.8800E+03
      2.400  0.1642E+03  0.1729E+03  0.8890E+03  0.8887E+03
      2.450  0.1210E+03  0.1188E+03  0.8951E+03  0.8947E+03
      2.501  0.1319E+03  0.1366E+03  0.9018E+03  0.9016E+03
      2.551  0.1193E+03  0.1108E+03  0.9078E+03  0.9072E+03
      2.602  0.1700E+03  0.1714E+03  0.9164E+03  0.9158E+03
      2.652  0.1538E+03  0.1527E+03  0.9241E+03  0.9235E+03
      2.702  0.1215E+03  0.1169E+03  0.9303E+03  0.9294E+03
      2.753  0.1813E+03  0.1864E+03  0.9394E+03  0.9388E+03
      2.803  0.1246E+03  0.1232E+03  0.9457E+03  0.9450E+03
      2.854  0.1572E+03  0.1641E+03  0.9536E+03  0.9533E+03
      2.904  0.8531E+02  0.8707E+02  0.9579E+03  0.9577E+03
      2.955  0.1418E+03  0.1366E+03  0.9651E+03  0.9646E+03
      3.005  0.1202E+03  0.1250E+03  0.9711E+03  0.9709E+03
      3.055  0.1060E+03  0.1028E+03  0.9765E+03  0.9760E+03
      3.106  0.1155E+03  0.1161E+03  0.9823E+03  0.9819E+03
      3.156  0.1279E+03  0.1178E+03  0.9887E+03  0.9878E+03
      3.207  0.9364E+02  0.1085E+03  0.9935E+03  0.9933E+03
      3.257  0.1098E+03  0.1034E+03  0.9990E+03  0.9985E+03
      3.307  0.1153E+03  0.1148E+03  0.1005E+04  0.1004E+04
      3.358  0.9117E+02  0.8863E+02  0.1009E+04  0.1009E+04
      3.408  0.6752E+02  0.7605E+02  0.1013E+04  0.1013E+04
      3.459  0.7856E+02  0.6745E+02  0.1017E+04  0.1016E+04
      3.509  0.9519E+02  0.1008E+03  0.1022E+04  0.1021E+04
      3.560  0.8740E+02  0.7531E+02  0.1026E+04  0.1025E+04
      3.610  0.1063E+03  0.1180E+03  0.1031E+04  0.1031E+04
      3.660  0.4116E+02  0.4461E+02  0.1033E+04  0.1033E+04
      3.711  0.6484E+02  0.5802E+02  0.1037E+04  0.1036E+04
      3.761  0.3767E+02  0.3954E+02  0.1039E+04  0.1038E+04
      3.812  0.4882E+02  0.5034E+02  0.1041E+04  0.1041E+04
      3.862  0.2530E+02  0.2639E+02  0.1042E+04  0.1042E+04
      3.912  0.4781E+02  0.4994E+02  0.1045E+04  0.1044E+04
      3.963  0.6167E+02  0.5144E+02  0.1048E+04  0.1047E+04
      4.013  0.4762E+02  0.4948E+02  0.1050E+04  0.1049E+04
      4.064  0.7303E+02  0.5847E+02  0.1054E+04  0.1052E+04
      4.114  0.1048E+03  0.1256E+03  0.1059E+04  0.1059E+04
      4.165  0.9768E+02  0.8880E+02  0.1064E+04  0.1063E+04
      4.215  0.1127E+03  0.1180E+03  0.1070E+04  0.1069E+04
      4.265  0.7375E+02  0.7338E+02  0.1074E+04  0.1073E+04
      4.316  0.9432E+02  0.9624E+02  0.1078E+04  0.1078E+04
      4.366  0.1049E+03  0.9235E+02  0.1084E+04  0.1082E+04
      4.417  0.1182E+03  0.1144E+03  0.1090E+04  0.1088E+04
      4.467  0.1060E+03  0.1175E+03  0.1095E+04  0.1094E+04
      4.517  0.1415E+03  0.1405E+03  0.1102E+04  0.1101E+04
      4.568  0.9923E+02  0.1095E+03  0.1107E+04  0.1107E+04
      4.618  0.6668E+02  0.5973E+02  0.1110E+04  0.1110E+04
      4.669  0.1131E+03  0.1100E+03  0.1116E+04  0.1115E+04
      4.719  0.1391E+03  0.1362E+03  0.1123E+04  0.1122E+04
      4.770  0.1113E+03  0.1148E+03  0.1129E+04  0.1128E+04
      4.820  0.7082E+02  0.7063E+02  0.1132E+04  0.1131E+04
      4.870  0.1892E+03  0.1895E+03  0.1142E+04  0.1141E+04
      4.921  0.1127E+03  0.1176E+03  0.1147E+04  0.1147E+04
      4.971  0.1072E+03  0.9607E+02  0.1153E+04  0.1152E+04
      5.022  0.1191E+03  0.1230E+03  0.1159E+04  0.1158E+04
      5.072  0.1476E+03  0.1458E+03  0.1166E+04  0.1165E+04
      5.122  0.1502E+03  0.1465E+03  0.1174E+04  0.1173E+04
      5.173  0.8378E+02  0.9928E+02  0.1178E+04  0.1178E+04
      5.223  0.1012E+03  0.1016E+03  0.1183E+04  0.1183E+04
      5.274  0.1087E+03  0.1055E+03  0.1189E+04  0.1188E+04
      5.324  0.1006E+03  0.1012E+03  0.1194E+04  0.1193E+04
      5.375  0.1517E+03  0.1439E+03  0.1201E+04  0.1201E+04
      5.425  0.1562E+03  0.1586E+03  0.1209E+04  0.1209E+04
      5.475  0.9876E+02  0.1053E+03  0.1214E+04  0.1214E+04
      5.526  0.1040E+03  0.1043E+03  0.1220E+04  0.1219E+04
      5.576  0.1823E+03  0.1774E+03  0.1229E+04  0.1228E+04
      5.627  0.1328E+03  0.1365E+03  0.1235E+04  0.1235E+04
      5.677  0.1234E+03  0.1182E+03  0.1242E+04  0.1241E+04
      5.727  0.9993E+02  0.1058E+03  0.1247E+04  0.1246E+04
      5.778  0.1359E+03  0.1382E+03  0.1254E+04  0.1253E+04
      5.828  0.1216E+03  0.1194E+03  0.1260E+04  0.1259E+04
      5.879  0.1165E+03  0.1189E+03  0.1266E+04  0.1265E+04
      5.929  0.8636E+02  0.8616E+02  0.1270E+04  0.1270E+04
      5.980  0.3234E+02  0.3943E+02  0.1272E+04  0.1272E+04
      6.030  0.9726E+01  0.9160E+01  0.1272E+04  0.1272E+04
      6.080  0.0000E+00  0.0000E+00  0.1272E+04  0.1272E+04
      6.131  0.0000E+00  0.0000E+00  0.1272E+04  0.1272E+04
      6.181  0.0000E+00  0.0000E+00  0.1272E+04  0.1272E+04
      6.232  0.0000E+00  0.0000E+00  0.1272E+04  0.1272E+04
      6.282  0.0000E+00  0.0000E+00  0.1272E+04  0.1272E+04
      6.332  0.0000E+00  0.0000E+00  0.1272E+04  0.1272E+04
      6.383  0.0000E+00  0.0000E+00  0.1272E+04  0.1272E+04
      6.433  0.0000E+00  0.0000E+00  0.1272E+04  0.1272E+04
      6.484  0.0000E+00  0.0000E+00  0.1272E+04  0.1272E+04
      6.534  0.0000E+00  0.0000E+00  0.1272E+04  0.1272E+04
      6.585  0.0000E+00  0.0000E+00  0.1272E+04  0.1272E+04
      6.635  0.0000E+00  0.0000E+00  0.1272E+04  0.1272E+04
      6.685  0.0000E+00  0.0000E+00  0.1272E+04  0.1272E+04
