 264 264   0   0
  0.2774202E+02  0.1958175E-08  0.1958175E-08  0.1910025E-08  0.5000000E-15
  1.000000000000000E-004
  CAR 
 Si and Ge interface calculation         
      6.63705929     -9.13530951  301      4.03815956      1.00000000
     -9.135  0.0000E+00  0.0000E+00  0.0000E+00  0.0000E+00
     -9.083  0.0000E+00  0.0000E+00  0.0000E+00  0.0000E+00
     -9.030  0.0000E+00  0.0000E+00  0.0000E+00  0.0000E+00
     -8.978  0.0000E+00  0.0000E+00  0.0000E+00  0.0000E+00
     -8.925  0.0000E+00  0.0000E+00  0.0000E+00  0.0000E+00
     -8.872  0.0000E+00  0.0000E+00  0.0000E+00  0.0000E+00
     -8.820  0.0000E+00  0.0000E+00  0.0000E+00  0.0000E+00
     -8.767  0.0000E+00  0.0000E+00  0.0000E+00  0.0000E+00
     -8.715  0.0000E+00  0.0000E+00  0.0000E+00  0.0000E+00
     -8.662  0.0000E+00  0.0000E+00  0.0000E+00  0.0000E+00
     -8.610  0.0000E+00  0.0000E+00  0.0000E+00  0.0000E+00
     -8.557  0.0000E+00  0.0000E+00  0.0000E+00  0.0000E+00
     -8.504  0.0000E+00  0.0000E+00  0.0000E+00  0.0000E+00
     -8.452  0.1052E-04  0.3416E-05  0.5529E-06  0.1796E-06
     -8.399  0.1482E+02  0.1385E+02  0.7791E+00  0.7280E+00
     -8.347  0.2322E+02  0.2419E+02  0.2000E+01  0.2000E+01
     -8.294  0.1509E-02  0.3296E-02  0.2000E+01  0.2000E+01
     -8.242  0.1288E+02  0.1217E+02  0.2677E+01  0.2640E+01
     -8.189  0.1562E+02  0.1630E+02  0.3499E+01  0.3497E+01
     -8.136  0.7925E+01  0.7490E+01  0.3915E+01  0.3891E+01
     -8.084  0.3829E+02  0.3792E+02  0.5928E+01  0.5884E+01
     -8.031  0.4682E+01  0.4847E+01  0.6174E+01  0.6139E+01
     -7.979  0.2286E+02  0.2207E+02  0.7376E+01  0.7300E+01
     -7.926  0.2110E+02  0.2232E+02  0.8486E+01  0.8473E+01
     -7.874  0.1926E+02  0.1827E+02  0.9498E+01  0.9433E+01
     -7.821  0.1042E+02  0.1133E+02  0.1005E+02  0.1003E+02
     -7.768  0.1815E+02  0.1685E+02  0.1100E+02  0.1091E+02
     -7.716  0.9544E+01  0.1116E+02  0.1150E+02  0.1150E+02
     -7.663  0.9463E+01  0.9487E+01  0.1200E+02  0.1200E+02
     -7.611  0.3273E+02  0.3118E+02  0.1372E+02  0.1364E+02
     -7.558  0.2433E+02  0.2587E+02  0.1500E+02  0.1500E+02
     -7.505  0.2645E+02  0.2576E+02  0.1639E+02  0.1635E+02
     -7.453  0.1142E+02  0.1196E+02  0.1699E+02  0.1698E+02
     -7.400  0.1916E+02  0.1927E+02  0.1800E+02  0.1800E+02
     -7.348  0.3013E+01  0.2273E+01  0.1816E+02  0.1812E+02
     -7.295  0.7655E+01  0.8055E+01  0.1856E+02  0.1854E+02
     -7.243  0.3847E+02  0.3764E+02  0.2058E+02  0.2052E+02
     -7.190  0.2718E+02  0.2785E+02  0.2201E+02  0.2198E+02
     -7.137  0.2826E+02  0.2873E+02  0.2350E+02  0.2349E+02
     -7.085  0.3472E+02  0.3111E+02  0.2532E+02  0.2513E+02
     -7.032  0.3434E+02  0.3700E+02  0.2713E+02  0.2707E+02
     -6.980  0.4450E+02  0.4357E+02  0.2947E+02  0.2936E+02
     -6.927  0.1948E+02  0.2073E+02  0.3049E+02  0.3045E+02
     -6.875  0.3230E+02  0.3045E+02  0.3219E+02  0.3205E+02
     -6.822  0.4372E+02  0.4374E+02  0.3449E+02  0.3435E+02
     -6.769  0.7726E+02  0.7749E+02  0.3855E+02  0.3843E+02
     -6.717  0.4141E+02  0.4240E+02  0.4073E+02  0.4066E+02
     -6.664  0.3404E+02  0.3445E+02  0.4252E+02  0.4247E+02
     -6.612  0.3425E+02  0.3394E+02  0.4432E+02  0.4425E+02
     -6.559  0.3709E+02  0.3706E+02  0.4627E+02  0.4620E+02
     -6.507  0.4774E+02  0.4711E+02  0.4878E+02  0.4868E+02
     -6.454  0.3466E+02  0.3403E+02  0.5060E+02  0.5047E+02
     -6.401  0.4140E+02  0.4167E+02  0.5278E+02  0.5266E+02
     -6.349  0.3808E+02  0.3732E+02  0.5478E+02  0.5462E+02
     -6.296  0.6131E+02  0.6417E+02  0.5800E+02  0.5799E+02
     -6.244  0.4506E+02  0.4230E+02  0.6037E+02  0.6022E+02
     -6.191  0.6794E+02  0.6812E+02  0.6394E+02  0.6380E+02
     -6.139  0.6801E+02  0.6924E+02  0.6752E+02  0.6744E+02
     -6.086  0.5732E+02  0.5615E+02  0.7053E+02  0.7039E+02
     -6.033  0.8265E+02  0.8265E+02  0.7488E+02  0.7474E+02
     -5.981  0.6498E+02  0.6231E+02  0.7829E+02  0.7801E+02
     -5.928  0.8059E+02  0.8237E+02  0.8253E+02  0.8234E+02
     -5.876  0.5816E+02  0.6039E+02  0.8559E+02  0.8552E+02
     -5.823  0.5400E+02  0.5302E+02  0.8843E+02  0.8831E+02
     -5.771  0.8185E+02  0.8038E+02  0.9273E+02  0.9253E+02
     -5.718  0.7693E+02  0.7614E+02  0.9677E+02  0.9654E+02
     -5.665  0.9279E+02  0.9393E+02  0.1017E+03  0.1015E+03
     -5.613  0.7959E+02  0.7889E+02  0.1058E+03  0.1056E+03
     -5.560  0.8306E+02  0.8400E+02  0.1102E+03  0.1100E+03
     -5.508  0.5406E+02  0.5481E+02  0.1130E+03  0.1129E+03
     -5.455  0.7884E+02  0.7618E+02  0.1172E+03  0.1169E+03
     -5.403  0.7749E+02  0.7921E+02  0.1213E+03  0.1211E+03
     -5.350  0.7681E+02  0.7685E+02  0.1253E+03  0.1251E+03
     -5.297  0.1036E+03  0.1044E+03  0.1307E+03  0.1306E+03
     -5.245  0.8113E+02  0.7966E+02  0.1350E+03  0.1348E+03
     -5.192  0.5611E+02  0.5773E+02  0.1380E+03  0.1378E+03
     -5.140  0.4330E+02  0.4357E+02  0.1402E+03  0.1401E+03
     -5.087  0.8214E+02  0.7841E+02  0.1446E+03  0.1443E+03
     -5.034  0.7618E+02  0.7898E+02  0.1486E+03  0.1484E+03
     -4.982  0.5793E+02  0.5731E+02  0.1516E+03  0.1514E+03
     -4.929  0.7581E+02  0.7630E+02  0.1556E+03  0.1554E+03
     -4.877  0.6287E+02  0.6123E+02  0.1589E+03  0.1586E+03
     -4.824  0.8337E+02  0.8488E+02  0.1633E+03  0.1631E+03
     -4.772  0.1029E+03  0.9956E+02  0.1687E+03  0.1683E+03
     -4.719  0.1183E+03  0.1187E+03  0.1749E+03  0.1746E+03
     -4.666  0.1096E+03  0.1087E+03  0.1807E+03  0.1803E+03
     -4.614  0.1011E+03  0.1032E+03  0.1860E+03  0.1857E+03
     -4.561  0.9654E+02  0.9573E+02  0.1911E+03  0.1908E+03
     -4.509  0.9638E+02  0.9609E+02  0.1961E+03  0.1958E+03
     -4.456  0.1032E+03  0.1014E+03  0.2016E+03  0.2011E+03
     -4.404  0.1027E+03  0.1019E+03  0.2070E+03  0.2065E+03
     -4.351  0.1036E+03  0.1070E+03  0.2124E+03  0.2121E+03
     -4.298  0.7462E+02  0.7560E+02  0.2163E+03  0.2161E+03
     -4.246  0.6318E+02  0.6156E+02  0.2197E+03  0.2193E+03
     -4.193  0.1048E+03  0.1033E+03  0.2252E+03  0.2248E+03
     -4.141  0.1021E+03  0.1062E+03  0.2305E+03  0.2304E+03
     -4.088  0.6209E+02  0.6151E+02  0.2338E+03  0.2336E+03
     -4.036  0.8650E+02  0.8695E+02  0.2383E+03  0.2382E+03
     -3.983  0.2959E+02  0.2948E+02  0.2399E+03  0.2397E+03
     -3.930  0.5145E+02  0.5281E+02  0.2426E+03  0.2425E+03
     -3.878  0.4527E+02  0.4214E+02  0.2450E+03  0.2447E+03
     -3.825  0.5492E+02  0.5633E+02  0.2479E+03  0.2477E+03
     -3.773  0.5175E+02  0.5234E+02  0.2506E+03  0.2504E+03
     -3.720  0.6194E+02  0.6035E+02  0.2538E+03  0.2536E+03
     -3.668  0.7559E+02  0.7289E+02  0.2578E+03  0.2574E+03
     -3.615  0.7305E+02  0.7537E+02  0.2617E+03  0.2614E+03
     -3.562  0.6999E+02  0.7274E+02  0.2653E+03  0.2652E+03
     -3.510  0.6846E+02  0.6357E+02  0.2689E+03  0.2685E+03
     -3.457  0.7379E+02  0.7722E+02  0.2728E+03  0.2726E+03
     -3.405  0.8767E+02  0.8339E+02  0.2774E+03  0.2770E+03
     -3.352  0.8445E+02  0.8819E+02  0.2819E+03  0.2816E+03
     -3.300  0.6459E+02  0.6574E+02  0.2853E+03  0.2851E+03
     -3.247  0.6408E+02  0.6363E+02  0.2886E+03  0.2884E+03
     -3.194  0.7633E+02  0.7433E+02  0.2926E+03  0.2923E+03
     -3.142  0.7336E+02  0.7347E+02  0.2965E+03  0.2962E+03
     -3.089  0.7154E+02  0.7154E+02  0.3003E+03  0.3000E+03
     -3.037  0.6218E+02  0.6323E+02  0.3035E+03  0.3033E+03
     -2.984  0.7681E+02  0.7559E+02  0.3076E+03  0.3073E+03
     -2.932  0.9881E+02  0.9588E+02  0.3128E+03  0.3123E+03
     -2.879  0.8251E+02  0.8421E+02  0.3171E+03  0.3167E+03
     -2.826  0.1072E+03  0.1100E+03  0.3227E+03  0.3225E+03
     -2.774  0.8746E+02  0.8756E+02  0.3273E+03  0.3271E+03
     -2.721  0.1006E+03  0.1003E+03  0.3326E+03  0.3324E+03
     -2.669  0.1011E+03  0.1007E+03  0.3379E+03  0.3377E+03
     -2.616  0.1049E+03  0.1031E+03  0.3435E+03  0.3431E+03
     -2.563  0.1239E+03  0.1228E+03  0.3500E+03  0.3496E+03
     -2.511  0.1195E+03  0.1199E+03  0.3563E+03  0.3559E+03
     -2.458  0.9479E+02  0.9728E+02  0.3612E+03  0.3610E+03
     -2.406  0.9652E+02  0.9617E+02  0.3663E+03  0.3660E+03
     -2.353  0.1050E+03  0.1023E+03  0.3718E+03  0.3714E+03
     -2.301  0.9135E+02  0.9316E+02  0.3766E+03  0.3763E+03
     -2.248  0.9843E+02  0.1014E+03  0.3818E+03  0.3816E+03
     -2.195  0.4618E+02  0.4814E+02  0.3842E+03  0.3842E+03
     -2.143  0.3271E+02  0.2919E+02  0.3860E+03  0.3857E+03
     -2.090  0.6832E+02  0.6779E+02  0.3895E+03  0.3893E+03
     -2.038  0.7161E+02  0.7189E+02  0.3933E+03  0.3931E+03
     -1.985  0.8887E+02  0.8883E+02  0.3980E+03  0.3977E+03
     -1.933  0.1034E+03  0.1022E+03  0.4034E+03  0.4031E+03
     -1.880  0.9167E+02  0.9367E+02  0.4082E+03  0.4080E+03
     -1.827  0.6257E+02  0.6333E+02  0.4115E+03  0.4113E+03
     -1.775  0.9153E+02  0.8800E+02  0.4163E+03  0.4160E+03
     -1.722  0.1153E+03  0.1146E+03  0.4224E+03  0.4220E+03
     -1.670  0.7266E+02  0.7235E+02  0.4262E+03  0.4258E+03
     -1.617  0.7799E+02  0.8314E+02  0.4303E+03  0.4302E+03
     -1.565  0.1105E+03  0.1097E+03  0.4361E+03  0.4359E+03
     -1.512  0.5381E+02  0.5550E+02  0.4390E+03  0.4389E+03
     -1.459  0.5078E+02  0.4934E+02  0.4416E+03  0.4415E+03
     -1.407  0.5987E+02  0.5866E+02  0.4448E+03  0.4445E+03
     -1.354  0.6598E+02  0.6538E+02  0.4483E+03  0.4480E+03
     -1.302  0.4414E+02  0.4736E+02  0.4506E+03  0.4505E+03
     -1.249  0.4748E+02  0.4586E+02  0.4531E+03  0.4529E+03
     -1.197  0.6319E+02  0.6464E+02  0.4564E+03  0.4563E+03
     -1.144  0.6020E+02  0.5824E+02  0.4596E+03  0.4593E+03
     -1.091  0.5142E+02  0.5293E+02  0.4623E+03  0.4621E+03
     -1.039  0.4496E+02  0.4537E+02  0.4646E+03  0.4645E+03
     -0.986  0.4976E+02  0.4979E+02  0.4672E+03  0.4671E+03
     -0.934  0.2802E+02  0.2673E+02  0.4687E+03  0.4685E+03
     -0.881  0.5598E+02  0.5549E+02  0.4717E+03  0.4714E+03
     -0.829  0.7946E+02  0.7914E+02  0.4758E+03  0.4756E+03
     -0.776  0.5912E+02  0.6227E+02  0.4789E+03  0.4789E+03
     -0.723  0.3793E+02  0.3483E+02  0.4809E+03  0.4807E+03
     -0.671  0.8661E+02  0.8747E+02  0.4855E+03  0.4853E+03
     -0.618  0.4440E+02  0.4395E+02  0.4878E+03  0.4876E+03
     -0.566  0.2671E+02  0.2954E+02  0.4892E+03  0.4892E+03
     -0.513  0.2017E+02  0.2065E+02  0.4903E+03  0.4903E+03
     -0.461  0.2945E+02  0.2877E+02  0.4918E+03  0.4918E+03
     -0.408  0.2399E+02  0.2413E+02  0.4931E+03  0.4930E+03
     -0.355  0.5108E+02  0.4915E+02  0.4958E+03  0.4956E+03
     -0.303  0.7792E+02  0.7747E+02  0.4999E+03  0.4997E+03
     -0.250  0.8227E+02  0.8210E+02  0.5042E+03  0.5040E+03
     -0.198  0.7541E+02  0.7442E+02  0.5082E+03  0.5079E+03
     -0.145  0.1148E+03  0.1155E+03  0.5142E+03  0.5140E+03
     -0.092  0.1177E+03  0.1135E+03  0.5204E+03  0.5200E+03
     -0.040  0.1186E+03  0.1237E+03  0.5266E+03  0.5265E+03
      0.013  0.1136E+03  0.1097E+03  0.5326E+03  0.5322E+03
      0.065  0.1334E+03  0.1353E+03  0.5396E+03  0.5394E+03
      0.118  0.1102E+03  0.1109E+03  0.5454E+03  0.5452E+03
      0.170  0.9428E+02  0.9355E+02  0.5504E+03  0.5501E+03
      0.223  0.8104E+02  0.8160E+02  0.5546E+03  0.5544E+03
      0.276  0.9420E+02  0.9274E+02  0.5596E+03  0.5593E+03
      0.328  0.9122E+02  0.9128E+02  0.5644E+03  0.5641E+03
      0.381  0.7109E+02  0.7248E+02  0.5681E+03  0.5679E+03
      0.433  0.1236E+03  0.1247E+03  0.5746E+03  0.5744E+03
      0.486  0.7581E+02  0.7622E+02  0.5786E+03  0.5784E+03
      0.538  0.1137E+03  0.1087E+03  0.5846E+03  0.5842E+03
      0.591  0.1230E+03  0.1263E+03  0.5910E+03  0.5908E+03
      0.644  0.1063E+03  0.1043E+03  0.5966E+03  0.5963E+03
      0.696  0.1635E+03  0.1642E+03  0.6052E+03  0.6049E+03
      0.749  0.1399E+03  0.1391E+03  0.6126E+03  0.6122E+03
      0.801  0.1172E+03  0.1203E+03  0.6187E+03  0.6185E+03
      0.854  0.9206E+02  0.8962E+02  0.6236E+03  0.6233E+03
      0.906  0.1144E+03  0.1147E+03  0.6296E+03  0.6293E+03
      0.959  0.1168E+03  0.1172E+03  0.6357E+03  0.6354E+03
      1.012  0.1066E+03  0.1062E+03  0.6413E+03  0.6410E+03
      1.064  0.1516E+03  0.1497E+03  0.6493E+03  0.6489E+03
      1.117  0.1700E+03  0.1705E+03  0.6583E+03  0.6579E+03
      1.169  0.1684E+03  0.1682E+03  0.6671E+03  0.6667E+03
      1.222  0.1896E+03  0.1888E+03  0.6771E+03  0.6766E+03
      1.274  0.1640E+03  0.1640E+03  0.6857E+03  0.6853E+03
      1.327  0.2032E+03  0.2010E+03  0.6964E+03  0.6958E+03
      1.380  0.1598E+03  0.1626E+03  0.7048E+03  0.7044E+03
      1.432  0.1525E+03  0.1543E+03  0.7128E+03  0.7125E+03
      1.485  0.1658E+03  0.1600E+03  0.7215E+03  0.7209E+03
      1.537  0.2021E+03  0.2059E+03  0.7321E+03  0.7317E+03
      1.590  0.1933E+03  0.1900E+03  0.7423E+03  0.7417E+03
      1.642  0.1786E+03  0.1812E+03  0.7517E+03  0.7512E+03
      1.695  0.1923E+03  0.1910E+03  0.7618E+03  0.7613E+03
      1.748  0.1929E+03  0.1904E+03  0.7719E+03  0.7713E+03
      1.800  0.1698E+03  0.1727E+03  0.7809E+03  0.7804E+03
      1.853  0.1506E+03  0.1541E+03  0.7888E+03  0.7885E+03
      1.905  0.1803E+03  0.1738E+03  0.7983E+03  0.7976E+03
      1.958  0.2105E+03  0.2126E+03  0.8093E+03  0.8088E+03
      2.010  0.1564E+03  0.1583E+03  0.8176E+03  0.8171E+03
      2.063  0.1962E+03  0.1932E+03  0.8279E+03  0.8273E+03
      2.116  0.1941E+03  0.1946E+03  0.8381E+03  0.8375E+03
      2.168  0.1878E+03  0.1901E+03  0.8479E+03  0.8475E+03
      2.221  0.1286E+03  0.1282E+03  0.8547E+03  0.8542E+03
      2.273  0.1732E+03  0.1730E+03  0.8638E+03  0.8633E+03
      2.326  0.1542E+03  0.1519E+03  0.8719E+03  0.8713E+03
      2.379  0.1686E+03  0.1668E+03  0.8808E+03  0.8801E+03
      2.431  0.1873E+03  0.1917E+03  0.8906E+03  0.8902E+03
      2.484  0.1298E+03  0.1310E+03  0.8975E+03  0.8970E+03
      2.536  0.1312E+03  0.1308E+03  0.9044E+03  0.9039E+03
      2.589  0.1317E+03  0.1305E+03  0.9113E+03  0.9108E+03
      2.641  0.1407E+03  0.1395E+03  0.9187E+03  0.9181E+03
      2.694  0.1263E+03  0.1277E+03  0.9253E+03  0.9248E+03
      2.747  0.1595E+03  0.1533E+03  0.9337E+03  0.9329E+03
      2.799  0.1314E+03  0.1387E+03  0.9406E+03  0.9402E+03
      2.852  0.1491E+03  0.1423E+03  0.9484E+03  0.9477E+03
      2.904  0.1594E+03  0.1653E+03  0.9568E+03  0.9563E+03
      2.957  0.9333E+02  0.9362E+02  0.9617E+03  0.9613E+03
      3.009  0.1228E+03  0.1178E+03  0.9682E+03  0.9675E+03
      3.062  0.1370E+03  0.1403E+03  0.9754E+03  0.9748E+03
      3.115  0.9987E+02  0.1037E+03  0.9806E+03  0.9803E+03
      3.167  0.1156E+03  0.1107E+03  0.9867E+03  0.9861E+03
      3.220  0.1152E+03  0.1169E+03  0.9928E+03  0.9923E+03
      3.272  0.1025E+03  0.9704E+02  0.9982E+03  0.9974E+03
      3.325  0.1111E+03  0.1154E+03  0.1004E+04  0.1003E+04
      3.377  0.9708E+02  0.9794E+02  0.1009E+04  0.1009E+04
      3.430  0.5861E+02  0.6347E+02  0.1012E+04  0.1012E+04
      3.483  0.1039E+03  0.1009E+03  0.1018E+04  0.1017E+04
      3.535  0.9919E+02  0.9677E+02  0.1023E+04  0.1022E+04
      3.588  0.8680E+02  0.7883E+02  0.1027E+04  0.1026E+04
      3.640  0.9825E+02  0.1101E+03  0.1033E+04  0.1032E+04
      3.693  0.5682E+02  0.5703E+02  0.1036E+04  0.1035E+04
      3.745  0.5093E+02  0.5361E+02  0.1038E+04  0.1038E+04
      3.798  0.4339E+02  0.3867E+02  0.1041E+04  0.1040E+04
      3.851  0.5555E+02  0.5355E+02  0.1043E+04  0.1043E+04
      3.903  0.2882E+02  0.2933E+02  0.1045E+04  0.1044E+04
      3.956  0.7855E+02  0.7471E+02  0.1049E+04  0.1048E+04
      4.008  0.6970E+02  0.6734E+02  0.1053E+04  0.1052E+04
      4.061  0.1037E+03  0.9716E+02  0.1058E+04  0.1057E+04
      4.113  0.1308E+03  0.1328E+03  0.1065E+04  0.1064E+04
      4.166  0.9113E+02  0.8680E+02  0.1070E+04  0.1069E+04
      4.219  0.7500E+02  0.7979E+02  0.1074E+04  0.1073E+04
      4.271  0.1042E+03  0.1102E+03  0.1079E+04  0.1079E+04
      4.324  0.1090E+03  0.1067E+03  0.1085E+04  0.1084E+04
      4.376  0.1311E+03  0.1268E+03  0.1092E+04  0.1091E+04
      4.429  0.1003E+03  0.1041E+03  0.1097E+04  0.1096E+04
      4.482  0.1075E+03  0.1103E+03  0.1103E+04  0.1102E+04
      4.534  0.1059E+03  0.1090E+03  0.1108E+04  0.1108E+04
      4.587  0.9833E+02  0.9697E+02  0.1114E+04  0.1113E+04
      4.639  0.1265E+03  0.1220E+03  0.1120E+04  0.1119E+04
      4.692  0.1104E+03  0.1115E+03  0.1126E+04  0.1125E+04
      4.744  0.1103E+03  0.1118E+03  0.1132E+04  0.1131E+04
      4.797  0.1177E+03  0.1149E+03  0.1138E+04  0.1137E+04
      4.850  0.1204E+03  0.1224E+03  0.1144E+04  0.1144E+04
      4.902  0.1253E+03  0.1270E+03  0.1151E+04  0.1150E+04
      4.955  0.1172E+03  0.1178E+03  0.1157E+04  0.1156E+04
      5.007  0.1113E+03  0.1162E+03  0.1163E+04  0.1163E+04
      5.060  0.1330E+03  0.1303E+03  0.1170E+04  0.1169E+04
      5.112  0.1074E+03  0.1049E+03  0.1176E+04  0.1175E+04
      5.165  0.1090E+03  0.1100E+03  0.1181E+04  0.1181E+04
      5.218  0.1204E+03  0.1228E+03  0.1188E+04  0.1187E+04
      5.270  0.9756E+02  0.9634E+02  0.1193E+04  0.1192E+04
      5.323  0.1080E+03  0.1033E+03  0.1198E+04  0.1198E+04
      5.375  0.1322E+03  0.1364E+03  0.1205E+04  0.1205E+04
      5.428  0.1256E+03  0.1243E+03  0.1212E+04  0.1211E+04
      5.480  0.1548E+03  0.1566E+03  0.1220E+04  0.1220E+04
      5.533  0.1481E+03  0.1469E+03  0.1228E+04  0.1227E+04
      5.586  0.1517E+03  0.1533E+03  0.1236E+04  0.1235E+04
      5.638  0.1147E+03  0.1166E+03  0.1242E+04  0.1242E+04
      5.691  0.1098E+03  0.1101E+03  0.1248E+04  0.1247E+04
      5.743  0.1179E+03  0.1180E+03  0.1254E+04  0.1253E+04
      5.796  0.1269E+03  0.1256E+03  0.1261E+04  0.1260E+04
      5.848  0.1195E+03  0.1221E+03  0.1267E+04  0.1267E+04
      5.901  0.8708E+02  0.8894E+02  0.1271E+04  0.1271E+04
      5.954  0.1010E+02  0.1526E+02  0.1272E+04  0.1272E+04
      6.006  0.0000E+00  0.0000E+00  0.1272E+04  0.1272E+04
      6.059  0.0000E+00  0.0000E+00  0.1272E+04  0.1272E+04
      6.111  0.0000E+00  0.0000E+00  0.1272E+04  0.1272E+04
      6.164  0.0000E+00  0.0000E+00  0.1272E+04  0.1272E+04
      6.216  0.0000E+00  0.0000E+00  0.1272E+04  0.1272E+04
      6.269  0.0000E+00  0.0000E+00  0.1272E+04  0.1272E+04
      6.322  0.0000E+00  0.0000E+00  0.1272E+04  0.1272E+04
      6.374  0.0000E+00  0.0000E+00  0.1272E+04  0.1272E+04
      6.427  0.0000E+00  0.0000E+00  0.1272E+04  0.1272E+04
      6.479  0.0000E+00  0.0000E+00  0.1272E+04  0.1272E+04
      6.532  0.0000E+00  0.0000E+00  0.1272E+04  0.1272E+04
      6.584  0.0000E+00  0.0000E+00  0.1272E+04  0.1272E+04
      6.637  0.0000E+00  0.0000E+00  0.1272E+04  0.1272E+04
