 264 264   0   0
  0.2774202E+02  0.1958175E-08  0.1958175E-08  0.1910025E-08  0.5000000E-15
  1.000000000000000E-004
  CAR 
 Si and Ge interface calculation         
      6.64707809     -9.34020804  301      4.03853240      1.00000000
     -9.340  0.0000E+00  0.0000E+00  0.0000E+00  0.0000E+00
     -9.287  0.0000E+00  0.0000E+00  0.0000E+00  0.0000E+00
     -9.234  0.0000E+00  0.0000E+00  0.0000E+00  0.0000E+00
     -9.180  0.0000E+00  0.0000E+00  0.0000E+00  0.0000E+00
     -9.127  0.0000E+00  0.0000E+00  0.0000E+00  0.0000E+00
     -9.074  0.0000E+00  0.0000E+00  0.0000E+00  0.0000E+00
     -9.020  0.0000E+00  0.0000E+00  0.0000E+00  0.0000E+00
     -8.967  0.0000E+00  0.0000E+00  0.0000E+00  0.0000E+00
     -8.914  0.0000E+00  0.0000E+00  0.0000E+00  0.0000E+00
     -8.861  0.0000E+00  0.0000E+00  0.0000E+00  0.0000E+00
     -8.807  0.0000E+00  0.0000E+00  0.0000E+00  0.0000E+00
     -8.754  0.0000E+00  0.0000E+00  0.0000E+00  0.0000E+00
     -8.701  0.0000E+00  0.0000E+00  0.0000E+00  0.0000E+00
     -8.647  0.7988E-05  0.3047E-05  0.4257E-06  0.1624E-06
     -8.594  0.3649E+02  0.3600E+02  0.1944E+01  0.1918E+01
     -8.541  0.1043E+01  0.1532E+01  0.2000E+01  0.2000E+01
     -8.488  0.0000E+00  0.0000E+00  0.2000E+01  0.2000E+01
     -8.434  0.0000E+00  0.0000E+00  0.2000E+01  0.2000E+01
     -8.381  0.0000E+00  0.0000E+00  0.2000E+01  0.2000E+01
     -8.328  0.2473E+00  0.1481E+00  0.2013E+01  0.2008E+01
     -8.274  0.3720E+02  0.3724E+02  0.3995E+01  0.3993E+01
     -8.221  0.8595E-01  0.1389E+00  0.4000E+01  0.4000E+01
     -8.168  0.0000E+00  0.0000E+00  0.4000E+01  0.4000E+01
     -8.115  0.5208E-15  0.0000E+00  0.4000E+01  0.4000E+01
     -8.061  0.1974E+01  0.1340E+01  0.4105E+01  0.4071E+01
     -8.008  0.2842E+02  0.2660E+02  0.5620E+01  0.5489E+01
     -7.955  0.2158E+02  0.2307E+02  0.6770E+01  0.6719E+01
     -7.901  0.3271E+02  0.3341E+02  0.8513E+01  0.8499E+01
     -7.848  0.9141E+01  0.9397E+01  0.9000E+01  0.9000E+01
     -7.795  0.9380E+01  0.9381E+01  0.9500E+01  0.9500E+01
     -7.741  0.2713E+02  0.2657E+02  0.1095E+02  0.1092E+02
     -7.688  0.1064E+02  0.1108E+02  0.1151E+02  0.1151E+02
     -7.635  0.1433E+02  0.1365E+02  0.1228E+02  0.1223E+02
     -7.582  0.1783E+02  0.1768E+02  0.1323E+02  0.1318E+02
     -7.528  0.1973E+02  0.1920E+02  0.1428E+02  0.1420E+02
     -7.475  0.3194E+02  0.3320E+02  0.1598E+02  0.1597E+02
     -7.422  0.9075E+01  0.8496E+01  0.1646E+02  0.1642E+02
     -7.368  0.3810E+02  0.3874E+02  0.1849E+02  0.1849E+02
     -7.315  0.1889E+02  0.1900E+02  0.1950E+02  0.1950E+02
     -7.262  0.2084E+02  0.2023E+02  0.2061E+02  0.2058E+02
     -7.209  0.2642E+02  0.2681E+02  0.2202E+02  0.2200E+02
     -7.155  0.4110E+02  0.3997E+02  0.2421E+02  0.2413E+02
     -7.102  0.2425E+02  0.2562E+02  0.2550E+02  0.2550E+02
     -7.049  0.2854E+02  0.2837E+02  0.2702E+02  0.2701E+02
     -6.995  0.1769E+02  0.1529E+02  0.2796E+02  0.2783E+02
     -6.942  0.4378E+02  0.4497E+02  0.3030E+02  0.3022E+02
     -6.889  0.4135E+02  0.4250E+02  0.3250E+02  0.3249E+02
     -6.836  0.4430E+02  0.4269E+02  0.3486E+02  0.3476E+02
     -6.782  0.4264E+02  0.4255E+02  0.3713E+02  0.3703E+02
     -6.729  0.5378E+02  0.5570E+02  0.4000E+02  0.4000E+02
     -6.676  0.3286E+02  0.3114E+02  0.4175E+02  0.4166E+02
     -6.622  0.4531E+02  0.4493E+02  0.4417E+02  0.4405E+02
     -6.569  0.4179E+02  0.4281E+02  0.4639E+02  0.4633E+02
     -6.516  0.3965E+02  0.3797E+02  0.4851E+02  0.4836E+02
     -6.462  0.3284E+02  0.3396E+02  0.5026E+02  0.5017E+02
     -6.409  0.3814E+02  0.3850E+02  0.5229E+02  0.5222E+02
     -6.356  0.6918E+02  0.6939E+02  0.5597E+02  0.5592E+02
     -6.303  0.4616E+02  0.4592E+02  0.5843E+02  0.5836E+02
     -6.249  0.4333E+02  0.4339E+02  0.6074E+02  0.6068E+02
     -6.196  0.5204E+02  0.5088E+02  0.6352E+02  0.6339E+02
     -6.143  0.5931E+02  0.5937E+02  0.6668E+02  0.6655E+02
     -6.089  0.7785E+02  0.7674E+02  0.7083E+02  0.7064E+02
     -6.036  0.6195E+02  0.6311E+02  0.7413E+02  0.7400E+02
     -5.983  0.7672E+02  0.7636E+02  0.7822E+02  0.7807E+02
     -5.930  0.5132E+02  0.5229E+02  0.8095E+02  0.8086E+02
     -5.876  0.7300E+02  0.7031E+02  0.8484E+02  0.8461E+02
     -5.823  0.6232E+02  0.6389E+02  0.8816E+02  0.8801E+02
     -5.770  0.8055E+02  0.7896E+02  0.9246E+02  0.9222E+02
     -5.716  0.9647E+02  0.9798E+02  0.9760E+02  0.9744E+02
     -5.663  0.8538E+02  0.8571E+02  0.1021E+03  0.1020E+03
     -5.610  0.8561E+02  0.8480E+02  0.1067E+03  0.1065E+03
     -5.557  0.6154E+02  0.6011E+02  0.1100E+03  0.1097E+03
     -5.503  0.6902E+02  0.7176E+02  0.1137E+03  0.1136E+03
     -5.450  0.8410E+02  0.8273E+02  0.1181E+03  0.1180E+03
     -5.397  0.7808E+02  0.7914E+02  0.1223E+03  0.1222E+03
     -5.343  0.8268E+02  0.7942E+02  0.1267E+03  0.1264E+03
     -5.290  0.7382E+02  0.7682E+02  0.1306E+03  0.1305E+03
     -5.237  0.7173E+02  0.7033E+02  0.1345E+03  0.1343E+03
     -5.184  0.6741E+02  0.6729E+02  0.1381E+03  0.1378E+03
     -5.130  0.6556E+02  0.6293E+02  0.1416E+03  0.1412E+03
     -5.077  0.7215E+02  0.7586E+02  0.1454E+03  0.1452E+03
     -5.024  0.6634E+02  0.6737E+02  0.1489E+03  0.1488E+03
     -4.970  0.7706E+02  0.7315E+02  0.1530E+03  0.1527E+03
     -4.917  0.6784E+02  0.7008E+02  0.1567E+03  0.1565E+03
     -4.864  0.9816E+02  0.9857E+02  0.1619E+03  0.1617E+03
     -4.810  0.8341E+02  0.8241E+02  0.1663E+03  0.1661E+03
     -4.757  0.9968E+02  0.9696E+02  0.1716E+03  0.1713E+03
     -4.704  0.1153E+03  0.1172E+03  0.1778E+03  0.1775E+03
     -4.651  0.1039E+03  0.1027E+03  0.1833E+03  0.1830E+03
     -4.597  0.9978E+02  0.1020E+03  0.1886E+03  0.1884E+03
     -4.544  0.9277E+02  0.9037E+02  0.1936E+03  0.1932E+03
     -4.491  0.9678E+02  0.9722E+02  0.1987E+03  0.1984E+03
     -4.437  0.9535E+02  0.9424E+02  0.2038E+03  0.2034E+03
     -4.384  0.9063E+02  0.9216E+02  0.2087E+03  0.2084E+03
     -4.331  0.7943E+02  0.7912E+02  0.2129E+03  0.2126E+03
     -4.278  0.9334E+02  0.9632E+02  0.2179E+03  0.2177E+03
     -4.224  0.7619E+02  0.7244E+02  0.2219E+03  0.2216E+03
     -4.171  0.9105E+02  0.9152E+02  0.2268E+03  0.2264E+03
     -4.118  0.9180E+02  0.9347E+02  0.2317E+03  0.2314E+03
     -4.064  0.7744E+02  0.7660E+02  0.2358E+03  0.2355E+03
     -4.011  0.5540E+02  0.5833E+02  0.2388E+03  0.2386E+03
     -3.958  0.3495E+02  0.3603E+02  0.2406E+03  0.2405E+03
     -3.905  0.4746E+02  0.4557E+02  0.2431E+03  0.2430E+03
     -3.851  0.6412E+02  0.6249E+02  0.2466E+03  0.2463E+03
     -3.798  0.4739E+02  0.5032E+02  0.2491E+03  0.2490E+03
     -3.745  0.6822E+02  0.6515E+02  0.2527E+03  0.2524E+03
     -3.691  0.7090E+02  0.7119E+02  0.2565E+03  0.2562E+03
     -3.638  0.7627E+02  0.7432E+02  0.2606E+03  0.2602E+03
     -3.585  0.6677E+02  0.7046E+02  0.2641E+03  0.2640E+03
     -3.531  0.5327E+02  0.5127E+02  0.2670E+03  0.2667E+03
     -3.478  0.8887E+02  0.8827E+02  0.2717E+03  0.2714E+03
     -3.425  0.7198E+02  0.7339E+02  0.2755E+03  0.2753E+03
     -3.372  0.8521E+02  0.8051E+02  0.2801E+03  0.2796E+03
     -3.318  0.7043E+02  0.7457E+02  0.2838E+03  0.2836E+03
     -3.265  0.7585E+02  0.7418E+02  0.2879E+03  0.2875E+03
     -3.212  0.7409E+02  0.7414E+02  0.2918E+03  0.2915E+03
     -3.158  0.6738E+02  0.6835E+02  0.2954E+03  0.2951E+03
     -3.105  0.7314E+02  0.7351E+02  0.2993E+03  0.2990E+03
     -3.052  0.7516E+02  0.7643E+02  0.3033E+03  0.3031E+03
     -2.999  0.6433E+02  0.6336E+02  0.3067E+03  0.3065E+03
     -2.945  0.1009E+03  0.9928E+02  0.3121E+03  0.3118E+03
     -2.892  0.9539E+02  0.9592E+02  0.3172E+03  0.3169E+03
     -2.839  0.7597E+02  0.7443E+02  0.3212E+03  0.3208E+03
     -2.785  0.1107E+03  0.1134E+03  0.3271E+03  0.3269E+03
     -2.732  0.9129E+02  0.9041E+02  0.3320E+03  0.3317E+03
     -2.679  0.1005E+03  0.1002E+03  0.3374E+03  0.3370E+03
     -2.626  0.9307E+02  0.9321E+02  0.3423E+03  0.3420E+03
     -2.572  0.1071E+03  0.1072E+03  0.3480E+03  0.3477E+03
     -2.519  0.1334E+03  0.1312E+03  0.3551E+03  0.3547E+03
     -2.466  0.9881E+02  0.1020E+03  0.3604E+03  0.3602E+03
     -2.412  0.1025E+03  0.1023E+03  0.3659E+03  0.3656E+03
     -2.359  0.8110E+02  0.8156E+02  0.3702E+03  0.3700E+03
     -2.306  0.1013E+03  0.9842E+02  0.3756E+03  0.3752E+03
     -2.253  0.1081E+03  0.1108E+03  0.3814E+03  0.3811E+03
     -2.199  0.4723E+02  0.4905E+02  0.3839E+03  0.3837E+03
     -2.146  0.3664E+02  0.3755E+02  0.3858E+03  0.3857E+03
     -2.093  0.7010E+02  0.6846E+02  0.3896E+03  0.3894E+03
     -2.039  0.7340E+02  0.7269E+02  0.3935E+03  0.3932E+03
     -1.986  0.7769E+02  0.7771E+02  0.3976E+03  0.3974E+03
     -1.933  0.8971E+02  0.8968E+02  0.4024E+03  0.4022E+03
     -1.879  0.1067E+03  0.1066E+03  0.4081E+03  0.4078E+03
     -1.826  0.5670E+02  0.5893E+02  0.4111E+03  0.4110E+03
     -1.773  0.9410E+02  0.9005E+02  0.4161E+03  0.4158E+03
     -1.720  0.1091E+03  0.1100E+03  0.4219E+03  0.4216E+03
     -1.666  0.8987E+02  0.9055E+02  0.4267E+03  0.4265E+03
     -1.613  0.7452E+02  0.7688E+02  0.4307E+03  0.4306E+03
     -1.560  0.9621E+02  0.9466E+02  0.4358E+03  0.4356E+03
     -1.506  0.5188E+02  0.5294E+02  0.4386E+03  0.4384E+03
     -1.453  0.5202E+02  0.5078E+02  0.4414E+03  0.4411E+03
     -1.400  0.5729E+02  0.5832E+02  0.4444E+03  0.4442E+03
     -1.347  0.6912E+02  0.6610E+02  0.4481E+03  0.4478E+03
     -1.293  0.4585E+02  0.5008E+02  0.4505E+03  0.4504E+03
     -1.240  0.4993E+02  0.4735E+02  0.4532E+03  0.4530E+03
     -1.187  0.6589E+02  0.6594E+02  0.4567E+03  0.4565E+03
     -1.133  0.6647E+02  0.6718E+02  0.4602E+03  0.4601E+03
     -1.080  0.3503E+02  0.3520E+02  0.4621E+03  0.4619E+03
     -1.027  0.5750E+02  0.5744E+02  0.4652E+03  0.4650E+03
     -0.974  0.4153E+02  0.4343E+02  0.4674E+03  0.4673E+03
     -0.920  0.2637E+02  0.2509E+02  0.4688E+03  0.4686E+03
     -0.867  0.7083E+02  0.6828E+02  0.4726E+03  0.4723E+03
     -0.814  0.7136E+02  0.7385E+02  0.4764E+03  0.4762E+03
     -0.760  0.4500E+02  0.4654E+02  0.4788E+03  0.4787E+03
     -0.707  0.5459E+02  0.5280E+02  0.4817E+03  0.4815E+03
     -0.654  0.7484E+02  0.7529E+02  0.4857E+03  0.4855E+03
     -0.600  0.4077E+02  0.4145E+02  0.4878E+03  0.4877E+03
     -0.547  0.2655E+02  0.2798E+02  0.4893E+03  0.4892E+03
     -0.494  0.2178E+02  0.2092E+02  0.4904E+03  0.4903E+03
     -0.441  0.3588E+02  0.3522E+02  0.4923E+03  0.4922E+03
     -0.387  0.4008E+02  0.3945E+02  0.4945E+03  0.4943E+03
     -0.334  0.5881E+02  0.5673E+02  0.4976E+03  0.4973E+03
     -0.281  0.7569E+02  0.7709E+02  0.5016E+03  0.5014E+03
     -0.227  0.8890E+02  0.8855E+02  0.5064E+03  0.5062E+03
     -0.174  0.1021E+03  0.1015E+03  0.5118E+03  0.5116E+03
     -0.121  0.1195E+03  0.1172E+03  0.5182E+03  0.5178E+03
     -0.068  0.8914E+02  0.9182E+02  0.5229E+03  0.5227E+03
     -0.014  0.1048E+03  0.1024E+03  0.5285E+03  0.5282E+03
      0.039  0.1104E+03  0.1111E+03  0.5344E+03  0.5341E+03
      0.092  0.1390E+03  0.1385E+03  0.5418E+03  0.5415E+03
      0.146  0.1123E+03  0.1150E+03  0.5478E+03  0.5476E+03
      0.199  0.8248E+02  0.8348E+02  0.5522E+03  0.5520E+03
      0.252  0.8254E+02  0.8215E+02  0.5566E+03  0.5564E+03
      0.305  0.8545E+02  0.8193E+02  0.5611E+03  0.5608E+03
      0.359  0.9629E+02  0.9849E+02  0.5663E+03  0.5660E+03
      0.412  0.1030E+03  0.1020E+03  0.5718E+03  0.5715E+03
      0.465  0.8655E+02  0.8777E+02  0.5764E+03  0.5762E+03
      0.519  0.1013E+03  0.9938E+02  0.5818E+03  0.5814E+03
      0.572  0.1179E+03  0.1199E+03  0.5881E+03  0.5878E+03
      0.625  0.1209E+03  0.1206E+03  0.5945E+03  0.5943E+03
      0.678  0.1258E+03  0.1213E+03  0.6012E+03  0.6007E+03
      0.732  0.1508E+03  0.1545E+03  0.6092E+03  0.6090E+03
      0.785  0.1261E+03  0.1226E+03  0.6160E+03  0.6155E+03
      0.838  0.1023E+03  0.1062E+03  0.6214E+03  0.6212E+03
      0.892  0.1259E+03  0.1257E+03  0.6281E+03  0.6279E+03
      0.945  0.9462E+02  0.9438E+02  0.6332E+03  0.6329E+03
      0.998  0.1163E+03  0.1152E+03  0.6394E+03  0.6390E+03
      1.052  0.1412E+03  0.1399E+03  0.6469E+03  0.6465E+03
      1.105  0.1776E+03  0.1770E+03  0.6564E+03  0.6559E+03
      1.158  0.1686E+03  0.1696E+03  0.6653E+03  0.6649E+03
      1.211  0.1737E+03  0.1716E+03  0.6746E+03  0.6741E+03
      1.265  0.1791E+03  0.1793E+03  0.6841E+03  0.6836E+03
      1.318  0.1928E+03  0.1925E+03  0.6944E+03  0.6939E+03
      1.371  0.1751E+03  0.1758E+03  0.7037E+03  0.7033E+03
      1.425  0.1366E+03  0.1396E+03  0.7110E+03  0.7107E+03
      1.478  0.1573E+03  0.1526E+03  0.7194E+03  0.7188E+03
      1.531  0.2072E+03  0.2062E+03  0.7305E+03  0.7298E+03
      1.584  0.1887E+03  0.1906E+03  0.7405E+03  0.7400E+03
      1.638  0.1888E+03  0.1906E+03  0.7506E+03  0.7501E+03
      1.691  0.1789E+03  0.1737E+03  0.7601E+03  0.7594E+03
      1.744  0.1960E+03  0.1978E+03  0.7705E+03  0.7699E+03
      1.798  0.1701E+03  0.1736E+03  0.7796E+03  0.7792E+03
      1.851  0.1639E+03  0.1656E+03  0.7883E+03  0.7880E+03
      1.904  0.1657E+03  0.1593E+03  0.7972E+03  0.7965E+03
      1.957  0.2190E+03  0.2200E+03  0.8088E+03  0.8082E+03
      2.011  0.1592E+03  0.1644E+03  0.8173E+03  0.8170E+03
      2.064  0.1773E+03  0.1728E+03  0.8268E+03  0.8262E+03
      2.117  0.2102E+03  0.2117E+03  0.8380E+03  0.8375E+03
      2.171  0.1813E+03  0.1829E+03  0.8476E+03  0.8472E+03
      2.224  0.1276E+03  0.1255E+03  0.8544E+03  0.8539E+03
      2.277  0.1682E+03  0.1666E+03  0.8634E+03  0.8628E+03
      2.331  0.1557E+03  0.1559E+03  0.8717E+03  0.8711E+03
      2.384  0.1933E+03  0.1908E+03  0.8820E+03  0.8813E+03
      2.437  0.1705E+03  0.1769E+03  0.8911E+03  0.8907E+03
      2.490  0.1251E+03  0.1202E+03  0.8978E+03  0.8971E+03
      2.544  0.1528E+03  0.1569E+03  0.9059E+03  0.9055E+03
      2.597  0.1195E+03  0.1171E+03  0.9123E+03  0.9117E+03
      2.650  0.1399E+03  0.1415E+03  0.9197E+03  0.9193E+03
      2.704  0.1023E+03  0.1018E+03  0.9252E+03  0.9247E+03
      2.757  0.1706E+03  0.1667E+03  0.9343E+03  0.9336E+03
      2.810  0.1383E+03  0.1411E+03  0.9416E+03  0.9411E+03
      2.863  0.1456E+03  0.1439E+03  0.9494E+03  0.9488E+03
      2.917  0.1536E+03  0.1567E+03  0.9576E+03  0.9571E+03
      2.970  0.1050E+03  0.1067E+03  0.9632E+03  0.9628E+03
      3.023  0.1348E+03  0.1293E+03  0.9704E+03  0.9697E+03
      3.077  0.1252E+03  0.1250E+03  0.9770E+03  0.9763E+03
      3.130  0.1081E+03  0.1087E+03  0.9828E+03  0.9821E+03
      3.183  0.1109E+03  0.1134E+03  0.9887E+03  0.9882E+03
      3.236  0.1079E+03  0.1088E+03  0.9945E+03  0.9940E+03
      3.290  0.1065E+03  0.1061E+03  0.1000E+04  0.9996E+03
      3.343  0.1023E+03  0.1025E+03  0.1006E+04  0.1005E+04
      3.396  0.9021E+02  0.9404E+02  0.1010E+04  0.1010E+04
      3.450  0.7078E+02  0.6375E+02  0.1014E+04  0.1013E+04
      3.503  0.1030E+03  0.1039E+03  0.1020E+04  0.1019E+04
      3.556  0.9307E+02  0.9793E+02  0.1025E+04  0.1024E+04
      3.609  0.1104E+03  0.1037E+03  0.1030E+04  0.1030E+04
      3.663  0.6745E+02  0.7260E+02  0.1034E+04  0.1034E+04
      3.716  0.5607E+02  0.6084E+02  0.1037E+04  0.1037E+04
      3.769  0.3945E+02  0.3158E+02  0.1039E+04  0.1039E+04
      3.823  0.5472E+02  0.5854E+02  0.1042E+04  0.1042E+04
      3.876  0.3749E+02  0.4291E+02  0.1044E+04  0.1044E+04
      3.929  0.5694E+02  0.4524E+02  0.1047E+04  0.1046E+04
      3.983  0.6326E+02  0.6361E+02  0.1050E+04  0.1050E+04
      4.036  0.1059E+03  0.9197E+02  0.1056E+04  0.1055E+04
      4.089  0.1198E+03  0.1191E+03  0.1063E+04  0.1061E+04
      4.142  0.7279E+02  0.9136E+02  0.1066E+04  0.1066E+04
      4.196  0.1047E+03  0.9907E+02  0.1072E+04  0.1071E+04
      4.249  0.8960E+02  0.8523E+02  0.1077E+04  0.1076E+04
      4.302  0.1249E+03  0.1266E+03  0.1083E+04  0.1082E+04
      4.356  0.1076E+03  0.1089E+03  0.1089E+04  0.1088E+04
      4.409  0.1300E+03  0.1363E+03  0.1096E+04  0.1096E+04
      4.462  0.1165E+03  0.1038E+03  0.1102E+04  0.1101E+04
      4.515  0.1044E+03  0.1166E+03  0.1108E+04  0.1107E+04
      4.569  0.1171E+03  0.1088E+03  0.1114E+04  0.1113E+04
      4.622  0.1145E+03  0.1166E+03  0.1120E+04  0.1119E+04
      4.675  0.9764E+02  0.1032E+03  0.1125E+04  0.1125E+04
      4.729  0.1185E+03  0.1128E+03  0.1132E+04  0.1131E+04
      4.782  0.1172E+03  0.1192E+03  0.1138E+04  0.1137E+04
      4.835  0.1208E+03  0.1221E+03  0.1144E+04  0.1144E+04
      4.888  0.1169E+03  0.1140E+03  0.1151E+04  0.1150E+04
      4.942  0.1257E+03  0.1254E+03  0.1157E+04  0.1156E+04
      4.995  0.1156E+03  0.1115E+03  0.1163E+04  0.1162E+04
      5.048  0.1384E+03  0.1435E+03  0.1171E+04  0.1170E+04
      5.102  0.1037E+03  0.1083E+03  0.1176E+04  0.1176E+04
      5.155  0.1097E+03  0.1070E+03  0.1182E+04  0.1181E+04
      5.208  0.9835E+02  0.1002E+03  0.1187E+04  0.1187E+04
      5.262  0.8937E+02  0.9470E+02  0.1192E+04  0.1192E+04
      5.315  0.1048E+03  0.9930E+02  0.1198E+04  0.1197E+04
      5.368  0.1224E+03  0.1205E+03  0.1204E+04  0.1204E+04
      5.421  0.1194E+03  0.1255E+03  0.1211E+04  0.1210E+04
      5.475  0.1427E+03  0.1392E+03  0.1218E+04  0.1218E+04
      5.528  0.1554E+03  0.1550E+03  0.1227E+04  0.1226E+04
      5.581  0.1367E+03  0.1358E+03  0.1234E+04  0.1233E+04
      5.635  0.1366E+03  0.1397E+03  0.1241E+04  0.1241E+04
      5.688  0.1122E+03  0.1143E+03  0.1247E+04  0.1247E+04
      5.741  0.1178E+03  0.1167E+03  0.1253E+04  0.1253E+04
      5.794  0.1176E+03  0.1186E+03  0.1260E+04  0.1259E+04
      5.848  0.1353E+03  0.1327E+03  0.1267E+04  0.1266E+04
      5.901  0.8262E+02  0.8749E+02  0.1271E+04  0.1271E+04
      5.954  0.1332E+02  0.1881E+02  0.1272E+04  0.1272E+04
      6.008  0.0000E+00  0.0000E+00  0.1272E+04  0.1272E+04
      6.061  0.0000E+00  0.0000E+00  0.1272E+04  0.1272E+04
      6.114  0.0000E+00  0.0000E+00  0.1272E+04  0.1272E+04
      6.167  0.0000E+00  0.0000E+00  0.1272E+04  0.1272E+04
      6.221  0.0000E+00  0.0000E+00  0.1272E+04  0.1272E+04
      6.274  0.0000E+00  0.0000E+00  0.1272E+04  0.1272E+04
      6.327  0.0000E+00  0.0000E+00  0.1272E+04  0.1272E+04
      6.381  0.0000E+00  0.0000E+00  0.1272E+04  0.1272E+04
      6.434  0.0000E+00  0.0000E+00  0.1272E+04  0.1272E+04
      6.487  0.0000E+00  0.0000E+00  0.1272E+04  0.1272E+04
      6.540  0.0000E+00  0.0000E+00  0.1272E+04  0.1272E+04
      6.594  0.0000E+00  0.0000E+00  0.1272E+04  0.1272E+04
      6.647  0.0000E+00  0.0000E+00  0.1272E+04  0.1272E+04
