 vasp.6.4.3 19Mar24 (build Oct 22 2024 11:23:12) complex                        
  
 executed on             LinuxIFC date 2025.04.30  07:06:56
 running   16 mpi-ranks, on    1 nodes
 distrk:  each k-point on   16 cores,    1 groups
 distr:  one band on NCORE=  16 cores,    1 groups


--------------------------------------------------------------------------------------------------------


 INCAR:
   SYSTEM = Si011 and Ge011 interface calculation
   ISTART = 0
   ICHARG = 2
   LWAVE = .FALSE.
   LREAL = AUTO
   ENCUT = 700
   ENAUG = 900
   ADDGRID = .TRUE.
   LMAXMIX = 6
   LASPH = .TRUE.
   LMIXTAU = .TRUE.
   NCORE = 16
   NELM = 100
   NBANDS = 346
   EDIFF = 1d-7
   AMIX = 0.6
   ISMEAR = 0
   SIGMA = 0.01
   NELECT = 576
   ISPIN = 2
   NUPDOWN = 1
   LVTOT = .FALSE.
   LVHAR = .TRUE.

 POTCAR:    PAW_PBE Si 05Jan2001                  
 POTCAR:    PAW_PBE Ge 05Jan2001                  
 -----------------------------------------------------------------------------
|                                                                             |
|           W    W    AA    RRRRR   N    N  II  N    N   GGGG   !!!           |
|           W    W   A  A   R    R  NN   N  II  NN   N  G    G  !!!           |
|           W    W  A    A  R    R  N N  N  II  N N  N  G       !!!           |
|           W WW W  AAAAAA  RRRRR   N  N N  II  N  N N  G  GGG   !            |
|           WW  WW  A    A  R   R   N   NN  II  N   NN  G    G                |
|           W    W  A    A  R    R  N    N  II  N    N   GGGG   !!!           |
|                                                                             |
|     You use a magnetic or noncollinear calculation, but did not specify     |
|     the initial magnetic moment with the MAGMOM tag. Note that a            |
|     default of 6.944e-3 will be used for all atoms. This ferromagnetic      |
|     setup may break the symmetry of the crystal, in particular it may       |
|     rule out finding an antiferromagnetic solution. Thence, we              |
|     recommend setting the initial magnetic moment manually or verifying     |
|     carefully that this magnetic setup is desired.                          |
|                                                                             |
 -----------------------------------------------------------------------------

 -----------------------------------------------------------------------------
|                                                                             |
|           W    W    AA    RRRRR   N    N  II  N    N   GGGG   !!!           |
|           W    W   A  A   R    R  NN   N  II  NN   N  G    G  !!!           |
|           W    W  A    A  R    R  N N  N  II  N N  N  G       !!!           |
|           W WW W  AAAAAA  RRRRR   N  N N  II  N  N N  G  GGG   !            |
|           WW  WW  A    A  R   R   N   NN  II  N   NN  G    G                |
|           W    W  A    A  R    R  N    N  II  N    N   GGGG   !!!           |
|                                                                             |
|     For optimal performance we recommend to set                             |
|       NCORE = 2 up to number-of-cores-per-socket                            |
|     NCORE specifies how many cores store one orbital (NPAR=cpu/NCORE).      |
|     This setting can greatly improve the performance of VASP for DFT.       |
|     The default, NCORE=1 might be grossly inefficient on modern             |
|     multi-core architectures or massively parallel machines. Do your        |
|     own testing! More info at https://www.vasp.at/wiki/index.php/NCORE      |
|     Unfortunately you need to use the default for GW and RPA                |
|     calculations (for HF NCORE is supported but not extensively tested      |
|     yet).                                                                   |
|                                                                             |
 -----------------------------------------------------------------------------

 POTCAR:    PAW_PBE Si 05Jan2001                  
   VRHFIN =Si: s2p2                                                                                 
   LEXCH  = PE                                                                                      
   EATOM  =   103.0669 eV,    7.5752 Ry                                                             
                                                                                                    
   TITEL  = PAW_PBE Si 05Jan2001                                                                    
   LULTRA =        F    use ultrasoft PP ?                                                          
   IUNSCR =        1    unscreen: 0-lin 1-nonlin 2-no                                               
   RPACOR =    1.500    partial core radius                                                         
   POMASS =   28.085; ZVAL   =    4.000    mass and valenz                                          
   RCORE  =    1.900    outmost cutoff radius                                                       
   RWIGS  =    2.480; RWIGS  =    1.312    wigner-seitz radius (au A)                               
   ENMAX  =  245.345; ENMIN  =  184.009 eV                                                          
   ICORE  =        2    local potential                                                             
   LCOR   =        T    correct aug charges                                                         
   LPAW   =        T    paw PP                                                                      
   EAUG   =  322.069                                                                                
   DEXC   =    0.000                                                                                
   RMAX   =    1.950    core radius for proj-oper                                                   
   RAUG   =    1.300    factor for augmentation sphere                                              
   RDEP   =    1.993    radius for radial grids                                                     
   RDEPT  =    1.837    core radius for aug-charge                                                  
                                                                                                    
   Atomic configuration                                                                             
    6 entries                                                                                       
     n  l   j            E        occ.                                                              
     1  0  0.50     -1785.8828   2.0000                                                             
     2  0  0.50      -139.4969   2.0000                                                             
     2  1  1.50       -95.5546   6.0000                                                             
     3  0  0.50       -10.8127   2.0000                                                             
     3  1  0.50        -4.0811   2.0000                                                             
     3  2  1.50        -4.0817   0.0000                                                             
   Description                                                                                      
     l       E           TYP  RCUT    TYP  RCUT                                                     
     0    -10.8127223     23  1.900                                                                 
     0     -7.6451159     23  1.900                                                                 
     1     -4.0811372     23  1.900                                                                 
     1      2.4879257     23  1.900                                                                 
     2     -4.0817478      7  1.900                                                                 
  local pseudopotential read in
  partial core-charges read in
  partial kinetic energy density read in
  atomic valenz-charges read in
  non local Contribution for L=           0  read in
    real space projection operators read in
  non local Contribution for L=           0  read in
    real space projection operators read in
  non local Contribution for L=           1  read in
    real space projection operators read in
  non local Contribution for L=           1  read in
    real space projection operators read in
    PAW grid and wavefunctions read in
 
   number of l-projection  operators is LMAX  =           4
   number of lm-projection operators is LMMAX =           8
 
 POTCAR:    PAW_PBE Ge 05Jan2001                  
   VRHFIN =Ge: s2p2                                                                                 
   LEXCH  = PE                                                                                      
   EATOM  =   104.9960 eV,    7.7170 Ry                                                             
                                                                                                    
   TITEL  = PAW_PBE Ge 05Jan2001                                                                    
   LULTRA =        F    use ultrasoft PP ?                                                          
   IUNSCR =        1    unscreen: 0-lin 1-nonlin 2-no                                               
   RPACOR =    2.170    partial core radius                                                         
   POMASS =   72.610; ZVAL   =    4.000    mass and valenz                                          
   RCORE  =    2.300    outmost cutoff radius                                                       
   RWIGS  =    2.300; RWIGS  =    1.217    wigner-seitz radius (au A)                               
   ENMAX  =  173.807; ENMIN  =  130.355 eV                                                          
   ICORE  =        3    local potential                                                             
   LCOR   =        T    correct aug charges                                                         
   LPAW   =        T    paw PP                                                                      
   EAUG   =  385.843                                                                                
   DEXC   =    0.000                                                                                
   RMAX   =    2.342    core radius for proj-oper                                                   
   RAUG   =    1.300    factor for augmentation sphere                                              
   RDEP   =    2.318    radius for radial grids                                                     
   RDEPT  =    2.103    core radius for aug-charge                                                  
                                                                                                    
   Atomic configuration                                                                             
   10 entries                                                                                       
     n  l   j            E        occ.                                                              
     1  0  0.50    -10959.8463   2.0000                                                             
     2  0  0.50     -1371.6056   2.0000                                                             
     2  1  1.50     -1198.4791   6.0000                                                             
     3  0  0.50      -168.4733   2.0000                                                             
     3  1  1.50      -115.6019   6.0000                                                             
     3  2  2.50       -29.3106  10.0000                                                             
     4  0  0.50       -11.7309   2.0000                                                             
     4  1  0.50        -3.8952   2.0000                                                             
     4  2  1.50        -4.0817   0.0000                                                             
     4  3  2.50        -4.0817   0.0000                                                             
   Description                                                                                      
     l       E           TYP  RCUT    TYP  RCUT                                                     
     0    -11.7309493     23  2.300                                                                 
     0     -7.4578696     23  2.300                                                                 
     1     -3.8952261     23  2.300                                                                 
     1      6.1178114     23  2.300                                                                 
     2     -4.0817478     23  2.300                                                                 
     3     -1.3605826      7  2.300                                                                 
  local pseudopotential read in
  partial core-charges read in
  partial kinetic energy density read in
  atomic valenz-charges read in
  non local Contribution for L=           0  read in
    real space projection operators read in
  non local Contribution for L=           0  read in
    real space projection operators read in
  non local Contribution for L=           1  read in
    real space projection operators read in
  non local Contribution for L=           1  read in
    real space projection operators read in
  non local Contribution for L=           2  read in
    real space projection operators read in
    PAW grid and wavefunctions read in
 
   number of l-projection  operators is LMAX  =           5
   number of lm-projection operators is LMMAX =          13
 
 Optimization of the real space projectors (new method)

 maximal supplied QI-value         = 19.84
 optimisation between [QCUT,QGAM] = [ 13.49, 26.99] = [ 50.98,203.92] Ry 
 Optimized for a Real-space Cutoff    1.07 Angstroem

   l    n(q)    QCUT    max X(q) W(low)/X(q) W(high)/X(q)  e(spline) 
   0      9    13.493   159.560    0.22E-03    0.15E-03    0.72E-07
   0      9    13.493   115.863    0.21E-03    0.15E-03    0.71E-07
   1      8    13.493    88.339    0.15E-03    0.11E-03    0.13E-06
   1      8    13.493    48.592    0.15E-03    0.10E-03    0.13E-06
 Optimization of the real space projectors (new method)

 maximal supplied QI-value         = 16.25
 optimisation between [QCUT,QGAM] = [ 13.49, 26.98] = [ 50.95,203.80] Ry 
 Optimized for a Real-space Cutoff    1.25 Angstroem

   l    n(q)    QCUT    max X(q) W(low)/X(q) W(high)/X(q)  e(spline) 
   0     10    13.489    65.336    0.91E-04    0.11E-03    0.34E-06
   0     10    13.489    52.220    0.89E-04    0.11E-03    0.34E-06
   1     10    13.489    36.409    0.22E-03    0.27E-03    0.14E-06
   1     10    13.489    21.334    0.21E-03    0.27E-03    0.14E-06
   2      9    13.489     4.673    0.11E-03    0.12E-03    0.19E-06
  PAW_PBE Si 05Jan2001                  :
 energy of atom  1       EATOM= -103.0669
 kinetic energy error for atom=    0.0003 (will be added to EATOM!!)
  PAW_PBE Ge 05Jan2001                  :
 energy of atom  2       EATOM= -104.9960
 kinetic energy error for atom=    0.0001 (will be added to EATOM!!)
 
 
 POSCAR: fcc Si+fcc Ge
  positions in direct lattice
  No initial velocities read in


 exchange-correlation table for PE
   RHO(1)=    0.500       N(1)  =     2000
   RHO(2)=  100.500       N(2)  =     4000
 


--------------------------------------------------------------------------------------------------------


 ion  position               nearest neighbor table
   1  0.000  0.000  0.000-  49 2.37  38 2.37  55 2.37  31 2.56 114 2.70
   2  0.000  0.750  0.080-  39 2.37  50 2.37  55 2.37  56 2.37
   3  0.000  0.500  0.161-  56 2.37  51 2.37  40 2.37  57 2.37
   4  0.000  0.250  0.241-  52 2.37  41 2.37  57 2.37  58 2.37
   5  0.126  0.325  0.493-  97 2.37  12 2.37  74 2.43 103 2.70
   6  0.000  0.750  0.402-  54 2.37  59 2.37  60 2.37  36 2.56 109 2.70
   7  0.043  0.408  0.909- 126 2.37  20 2.37 131 2.43  37 2.45 108 2.56
   8  0.333  0.083  0.080-  45 2.37  62 2.37  38 2.37  61 2.37
   9  0.333  0.833  0.161-  62 2.37  63 2.37  39 2.37  46 2.37
  10  0.333  0.583  0.241-  64 2.37  40 2.37  63 2.37  47 2.37
  11  0.333  0.333  0.322-  65 2.37  41 2.37  64 2.37  48 2.37
  12  0.043  0.158  0.493- 121 2.37   5 2.37 110 2.43  42 2.45 103 2.56
  13  0.459  0.241  0.909-  84 2.37  19 2.37 101 2.43  61 2.45  78 2.79
  14  0.667  0.417  0.080-  51 2.37  44 2.37  67 2.37  68 2.37
  15  0.667  0.167  0.161-  68 2.37  45 2.37  52 2.37  69 2.37
  16  0.667  0.917  0.241-  46 2.37  53 2.37  69 2.37  70 2.37
  17  0.667  0.667  0.322-  47 2.37  54 2.37  70 2.37  71 2.37
  18  0.459  0.991  0.493-  79 2.37  24 2.37  80 2.43  66 2.45  73 2.79
  19  0.709  0.241  0.909-  13 2.37 126 2.37 125 2.43  96 2.45
  20  0.126  0.575  0.909- 102 2.37   7 2.37  95 2.43 108 2.70
  21  0.000  0.000  0.161-  38 2.37  69 2.37  58 2.37  39 2.37
  22  0.000  0.750  0.241-  70 2.37  59 2.37  39 2.37  40 2.37
  23  0.000  0.500  0.322-  71 2.37  60 2.37  40 2.37  41 2.37
  24  0.709  0.991  0.493-  18 2.37 121 2.37 140 2.43  91 2.45
  25  0.126  0.825  0.826-  83 2.37  95 2.37  76 2.43  31 2.43
  26  0.333  0.583  0.080-  63 2.37  44 2.37  56 2.37  43 2.37
  27  0.333  0.333  0.161-  44 2.37  45 2.37  57 2.37  64 2.37
  28  0.333  0.083  0.241-  46 2.37  58 2.37  45 2.37  65 2.37
  29  0.333  0.833  0.322-  47 2.37  59 2.37  46 2.37  66 2.37
  30  0.126  0.575  0.576-  98 2.37  74 2.37  75 2.43  36 2.43
  31  0.043  0.908  0.909- 144 2.37 114 2.37  25 2.43  55 2.45   1 2.56
  32  0.667  0.917  0.080-  69 2.37  62 2.37  49 2.37  50 2.37
  33  0.667  0.667  0.161-  50 2.37  63 2.37  70 2.37  51 2.37
  34  0.667  0.417  0.241-  64 2.37  51 2.37  71 2.37  52 2.37
  35  0.667  0.167  0.322-  65 2.37  52 2.37  72 2.37  53 2.37
  36  0.043  0.658  0.493- 139 2.37 109 2.37  30 2.43  60 2.45   6 2.56
  37  0.083  0.333  0.000-  78 2.37 132 2.37 108 2.37   7 2.45
  38  0.083  0.083  0.080-  21 2.37   8 2.37   1 2.37 132 2.37
  39  0.083  0.833  0.161-   2 2.37   9 2.37  22 2.37  21 2.37
  40  0.083  0.583  0.241-  10 2.37   3 2.37  23 2.37  22 2.37
  41  0.083  0.333  0.322-  11 2.37   4 2.37 103 2.37  23 2.37
  42  0.083  0.083  0.402-  73 2.37 127 2.37 103 2.37  12 2.45
  43  0.417  0.667  0.000- 113 2.37 138 2.37  26 2.37 120 2.45 102 2.55
  44  0.417  0.417  0.080-  27 2.37  26 2.37  14 2.37  78 2.37
  45  0.417  0.167  0.161-   8 2.37  27 2.37  15 2.37  28 2.37
  46  0.417  0.917  0.241-  28 2.37  16 2.37   9 2.37  29 2.37
  47  0.417  0.667  0.322-  29 2.37  17 2.37  10 2.37 128 2.37
  48  0.417  0.417  0.402- 128 2.37 133 2.37  11 2.37 115 2.45  97 2.55
  49  0.750  0.000  0.000-   1 2.37  32 2.37  96 2.37 144 2.56
  50  0.750  0.750  0.080-  33 2.37   2 2.37 138 2.37  32 2.37
  51  0.750  0.500  0.161-  14 2.37   3 2.37  34 2.37  33 2.37
  52  0.750  0.250  0.241-   4 2.37  15 2.37  35 2.37  34 2.37
  53  0.750  0.000  0.322- 127 2.37  91 2.37  16 2.37  35 2.37
  54  0.750  0.750  0.402-   6 2.37  17 2.37  91 2.37 139 2.56
  55  0.083  0.833  0.000- 113 2.37   2 2.37   1 2.37  31 2.45
  56  0.083  0.583  0.080-   3 2.37  26 2.37 108 2.37   2 2.37
  57  0.083  0.333  0.161- 132 2.37  27 2.37   4 2.37   3 2.37
  58  0.083  0.083  0.241-  28 2.37  21 2.37 127 2.37   4 2.37
  59  0.083  0.833  0.322-  29 2.37  22 2.37   6 2.37 127 2.37
  60  0.083  0.583  0.402- 128 2.37  23 2.37   6 2.37  36 2.45
  61  0.417  0.167  0.000-  78 2.37  96 2.37   8 2.37  13 2.45  84 2.55
  62  0.417  0.917  0.080-   9 2.37   8 2.37  32 2.37 113 2.37
  63  0.417  0.667  0.161-  26 2.37   9 2.37  33 2.37  10 2.37
  64  0.417  0.417  0.241-  10 2.37  34 2.37  27 2.37  11 2.37
  65  0.417  0.167  0.322-  11 2.37  35 2.37  28 2.37  73 2.37
  66  0.417  0.917  0.402-  73 2.37  91 2.37  29 2.37  18 2.45  79 2.55
  67  0.750  0.500  0.000- 108 2.37  14 2.37 138 2.37 126 2.56
  68  0.750  0.250  0.080-  15 2.37 132 2.37  96 2.37  14 2.37
  69  0.750  0.000  0.161-  32 2.37  21 2.37  16 2.37  15 2.37
  70  0.750  0.750  0.241-  22 2.37  17 2.37  33 2.37  16 2.37
  71  0.750  0.500  0.322-  23 2.37  34 2.37 133 2.37  17 2.37
  72  0.750  0.250  0.402- 103 2.37  35 2.37 133 2.37 121 2.56
  73  0.333  0.083  0.402-  66 2.37  42 2.37  65 2.37  18 2.79
  74  0.043  0.408  0.576- 122 2.37  30 2.37 111 2.43   5 2.43
  75  0.043  0.658  0.660- 123 2.37 129 2.37  30 2.43 112 2.43
  76  0.043  0.908  0.743- 124 2.37 130 2.37  25 2.43 129 2.43
  77  0.043  0.158  0.826- 125 2.37 131 2.37 130 2.43 114 2.43
  78  0.333  0.333  0.000-  61 2.37  37 2.37  44 2.37  13 2.79
  79  0.376  0.825  0.493-  18 2.37 109 2.37 116 2.43  66 2.55
  80  0.376  0.075  0.576- 134 2.37 110 2.37 117 2.43  18 2.43
  81  0.376  0.325  0.660- 135 2.37 111 2.37 134 2.43 118 2.43
  82  0.376  0.575  0.743- 136 2.37 112 2.37 119 2.43 135 2.43
  83  0.376  0.825  0.826- 137 2.37  25 2.37 136 2.43 120 2.43
  84  0.376  0.075  0.909-  13 2.37 114 2.37 137 2.43  61 2.55
  85  0.709  0.491  0.493- 115 2.37 139 2.37 122 2.43 133 2.45
  86  0.709  0.741  0.576- 116 2.37 140 2.37 139 2.43 123 2.43
  87  0.709  0.991  0.660- 117 2.37 141 2.37 140 2.43 124 2.43
  88  0.709  0.241  0.743- 118 2.37 142 2.37 125 2.43 141 2.43
  89  0.709  0.491  0.826- 119 2.37 143 2.37 142 2.43 126 2.43
  90  0.709  0.741  0.909- 120 2.37 144 2.37 143 2.43 138 2.45
  91  0.667  0.917  0.402-  66 2.37  53 2.37  54 2.37  24 2.45
  92  0.043  0.908  0.576- 140 2.37 110 2.37 129 2.43 109 2.43
  93  0.043  0.158  0.660- 141 2.37 111 2.37 130 2.43 110 2.43
  94  0.043  0.408  0.743- 142 2.37 112 2.37 131 2.43 111 2.43
  95  0.043  0.658  0.826- 143 2.37  25 2.37 112 2.43  20 2.43
  96  0.667  0.167  0.000-  61 2.37  68 2.37  49 2.37  19 2.45
  97  0.376  0.325  0.493- 115 2.37   5 2.37 134 2.43  48 2.55
  98  0.376  0.575  0.576- 116 2.37  30 2.37 115 2.43 135 2.43
  99  0.376  0.825  0.660- 117 2.37 129 2.37 116 2.43 136 2.43
 100  0.376  0.075  0.743- 118 2.37 130 2.37 137 2.43 117 2.43
 101  0.376  0.325  0.826- 119 2.37 131 2.37 118 2.43  13 2.43
 102  0.376  0.575  0.909- 120 2.37  20 2.37 119 2.43  43 2.55
 103  0.000  0.250  0.402-  72 2.37  41 2.37  42 2.37  12 2.56   5 2.70
 104  0.709  0.241  0.576- 134 2.37 122 2.37 121 2.43 141 2.43
 105  0.709  0.491  0.660- 135 2.37 123 2.37 122 2.43 142 2.43
 106  0.709  0.741  0.743- 136 2.37 124 2.37 143 2.43 123 2.43
 107  0.709  0.991  0.826- 137 2.37 125 2.37 124 2.43 144 2.43
 108  0.000  0.500  0.000-  67 2.37  56 2.37  37 2.37   7 2.56  20 2.70
 109  0.126  0.825  0.493-  79 2.37  36 2.37  92 2.43   6 2.70
 110  0.126  0.075  0.576-  80 2.37  92 2.37  12 2.43  93 2.43
 111  0.126  0.325  0.660-  81 2.37  93 2.37  74 2.43  94 2.43
 112  0.126  0.575  0.743-  82 2.37  94 2.37  95 2.43  75 2.43
 113  0.333  0.833  0.000-  43 2.37  55 2.37  62 2.37 120 2.79
 114  0.126  0.075  0.909-  84 2.37  31 2.37  77 2.43   1 2.70
 115  0.459  0.491  0.493-  97 2.37  85 2.37  98 2.43  48 2.45 128 2.79
 116  0.459  0.741  0.576-  98 2.37  86 2.37  79 2.43  99 2.43
 117  0.459  0.991  0.660-  99 2.37  87 2.37  80 2.43 100 2.43
 118  0.459  0.241  0.743- 100 2.37  88 2.37 101 2.43  81 2.43
 119  0.459  0.491  0.826- 101 2.37  89 2.37  82 2.43 102 2.43
 120  0.459  0.741  0.909- 102 2.37  90 2.37  83 2.43  43 2.45 113 2.79
 121  0.793  0.158  0.493-  12 2.37  24 2.37 104 2.43  72 2.56
 122  0.793  0.408  0.576-  74 2.37 104 2.37  85 2.43 105 2.43
 123  0.793  0.658  0.660-  75 2.37 105 2.37  86 2.43 106 2.43
 124  0.793  0.908  0.743-  76 2.37 106 2.37 107 2.43  87 2.43
 125  0.793  0.158  0.826-  77 2.37 107 2.37  88 2.43  19 2.43
 126  0.793  0.408  0.909-   7 2.37  19 2.37  89 2.43  67 2.56
 127  0.000  0.000  0.322-  53 2.37  42 2.37  58 2.37  59 2.37
 128  0.333  0.583  0.402-  48 2.37  60 2.37  47 2.37 115 2.79
 129  0.126  0.825  0.660-  99 2.37  75 2.37  92 2.43  76 2.43
 130  0.126  0.075  0.743- 100 2.37  76 2.37  77 2.43  93 2.43
 131  0.126  0.325  0.826- 101 2.37  77 2.37  94 2.43   7 2.43
 132  0.000  0.250  0.080-  57 2.37  68 2.37  37 2.37  38 2.37
 133  0.667  0.417  0.402-  48 2.37  71 2.37  72 2.37  85 2.45
 134  0.459  0.241  0.576-  80 2.37 104 2.37  97 2.43  81 2.43
 135  0.459  0.491  0.660-  81 2.37 105 2.37  98 2.43  82 2.43
 136  0.459  0.741  0.743-  82 2.37 106 2.37  83 2.43  99 2.43
 137  0.459  0.991  0.826-  83 2.37 107 2.37 100 2.43  84 2.43
 138  0.667  0.667  0.000-  43 2.37  50 2.37  67 2.37  90 2.45
 139  0.793  0.658  0.493-  36 2.37  85 2.37  86 2.43  54 2.56
 140  0.793  0.908  0.576-  92 2.37  86 2.37  87 2.43  24 2.43
 141  0.793  0.158  0.660-  93 2.37  87 2.37  88 2.43 104 2.43
 142  0.793  0.408  0.743-  94 2.37  88 2.37  89 2.43 105 2.43
 143  0.793  0.658  0.826-  95 2.37  89 2.37 106 2.43  90 2.43
 144  0.793  0.908  0.909-  31 2.37  90 2.37 107 2.43  49 2.56
 
  LATTYP: Found a simple orthorhombic cell.
 ALAT       =     9.4916384250
 B/A-ratio  =     1.4142135624
 C/A-ratio  =     2.5383314005
  
  Lattice vectors:
  
 A1 = (   9.4916384250,   0.0000000000,   0.0000000000)
 A2 = (   0.0000000000,  13.4232037900,   0.0000000000)
 A3 = (   0.0000000000,   0.0000000000,  24.0929238560)


Analysis of symmetry for initial positions (statically):
=====================================================================
 Subroutine PRICEL returns:
 Original cell was already a primitive cell.
 

 Routine SETGRP: Setting up the symmetry group for a 
 simple orthorhombic supercell.


 Subroutine GETGRP returns: Found  1 space group operations
 (whereof  1 operations were pure point group operations)
 out of a pool of  8 trial point group operations.


The static configuration has the point symmetry C_1 .


Analysis of symmetry for dynamics (positions and initial velocities):
=====================================================================
 Subroutine PRICEL returns:
 Original cell was already a primitive cell.
 

 Routine SETGRP: Setting up the symmetry group for a 
 simple orthorhombic supercell.


 Subroutine GETGRP returns: Found  1 space group operations
 (whereof  1 operations were pure point group operations)
 out of a pool of  8 trial point group operations.


The dynamic configuration has the point symmetry C_1 .


Analysis of structural, dynamic, and magnetic symmetry:
=====================================================================
 Subroutine PRICEL returns:
 Original cell was already a primitive cell.
 

 Routine SETGRP: Setting up the symmetry group for a 
 simple orthorhombic supercell.


 Subroutine GETGRP returns: Found  1 space group operations
 (whereof  1 operations were pure point group operations)
 out of a pool of  8 trial point group operations.


The overall configuration has the point symmetry C_1 .


 Subroutine INISYM returns: Found  1 space group operations
 (whereof  1 operations are pure point group operations),
 and found     1 'primitive' translations


----------------------------------------------------------------------------------------

                                     Primitive cell                                     

  volume of cell :    3069.6360

  direct lattice vectors                    reciprocal lattice vectors
     9.491638425  0.000000000  0.000000000     0.105355889  0.000000000  0.000000000
     0.000000000 13.423203790  0.000000000     0.000000000  0.074497863  0.000000000
     0.000000000  0.000000000 24.092923856     0.000000000  0.000000000  0.041505963

  length of vectors
     9.491638425 13.423203790 24.092923856     0.105355889  0.074497863  0.041505963

  position of ions in fractional coordinates (direct lattice)
     0.000000000  0.000000000  0.000000000
     0.000000000  0.750000000  0.080416665
     0.000000000  0.500000000  0.160833329
     0.000000000  0.250000000  0.241249994
     0.125886525  0.324561404  0.493396442
     0.000000000  0.750000000  0.402083324
     0.042553191  0.407894737  0.908686882
     0.333333333  0.083333333  0.080416665
     0.333333333  0.833333333  0.160833329
     0.333333333  0.583333333  0.241249994
     0.333333333  0.333333333  0.321666659
     0.042553191  0.157894737  0.493396442
     0.459219858  0.241228070  0.908686882
     0.666666667  0.416666667  0.080416665
     0.666666667  0.166666667  0.160833329
     0.666666667  0.916666667  0.241249994
     0.666666667  0.666666667  0.321666659
     0.459219858  0.991228070  0.493396442
     0.709219858  0.241228070  0.908686882
     0.125886525  0.574561404  0.908686882
     0.000000000  0.000000000  0.160833329
     0.000000000  0.750000000  0.241249994
     0.000000000  0.500000000  0.321666659
     0.709219858  0.991228070  0.493396442
     0.125886525  0.824561404  0.825628794
     0.333333333  0.583333333  0.080416665
     0.333333333  0.333333333  0.160833329
     0.333333333  0.083333333  0.241249994
     0.333333333  0.833333333  0.321666659
     0.125886525  0.574561404  0.576454530
     0.042553191  0.907894737  0.908686882
     0.666666667  0.916666667  0.080416665
     0.666666667  0.666666667  0.160833329
     0.666666667  0.416666667  0.241249994
     0.666666667  0.166666667  0.321666659
     0.042553191  0.657894737  0.493396442
     0.083333333  0.333333333  0.000000000
     0.083333333  0.083333333  0.080416665
     0.083333333  0.833333333  0.160833329
     0.083333333  0.583333333  0.241249994
     0.083333333  0.333333333  0.321666659
     0.083333333  0.083333333  0.402083324
     0.416666667  0.666666667  0.000000000
     0.416666667  0.416666667  0.080416665
     0.416666667  0.166666667  0.160833329
     0.416666667  0.916666667  0.241249994
     0.416666667  0.666666667  0.321666659
     0.416666667  0.416666667  0.402083324
     0.750000000  0.000000000  0.000000000
     0.750000000  0.750000000  0.080416665
     0.750000000  0.500000000  0.160833329
     0.750000000  0.250000000  0.241249994
     0.750000000  0.000000000  0.321666659
     0.750000000  0.750000000  0.402083324
     0.083333333  0.833333333  0.000000000
     0.083333333  0.583333333  0.080416665
     0.083333333  0.333333333  0.160833329
     0.083333333  0.083333333  0.241249994
     0.083333333  0.833333333  0.321666659
     0.083333333  0.583333333  0.402083324
     0.416666667  0.166666667  0.000000000
     0.416666667  0.916666667  0.080416665
     0.416666667  0.666666667  0.160833329
     0.416666667  0.416666667  0.241249994
     0.416666667  0.166666667  0.321666659
     0.416666667  0.916666667  0.402083324
     0.750000000  0.500000000  0.000000000
     0.750000000  0.250000000  0.080416665
     0.750000000  0.000000000  0.160833329
     0.750000000  0.750000000  0.241249994
     0.750000000  0.500000000  0.321666659
     0.750000000  0.250000000  0.402083324
     0.333333333  0.083333333  0.402083324
     0.042553191  0.407894737  0.576454530
     0.042553191  0.657894737  0.659512618
     0.042553191  0.907894737  0.742570706
     0.042553191  0.157894737  0.825628794
     0.333333333  0.333333333  0.000000000
     0.375886525  0.824561404  0.493396442
     0.375886525  0.074561404  0.576454530
     0.375886525  0.324561404  0.659512618
     0.375886525  0.574561404  0.742570706
     0.375886525  0.824561404  0.825628794
     0.375886525  0.074561404  0.908686882
     0.709219858  0.491228070  0.493396442
     0.709219858  0.741228070  0.576454530
     0.709219858  0.991228070  0.659512618
     0.709219858  0.241228070  0.742570706
     0.709219858  0.491228070  0.825628794
     0.709219858  0.741228070  0.908686882
     0.666666667  0.916666667  0.402083324
     0.042553191  0.907894737  0.576454530
     0.042553191  0.157894737  0.659512618
     0.042553191  0.407894737  0.742570706
     0.042553191  0.657894737  0.825628794
     0.666666667  0.166666667  0.000000000
     0.375886525  0.324561404  0.493396442
     0.375886525  0.574561404  0.576454530
     0.375886525  0.824561404  0.659512618
     0.375886525  0.074561404  0.742570706
     0.375886525  0.324561404  0.825628794
     0.375886525  0.574561404  0.908686882
     0.000000000  0.250000000  0.402083324
     0.709219858  0.241228070  0.576454530
     0.709219858  0.491228070  0.659512618
     0.709219858  0.741228070  0.742570706
     0.709219858  0.991228070  0.825628794
     0.000000000  0.500000000  0.000000000
     0.125886525  0.824561404  0.493396442
     0.125886525  0.074561404  0.576454530
     0.125886525  0.324561404  0.659512618
     0.125886525  0.574561404  0.742570706
     0.333333333  0.833333333  0.000000000
     0.125886525  0.074561404  0.908686882
     0.459219858  0.491228070  0.493396442
     0.459219858  0.741228070  0.576454530
     0.459219858  0.991228070  0.659512618
     0.459219858  0.241228070  0.742570706
     0.459219858  0.491228070  0.825628794
     0.459219858  0.741228070  0.908686882
     0.792553191  0.157894737  0.493396442
     0.792553191  0.407894737  0.576454530
     0.792553191  0.657894737  0.659512618
     0.792553191  0.907894737  0.742570706
     0.792553191  0.157894737  0.825628794
     0.792553191  0.407894737  0.908686882
     0.000000000  0.000000000  0.321666659
     0.333333333  0.583333333  0.402083324
     0.125886525  0.824561404  0.659512618
     0.125886525  0.074561404  0.742570706
     0.125886525  0.324561404  0.825628794
     0.000000000  0.250000000  0.080416665
     0.666666667  0.416666667  0.402083324
     0.459219858  0.241228070  0.576454530
     0.459219858  0.491228070  0.659512618
     0.459219858  0.741228070  0.742570706
     0.459219858  0.991228070  0.825628794
     0.666666667  0.666666667  0.000000000
     0.792553191  0.657894737  0.493396442
     0.792553191  0.907894737  0.576454530
     0.792553191  0.157894737  0.659512618
     0.792553191  0.407894737  0.742570706
     0.792553191  0.657894737  0.825628794
     0.792553191  0.907894737  0.908686882

  ion indices of the primitive-cell ions
   primitive index   ion index
                 1           1
                 2           2
                 3           3
                 4           4
                 5           5
                 6           6
                 7           7
                 8           8
                 9           9
                10          10
                11          11
                12          12
                13          13
                14          14
                15          15
                16          16
                17          17
                18          18
                19          19
                20          20
                21          21
                22          22
                23          23
                24          24
                25          25
                26          26
                27          27
                28          28
                29          29
                30          30
                31          31
                32          32
                33          33
                34          34
                35          35
                36          36
                37          37
                38          38
                39          39
                40          40
                41          41
                42          42
                43          43
                44          44
                45          45
                46          46
                47          47
                48          48
                49          49
                50          50
                51          51
                52          52
                53          53
                54          54
                55          55
                56          56
                57          57
                58          58
                59          59
                60          60
                61          61
                62          62
                63          63
                64          64
                65          65
                66          66
                67          67
                68          68
                69          69
                70          70
                71          71
                72          72
                73          73
                74          74
                75          75
                76          76
                77          77
                78          78
                79          79
                80          80
                81          81
                82          82
                83          83
                84          84
                85          85
                86          86
                87          87
                88          88
                89          89
                90          90
                91          91
                92          92
                93          93
                94          94
                95          95
                96          96
                97          97
                98          98
                99          99
               100         100
               101         101
               102         102
               103         103
               104         104
               105         105
               106         106
               107         107
               108         108
               109         109
               110         110
               111         111
               112         112
               113         113
               114         114
               115         115
               116         116
               117         117
               118         118
               119         119
               120         120
               121         121
               122         122
               123         123
               124         124
               125         125
               126         126
               127         127
               128         128
               129         129
               130         130
               131         131
               132         132
               133         133
               134         134
               135         135
               136         136
               137         137
               138         138
               139         139
               140         140
               141         141
               142         142
               143         143
               144         144

----------------------------------------------------------------------------------------

 
 
 KPOINTS: Automatic KPOINTS generated             

Automatic generation of k-mesh.
 Grid dimensions read from file:
 generate k-points for:    3    2    1

 Generating k-lattice:

  Cartesian coordinates                     Fractional coordinates (reciprocal lattice)
     0.035118630  0.000000000  0.000000000     0.333333333  0.000000000  0.000000000
     0.000000000  0.037248932  0.000000000     0.000000000  0.500000000  0.000000000
     0.000000000  0.000000000  0.041505963     0.000000000  0.000000000  1.000000000

  Length of vectors
     0.035118630  0.037248932  0.041505963

  Shift w.r.t. Gamma in fractional coordinates (k-lattice)
     0.000000000  0.000000000  0.000000000

 
 Subroutine IBZKPT returns following result:
 ===========================================
 
 Found      4 irreducible k-points:
 
 Following reciprocal coordinates:
            Coordinates               Weight
  0.000000  0.000000  0.000000      1.000000
  0.333333  0.000000  0.000000      2.000000
  0.000000  0.500000  0.000000      1.000000
  0.333333  0.500000  0.000000      2.000000
 
 Following cartesian coordinates:
            Coordinates               Weight
  0.000000  0.000000  0.000000      1.000000
  0.035119  0.000000  0.000000      2.000000
  0.000000  0.037249  0.000000      1.000000
  0.035119  0.037249  0.000000      2.000000
 


--------------------------------------------------------------------------------------------------------




 Dimension of arrays:
   k-points           NKPTS =      4   k-points in BZ     NKDIM =      4   number of bands    NBANDS=    346
   number of dos      NEDOS =    301   number of ions     NIONS =    144
   non local maximal  LDIM  =      5   non local SUM 2l+1 LMDIM =     13
   total plane-waves  NPLWV = 921600
   max r-space proj   IRMAX =   2483   max aug-charges    IRDMAX= 130725
   dimension x,y,z NGX =    64 NGY =   90 NGZ =  160
   dimension x,y,z NGXF=   128 NGYF=  180 NGZF=  320
   support grid    NGXF=   256 NGYF=  360 NGZF=  640
   ions per type =              72  72
   NGX,Y,Z   is equivalent  to a cutoff of  11.21, 11.15, 11.04 a.u.
   NGXF,Y,Z  is equivalent  to a cutoff of  22.42, 22.29, 22.08 a.u.

 SYSTEM =  Si011 and Ge011 interface calculation   
 POSCAR =  fcc Si+fcc Ge                           

 Startparameter for this run:
   NWRITE =      2    write-flag & timer
   PREC   = normal    normal or accurate (medium, high low for compatibility)
   ISTART =      0    job   : 0-new  1-cont  2-samecut
   ICHARG =      2    charge: 1-file 2-atom 10-const
   ISPIN  =      2    spin polarized calculation?
   LNONCOLLINEAR =      F non collinear calculations
   LSORBIT =      F    spin-orbit coupling
   INIWAV =      1    electr: 0-lowe 1-rand  2-diag
   LASPH  =      T    aspherical Exc in radial PAW
 Electronic Relaxation 1
   ENCUT  =  700.0 eV  51.45 Ry    7.17 a.u.  20.48 28.96 51.98*2*pi/ulx,y,z
   ENINI  =  700.0     initial cutoff
   ENAUG  =  900.0 eV  augmentation charge cutoff
   NELM   =    100;   NELMIN=  2; NELMDL= -5     # of ELM steps 
   EDIFF  = 0.1E-06   stopping-criterion for ELM
   LREAL  =      T    real-space projection
   NLSPLINE    = F    spline interpolate recip. space projectors
   LCOMPAT=      F    compatible to vasp.4.4
   GGA_COMPAT  = T    GGA compatible to vasp.4.4-vasp.4.6
   LMAXPAW     = -100 max onsite density
   LMAXMIX     =    6 max onsite mixed and CHGCAR
   VOSKOWN=      0    Vosko Wilk Nusair interpolation
   ROPT   =   -0.00050  -0.00050
 Ionic relaxation
   EDIFFG = 0.1E-05   stopping-criterion for IOM
   NSW    =      0    number of steps for IOM
   NBLOCK =      1;   KBLOCK =      1    inner block; outer block 
   IBRION =     -1    ionic relax: 0-MD 1-quasi-New 2-CG
   NFREE  =      0    steps in history (QN), initial steepest desc. (CG)
   ISIF   =      2    stress and relaxation
   IWAVPR =     10    prediction:  0-non 1-charg 2-wave 3-comb
   ISYM   =      2    0-nonsym 1-usesym 2-fastsym
   LCORR  =      T    Harris-Foulkes like correction to forces

   POTIM  = 0.5000    time-step for ionic-motion
   TEIN   =    0.0    initial temperature
   TEBEG  =    0.0;   TEEND  =   0.0 temperature during run
   SMASS  =  -3.00    Nose mass-parameter (am)
   estimated Nose-frequenzy (Omega)   =  0.10E-29 period in steps = 0.13E+47 mass=  -0.206E-26a.u.
   SCALEE = 1.0000    scale energy and forces
   NPACO  =    256;   APACO  = 10.0  distance and # of slots for P.C.
   PSTRESS=    0.0 pullay stress

  Mass of Ions in am
   POMASS =  28.09 72.61
  Ionic Valenz
   ZVAL   =   4.00  4.00
  Atomic Wigner-Seitz radii
   RWIGS  =  -1.00 -1.00
  virtual crystal weights 
   VCA    =   1.00  1.00
   NELECT =     576.0000    total number of electrons
   NUPDOWN=       1.0000    fix difference up-down

 DOS related values:
   EMIN   =  10.00;   EMAX   =-10.00  energy-range for DOS
   EFERMI =   0.00;   METHOD = LEGACY      
   ISMEAR =     0;   SIGMA  =   0.01  broadening in eV -4-tet -1-fermi 0-gaus

 Electronic relaxation 2 (details)
   IALGO  =     38    algorithm
   LDIAG  =      T    sub-space diagonalisation (order eigenvalues)
   LSUBROT=      F    optimize rotation matrix (better conditioning)
   TURBO    =      0    0=normal 1=particle mesh
   IRESTART =      0    0=no restart 2=restart with 2 vectors
   NREBOOT  =      0    no. of reboots
   NMIN     =      0    reboot dimension
   EREF     =   0.00    reference energy to select bands
   IMIX   =      4    mixing-type and parameters
     AMIX     =   0.60;   BMIX     =  1.00
     AMIX_MAG =   2.40;   BMIX_MAG =  1.00
     AMIN     =   0.10
     WC   =   100.;   INIMIX=   1;  MIXPRE=   1;  MAXMIX= -45

 Intra band minimization:
   WEIMIN = 0.0000     energy-eigenvalue tresh-hold
   EBREAK =  0.72E-10  absolut break condition
   DEPER  =   0.30     relativ break condition  

   TIME   =   0.40     timestep for ELM

  volume/ion in A,a.u.               =      21.32       143.85
  Fermi-wavevector in a.u.,A,eV,Ry     =   0.937246  1.771137 11.951754  0.878429
  Thomas-Fermi vector in A             =   2.064337
 
 Write flags
   LWAVE        =      F    write WAVECAR
   LDOWNSAMPLE  =      F    k-point downsampling of WAVECAR
   LCHARG       =      T    write CHGCAR
   LVTOT        =      F    write LOCPOT, total local potential
   LVHAR        =      T    write LOCPOT, Hartree potential only
   WRT_POTENTIAL=  hartree ionic  ! write potential to hdf5 file
   LELF         =      F    write electronic localiz. function (ELF)
   LORBIT       =      0    0 simple, 1 ext, 2 COOP (PROOUT), +10 PAW based schemes


 Dipole corrections
   LMONO      =      F    monopole corrections only (constant potential shift)
   LDIPOL     =      F    correct potential (dipole corrections)
   IDIPOL     =      0    1-x, 2-y, 3-z, 4-all directions 
   EPSILON    =  1.0000000 bulk dielectric constant
   LVACPOTAV  =      F  vacuum potentials using an averaging scheme for the charge density
   VACPOTFLAT =  0.1000000 required flatness to determine vacuum potential
 Exchange correlation treatment:
   GGA     = PE    functional components
   XC_C    = 1    coefficients multiplying the functional components
   LIBXC   =     F    Libxc                    
   VOSKOWN =     0    Vosko Wilk Nusair interpolation
   LHFCALC =     F    Hartree Fock is set to
   LHFONE  =     F    Hartree Fock one center treatment
   AEXX    =    0.0000 exact exchange contribution

 Parameters of functionals:
   PE:
     No parameter
 
 Van der Waals corrections
   IVDW    =     0    specifies the selected vdW correction

 Linear response parameters
   LEPSILON=     F    determine dielectric tensor
   LRPA    =     F    only Hartree local field effects (RPA)
   LNABLA  =     F    use nabla operator in PAW spheres
   LVEL    =     F    velocity operator in full k-point grid
   CSHIFT  =0.1000    complex shift for real part using Kramers Kronig
   OMEGAMAX=  -1.0    maximum frequency
   DEG_THRESHOLD= 0.2000000E-02 threshold for treating states as degnerate
   RTIME   =   -0.100 relaxation time in fs
  (WPLASMAI=    0.000 imaginary part of plasma frequency in eV, 0.658/RTIME)
   DFIELD  = 0.0000000 0.0000000 0.0000000 field for delta impulse in time
 
  Optional k-point grid parameters
   LKPOINTS_OPT  =     F    use optional k-point grid
   KPOINTS_OPT_MODE=     1    mode for optional k-point grid
 
 Orbital magnetization related:
   ORBITALMAG=     F  switch on orbital magnetization
   LCHIMAG   =     F  perturbation theory with respect to B field
   DQ        =  0.001000  dq finite difference perturbation B field
   LLRAUG    =     F  two centre corrections for induced B field
   LBONE     =     F  B-component reconstruction in AE one-centre
   LVGVCALC  =     T  calculate vGv susceptibility
   LVGVAPPL  =     F  apply vGv susceptibility instead of pGv for G=0

 Random number generation:
   RANDOM_GENERATOR = DEFAULT
   PCG_SEED         = not used


--------------------------------------------------------------------------------------------------------


 Static calculation
 charge density and potential will be updated during run
 spin polarized calculation
 Variant of blocked Davidson
 Davidson routine will perform the subspace rotation
 perform sub-space diagonalisation
    after iterative eigenvector-optimisation
 modified Broyden-mixing scheme, WC =      100.0
 initial mixing is a Kerker type mixing with AMIX =  0.6000 and BMIX =      1.0000
 Hartree-type preconditioning will be used
 using additional bands           58
 real space projection scheme for non local part
 use partial core corrections
 calculate Harris-corrections to forces 
   (improved forces if not selfconsistent)
 use gradient corrections 
 use of overlap-Matrix (Vanderbilt PP)
 Gauss-broadening in eV      SIGMA  =   0.01


--------------------------------------------------------------------------------------------------------


  energy-cutoff  :      700.00
  volume of cell :     3069.64
      direct lattice vectors                 reciprocal lattice vectors
     9.491638425  0.000000000  0.000000000     0.105355889  0.000000000  0.000000000
     0.000000000 13.423203790  0.000000000     0.000000000  0.074497863  0.000000000
     0.000000000  0.000000000 24.092923856     0.000000000  0.000000000  0.041505963

  length of vectors
     9.491638425 13.423203790 24.092923856     0.105355889  0.074497863  0.041505963


 
 k-points in units of 2pi/SCALE and weight: Automatic KPOINTS generated             
   0.00000000  0.00000000  0.00000000       0.167
   0.03511863  0.00000000  0.00000000       0.333
   0.00000000  0.03724893  0.00000000       0.167
   0.03511863  0.03724893  0.00000000       0.333
 
 k-points in reciprocal lattice and weights: Automatic KPOINTS generated             
   0.00000000  0.00000000  0.00000000       0.167
   0.33333333  0.00000000  0.00000000       0.333
   0.00000000  0.50000000  0.00000000       0.167
   0.33333333  0.50000000  0.00000000       0.333
 
 position of ions in fractional coordinates (direct lattice) 
   0.00000000  0.00000000  0.00000000
   0.00000000  0.75000000  0.08041667
   0.00000000  0.50000000  0.16083333
   0.00000000  0.25000000  0.24124999
   0.12588652  0.32456140  0.49339644
   0.00000000  0.75000000  0.40208332
   0.04255319  0.40789474  0.90868688
   0.33333333  0.08333333  0.08041667
   0.33333333  0.83333333  0.16083333
   0.33333333  0.58333333  0.24124999
   0.33333333  0.33333333  0.32166666
   0.04255319  0.15789474  0.49339644
   0.45921986  0.24122807  0.90868688
   0.66666667  0.41666667  0.08041667
   0.66666667  0.16666667  0.16083333
   0.66666667  0.91666667  0.24124999
   0.66666667  0.66666667  0.32166666
   0.45921986  0.99122807  0.49339644
   0.70921986  0.24122807  0.90868688
   0.12588652  0.57456140  0.90868688
   0.00000000  0.00000000  0.16083333
   0.00000000  0.75000000  0.24124999
   0.00000000  0.50000000  0.32166666
   0.70921986  0.99122807  0.49339644
   0.12588652  0.82456140  0.82562879
   0.33333333  0.58333333  0.08041667
   0.33333333  0.33333333  0.16083333
   0.33333333  0.08333333  0.24124999
   0.33333333  0.83333333  0.32166666
   0.12588652  0.57456140  0.57645453
   0.04255319  0.90789474  0.90868688
   0.66666667  0.91666667  0.08041667
   0.66666667  0.66666667  0.16083333
   0.66666667  0.41666667  0.24124999
   0.66666667  0.16666667  0.32166666
   0.04255319  0.65789474  0.49339644
   0.08333333  0.33333333  0.00000000
   0.08333333  0.08333333  0.08041667
   0.08333333  0.83333333  0.16083333
   0.08333333  0.58333333  0.24124999
   0.08333333  0.33333333  0.32166666
   0.08333333  0.08333333  0.40208332
   0.41666667  0.66666667  0.00000000
   0.41666667  0.41666667  0.08041667
   0.41666667  0.16666667  0.16083333
   0.41666667  0.91666667  0.24124999
   0.41666667  0.66666667  0.32166666
   0.41666667  0.41666667  0.40208332
   0.75000000  0.00000000  0.00000000
   0.75000000  0.75000000  0.08041667
   0.75000000  0.50000000  0.16083333
   0.75000000  0.25000000  0.24124999
   0.75000000  0.00000000  0.32166666
   0.75000000  0.75000000  0.40208332
   0.08333333  0.83333333  0.00000000
   0.08333333  0.58333333  0.08041667
   0.08333333  0.33333333  0.16083333
   0.08333333  0.08333333  0.24124999
   0.08333333  0.83333333  0.32166666
   0.08333333  0.58333333  0.40208332
   0.41666667  0.16666667  0.00000000
   0.41666667  0.91666667  0.08041667
   0.41666667  0.66666667  0.16083333
   0.41666667  0.41666667  0.24124999
   0.41666667  0.16666667  0.32166666
   0.41666667  0.91666667  0.40208332
   0.75000000  0.50000000  0.00000000
   0.75000000  0.25000000  0.08041667
   0.75000000  0.00000000  0.16083333
   0.75000000  0.75000000  0.24124999
   0.75000000  0.50000000  0.32166666
   0.75000000  0.25000000  0.40208332
   0.33333333  0.08333333  0.40208332
   0.04255319  0.40789474  0.57645453
   0.04255319  0.65789474  0.65951262
   0.04255319  0.90789474  0.74257071
   0.04255319  0.15789474  0.82562879
   0.33333333  0.33333333  0.00000000
   0.37588652  0.82456140  0.49339644
   0.37588652  0.07456140  0.57645453
   0.37588652  0.32456140  0.65951262
   0.37588652  0.57456140  0.74257071
   0.37588652  0.82456140  0.82562879
   0.37588652  0.07456140  0.90868688
   0.70921986  0.49122807  0.49339644
   0.70921986  0.74122807  0.57645453
   0.70921986  0.99122807  0.65951262
   0.70921986  0.24122807  0.74257071
   0.70921986  0.49122807  0.82562879
   0.70921986  0.74122807  0.90868688
   0.66666667  0.91666667  0.40208332
   0.04255319  0.90789474  0.57645453
   0.04255319  0.15789474  0.65951262
   0.04255319  0.40789474  0.74257071
   0.04255319  0.65789474  0.82562879
   0.66666667  0.16666667  0.00000000
   0.37588652  0.32456140  0.49339644
   0.37588652  0.57456140  0.57645453
   0.37588652  0.82456140  0.65951262
   0.37588652  0.07456140  0.74257071
   0.37588652  0.32456140  0.82562879
   0.37588652  0.57456140  0.90868688
   0.00000000  0.25000000  0.40208332
   0.70921986  0.24122807  0.57645453
   0.70921986  0.49122807  0.65951262
   0.70921986  0.74122807  0.74257071
   0.70921986  0.99122807  0.82562879
   0.00000000  0.50000000  0.00000000
   0.12588652  0.82456140  0.49339644
   0.12588652  0.07456140  0.57645453
   0.12588652  0.32456140  0.65951262
   0.12588652  0.57456140  0.74257071
   0.33333333  0.83333333  0.00000000
   0.12588652  0.07456140  0.90868688
   0.45921986  0.49122807  0.49339644
   0.45921986  0.74122807  0.57645453
   0.45921986  0.99122807  0.65951262
   0.45921986  0.24122807  0.74257071
   0.45921986  0.49122807  0.82562879
   0.45921986  0.74122807  0.90868688
   0.79255319  0.15789474  0.49339644
   0.79255319  0.40789474  0.57645453
   0.79255319  0.65789474  0.65951262
   0.79255319  0.90789474  0.74257071
   0.79255319  0.15789474  0.82562879
   0.79255319  0.40789474  0.90868688
   0.00000000  0.00000000  0.32166666
   0.33333333  0.58333333  0.40208332
   0.12588652  0.82456140  0.65951262
   0.12588652  0.07456140  0.74257071
   0.12588652  0.32456140  0.82562879
   0.00000000  0.25000000  0.08041667
   0.66666667  0.41666667  0.40208332
   0.45921986  0.24122807  0.57645453
   0.45921986  0.49122807  0.65951262
   0.45921986  0.74122807  0.74257071
   0.45921986  0.99122807  0.82562879
   0.66666667  0.66666667  0.00000000
   0.79255319  0.65789474  0.49339644
   0.79255319  0.90789474  0.57645453
   0.79255319  0.15789474  0.65951262
   0.79255319  0.40789474  0.74257071
   0.79255319  0.65789474  0.82562879
   0.79255319  0.90789474  0.90868688
 
 position of ions in cartesian coordinates  (Angst):
   0.00000000  0.00000000  0.00000000
   0.00000000 10.06740284  1.93747259
   0.00000000  6.71160190  3.87494515
   0.00000000  3.35580095  5.81241774
   1.19486938  4.35665387 11.88736291
   0.00000000 10.06740284  9.68736291
   0.40389950  5.47525418 21.89292386
   3.16387947  1.11860031  1.93747259
   3.16387947 11.18600315  3.87494515
   3.16387947  7.83020221  5.81241774
   3.16387947  4.47440126  7.74989032
   0.40389950  2.11945323 11.88736291
   4.35874885  3.23805354 21.89292386
   6.32775895  5.59300158  1.93747259
   6.32775895  2.23720064  3.87494515
   6.32775895 12.30460348  5.81241774
   6.32775895  8.94880253  7.74989032
   4.35874885 13.30545639 11.88736291
   6.73165846  3.23805354 21.89292386
   1.19486938  7.71245482 21.89292386
   0.00000000  0.00000000  3.87494515
   0.00000000 10.06740284  5.81241774
   0.00000000  6.71160190  7.74989032
   6.73165846 13.30545639 11.88736291
   1.19486938 11.06825576 19.89181167
   3.16387947  7.83020221  1.93747259
   3.16387947  4.47440126  3.87494515
   3.16387947  1.11860031  5.81241774
   3.16387947 11.18600315  7.74989032
   1.19486938  7.71245482 13.88847510
   0.40389950 12.18685607 21.89292386
   6.32775895 12.30460348  1.93747259
   6.32775895  8.94880253  3.87494515
   6.32775895  5.59300158  5.81241774
   6.32775895  2.23720064  7.74989032
   0.40389950  8.83105513 11.88736291
   0.79096987  4.47440126  0.00000000
   0.79096987  1.11860031  1.93747259
   0.79096987 11.18600315  3.87494515
   0.79096987  7.83020221  5.81241774
   0.79096987  4.47440126  7.74989032
   0.79096987  1.11860031  9.68736291
   3.95484935  8.94880253  0.00000000
   3.95484935  5.59300158  1.93747259
   3.95484935  2.23720064  3.87494515
   3.95484935 12.30460348  5.81241774
   3.95484935  8.94880253  7.74989032
   3.95484935  5.59300158  9.68736291
   7.11872882  0.00000000  0.00000000
   7.11872882 10.06740284  1.93747259
   7.11872882  6.71160190  3.87494515
   7.11872882  3.35580095  5.81241774
   7.11872882  0.00000000  7.74989032
   7.11872882 10.06740284  9.68736291
   0.79096987 11.18600315  0.00000000
   0.79096987  7.83020221  1.93747259
   0.79096987  4.47440126  3.87494515
   0.79096987  1.11860031  5.81241774
   0.79096987 11.18600315  7.74989032
   0.79096987  7.83020221  9.68736291
   3.95484935  2.23720064  0.00000000
   3.95484935 12.30460348  1.93747259
   3.95484935  8.94880253  3.87494515
   3.95484935  5.59300158  5.81241774
   3.95484935  2.23720064  7.74989032
   3.95484935 12.30460348  9.68736291
   7.11872882  6.71160190  0.00000000
   7.11872882  3.35580095  1.93747259
   7.11872882  0.00000000  3.87494515
   7.11872882 10.06740284  5.81241774
   7.11872882  6.71160190  7.74989032
   7.11872882  3.35580095  9.68736291
   3.16387947  1.11860031  9.68736291
   0.40389950  5.47525418 13.88847510
   0.40389950  8.83105513 15.88958729
   0.40389950 12.18685607 17.89069948
   0.40389950  2.11945323 19.89181167
   3.16387947  4.47440126  0.00000000
   3.56777898 11.06825576 11.88736291
   3.56777898  1.00085292 13.88847510
   3.56777898  4.35665387 15.88958729
   3.56777898  7.71245482 17.89069948
   3.56777898 11.06825576 19.89181167
   3.56777898  1.00085292 21.89292386
   6.73165846  6.59385449 11.88736291
   6.73165846  9.94965544 13.88847510
   6.73165846 13.30545639 15.88958729
   6.73165846  3.23805354 17.89069948
   6.73165846  6.59385449 19.89181167
   6.73165846  9.94965544 21.89292386
   6.32775895 12.30460348  9.68736291
   0.40389950 12.18685607 13.88847510
   0.40389950  2.11945323 15.88958729
   0.40389950  5.47525418 17.89069948
   0.40389950  8.83105513 19.89181167
   6.32775895  2.23720064  0.00000000
   3.56777898  4.35665387 11.88736291
   3.56777898  7.71245482 13.88847510
   3.56777898 11.06825576 15.88958729
   3.56777898  1.00085292 17.89069948
   3.56777898  4.35665387 19.89181167
   3.56777898  7.71245482 21.89292386
   0.00000000  3.35580095  9.68736291
   6.73165846  3.23805354 13.88847510
   6.73165846  6.59385449 15.88958729
   6.73165846  9.94965544 17.89069948
   6.73165846 13.30545639 19.89181167
   0.00000000  6.71160190  0.00000000
   1.19486938 11.06825576 11.88736291
   1.19486938  1.00085292 13.88847510
   1.19486938  4.35665387 15.88958729
   1.19486938  7.71245482 17.89069948
   3.16387947 11.18600315  0.00000000
   1.19486938  1.00085292 21.89292386
   4.35874885  6.59385449 11.88736291
   4.35874885  9.94965544 13.88847510
   4.35874885 13.30545639 15.88958729
   4.35874885  3.23805354 17.89069948
   4.35874885  6.59385449 19.89181167
   4.35874885  9.94965544 21.89292386
   7.52262832  2.11945323 11.88736291
   7.52262832  5.47525418 13.88847510
   7.52262832  8.83105513 15.88958729
   7.52262832 12.18685607 17.89069948
   7.52262832  2.11945323 19.89181167
   7.52262832  5.47525418 21.89292386
   0.00000000  0.00000000  7.74989032
   3.16387947  7.83020221  9.68736291
   1.19486938 11.06825576 15.88958729
   1.19486938  1.00085292 17.89069948
   1.19486938  4.35665387 19.89181167
   0.00000000  3.35580095  1.93747259
   6.32775895  5.59300158  9.68736291
   4.35874885  3.23805354 13.88847510
   4.35874885  6.59385449 15.88958729
   4.35874885  9.94965544 17.89069948
   4.35874885 13.30545639 19.89181167
   6.32775895  8.94880253  0.00000000
   7.52262832  8.83105513 11.88736291
   7.52262832 12.18685607 13.88847510
   7.52262832  2.11945323 15.88958729
   7.52262832  5.47525418 17.89069948
   7.52262832  8.83105513 19.89181167
   7.52262832 12.18685607 21.89292386
 


--------------------------------------------------------------------------------------------------------


 k-point     1 :   0.0000 0.0000 0.0000  plane waves:  129107
 k-point     2 :   0.3333 0.0000 0.0000  plane waves:  129083
 k-point     3 :   0.0000 0.5000 0.0000  plane waves:  129106
 k-point     4 :   0.3333 0.5000 0.0000  plane waves:  129070

 maximum and minimum number of plane-waves per node :      8102     8035

 maximum number of plane-waves:    129107
 maximum index in each direction: 
   IXMAX=   20   IYMAX=   28   IZMAX=   51
   IXMIN=  -20   IYMIN=  -29   IZMIN=  -51


 real space projection operators:
  total allocation   :      24090.61 KBytes
  max/ min on nodes  :       1524.71       1470.75


 parallel 3D FFT for wavefunctions:
    minimum data exchange during FFTs selected (reduces bandwidth)
 parallel 3D FFT for charge:
    minimum data exchange during FFTs selected (reduces bandwidth)


 total amount of memory used by VASP MPI-rank0   511242. kBytes
=======================================================================

   base      :      30000. kBytes
   nonlr-proj:       7837. kBytes
   fftplans  :      69092. kBytes
   grid      :      42335. kBytes
   one-center:        146. kBytes
   wavefun   :     361832. kBytes
 
     INWAV:  cpu time      0.0001: real time      0.0002
 Broyden mixing: mesh for mixing (old mesh)
   NGX = 41   NGY = 57   NGZ =103
  (NGX  =128   NGY  =180   NGZ  =320)
  gives a total of 240711 points

 initial charge density was supplied:
 charge density of overlapping atoms calculated
 number of electron     576.0000000 magnetization       1.0000000
 keeping initial charge density in first step


--------------------------------------------------------------------------------------------------------


 Maximum index for non-local projection operator          217
 Maximum index for augmentation-charges         8108 (set IRDMAX)


--------------------------------------------------------------------------------------------------------


 First call to EWALD:  gamma=   0.122
 Maximum number of real-space cells 4x 3x 2
 Maximum number of reciprocal cells 2x 3x 4

    FEWALD:  cpu time      0.0069: real time      0.0069


--------------------------------------- Ionic step        1  -------------------------------------------




--------------------------------------- Iteration      1(   1)  ---------------------------------------


    POTLOK:  cpu time      0.8480: real time      0.8554
    SETDIJ:  cpu time      4.3982: real time      4.4203
     EDDAV:  cpu time     61.0369: real time     61.5279
       DOS:  cpu time      0.0043: real time      0.0043
    --------------------------------------------
      LOOP:  cpu time     66.2875: real time     66.8079

 eigenvalue-minimisations  :  5536
 total energy-change (2. order) : 0.2453627E+04  (-0.2581139E+05)
 number of electron     576.0000000 magnetization       1.0000000
 augmentation part      576.0000000 magnetization       1.0000000

 Free energy of the ion-electron system (eV)
  ---------------------------------------------------
  alpha Z        PSCENC =       759.26891756
  Ewald energy   TEWEN  =    -15880.93019074
  -Hartree energ DENC   =     -1042.31086609
  -exchange      EXHF   =         0.00000000
  -V(xc)+E(xc)   XCENC  =     -1208.83038541
  PAW double counting   =     12691.36703575   -10381.54560829
  entropy T*S    EENTRO =        -0.00285417
  eigenvalues    EBANDS =      2536.10836855
  atomic energy  EATOM  =     14980.50241411
  Solvation  Ediel_sol  =         0.00000000
  ---------------------------------------------------
  free energy    TOTEN  =      2453.62683126 eV

  energy without entropy =     2453.62968543  energy(sigma->0) =     2453.62825834


--------------------------------------------------------------------------------------------------------




--------------------------------------- Iteration      1(   2)  ---------------------------------------


     EDDAV:  cpu time     69.0335: real time     69.5984
       DOS:  cpu time      0.0022: real time      0.0022
    --------------------------------------------
      LOOP:  cpu time     69.0357: real time     69.6006

 eigenvalue-minimisations  :  6472
 total energy-change (2. order) :-0.2871257E+04  (-0.2767007E+04)
 number of electron     576.0000000 magnetization       1.0000000
 augmentation part      576.0000000 magnetization       1.0000000

 Free energy of the ion-electron system (eV)
  ---------------------------------------------------
  alpha Z        PSCENC =       759.26891756
  Ewald energy   TEWEN  =    -15880.93019074
  -Hartree energ DENC   =     -1042.31086609
  -exchange      EXHF   =         0.00000000
  -V(xc)+E(xc)   XCENC  =     -1208.83038541
  PAW double counting   =     12691.36703575   -10381.54560829
  entropy T*S    EENTRO =        -0.00210790
  eigenvalues    EBANDS =      -335.14957272
  atomic energy  EATOM  =     14980.50241411
  Solvation  Ediel_sol  =         0.00000000
  ---------------------------------------------------
  free energy    TOTEN  =      -417.63036374 eV

  energy without entropy =     -417.62825584  energy(sigma->0) =     -417.62930979


--------------------------------------------------------------------------------------------------------




--------------------------------------- Iteration      1(   3)  ---------------------------------------


     EDDAV:  cpu time     71.4881: real time     72.0856
       DOS:  cpu time      0.0021: real time      0.0021
    --------------------------------------------
      LOOP:  cpu time     71.4901: real time     72.0877

 eigenvalue-minimisations  :  6752
 total energy-change (2. order) :-0.2717017E+03  (-0.2648467E+03)
 number of electron     576.0000000 magnetization       1.0000000
 augmentation part      576.0000000 magnetization       1.0000000

 Free energy of the ion-electron system (eV)
  ---------------------------------------------------
  alpha Z        PSCENC =       759.26891756
  Ewald energy   TEWEN  =    -15880.93019074
  -Hartree energ DENC   =     -1042.31086609
  -exchange      EXHF   =         0.00000000
  -V(xc)+E(xc)   XCENC  =     -1208.83038541
  PAW double counting   =     12691.36703575   -10381.54560829
  entropy T*S    EENTRO =        -0.00135923
  eigenvalues    EBANDS =      -606.85202509
  atomic energy  EATOM  =     14980.50241411
  Solvation  Ediel_sol  =         0.00000000
  ---------------------------------------------------
  free energy    TOTEN  =      -689.33206744 eV

  energy without entropy =     -689.33070822  energy(sigma->0) =     -689.33138783


--------------------------------------------------------------------------------------------------------




--------------------------------------- Iteration      1(   4)  ---------------------------------------


     EDDAV:  cpu time     69.3964: real time     69.9821
       DOS:  cpu time      0.0038: real time      0.0039
    --------------------------------------------
      LOOP:  cpu time     69.4003: real time     69.9859

 eigenvalue-minimisations  :  6488
 total energy-change (2. order) :-0.9325779E+01  (-0.9211227E+01)
 number of electron     576.0000000 magnetization       1.0000000
 augmentation part      576.0000000 magnetization       1.0000000

 Free energy of the ion-electron system (eV)
  ---------------------------------------------------
  alpha Z        PSCENC =       759.26891756
  Ewald energy   TEWEN  =    -15880.93019074
  -Hartree energ DENC   =     -1042.31086609
  -exchange      EXHF   =         0.00000000
  -V(xc)+E(xc)   XCENC  =     -1208.83038541
  PAW double counting   =     12691.36703575   -10381.54560829
  entropy T*S    EENTRO =        -0.00220569
  eigenvalues    EBANDS =      -616.17695788
  atomic energy  EATOM  =     14980.50241411
  Solvation  Ediel_sol  =         0.00000000
  ---------------------------------------------------
  free energy    TOTEN  =      -698.65784670 eV

  energy without entropy =     -698.65564100  energy(sigma->0) =     -698.65674385


--------------------------------------------------------------------------------------------------------




--------------------------------------- Iteration      1(   5)  ---------------------------------------


     EDDAV:  cpu time     76.8270: real time     77.4615
       DOS:  cpu time      0.0035: real time      0.0035
    CHARGE:  cpu time      3.2349: real time      3.2626
    MIXING:  cpu time      0.0202: real time      0.0203
    --------------------------------------------
      LOOP:  cpu time     80.0857: real time     80.7480

 eigenvalue-minimisations  :  7376
 total energy-change (2. order) :-0.3637295E+00  (-0.3625061E+00)
 number of electron     575.9999996 magnetization       1.0000000
 augmentation part      -64.0715204 magnetization      -0.0904305

 Broyden mixing:
  rms(total) = 0.33726E+01    rms(broyden)= 0.33726E+01
  rms(prec ) = 0.34722E+01
  weight for this iteration     100.00

 Free energy of the ion-electron system (eV)
  ---------------------------------------------------
  alpha Z        PSCENC =       759.26891756
  Ewald energy   TEWEN  =    -15880.93019074
  -Hartree energ DENC   =     -1042.31086609
  -exchange      EXHF   =         0.00000000
  -V(xc)+E(xc)   XCENC  =     -1208.83038541
  PAW double counting   =     12691.36703575   -10381.54560829
  entropy T*S    EENTRO =        -0.00226080
  eigenvalues    EBANDS =      -616.54063225
  atomic energy  EATOM  =     14980.50241411
  Solvation  Ediel_sol  =         0.00000000
  ---------------------------------------------------
  free energy    TOTEN  =      -699.02157618 eV

  energy without entropy =     -699.01931538  energy(sigma->0) =     -699.02044578


--------------------------------------------------------------------------------------------------------




--------------------------------------- Iteration      1(   6)  ---------------------------------------


    POTLOK:  cpu time      0.8497: real time      0.8572
    SETDIJ:  cpu time      4.3744: real time      4.3962
     EDDAV:  cpu time     69.1952: real time     69.7695
       DOS:  cpu time      0.0048: real time      0.0048
    CHARGE:  cpu time      3.2275: real time      3.2517
    MIXING:  cpu time      0.0209: real time      0.0211
    --------------------------------------------
      LOOP:  cpu time     77.6725: real time     78.3005

 eigenvalue-minimisations  :  6504
 total energy-change (2. order) : 0.9696731E+01  (-0.1345321E+01)
 number of electron     575.9999996 magnetization       1.0000000
 augmentation part      -63.4429114 magnetization      -0.0899952

 Broyden mixing:
  rms(total) = 0.15542E+01    rms(broyden)= 0.15542E+01
  rms(prec ) = 0.15894E+01
  weight for this iteration     100.00

 eigenvalues of (default mixing * dielectric matrix)
  average eigenvalue GAMMA=   1.7684
  1.7684

 Free energy of the ion-electron system (eV)
  ---------------------------------------------------
  alpha Z        PSCENC =       759.26891756
  Ewald energy   TEWEN  =    -15880.93019074
  -Hartree energ DENC   =     -1190.11834865
  -exchange      EXHF   =         0.00000000
  -V(xc)+E(xc)   XCENC  =     -1185.33982928
  PAW double counting   =     26335.10648927   -24036.92213604
  entropy T*S    EENTRO =        -0.00127459
  eigenvalues    EBANDS =      -470.89088675
  atomic energy  EATOM  =     14980.50241411
  Solvation  Ediel_sol  =         0.00000000
  ---------------------------------------------------
  free energy    TOTEN  =      -689.32484511 eV

  energy without entropy =     -689.32357052  energy(sigma->0) =     -689.32420781


--------------------------------------------------------------------------------------------------------




--------------------------------------- Iteration      1(   7)  ---------------------------------------


    POTLOK:  cpu time      0.8485: real time      0.8561
    SETDIJ:  cpu time      4.3735: real time      4.3949
     EDDAV:  cpu time     69.1395: real time     69.6927
       DOS:  cpu time      0.0049: real time      0.0049
    CHARGE:  cpu time      3.2144: real time      3.2390
    MIXING:  cpu time      0.0217: real time      0.0218
    --------------------------------------------
      LOOP:  cpu time     77.6026: real time     78.2095

 eigenvalue-minimisations  :  6504
 total energy-change (2. order) : 0.6655907E+00  (-0.8112356E+00)
 number of electron     575.9999996 magnetization       1.0000000
 augmentation part      -63.2696229 magnetization      -0.0778632

 Broyden mixing:
  rms(total) = 0.40264E+00    rms(broyden)= 0.40264E+00
  rms(prec ) = 0.44247E+00
  weight for this iteration     100.00

 eigenvalues of (default mixing * dielectric matrix)
  average eigenvalue GAMMA=   1.2646
  1.8658  0.6633

 Free energy of the ion-electron system (eV)
  ---------------------------------------------------
  alpha Z        PSCENC =       759.26891756
  Ewald energy   TEWEN  =    -15880.93019074
  -Hartree energ DENC   =     -1290.51502159
  -exchange      EXHF   =         0.00000000
  -V(xc)+E(xc)   XCENC  =     -1166.47065967
  PAW double counting   =     42575.43866452   -40285.95368366
  entropy T*S    EENTRO =        -0.00148985
  eigenvalues    EBANDS =      -379.99820510
  atomic energy  EATOM  =     14980.50241411
  Solvation  Ediel_sol  =         0.00000000
  ---------------------------------------------------
  free energy    TOTEN  =      -688.65925443 eV

  energy without entropy =     -688.65776458  energy(sigma->0) =     -688.65850950


--------------------------------------------------------------------------------------------------------




--------------------------------------- Iteration      1(   8)  ---------------------------------------


    POTLOK:  cpu time      0.8477: real time      0.8558
    SETDIJ:  cpu time      4.3718: real time      4.3936
     EDDAV:  cpu time     69.7840: real time     70.3527
       DOS:  cpu time      0.0050: real time      0.0050
    CHARGE:  cpu time      3.2345: real time      3.2589
    MIXING:  cpu time      0.0224: real time      0.0225
    --------------------------------------------
      LOOP:  cpu time     78.2654: real time     78.8886

 eigenvalue-minimisations  :  6584
 total energy-change (2. order) : 0.3682287E-01  (-0.1478617E+00)
 number of electron     575.9999996 magnetization       1.0000000
 augmentation part      -63.0735053 magnetization      -0.0819145

 Broyden mixing:
  rms(total) = 0.14727E+00    rms(broyden)= 0.14727E+00
  rms(prec ) = 0.15301E+00
  weight for this iteration     100.00

 eigenvalues of (default mixing * dielectric matrix)
  average eigenvalue GAMMA=   1.2375
  1.8711  1.1583  0.6832

 Free energy of the ion-electron system (eV)
  ---------------------------------------------------
  alpha Z        PSCENC =       759.26891756
  Ewald energy   TEWEN  =    -15880.93019074
  -Hartree energ DENC   =     -1294.39599531
  -exchange      EXHF   =         0.00000000
  -V(xc)+E(xc)   XCENC  =     -1165.75727722
  PAW double counting   =     45133.84248149   -42844.82343577
  entropy T*S    EENTRO =        -0.00161951
  eigenvalues    EBANDS =      -376.32772615
  atomic energy  EATOM  =     14980.50241411
  Solvation  Ediel_sol  =         0.00000000
  ---------------------------------------------------
  free energy    TOTEN  =      -688.62243156 eV

  energy without entropy =     -688.62081204  energy(sigma->0) =     -688.62162180


--------------------------------------------------------------------------------------------------------




--------------------------------------- Iteration      1(   9)  ---------------------------------------


    POTLOK:  cpu time      0.8454: real time      0.8537
    SETDIJ:  cpu time      4.3707: real time      4.3923
     EDDAV:  cpu time     67.5575: real time     68.1257
       DOS:  cpu time      0.0049: real time      0.0049
    CHARGE:  cpu time      3.2307: real time      3.2580
    MIXING:  cpu time      0.0235: real time      0.0237
    --------------------------------------------
      LOOP:  cpu time     76.0326: real time     76.6584

 eigenvalue-minimisations  :  6296
 total energy-change (2. order) : 0.9091934E-02  (-0.2558787E-01)
 number of electron     575.9999996 magnetization       1.0000000
 augmentation part      -63.1097368 magnetization      -0.0848254

 Broyden mixing:
  rms(total) = 0.86018E-01    rms(broyden)= 0.86018E-01
  rms(prec ) = 0.89677E-01
  weight for this iteration     100.00

 eigenvalues of (default mixing * dielectric matrix)
  average eigenvalue GAMMA=   1.1947
  1.7906  1.5892  0.8535  0.5457

 Free energy of the ion-electron system (eV)
  ---------------------------------------------------
  alpha Z        PSCENC =       759.26891756
  Ewald energy   TEWEN  =    -15880.93019074
  -Hartree energ DENC   =     -1286.84328530
  -exchange      EXHF   =         0.00000000
  -V(xc)+E(xc)   XCENC  =     -1166.47393376
  PAW double counting   =     45864.89776089   -43575.64235671
  entropy T*S    EENTRO =        -0.00176966
  eigenvalues    EBANDS =      -383.39089602
  atomic energy  EATOM  =     14980.50241411
  Solvation  Ediel_sol  =         0.00000000
  ---------------------------------------------------
  free energy    TOTEN  =      -688.61333962 eV

  energy without entropy =     -688.61156997  energy(sigma->0) =     -688.61245480


--------------------------------------------------------------------------------------------------------




--------------------------------------- Iteration      1(  10)  ---------------------------------------


    POTLOK:  cpu time      0.8464: real time      0.8554
    SETDIJ:  cpu time      4.3643: real time      4.3909
     EDDAV:  cpu time     68.8972: real time     69.5020
       DOS:  cpu time      0.0041: real time      0.0041
    CHARGE:  cpu time      3.2267: real time      3.2519
    MIXING:  cpu time      0.0240: real time      0.0242
    --------------------------------------------
      LOOP:  cpu time     77.3627: real time     78.0285

 eigenvalue-minimisations  :  6440
 total energy-change (2. order) :-0.2852867E-02  (-0.8798627E-02)
 number of electron     575.9999996 magnetization       1.0000000
 augmentation part      -63.1125276 magnetization      -0.0822978

 Broyden mixing:
  rms(total) = 0.46968E-01    rms(broyden)= 0.46968E-01
  rms(prec ) = 0.54355E-01
  weight for this iteration     100.00

 eigenvalues of (default mixing * dielectric matrix)
  average eigenvalue GAMMA=   1.1363
  1.7823  1.7823  1.0343  0.5867  0.4958

 Free energy of the ion-electron system (eV)
  ---------------------------------------------------
  alpha Z        PSCENC =       759.26891756
  Ewald energy   TEWEN  =    -15880.93019074
  -Hartree energ DENC   =     -1283.34069922
  -exchange      EXHF   =         0.00000000
  -V(xc)+E(xc)   XCENC  =     -1166.83461408
  PAW double counting   =     46146.31173769   -43856.92399142
  entropy T*S    EENTRO =        -0.00128830
  eigenvalues    EBANDS =      -386.66847808
  atomic energy  EATOM  =     14980.50241411
  Solvation  Ediel_sol  =         0.00000000
  ---------------------------------------------------
  free energy    TOTEN  =      -688.61619249 eV

  energy without entropy =     -688.61490419  energy(sigma->0) =     -688.61554834


--------------------------------------------------------------------------------------------------------




--------------------------------------- Iteration      1(  11)  ---------------------------------------


    POTLOK:  cpu time      0.8516: real time      0.8593
[...]
   -.266E+01 -.211E+02 -.792E+01   0.238E+01 0.211E+02 0.620E+01   0.787E+00 0.178E+01 0.626E+00   0.160E-04 -.117E-04 0.986E-04
   -.501E-01 0.204E+01 0.189E+01   -.392E-01 -.203E+01 -.206E+01   0.253E+00 -.344E+00 0.859E-01   -.332E-04 -.579E-05 -.559E-04
   -.168E+01 0.214E+01 0.411E+00   0.154E+01 -.199E+01 -.375E+00   0.297E+00 -.434E+00 -.600E-01   -.107E-04 0.442E-05 -.123E-03
   -.169E+01 0.213E+01 -.412E+00   0.154E+01 -.199E+01 0.375E+00   0.298E+00 -.422E+00 0.779E-01   0.255E-05 -.115E-05 -.155E-03
   -.494E-01 0.203E+01 -.190E+01   -.392E-01 -.203E+01 0.206E+01   0.275E+00 -.331E+00 -.866E-01   0.305E-04 -.984E-06 -.150E-03
   -.266E+01 -.211E+02 0.794E+01   0.238E+01 0.211E+02 -.620E+01   0.801E+00 0.179E+01 -.628E+00   -.305E-04 0.103E-04 -.312E-04
   0.395E+01 -.222E+02 0.298E+01   -.369E+01 0.218E+02 -.291E+01   -.112E+01 0.203E+00 -.126E+01   0.598E-04 0.153E-04 0.190E-04
   0.810E+00 0.150E+00 0.569E+00   -.115E+01 0.349E+00 -.153E+01   -.139E+00 -.685E-01 0.558E+00   0.251E-04 -.831E-05 -.740E-04
   0.147E+01 -.223E+01 0.443E+00   -.143E+01 0.215E+01 -.438E+00   -.291E+00 0.318E+00 -.768E-01   0.109E-04 0.382E-05 -.128E-03
   0.149E+01 -.225E+01 -.435E+00   -.143E+01 0.215E+01 0.438E+00   -.296E+00 0.310E+00 0.662E-01   -.891E-05 0.112E-04 -.149E-03
   -.550E+01 -.194E+02 0.267E+02   0.488E+01 0.192E+02 -.260E+02   0.762E+00 0.996E-01 -.153E+01   -.272E-04 0.293E-06 -.190E-04
   0.395E+01 -.222E+02 -.298E+01   -.369E+01 0.218E+02 0.291E+01   -.112E+01 0.204E+00 0.127E+01   -.485E-04 -.169E-04 -.115E-03
   0.496E+01 -.209E+02 -.157E+02   -.482E+01 0.212E+02 0.171E+02   -.869E+00 0.209E+01 0.209E+00   -.104E-04 -.893E-05 0.665E-05
   0.128E+01 -.117E+01 0.475E+01   -.101E+01 0.573E+00 -.404E+01   -.317E+00 0.817E+00 -.540E+00   -.118E-04 0.309E-04 -.965E-04
   0.152E+01 -.225E+01 0.122E+00   -.144E+01 0.213E+01 -.170E+00   -.285E+00 0.512E+00 0.815E-01   0.156E-04 -.127E-04 -.157E-03
   0.153E+01 -.226E+01 -.114E+00   -.144E+01 0.213E+01 0.170E+00   -.289E+00 0.527E+00 -.596E-01   0.188E-04 -.524E-06 -.182E-03
   0.129E+01 -.120E+01 -.477E+01   -.101E+01 0.573E+00 0.404E+01   -.307E+00 0.876E+00 0.556E+00   0.262E-04 0.420E-05 -.171E-03
   0.497E+01 -.209E+02 0.157E+02   -.482E+01 0.212E+02 -.171E+02   -.880E+00 0.213E+01 -.199E+00   0.352E-04 0.501E-05 -.151E-03
   0.157E+02 -.136E+01 -.480E+01   -.151E+02 0.107E+01 0.459E+01   -.117E+01 0.600E+00 -.413E+00   -.335E-04 -.150E-04 0.228E-04
   0.173E+00 -.247E+01 0.284E+01   0.154E+00 0.211E+01 -.258E+01   -.536E+00 0.549E+00 -.282E+00   -.221E-04 -.407E-06 -.539E-04
   0.174E+01 -.216E+01 0.362E+00   -.155E+01 0.198E+01 -.329E+00   -.403E+00 0.463E+00 0.127E-01   -.227E-04 0.100E-04 -.123E-03
   0.174E+01 -.215E+01 -.366E+00   -.155E+01 0.198E+01 0.329E+00   -.425E+00 0.490E+00 -.524E-02   -.779E-05 -.268E-05 -.150E-03
   0.681E-01 -.223E+01 -.243E+01   0.154E+00 0.211E+01 0.258E+01   -.594E+00 0.554E+00 0.303E+00   0.725E-05 -.526E-06 -.153E-03
   0.157E+02 -.136E+01 0.480E+01   -.151E+02 0.107E+01 -.459E+01   -.116E+01 0.620E+00 0.394E+00   0.183E-04 0.153E-06 -.118E-03
   -.516E-01 0.129E+01 -.178E+02   -.313E+00 -.185E+01 0.172E+02   0.103E+00 0.388E+00 0.620E+00   0.861E-05 0.675E-05 0.154E-03
   -.549E+01 -.194E+02 -.267E+02   0.488E+01 0.192E+02 0.260E+02   0.774E+00 0.103E+00 0.151E+01   0.181E-04 0.703E-05 0.122E-03
   0.147E+01 -.221E+01 0.383E+00   -.143E+01 0.215E+01 -.438E+00   -.279E+00 0.282E+00 -.321E-01   0.159E-04 -.740E-05 -.134E-03
   0.146E+01 -.220E+01 -.386E+00   -.143E+01 0.215E+01 0.438E+00   -.276E+00 0.257E+00 0.431E-01   -.113E-04 0.112E-05 -.154E-03
   0.805E+00 0.145E+00 -.563E+00   -.115E+01 0.349E+00 0.153E+01   -.141E+00 -.491E-01 -.561E+00   -.286E-04 0.276E-05 -.155E-03
   -.537E-01 0.130E+01 0.178E+02   -.313E+00 -.185E+01 -.172E+02   0.107E+00 0.378E+00 -.657E+00   -.315E-04 -.144E-04 0.753E-04
   -.147E+02 0.279E-01 -.128E+02   0.143E+02 -.369E+00 0.124E+02   0.918E+00 0.790E-01 0.206E+00   -.382E-04 -.552E-05 0.115E-03
   0.129E+01 -.121E+01 0.475E+01   -.101E+01 0.573E+00 -.404E+01   -.325E+00 0.869E+00 -.544E+00   -.266E-05 0.181E-05 -.782E-04
   0.152E+01 -.227E+01 0.139E+00   -.144E+01 0.213E+01 -.170E+00   -.305E+00 0.526E+00 0.622E-01   0.156E-05 0.651E-05 -.147E-03
   0.152E+01 -.226E+01 -.138E+00   -.144E+01 0.213E+01 0.170E+00   -.295E+00 0.523E+00 -.403E-01   0.996E-05 -.560E-07 -.182E-03
   0.126E+01 -.117E+01 -.471E+01   -.101E+01 0.573E+00 0.404E+01   -.291E+00 0.802E+00 0.501E+00   0.302E-04 -.144E-04 -.178E-03
   -.147E+02 0.252E-01 0.128E+02   0.143E+02 -.369E+00 -.124E+02   0.944E+00 0.840E-01 -.214E+00   0.469E-04 0.104E-05 -.232E-04
   0.158E+02 -.868E+00 -.477E+01   -.151E+02 0.107E+01 0.459E+01   -.106E+01 0.660E+00 -.478E+00   -.299E-04 0.169E-04 0.328E-04
   0.666E-01 -.223E+01 0.244E+01   0.154E+00 0.211E+01 -.258E+01   -.586E+00 0.543E+00 -.307E+00   -.423E-04 -.265E-05 -.673E-04
   0.175E+01 -.216E+01 0.377E+00   -.155E+01 0.198E+01 -.329E+00   -.408E+00 0.471E+00 0.981E-02   -.228E-04 -.212E-05 -.117E-03
   0.175E+01 -.217E+01 -.368E+00   -.155E+01 0.198E+01 0.329E+00   -.440E+00 0.503E+00 -.105E-01   -.509E-05 -.357E-05 -.146E-03
   0.172E+00 -.247E+01 -.284E+01   0.154E+00 0.211E+01 0.258E+01   -.540E+00 0.556E+00 0.284E+00   0.135E-04 0.275E-05 -.144E-03
   0.158E+02 -.868E+00 0.478E+01   -.151E+02 0.107E+01 -.459E+01   -.105E+01 0.678E+00 0.460E+00   0.210E-04 -.777E-05 -.116E-03
 -----------------------------------------------------------------------------------------------
   0.497E+01 0.169E+01 0.594E-01   0.444E-13 -.409E-13 -.979E-12   -.487E+01 -.175E+01 -.592E-03   0.206E-04 0.140E-04 0.274E-03
 
 
 POSITION                                       TOTAL-FORCE (eV/Angst)
 -----------------------------------------------------------------------------------
      0.00000      0.00000      0.00000         0.375524      1.312307      1.135930
      0.00000     10.06740      1.93747        -0.234995     -0.172180      0.014197
      0.00000      6.71160      3.87495        -0.026089      0.015149      0.016199
      0.00000      3.35580      5.81242        -0.023139      0.014108     -0.026246
      1.19487      4.35665     11.88736        -0.616050     -0.587734     -0.728787
      0.00000     10.06740      9.68736         0.378216      1.317255     -1.136489
      0.40390      5.47525     21.89292         0.603680     -1.121763     -0.982295
      3.16388      1.11860      1.93747         0.045859     -0.247540      0.018019
      3.16388     11.18600      3.87495        -0.002806     -0.106642     -0.086595
      3.16388      7.83020      5.81242        -0.001524     -0.103971      0.075607
      3.16388      4.47440      7.74989         0.026481     -0.239264     -0.014013
      0.40390      2.11945     11.88736         0.609314     -1.108737      0.981744
      4.35875      3.23805     21.89292        -0.059583      1.805421     -1.365583
      6.32776      5.59300      1.93747        -0.025208     -0.150014     -0.062621
      6.32776      2.23720      3.87495        -0.048198     -0.043231      0.000936
      6.32776     12.30460      5.81242        -0.050306     -0.043969     -0.010984
      6.32776      8.94880      7.74989        -0.026169     -0.142717      0.072075
      4.35875     13.30546     11.88736        -0.052362      1.825346      1.377065
      6.73166      3.23805     21.89292        -0.610718     -0.087790      0.244014
      1.19487      7.71245     21.89292        -0.622285     -0.594399      0.724435
      0.00000      0.00000      3.87495        -0.028786      0.015820      0.018206
      0.00000     10.06740      5.81242        -0.029993      0.013591     -0.024231
      0.00000      6.71160      7.74989        -0.237061     -0.169329     -0.015550
      6.73166     13.30546     11.88736        -0.608156     -0.081639     -0.246539
      1.19487     11.06826     19.89181        -0.432505      0.329200      0.356067
      3.16388      7.83020      1.93747         0.031198     -0.240060      0.030191
      3.16388      4.47440      3.87495        -0.002581     -0.099499     -0.083280
      3.16388      1.11860      5.81242         0.000016     -0.105441      0.076284
      3.16388     11.18600      7.74989         0.047096     -0.248681     -0.017594
      1.19487      7.71245     13.88848        -0.432885      0.331834     -0.350696
      0.40390     12.18686     21.89292         0.481005     -1.752572     -1.122307
      6.32776     12.30460      1.93747        -0.026680     -0.146122     -0.070371
      6.32776      8.94880      3.87495        -0.046428     -0.042696      0.010514
      6.32776      5.59300      5.81242        -0.049361     -0.041711     -0.019233
      6.32776      2.23720      7.74989        -0.025386     -0.151835      0.072493
      0.40390      8.83106     11.88736         0.487538     -1.746693      1.128521
      0.79097      4.47440      0.00000         0.502558      0.158013     -1.392221
      0.79097      1.11860      1.93747         0.289970     -0.445903     -0.133216
      0.79097     11.18600      3.87495         0.080408      0.134795     -0.145685
      0.79097      7.83020      5.81242         0.083820      0.133235      0.138687
      0.79097      4.47440      7.74989         0.321644      0.392888     -0.386942
      0.79097      1.11860      9.68736         0.499148      0.161361      1.392181
      3.95485      8.94880      0.00000        -0.521356     -1.657358      1.627868
      3.95485      5.59300      1.93747         0.426843      0.279390      0.451002
      3.95485      2.23720      3.87495         0.038715      0.006333     -0.019126
      3.95485     12.30460      5.81242         0.031940      0.006876      0.004637
      3.95485      8.94880      7.74989         0.433830      0.279145     -0.434310
      3.95485      5.59300      9.68736        -0.518011     -1.651428     -1.622215
      7.11873      0.00000      0.00000         0.507126     -0.644856     -0.511021
      7.11873     10.06740      1.93747         0.292611      0.301592      0.402932
      7.11873      6.71160      3.87495         0.068155      0.053886     -0.031269
      7.11873      3.35580      5.81242         0.065501      0.059485      0.021348
      7.11873      0.00000      7.74989        -0.285384      0.306965     -0.390701
      7.11873     10.06740      9.68736         0.506976     -0.645481      0.512625
      0.79097     11.18600      0.00000         0.088068      0.479218     -0.845224
      0.79097      7.83020      1.93747         0.321245      0.391689      0.389553
      0.79097      4.47440      3.87495         0.275409      0.414653      0.319088
      0.79097      1.11860      5.81242         0.277720      0.416331     -0.330037
      0.79097     11.18600      7.74989         0.288716     -0.448370      0.140866
      0.79097      7.83020      9.68736         0.086390      0.477775      0.851421
      3.95485      2.23720      0.00000        -0.444118     -1.480989      1.261446
      3.95485     12.30460      1.93747         0.435433      0.278916      0.440252
      3.95485      8.94880      3.87495         0.039761      0.007243     -0.012408
      3.95485      5.59300      5.81242         0.040554      0.006796      0.002362
      3.95485      2.23720      7.74989         0.432424      0.270279     -0.442653
      3.95485     12.30460      9.68736        -0.437567     -1.497809     -1.263221
      7.11873      6.71160      0.00000        -0.088918     -0.643241     -0.535830
      7.11873      3.35580      1.93747        -0.284882      0.306580      0.387514
      7.11873      0.00000      3.87495         0.067257      0.059128     -0.030736
      7.11873     10.06740      5.81242         0.068868      0.056167      0.024134
      7.11873      6.71160      7.74989         0.294079      0.300079     -0.400930
      7.11873      3.35580      9.68736        -0.091072     -0.642788      0.534046
      3.16388      1.11860      9.68736         0.262509     -0.114235      1.071389
      0.40390      5.47525     13.88848         0.382993     -0.052700     -0.447573
      0.40390      8.83106     15.88959         0.414533     -0.630632     -0.446437
      0.40390     12.18686     17.89070         0.388278     -0.592056      0.450449
      0.40390      2.11945     19.89181        -0.013873     -0.365106     -0.016245
      3.16388      4.47440      0.00000         0.248836     -0.111254     -1.066374
      3.56778     11.06826     11.88736         0.203381      0.064087     -1.380834
      3.56778      1.00085     13.88848         0.317691     -0.541151     -0.534836
      3.56778      4.35665     15.88959         0.183546     -0.224353     -0.122799
      3.56778      7.71245     17.89070         0.187740     -0.233575      0.124683
      3.56778     11.06826     19.89181        -0.464083     -0.255963      0.046058
      3.56778      1.00085     21.89292         0.203696      0.061870      1.386539
      6.73166      6.59385     11.88736         0.390142     -0.193788     -0.267274
      6.73166      9.94966     13.88848         0.169564     -0.325620     -0.082149
      6.73166     13.30546     15.88959         0.148132     -0.286199     -0.018187
      6.73166      3.23805     17.89070         0.152280     -0.275529      0.032772
      6.73166      6.59385     19.89181         0.178849     -0.338967      0.084589
      6.73166      9.94966     21.89292         0.382257     -0.172998      0.260322
      6.32776     12.30460      9.68736         0.553018     -0.008443      0.253735
      0.40390     12.18686     13.88848        -0.012957     -0.368171      0.011632
      0.40390      2.11945     15.88959         0.244472     -0.400898     -0.016696
      0.40390      5.47525     17.89070         0.225948     -0.371461      0.016062
      0.40390      8.83106     19.89181         0.372125     -0.045995      0.435206
      6.32776      2.23720      0.00000         0.577871     -0.007776     -0.260735
      3.56778      4.35665     11.88736        -0.651657     -0.605722     -1.440546
      3.56778      7.71245     13.88848        -0.461400     -0.268206     -0.045256
      3.56778     11.06826     15.88959         0.178429     -0.225243     -0.126851
      3.56778      1.00085     17.89070         0.182201     -0.229915      0.120307
      3.56778      4.35665     19.89181         0.311065     -0.536131      0.541537
      3.56778      7.71245     21.89292        -0.655880     -0.598660      1.469749
      0.00000      3.35580      9.68736         0.506623      1.834200     -1.098702
      6.73166      3.23805     13.88848         0.163031     -0.336334     -0.083555
      6.73166      6.59385     15.88959         0.153773     -0.285658     -0.023948
      6.73166      9.94966     17.89070         0.151299     -0.277355      0.039729
      6.73166     13.30546     19.89181         0.185360     -0.331564      0.075748
      0.00000      6.71160      0.00000         0.518535      1.834141      1.109776
      1.19487     11.06826     11.88736        -0.858514     -0.195609     -1.189108
      1.19487      1.00085     13.88848        -0.477933      0.430818     -0.403957
      1.19487      4.35665     15.88959        -0.249474      0.234462     -0.071981
      1.19487      7.71245     17.89070        -0.240537      0.206596      0.068880
      3.16388     11.18600      0.00000         0.142660     -0.059399     -0.827149
      1.19487      1.00085     21.89292        -0.862362     -0.184979      1.204013
      4.35875      6.59385     11.88736        -0.726499      2.336645      1.642111
      4.35875      9.94966     13.88848        -0.049969      0.216219      0.177202
      4.35875     13.30546     15.88959        -0.208589      0.393322      0.033031
      4.35875      3.23805     17.89070        -0.208952      0.397740     -0.004126
      4.35875      6.59385     19.89181        -0.027598      0.245805     -0.174677
      4.35875      9.94966     21.89292        -0.735822      2.366737     -1.645343
      7.52263      2.11945     11.88736        -0.593277      0.313252     -0.620134
      7.52263      5.47525     13.88848        -0.209905      0.192983     -0.026998
      7.52263      8.83106     15.88959        -0.207407      0.283480      0.045120
      7.52263     12.18686     17.89070        -0.230391      0.317796     -0.042800
      7.52263      2.11945     19.89181        -0.372109      0.436959      0.454974
      7.52263      5.47525     21.89292        -0.582824      0.332403      0.603979
      0.00000      0.00000      7.74989        -0.262721     -0.166306     -0.049694
      3.16388      7.83020      9.68736         0.161580     -0.056871      0.817076
      1.19487     11.06826     15.88959        -0.241050      0.216170     -0.087777
      1.19487      1.00085     17.89070        -0.250687      0.209518      0.094467
      1.19487      4.35665     19.89181        -0.484351      0.445298      0.405793
      0.00000      3.35580      1.93747        -0.260111     -0.164048      0.013972
      6.32776      5.59300      9.68736         0.509287     -0.261964     -0.235882
      4.35875      3.23805     13.88848        -0.042969      0.236625      0.167364
      4.35875      6.59385     15.88959        -0.226915      0.389024      0.029900
      4.35875      9.94966     17.89070        -0.222414      0.392341     -0.008517
      4.35875     13.30546     19.89181        -0.039853      0.210196     -0.171875
      6.32776      8.94880      0.00000         0.532621     -0.259625      0.227009
      7.52263      8.83106     11.88736        -0.348905      0.866342     -0.664872
      7.52263     12.18686     13.88848        -0.365740      0.426681     -0.453233
      7.52263      2.11945     15.88959        -0.205664      0.288548      0.057370
      7.52263      5.47525     17.89070        -0.235780      0.313760     -0.050323
      7.52263      8.83106     19.89181        -0.214730      0.197678      0.023801
      7.52263     12.18686     21.89292        -0.340952      0.884363      0.647797
 -----------------------------------------------------------------------------------
    total drift:                                0.101005     -0.060555      0.059055


--------------------------------------------------------------------------------------------------------



  FREE ENERGIE OF THE ION-ELECTRON SYSTEM (eV)
  ---------------------------------------------------
  free  energy   TOTEN  =      -688.61806666 eV

  energy  without entropy=     -688.61632670  energy(sigma->0) =     -688.61719668
 


--------------------------------------------------------------------------------------------------------


    POTLOK:  cpu time      5.2348: real time      5.2634


--------------------------------------------------------------------------------------------------------


     LOOP+:  cpu time   1826.8592: real time   1842.8693
    4ORBIT:  cpu time      0.0000: real time      0.0000

 total amount of memory used by VASP MPI-rank0   511242. kBytes
=======================================================================

   base      :      30000. kBytes
   nonlr-proj:       7837. kBytes
   fftplans  :      69092. kBytes
   grid      :      42335. kBytes
   one-center:        146. kBytes
   wavefun   :     361832. kBytes
 
  
  
 General timing and accounting informations for this job:
 ========================================================
  
                  Total CPU time used (sec):     1892.733
                            User time (sec):     1815.594
                          System time (sec):       77.139
                         Elapsed time (sec):     1913.133
  
                   Maximum memory used (kb):      781148.
                   Average memory used (kb):          N/A
  
                          Minor page faults:       382559
                          Major page faults:           42
                 Voluntary context switches:         1521
