<?xml version="1.0" encoding="ISO-8859-1"?>
<modeling>
 <generator>
  <i name="program" type="string">vasp </i>
  <i name="version" type="string">6.4.3  </i>
  <i name="subversion" type="string">19Mar24 (build Oct 22 2024 11:23:12) complex                          parallel </i>
  <i name="platform" type="string">LinuxIFC </i>
  <i name="date" type="string">2025 06 08 </i>
  <i name="time" type="string">19:44:33 </i>
 </generator>
 <incar>
  <i type="string" name="SYSTEM">Si and Ge interface calculation</i>
  <i type="int" name="ISTART">     0</i>
  <i type="logical" name="ADDGRID"> T  </i>
  <i type="int" name="ISPIN">     2</i>
  <i name="AMIX">      0.60000000</i>
  <i type="int" name="ICHARG">     2</i>
  <i type="int" name="NELM">   100</i>
  <i name="EDIFF">      0.00000010</i>
  <i name="ENCUT">    700.00000000</i>
  <i name="ENAUG">    900.00000000</i>
  <i type="int" name="NBANDS">   375</i>
  <i name="NUPDOWN">      1.00000000</i>
  <i name="NELECT">    624.00000000</i>
  <i type="string" name="LREAL">AUTO</i>
  <i type="int" name="ISMEAR">     0</i>
  <i name="SIGMA">      0.01000000</i>
  <i type="int" name="LMAXMIX">     6</i>
  <i type="logical" name="LWAVE"> F  </i>
  <i type="logical" name="LVTOT"> F  </i>
  <i type="logical" name="LVHAR"> T  </i>
  <i type="logical" name="LASPH"> T  </i>
  <i type="logical" name="LMIXTAU"> T  </i>
 </incar>
 <primitive_cell>
  <structure name="primitive_cell" >
   <crystal>
    <varray name="basis" >
     <v>      16.29300118       0.00000000       0.00000000 </v>
     <v>       0.00000000      16.29300118       0.00000000 </v>
     <v>       0.00000000       0.00000000      13.29391670 </v>
    </varray>
    <i name="volume">   3529.02821717 </i>
    <varray name="rec_basis" >
     <v>       0.06137605       0.00000000       0.00000000 </v>
     <v>       0.00000000       0.06137605       0.00000000 </v>
     <v>       0.00000000       0.00000000       0.07522238 </v>
    </varray>
   </crystal>
   <varray name="positions" >
    <v>       0.00000000       0.99406773       0.00000000 </v>
    <v>       0.00000000       0.82740104       0.20426638 </v>
    <v>       0.00000000       0.66073430       0.40853280 </v>
    <v>       0.33333334       0.99406773       0.00000000 </v>
    <v>       0.33333334       0.82740104       0.20426638 </v>
    <v>       0.33333334       0.66073430       0.40853280 </v>
    <v>       0.66666669       0.99406773       0.00000000 </v>
    <v>       0.66666669       0.82740104       0.20426638 </v>
    <v>       0.66666669       0.66073430       0.40853280 </v>
    <v>       0.00000000       0.32740104       0.00000000 </v>
    <v>       0.00000000       0.16073437       0.20426638 </v>
    <v>       0.00000000       0.99406767       0.40853280 </v>
    <v>       0.33333334       0.32740104       0.00000000 </v>
    <v>       0.33333334       0.16073437       0.20426638 </v>
    <v>       0.33333334       0.99406767       0.40853280 </v>
    <v>       0.66666669       0.32740104       0.00000000 </v>
    <v>       0.66666669       0.16073437       0.20426638 </v>
    <v>       0.66666669       0.99406767       0.40853280 </v>
    <v>       0.00000000       0.66073442       0.00000000 </v>
    <v>       0.00000000       0.49406770       0.20426638 </v>
    <v>       0.00000000       0.32740104       0.40853280 </v>
    <v>       0.33333334       0.66073442       0.00000000 </v>
    <v>       0.33333334       0.49406770       0.20426638 </v>
    <v>       0.33333334       0.32740104       0.40853280 </v>
    <v>       0.66666669       0.66073442       0.00000000 </v>
    <v>       0.66666669       0.49406770       0.20426638 </v>
    <v>       0.66666669       0.32740104       0.40853280 </v>
    <v>       0.08333334       0.07740105       0.10213320 </v>
    <v>       0.08333334       0.91073436       0.30639952 </v>
    <v>       0.08333334       0.74406767       0.51066601 </v>
    <v>       0.41666669       0.07740105       0.10213320 </v>
    <v>       0.41666669       0.91073436       0.30639952 </v>
    <v>       0.41666669       0.74406767       0.51066601 </v>
    <v>       0.75000000       0.07740105       0.10213320 </v>
    <v>       0.75000000       0.91073436       0.30639952 </v>
    <v>       0.75000000       0.74406767       0.51066601 </v>
    <v>       0.08333334       0.41073436       0.10213320 </v>
    <v>       0.08333334       0.24406767       0.30639952 </v>
    <v>       0.08333334       0.07740098       0.51066601 </v>
    <v>       0.41666669       0.41073436       0.10213320 </v>
    <v>       0.41666669       0.24406767       0.30639952 </v>
    <v>       0.41666669       0.07740098       0.51066601 </v>
    <v>       0.75000000       0.41073436       0.10213320 </v>
    <v>       0.75000000       0.24406767       0.30639952 </v>
    <v>       0.75000000       0.07740098       0.51066601 </v>
    <v>       0.08333334       0.74406773       0.10213320 </v>
    <v>       0.08333334       0.57740104       0.30639952 </v>
    <v>       0.08333334       0.41073436       0.51066601 </v>
    <v>       0.41666669       0.74406773       0.10213320 </v>
    <v>       0.41666669       0.57740104       0.30639952 </v>
    <v>       0.41666669       0.41073436       0.51066601 </v>
    <v>       0.75000000       0.74406773       0.10213320 </v>
    <v>       0.75000000       0.57740104       0.30639952 </v>
    <v>       0.75000000       0.41073436       0.51066601 </v>
    <v>       0.16666667       0.16073438       0.00000000 </v>
    <v>       0.16666667       0.99406767       0.20426638 </v>
    <v>       0.16666667       0.82740098       0.40853280 </v>
    <v>       0.50000000       0.16073438       0.00000000 </v>
    <v>       0.50000000       0.99406767       0.20426638 </v>
    <v>       0.50000000       0.82740098       0.40853280 </v>
    <v>       0.83333337       0.16073438       0.00000000 </v>
    <v>       0.83333337       0.99406767       0.20426638 </v>
    <v>       0.83333337       0.82740098       0.40853280 </v>
    <v>       0.16666667       0.49406770       0.00000000 </v>
    <v>       0.16666667       0.32740104       0.20426638 </v>
    <v>       0.16666667       0.16073431       0.40853280 </v>
    <v>       0.50000000       0.49406770       0.00000000 </v>
    <v>       0.50000000       0.32740104       0.20426638 </v>
    <v>       0.50000000       0.16073431       0.40853280 </v>
    <v>       0.83333337       0.49406770       0.00000000 </v>
    <v>       0.83333337       0.32740104       0.20426638 </v>
    <v>       0.83333337       0.16073431       0.40853280 </v>
    <v>       0.16666667       0.82740104       0.00000000 </v>
    <v>       0.16666667       0.66073436       0.20426638 </v>
    <v>       0.16666667       0.49406764       0.40853280 </v>
    <v>       0.50000000       0.82740104       0.00000000 </v>
    <v>       0.50000000       0.66073436       0.20426638 </v>
    <v>       0.50000000       0.49406764       0.40853280 </v>
    <v>       0.83333337       0.82740104       0.00000000 </v>
    <v>       0.83333337       0.66073436       0.20426638 </v>
    <v>       0.83333337       0.49406764       0.40853280 </v>
    <v>       0.25000000       0.24406771       0.10213320 </v>
    <v>       0.25000000       0.07740103       0.30639952 </v>
    <v>       0.25000000       0.91073436       0.51066601 </v>
    <v>       0.58333337       0.24406771       0.10213320 </v>
    <v>       0.58333337       0.07740103       0.30639952 </v>
    <v>       0.58333337       0.91073436       0.51066601 </v>
    <v>       0.91666669       0.24406771       0.10213320 </v>
    <v>       0.91666669       0.07740103       0.30639952 </v>
    <v>       0.91666669       0.91073436       0.51066601 </v>
    <v>       0.25000000       0.57740116       0.10213320 </v>
    <v>       0.25000000       0.41073445       0.30639952 </v>
    <v>       0.25000000       0.24406774       0.51066601 </v>
    <v>       0.58333337       0.57740116       0.10213320 </v>
    <v>       0.58333337       0.41073445       0.30639952 </v>
    <v>       0.58333337       0.24406774       0.51066601 </v>
    <v>       0.91666669       0.57740116       0.10213320 </v>
    <v>       0.91666669       0.41073445       0.30639952 </v>
    <v>       0.91666669       0.24406774       0.51066601 </v>
    <v>       0.25000000       0.91073436       0.10213320 </v>
    <v>       0.25000000       0.74406767       0.30639952 </v>
    <v>       0.25000000       0.57740104       0.51066601 </v>
    <v>       0.58333337       0.91073436       0.10213320 </v>
    <v>       0.58333337       0.74406767       0.30639952 </v>
    <v>       0.58333337       0.57740104       0.51066601 </v>
    <v>       0.91666669       0.91073436       0.10213320 </v>
    <v>       0.91666669       0.74406767       0.30639952 </v>
    <v>       0.91666669       0.57740104       0.51066601 </v>
    <v>       0.50261688       0.83299089       0.62994116 </v>
    <v>       0.11372793       0.45799077       0.68009800 </v>
    <v>       0.72483897       0.08299089       0.73025465 </v>
    <v>       0.33594990       0.70799089       0.78041142 </v>
    <v>       0.94706106       0.33299089       0.83056808 </v>
    <v>       0.55817211       0.95799077       0.88072485 </v>
    <v>       0.50261688       0.33299077       0.62994116 </v>
    <v>       0.11372793       0.95799071       0.68009800 </v>
    <v>       0.72483897       0.58299077       0.73025471 </v>
    <v>       0.33594990       0.20799077       0.78041142 </v>
    <v>       0.94706106       0.83299089       0.83056808 </v>
    <v>       0.55817211       0.45799077       0.88072479 </v>
    <v>       0.25261676       0.95799077       0.62994116 </v>
    <v>       0.86372781       0.58299077       0.68009800 </v>
    <v>       0.47483897       0.20799089       0.73025465 </v>
    <v>       0.08594990       0.83299089       0.78041136 </v>
    <v>       0.69706100       0.45799089       0.83056814 </v>
    <v>       0.30817187       0.08299089       0.88072479 </v>
    <v>       0.25261688       0.45799065       0.62994116 </v>
    <v>       0.86372781       0.08299065       0.68009800 </v>
    <v>       0.47483897       0.70799065       0.73025465 </v>
    <v>       0.08594990       0.33299065       0.78041136 </v>
    <v>       0.69706100       0.95799083       0.83056814 </v>
    <v>       0.30817199       0.58299065       0.88072479 </v>
    <v>       0.25261688       0.20799077       0.62994123 </v>
    <v>       0.86372781       0.83299077       0.68009800 </v>
    <v>       0.47483897       0.45799089       0.73025465 </v>
    <v>       0.08594990       0.08299089       0.78041136 </v>
    <v>       0.69706106       0.70799089       0.83056814 </v>
    <v>       0.30817199       0.33299089       0.88072485 </v>
    <v>       0.25261688       0.70799065       0.62994116 </v>
    <v>       0.86372781       0.33299065       0.68009800 </v>
    <v>       0.47483897       0.95799077       0.73025465 </v>
    <v>       0.08594990       0.58299077       0.78041136 </v>
    <v>       0.69706106       0.20799089       0.83056814 </v>
    <v>       0.30817187       0.83299065       0.88072479 </v>
    <v>       0.50261688       0.08299077       0.62994116 </v>
    <v>       0.11372793       0.70799077       0.68009800 </v>
    <v>       0.72483897       0.33299089       0.73025471 </v>
    <v>       0.33594990       0.95799083       0.78041142 </v>
    <v>       0.94706130       0.58299100       0.83056814 </v>
    <v>       0.55817211       0.20799077       0.88072485 </v>
    <v>       0.50261688       0.58299065       0.62994116 </v>
    <v>       0.11372793       0.20799077       0.68009800 </v>
    <v>       0.72483897       0.83299089       0.73025471 </v>
    <v>       0.33595002       0.45799089       0.78041142 </v>
    <v>       0.94706118       0.08299089       0.83056808 </v>
    <v>       0.55817187       0.70799065       0.88072479 </v>
   </varray>
  </structure>
  <varray name="primitive_index" >
   <v type="int" >        1 </v>
   <v type="int" >        2 </v>
   <v type="int" >        3 </v>
   <v type="int" >        4 </v>
   <v type="int" >        5 </v>
   <v type="int" >        6 </v>
   <v type="int" >        7 </v>
   <v type="int" >        8 </v>
   <v type="int" >        9 </v>
   <v type="int" >       10 </v>
   <v type="int" >       11 </v>
   <v type="int" >       12 </v>
   <v type="int" >       13 </v>
   <v type="int" >       14 </v>
   <v type="int" >       15 </v>
   <v type="int" >       16 </v>
   <v type="int" >       17 </v>
   <v type="int" >       18 </v>
   <v type="int" >       19 </v>
   <v type="int" >       20 </v>
   <v type="int" >       21 </v>
   <v type="int" >       22 </v>
   <v type="int" >       23 </v>
   <v type="int" >       24 </v>
   <v type="int" >       25 </v>
   <v type="int" >       26 </v>
   <v type="int" >       27 </v>
   <v type="int" >       28 </v>
   <v type="int" >       29 </v>
   <v type="int" >       30 </v>
   <v type="int" >       31 </v>
   <v type="int" >       32 </v>
   <v type="int" >       33 </v>
   <v type="int" >       34 </v>
   <v type="int" >       35 </v>
   <v type="int" >       36 </v>
   <v type="int" >       37 </v>
   <v type="int" >       38 </v>
   <v type="int" >       39 </v>
   <v type="int" >       40 </v>
   <v type="int" >       41 </v>
   <v type="int" >       42 </v>
   <v type="int" >       43 </v>
   <v type="int" >       44 </v>
   <v type="int" >       45 </v>
   <v type="int" >       46 </v>
   <v type="int" >       47 </v>
   <v type="int" >       48 </v>
   <v type="int" >       49 </v>
   <v type="int" >       50 </v>
   <v type="int" >       51 </v>
   <v type="int" >       52 </v>
   <v type="int" >       53 </v>
   <v type="int" >       54 </v>
   <v type="int" >       55 </v>
   <v type="int" >       56 </v>
   <v type="int" >       57 </v>
   <v type="int" >       58 </v>
   <v type="int" >       59 </v>
   <v type="int" >       60 </v>
   <v type="int" >       61 </v>
   <v type="int" >       62 </v>
   <v type="int" >       63 </v>
   <v type="int" >       64 </v>
   <v type="int" >       65 </v>
   <v type="int" >       66 </v>
   <v type="int" >       67 </v>
   <v type="int" >       68 </v>
   <v type="int" >       69 </v>
   <v type="int" >       70 </v>
   <v type="int" >       71 </v>
   <v type="int" >       72 </v>
   <v type="int" >       73 </v>
   <v type="int" >       74 </v>
   <v type="int" >       75 </v>
   <v type="int" >       76 </v>
   <v type="int" >       77 </v>
   <v type="int" >       78 </v>
   <v type="int" >       79 </v>
   <v type="int" >       80 </v>
   <v type="int" >       81 </v>
   <v type="int" >       82 </v>
   <v type="int" >       83 </v>
   <v type="int" >       84 </v>
   <v type="int" >       85 </v>
   <v type="int" >       86 </v>
   <v type="int" >       87 </v>
   <v type="int" >       88 </v>
   <v type="int" >       89 </v>
   <v type="int" >       90 </v>
   <v type="int" >       91 </v>
   <v type="int" >       92 </v>
   <v type="int" >       93 </v>
   <v type="int" >       94 </v>
   <v type="int" >       95 </v>
   <v type="int" >       96 </v>
   <v type="int" >       97 </v>
   <v type="int" >       98 </v>
   <v type="int" >       99 </v>
   <v type="int" >      100 </v>
   <v type="int" >      101 </v>
   <v type="int" >      102 </v>
   <v type="int" >      103 </v>
   <v type="int" >      104 </v>
   <v type="int" >      105 </v>
   <v type="int" >      106 </v>
   <v type="int" >      107 </v>
   <v type="int" >      108 </v>
   <v type="int" >      109 </v>
   <v type="int" >      110 </v>
   <v type="int" >      111 </v>
   <v type="int" >      112 </v>
   <v type="int" >      113 </v>
   <v type="int" >      114 </v>
   <v type="int" >      115 </v>
   <v type="int" >      116 </v>
   <v type="int" >      117 </v>
   <v type="int" >      118 </v>
   <v type="int" >      119 </v>
   <v type="int" >      120 </v>
   <v type="int" >      121 </v>
   <v type="int" >      122 </v>
   <v type="int" >      123 </v>
   <v type="int" >      124 </v>
   <v type="int" >      125 </v>
   <v type="int" >      126 </v>
   <v type="int" >      127 </v>
   <v type="int" >      128 </v>
   <v type="int" >      129 </v>
   <v type="int" >      130 </v>
   <v type="int" >      131 </v>
   <v type="int" >      132 </v>
   <v type="int" >      133 </v>
   <v type="int" >      134 </v>
   <v type="int" >      135 </v>
   <v type="int" >      136 </v>
   <v type="int" >      137 </v>
   <v type="int" >      138 </v>
   <v type="int" >      139 </v>
   <v type="int" >      140 </v>
   <v type="int" >      141 </v>
   <v type="int" >      142 </v>
   <v type="int" >      143 </v>
   <v type="int" >      144 </v>
   <v type="int" >      145 </v>
   <v type="int" >      146 </v>
   <v type="int" >      147 </v>
   <v type="int" >      148 </v>
   <v type="int" >      149 </v>
   <v type="int" >      150 </v>
   <v type="int" >      151 </v>
   <v type="int" >      152 </v>
   <v type="int" >      153 </v>
   <v type="int" >      154 </v>
   <v type="int" >      155 </v>
   <v type="int" >      156 </v>
  </varray>
 </primitive_cell>
 <kpoints>
  <generation param="Gamma">
   <v type="int" name="divisions">       2        2        2 </v>
   <v name="usershift">      0.00000000       0.00000000       0.00000000 </v>
   <v name="genvec1">      0.50000000       0.00000000       0.00000000 </v>
   <v name="genvec2">      0.00000000       0.50000000       0.00000000 </v>
   <v name="genvec3">      0.00000000       0.00000000       0.50000000 </v>
   <v name="shift">      0.00000000       0.00000000       0.00000000 </v>
  </generation>
  <varray name="kpointlist" >
   <v>       0.00000000       0.00000000       0.00000000 </v>
   <v>       0.50000000       0.00000000       0.00000000 </v>
   <v>       0.00000000       0.50000000       0.00000000 </v>
   <v>       0.50000000       0.50000000       0.00000000 </v>
   <v>       0.00000000       0.00000000       0.50000000 </v>
   <v>       0.50000000       0.00000000       0.50000000 </v>
   <v>       0.00000000       0.50000000       0.50000000 </v>
   <v>       0.50000000       0.50000000       0.50000000 </v>
  </varray>
  <varray name="weights" >
   <v>       0.12500000 </v>
   <v>       0.12500000 </v>
   <v>       0.12500000 </v>
   <v>       0.12500000 </v>
   <v>       0.12500000 </v>
   <v>       0.12500000 </v>
   <v>       0.12500000 </v>
   <v>       0.12500000 </v>
  </varray>
 </kpoints>
 <parameters>
  <separator name="general" >
   <i type="string" name="SYSTEM">Si and Ge interface calculation</i>
   <i type="logical" name="LCOMPAT"> F  </i>
  </separator>
  <separator name="electronic" >
   <i type="string" name="PREC">normal</i>
   <i name="ENMAX">    700.00000000</i>
   <i name="ENAUG">    900.00000000</i>
   <i name="EDIFF">      0.00000010</i>
   <i type="int" name="IALGO">    38</i>
   <i type="int" name="IWAVPR">    10</i>
   <i type="int" name="NBANDS">   376</i>
   <i type="int" name="NBANDSLOW">    -1</i>
   <i type="int" name="NBANDSHIGH">    -1</i>
   <i name="NELECT">    624.00000000</i>
   <i type="int" name="TURBO">     0</i>
   <i type="int" name="IRESTART">     0</i>
   <i type="int" name="NREBOOT">     0</i>
   <i type="int" name="NMIN">     0</i>
   <i name="EREF">      0.00000000</i>
   <separator name="electronic smearing" >
    <i type="int" name="ISMEAR">     0</i>
    <i name="SIGMA">      0.01000000</i>
    <i name="KSPACING">      0.50000000</i>
    <i type="logical" name="KGAMMA"> T  </i>
    <i type="logical" name="KBLOWUP"> T  </i>
   </separator>
   <separator name="electronic projectors" >
    <i type="logical" name="LREAL"> T  </i>
    <v name="ROPT">     -0.00050000     -0.00050000</v>
    <i type="int" name="LMAXPAW">  -100</i>
    <i type="int" name="LMAXMIX">     6</i>
    <i type="logical" name="NLSPLINE"> F  </i>
   </separator>
   <separator name="electronic startup" >
    <i type="int" name="ISTART">     0</i>
    <i type="int" name="ICHARG">     2</i>
    <i type="int" name="INIWAV">     1</i>
   </separator>
   <separator name="electronic spin" >
    <i type="int" name="ISPIN">     2</i>
    <i type="logical" name="LNONCOLLINEAR"> F  </i>
    <v name="MAGMOM">      0.00641026      0.00641026      0.00641026      0.00641026      0.00641026      0.00641026      0.00641026      0.00641026      0.00641026      0.00641026      0.00641026      0.00641026      0.00641026      0.00641026      0.00641026      0.00641026      0.00641026      0.00641026      0.00641026      0.00641026
      0.00641026      0.00641026      0.00641026      0.00641026      0.00641026      0.00641026      0.00641026      0.00641026      0.00641026      0.00641026      0.00641026      0.00641026      0.00641026      0.00641026      0.00641026      0.00641026      0.00641026      0.00641026      0.00641026      0.00641026
      0.00641026      0.00641026      0.00641026      0.00641026      0.00641026      0.00641026      0.00641026      0.00641026      0.00641026      0.00641026      0.00641026      0.00641026      0.00641026      0.00641026      0.00641026      0.00641026      0.00641026      0.00641026      0.00641026      0.00641026
      0.00641026      0.00641026      0.00641026      0.00641026      0.00641026      0.00641026      0.00641026      0.00641026      0.00641026      0.00641026      0.00641026      0.00641026      0.00641026      0.00641026      0.00641026      0.00641026      0.00641026      0.00641026      0.00641026      0.00641026
      0.00641026      0.00641026      0.00641026      0.00641026      0.00641026      0.00641026      0.00641026      0.00641026      0.00641026      0.00641026      0.00641026      0.00641026      0.00641026      0.00641026      0.00641026      0.00641026      0.00641026      0.00641026      0.00641026      0.00641026
      0.00641026      0.00641026      0.00641026      0.00641026      0.00641026      0.00641026      0.00641026      0.00641026      0.00641026      0.00641026      0.00641026      0.00641026      0.00641026      0.00641026      0.00641026      0.00641026      0.00641026      0.00641026      0.00641026      0.00641026
      0.00641026      0.00641026      0.00641026      0.00641026      0.00641026      0.00641026      0.00641026      0.00641026      0.00641026      0.00641026      0.00641026      0.00641026      0.00641026      0.00641026      0.00641026      0.00641026      0.00641026      0.00641026      0.00641026      0.00641026
      0.00641026      0.00641026      0.00641026      0.00641026      0.00641026      0.00641026      0.00641026      0.00641026      0.00641026      0.00641026      0.00641026      0.00641026      0.00641026      0.00641026      0.00641026      0.00641026</v>
    <i name="NUPDOWN">      1.00000000</i>
    <i type="logical" name="LSORBIT"> F  </i>
    <v name="SAXIS">      0.00000000      0.00000000      1.00000000</v>
    <i type="logical" name="LSPIRAL"> F  </i>
    <v name="QSPIRAL">      0.00000000      0.00000000      0.00000000</v>
    <i type="logical" name="LZEROZ"> F  </i>
   </separator>
   <separator name="electronic exchange-correlation" >
    <i type="logical" name="LASPH"> T  </i>
   </separator>
   <separator name="electronic convergence" >
    <i type="int" name="NELM">   100</i>
    <i type="int" name="NELMDL">    -5</i>
    <i type="int" name="NELMIN">     2</i>
    <i name="ENINI">    700.00000000</i>
    <separator name="electronic convergence detail" >
     <i type="logical" name="LDIAG"> T  </i>
     <i type="logical" name="LSUBROT"> F  </i>
     <i name="WEIMIN">      0.00000000</i>
     <i name="EBREAK">      0.00000000</i>
     <i name="DEPER">      0.30000000</i>
     <i type="int" name="NRMM">     4</i>
     <i name="TIME">      0.40000000</i>
    </separator>
   </separator>
   <separator name="electronic mixer" >
    <i name="AMIX">      0.60000000</i>
    <i name="BMIX">      1.00000000</i>
    <i name="AMIN">      0.10000000</i>
    <i name="AMIX_MAG">      2.40000000</i>
    <i name="BMIX_MAG">      1.00000000</i>
    <separator name="electronic mixer details" >
     <i type="int" name="IMIX">     4</i>
     <i type="logical" name="MIXFIRST"> F  </i>
     <i type="int" name="MAXMIX">   -45</i>
     <i name="WC">    100.00000000</i>
     <i type="int" name="INIMIX">     1</i>
     <i type="int" name="MIXPRE">     1</i>
     <i type="int" name="MREMOVE">     5</i>
    </separator>
   </separator>
   <separator name="electronic dipolcorrection" >
    <i type="logical" name="LDIPOL"> F  </i>
    <i type="logical" name="LMONO"> F  </i>
    <i type="int" name="IDIPOL">     0</i>
    <i name="EPSILON">      1.00000000</i>
    <v name="DIPOL">   -100.00000000   -100.00000000   -100.00000000</v>
    <i name="EFIELD">      0.00000000</i>
    <i type="logical" name="LVACPOTAV"> F  </i>
   </separator>
  </separator>
  <separator name="grids" >
   <i type="int" name="NGX">   108</i>
   <i type="int" name="NGY">   108</i>
   <i type="int" name="NGZ">    90</i>
   <i type="int" name="NGXF">   216</i>
   <i type="int" name="NGYF">   216</i>
   <i type="int" name="NGZF">   180</i>
   <i type="logical" name="ADDGRID"> T  </i>
  </separator>
  <separator name="ionic" >
   <i type="int" name="NSW">     0</i>
   <i type="int" name="IBRION">    -1</i>
   <i type="int" name="MDALGO">     0</i>
   <i type="int" name="ISIF">     2</i>
   <i name="PSTRESS">      0.00000000</i>
   <i name="EDIFFG">      0.00000100</i>
   <i type="int" name="NFREE">     0</i>
   <i name="POTIM">      0.50000000</i>
   <i name="SMASS">     -3.00000000</i>
   <i name="SCALEE">      1.00000000</i>
  </separator>
  <separator name="ionic md" >
   <i name="TEBEG">      0.00010000</i>
   <i name="TEEND">      0.00010000</i>
   <i type="int" name="NBLOCK">     1</i>
   <i type="int" name="KBLOCK">     1</i>
   <i type="int" name="NPACO">   256</i>
   <i name="APACO">     10.00000000</i>
  </separator>
  <separator name="symmetry" >
   <i type="int" name="ISYM">     2</i>
   <i name="SYMPREC">      0.00001000</i>
  </separator>
  <separator name="dos" >
   <i type="int" name="LORBIT">     0</i>
   <v name="RWIGS">     -1.00000000     -1.00000000</v>
   <i type="int" name="NEDOS">   301</i>
   <i name="EMIN">     10.00000000</i>
   <i name="EMAX">    -10.00000000</i>
   <i name="EFERMI">      0.00000000</i>
  </separator>
  <separator name="writing" >
   <i type="int" name="NWRITE">     2</i>
   <i type="logical" name="LWAVE"> F  </i>
   <i type="logical" name="LDOWNSAMPLE"> F  </i>
   <i type="logical" name="LCHARG"> T  </i>
   <i type="logical" name="LPARD"> F  </i>
   <i type="logical" name="LVTOT"> F  </i>
   <i type="logical" name="LVHAR"> T  </i>
   <i type="logical" name="LELF"> F  </i>
   <i type="logical" name="LOPTICS"> F  </i>
   <v name="STM">      0.00000000      0.00000000      0.00000000      0.00000000      0.00000000      0.00000000      0.00000000</v>
  </separator>
  <separator name="performance" >
   <i type="int" name="NPAR">     4</i>
   <i type="int" name="NSIM">     4</i>
   <i type="int" name="NBLK">    -1</i>
   <i type="logical" name="LPLANE"> T  </i>
   <i type="logical" name="LSCALAPACK"> T  </i>
   <i type="logical" name="LSCAAWARE"> F  </i>
   <i type="logical" name="LSCALU"> F  </i>
   <i type="logical" name="LASYNC"> F  </i>
   <i type="logical" name="LORBITALREAL"> F  </i>
  </separator>
  <separator name="miscellaneous" >
   <i type="int" name="IDIOT">     3</i>
   <i type="int" name="PHON_NSTRUCT">    -1</i>
   <i type="logical" name="LMUSIC"> F  </i>
   <v name="POMASS">     28.08500000     72.61000000</v>
   <v name="DARWINR">      0.00000000      0.00000000</v>
   <v name="DARWINV">      1.00000000      1.00000000</v>
   <i type="logical" name="LCORR"> T  </i>
  </separator>
  <i type="logical" name="GGA_COMPAT"> T  </i>
  <i type="logical" name="LBERRY"> F  </i>
  <i type="int" name="ICORELEVEL">     0</i>
  <i type="logical" name="LDAU"> F  </i>
  <i type="int" name="I_CONSTRAINED_M">     0</i>
  <separator name="electronic exchange-correlation" >
   <i type="string" name="GGA    ">PE</i>
   <i type="string" name="XC_C">1</i>
   <i type="int" name="VOSKOWN">     0</i>
   <i type="logical" name="LHFCALC"> F  </i>
   <i type="string" name="PRECFOCK"></i>
   <i type="logical" name="LSYMGRAD"> F  </i>
   <i type="logical" name="LHFONE"> F  </i>
   <i type="logical" name="LRHFCALC"> F  </i>
   <i type="logical" name="LTHOMAS"> F  </i>
   <i type="logical" name="LMODELHF"> F  </i>
   <i type="logical" name="LFOCKACE"> F  </i>
   <i name="ENCUT4O">     -1.00000000</i>
   <i type="int" name="EXXOEP">     0</i>
   <i type="int" name="FOURORBIT">     0</i>
   <i name="AEXX">      0.00000000</i>
   <i name="HFALPHA">      0.00000000</i>
   <i name="MCALPHA">      0.00000000</i>
   <i name="ALDAX">      1.00000000</i>
   <i name="AGGAX">      1.00000000</i>
   <i name="AMGGAX">      1.00000000</i>
   <i name="ALDAC">      1.00000000</i>
   <i name="AGGAC">      1.00000000</i>
   <i name="AMGGAC">      1.00000000</i>
   <i type="int" name="NKREDX">     1</i>
   <i type="int" name="NKREDY">     1</i>
   <i type="int" name="NKREDZ">     1</i>
   <i type="logical" name="SHIFTRED"> F  </i>
   <i type="logical" name="ODDONLY"> F  </i>
   <i type="logical" name="EVENONLY"> F  </i>
   <i type="int" name="LMAXFOCK">     0</i>
   <i type="int" name="NMAXFOCKAE">     0</i>
   <i type="logical" name="LFOCKAEDFT"> F  </i>
   <i name="HFSCREEN">      0.00000000</i>
   <i name="HFSCREENC">      0.00000000</i>
   <i type="int" name="NBANDSGWLOW">     0</i>
  </separator>
  <separator name="vdW DFT" >
   <i type="logical" name="LUSE_VDW"> F  </i>
   <i type="int" name="IVDW_NL">    -1</i>
   <i type="logical" name="LSPIN_VDW"> F  </i>
   <i name="ZAB_VDW">     -0.84910000</i>
   <i name="GAMMA_VDW">      1.39626340</i>
   <i name="ALPHA_VDW">      0.00000000</i>
   <i name="PARAM1">      0.12340000</i>
   <i name="PARAM2">      1.00000000</i>
   <i name="BPARAM">      6.30000000</i>
   <i name="CPARAM">      0.00930000</i>
  </separator>
  <separator name="model GW" >
   <i type="int" name="MODEL_GW">     0</i>
   <i name="MODEL_EPS0">     13.57318545</i>
   <i name="MODEL_ALPHA">      1.00000000</i>
  </separator>
  <separator name="linear response parameters" >
   <i type="logical" name="LEPSILON"> F  </i>
   <i type="logical" name="LRPA"> F  </i>
   <i type="logical" name="LNABLA"> F  </i>
   <i type="logical" name="LVEL"> F  </i>
   <i name="CSHIFT">      0.10000000</i>
   <i name="OMEGAMAX">     -1.00000000</i>
   <i name="DEG_THRESHOLD">      0.00200000</i>
   <i name="RTIME">     -0.10000000</i>
   <i name="WPLASMAI">      0.00000000</i>
   <v name="DFIELD">      0.00000000      0.00000000      0.00000000</v>
   <v name="WPLASMA">      0.00000000      0.00000000      0.00000000      0.00000000      0.00000000      0.00000000      0.00000000      0.00000000      0.00000000</v>
  </separator>
  <separator name="orbital magnetization" >
   <i type="logical" name="NUCIND"> F  </i>
   <v name="MAGPOS">      0.00000000      0.00000000      0.00000000</v>
   <i type="logical" name="LNICSALL"> T  </i>
   <i type="logical" name="ORBITALMAG"> F  </i>
   <i type="logical" name="LMAGBLOCH"> F  </i>
   <i type="logical" name="LCHIMAG"> F  </i>
   <i type="logical" name="LGAUGE"> T  </i>
   <i type="int" name="MAGATOM">     0</i>
   <v name="MAGDIPOL">      0.00000000      0.00000000      0.00000000</v>
   <v name="AVECCONST">      0.00000000      0.00000000      0.00000000</v>
  </separator>
  <separator name="response functions" >
   <i type="logical" name="LALL_IN_ONE"> F  </i>
   <i type="int" name="IALL_IN_ONE">    -1</i>
   <i type="int" name="NBANDS_WAVE">    -1</i>
   <i type="logical" name="LFINITE_TEMPERATURE"> F  </i>
   <i type="logical" name="LADDER"> F  </i>
   <i type="logical" name="LRPAFORCE"> F  </i>
   <i type="logical" name="LFXC"> F  </i>
   <i type="logical" name="LHARTREE"> T  </i>
   <i type="int" name="IBSE">     0</i>
   <v type="int" name="KPOINT">    -1     0     0     0</v>
   <i type="logical" name="LTCTC"> F  </i>
   <i type="logical" name="LTCTE"> F  </i>
   <i type="logical" name="LTETE"> F  </i>
   <i type="logical" name="LTRIPLET"> F  </i>
   <i type="logical" name="LFXCEPS"> F  </i>
   <i type="logical" name="LFXHEG"> F  </i>
   <i type="int" name="NATURALO">     2</i>
   <i type="logical" name="LHOLEGF"> F  </i>
   <i type="logical" name="L2ORDER"> F  </i>
   <i type="logical" name="LDMP1"> F  </i>
   <i type="logical" name="LMP2LT"> F  </i>
   <i type="logical" name="LSMP2LT"> F  </i>
   <i type="logical" name="LGWLF"> F  </i>
   <i name="ENCUTGW">     -1.60000002</i>
   <i name="ENCUTGWSOFT">     -1.60000002</i>
   <i name="ENCUTLF">     -1.00000000</i>
   <i type="logical" name="ESF_SPLINES"> F  </i>
   <i name="ESF_CONV">      0.01000000</i>
   <i type="int" name="ESF_NINTER">    15</i>
   <i type="int" name="LMAXMP2">    -1</i>
   <i name="SCISSOR">      0.00000000</i>
   <i type="int" name="NOMEGA">     0</i>
   <i type="int" name="NOMEGAR">     0</i>
   <i type="int" name="NBANDSGW">    -1</i>
   <i type="int" name="NBANDSO">    -1</i>
   <i type="int" name="NBANDSV">    -1</i>
   <i type="int" name="NELMGW">     1</i>
   <i type="int" name="NELMHF">     1</i>
   <i type="int" name="DIM">     3</i>
   <i type="int" name="IESPILON">     4</i>
   <i type="int" name="ANTIRES">     0</i>
   <i name="OMEGAMAX">    -30.00000000</i>
   <i name="OMEGAMIN">    -30.00000000</i>
   <i name="OMEGATL">   -200.00000000</i>
   <i type="int" name="OMEGAGRID">     0</i>
   <i name="CSHIFT">     -0.10000000</i>
   <i type="logical" name="LSELFENERGY"> F  </i>
   <i type="logical" name="LSPECTRAL"> F  </i>
   <i type="logical" name="LSPECTRALGW"> F  </i>
   <i type="logical" name="LSINGLES"> F  </i>
   <i type="logical" name="LFERMIGW"> F  </i>
   <i type="logical" name="ODDONLYGW"> F  </i>
   <i type="logical" name="EVENONLYGW"> F  </i>
   <i type="int" name="NKREDLFX">     1</i>
   <i type="int" name="NKREDLFY">     1</i>
   <i type="int" name="NKREDLFZ">     1</i>
   <i type="int" name="MAXMEM">  2800</i>
   <i type="int" name="TELESCOPE">     0</i>
   <i type="int" name="NTAUPAR">    -1</i>
   <i type="int" name="NOMEGAPAR">    -1</i>
   <i name="DAMP_NEWTON">      0.80000001</i>
   <i name="LAMBDA">      1.00000000</i>
  </separator>
  <separator name="External order field" >
   <i name="OFIELD_KAPPA">      0.00000000</i>
   <v name="OFIELD_K">      0.00000000      0.00000000      0.00000000</v>
   <i name="OFIELD_Q6_NEAR">      0.00000000</i>
   <i name="OFIELD_Q6_FAR">      0.00000000</i>
   <i name="OFIELD_A">      0.00000000</i>
  </separator>
  <separator name="optional k-points parameters" >
   <i type="int" name="KPOINTS_OPT_MODE">     1</i>
   <i type="logical" name="LKPOINTS_OPT"> F  </i>
  </separator>
 </parameters>
 <atominfo>
  <atoms>     156 </atoms>
  <types>       2 </types>
  <array name="atoms" >
   <dimension dim="1">ion</dimension>
   <field type="string">element</field>
   <field type="int">atomtype</field>
   <set>
    <rc><c>Si</c><c>   1</c></rc>
    <rc><c>Si</c><c>   1</c></rc>
    <rc><c>Si</c><c>   1</c></rc>
    <rc><c>Si</c><c>   1</c></rc>
    <rc><c>Si</c><c>   1</c></rc>
    <rc><c>Si</c><c>   1</c></rc>
    <rc><c>Si</c><c>   1</c></rc>
    <rc><c>Si</c><c>   1</c></rc>
    <rc><c>Si</c><c>   1</c></rc>
    <rc><c>Si</c><c>   1</c></rc>
    <rc><c>Si</c><c>   1</c></rc>
    <rc><c>Si</c><c>   1</c></rc>
    <rc><c>Si</c><c>   1</c></rc>
    <rc><c>Si</c><c>   1</c></rc>
    <rc><c>Si</c><c>   1</c></rc>
    <rc><c>Si</c><c>   1</c></rc>
    <rc><c>Si</c><c>   1</c></rc>
    <rc><c>Si</c><c>   1</c></rc>
    <rc><c>Si</c><c>   1</c></rc>
    <rc><c>Si</c><c>   1</c></rc>
    <rc><c>Si</c><c>   1</c></rc>
    <rc><c>Si</c><c>   1</c></rc>
    <rc><c>Si</c><c>   1</c></rc>
    <rc><c>Si</c><c>   1</c></rc>
    <rc><c>Si</c><c>   1</c></rc>
    <rc><c>Si</c><c>   1</c></rc>
    <rc><c>Si</c><c>   1</c></rc>
    <rc><c>Si</c><c>   1</c></rc>
    <rc><c>Si</c><c>   1</c></rc>
    <rc><c>Si</c><c>   1</c></rc>
    <rc><c>Si</c><c>   1</c></rc>
    <rc><c>Si</c><c>   1</c></rc>
    <rc><c>Si</c><c>   1</c></rc>
    <rc><c>Si</c><c>   1</c></rc>
    <rc><c>Si</c><c>   1</c></rc>
    <rc><c>Si</c><c>   1</c></rc>
    <rc><c>Si</c><c>   1</c></rc>
    <rc><c>Si</c><c>   1</c></rc>
    <rc><c>Si</c><c>   1</c></rc>
    <rc><c>Si</c><c>   1</c></rc>
    <rc><c>Si</c><c>   1</c></rc>
    <rc><c>Si</c><c>   1</c></rc>
    <rc><c>Si</c><c>   1</c></rc>
    <rc><c>Si</c><c>   1</c></rc>
    <rc><c>Si</c><c>   1</c></rc>
    <rc><c>Si</c><c>   1</c></rc>
    <rc><c>Si</c><c>   1</c></rc>
    <rc><c>Si</c><c>   1</c></rc>
    <rc><c>Si</c><c>   1</c></rc>
    <rc><c>Si</c><c>   1</c></rc>
    <rc><c>Si</c><c>   1</c></rc>
    <rc><c>Si</c><c>   1</c></rc>
    <rc><c>Si</c><c>   1</c></rc>
    <rc><c>Si</c><c>   1</c></rc>
    <rc><c>Si</c><c>   1</c></rc>
    <rc><c>Si</c><c>   1</c></rc>
    <rc><c>Si</c><c>   1</c></rc>
    <rc><c>Si</c><c>   1</c></rc>
    <rc><c>Si</c><c>   1</c></rc>
    <rc><c>Si</c><c>   1</c></rc>
    <rc><c>Si</c><c>   1</c></rc>
    <rc><c>Si</c><c>   1</c></rc>
    <rc><c>Si</c><c>   1</c></rc>
    <rc><c>Si</c><c>   1</c></rc>
    <rc><c>Si</c><c>   1</c></rc>
    <rc><c>Si</c><c>   1</c></rc>
    <rc><c>Si</c><c>   1</c></rc>
    <rc><c>Si</c><c>   1</c></rc>
    <rc><c>Si</c><c>   1</c></rc>
    <rc><c>Si</c><c>   1</c></rc>
    <rc><c>Si</c><c>   1</c></rc>
    <rc><c>Si</c><c>   1</c></rc>
    <rc><c>Si</c><c>   1</c></rc>
    <rc><c>Si</c><c>   1</c></rc>
    <rc><c>Si</c><c>   1</c></rc>
    <rc><c>Si</c><c>   1</c></rc>
    <rc><c>Si</c><c>   1</c></rc>
    <rc><c>Si</c><c>   1</c></rc>
    <rc><c>Si</c><c>   1</c></rc>
    <rc><c>Si</c><c>   1</c></rc>
    <rc><c>Si</c><c>   1</c></rc>
    <rc><c>Si</c><c>   1</c></rc>
    <rc><c>Si</c><c>   1</c></rc>
    <rc><c>Si</c><c>   1</c></rc>
    <rc><c>Si</c><c>   1</c></rc>
    <rc><c>Si</c><c>   1</c></rc>
    <rc><c>Si</c><c>   1</c></rc>
    <rc><c>Si</c><c>   1</c></rc>
    <rc><c>Si</c><c>   1</c></rc>
    <rc><c>Si</c><c>   1</c></rc>
    <rc><c>Si</c><c>   1</c></rc>
    <rc><c>Si</c><c>   1</c></rc>
    <rc><c>Si</c><c>   1</c></rc>
    <rc><c>Si</c><c>   1</c></rc>
    <rc><c>Si</c><c>   1</c></rc>
    <rc><c>Si</c><c>   1</c></rc>
    <rc><c>Si</c><c>   1</c></rc>
    <rc><c>Si</c><c>   1</c></rc>
    <rc><c>Si</c><c>   1</c></rc>
    <rc><c>Si</c><c>   1</c></rc>
    <rc><c>Si</c><c>   1</c></rc>
    <rc><c>Si</c><c>   1</c></rc>
    <rc><c>Si</c><c>   1</c></rc>
    <rc><c>Si</c><c>   1</c></rc>
    <rc><c>Si</c><c>   1</c></rc>
    <rc><c>Si</c><c>   1</c></rc>
    <rc><c>Si</c><c>   1</c></rc>
    <rc><c>Si</c><c>   1</c></rc>
    <rc><c>Ge</c><c>   2</c></rc>
    <rc><c>Ge</c><c>   2</c></rc>
    <rc><c>Ge</c><c>   2</c></rc>
    <rc><c>Ge</c><c>   2</c></rc>
    <rc><c>Ge</c><c>   2</c></rc>
    <rc><c>Ge</c><c>   2</c></rc>
    <rc><c>Ge</c><c>   2</c></rc>
    <rc><c>Ge</c><c>   2</c></rc>
    <rc><c>Ge</c><c>   2</c></rc>
    <rc><c>Ge</c><c>   2</c></rc>
    <rc><c>Ge</c><c>   2</c></rc>
    <rc><c>Ge</c><c>   2</c></rc>
    <rc><c>Ge</c><c>   2</c></rc>
    <rc><c>Ge</c><c>   2</c></rc>
    <rc><c>Ge</c><c>   2</c></rc>
    <rc><c>Ge</c><c>   2</c></rc>
    <rc><c>Ge</c><c>   2</c></rc>
    <rc><c>Ge</c><c>   2</c></rc>
    <rc><c>Ge</c><c>   2</c></rc>
    <rc><c>Ge</c><c>   2</c></rc>
    <rc><c>Ge</c><c>   2</c></rc>
    <rc><c>Ge</c><c>   2</c></rc>
    <rc><c>Ge</c><c>   2</c></rc>
    <rc><c>Ge</c><c>   2</c></rc>
    <rc><c>Ge</c><c>   2</c></rc>
    <rc><c>Ge</c><c>   2</c></rc>
    <rc><c>Ge</c><c>   2</c></rc>
    <rc><c>Ge</c><c>   2</c></rc>
    <rc><c>Ge</c><c>   2</c></rc>
    <rc><c>Ge</c><c>   2</c></rc>
    <rc><c>Ge</c><c>   2</c></rc>
    <rc><c>Ge</c><c>   2</c></rc>
    <rc><c>Ge</c><c>   2</c></rc>
    <rc><c>Ge</c><c>   2</c></rc>
    <rc><c>Ge</c><c>   2</c></rc>
    <rc><c>Ge</c><c>   2</c></rc>
    <rc><c>Ge</c><c>   2</c></rc>
    <rc><c>Ge</c><c>   2</c></rc>
    <rc><c>Ge</c><c>   2</c></rc>
    <rc><c>Ge</c><c>   2</c></rc>
    <rc><c>Ge</c><c>   2</c></rc>
    <rc><c>Ge</c><c>   2</c></rc>
    <rc><c>Ge</c><c>   2</c></rc>
    <rc><c>Ge</c><c>   2</c></rc>
    <rc><c>Ge</c><c>   2</c></rc>
    <rc><c>Ge</c><c>   2</c></rc>
    <rc><c>Ge</c><c>   2</c></rc>
    <rc><c>Ge</c><c>   2</c></rc>
   </set>
  </array>
  <array name="atomtypes" >
   <dimension dim="1">type</dimension>
   <field type="int">atomspertype</field>
   <field type="string">element</field>
   <field>mass</field>
   <field>valence</field>
   <field type="string">pseudopotential</field>
   <set>
    <rc><c> 108</c><c>Si</c><c>     28.08500000</c><c>      4.00000000</c><c>  PAW_PBE Si 05Jan2001                  </c></rc>
    <rc><c>  48</c><c>Ge</c><c>     72.61000000</c><c>      4.00000000</c><c>  PAW_PBE Ge 05Jan2001                  </c></rc>
   </set>
  </array>
 </atominfo>
 <structure name="initialpos" >
  <crystal>
   <varray name="basis" >
    <v>      16.29300118       0.00000000       0.00000000 </v>
    <v>       0.00000000      16.29300118       0.00000000 </v>
    <v>       0.00000000       0.00000000      13.29391670 </v>
   </varray>
   <i name="volume">   3529.02821717 </i>
   <varray name="rec_basis" >
    <v>       0.06137605       0.00000000       0.00000000 </v>
    <v>       0.00000000       0.06137605       0.00000000 </v>
    <v>       0.00000000       0.00000000       0.07522238 </v>
   </varray>
  </crystal>
  <varray name="positions" >
   <v>       0.00000000       0.99406773       0.00000000 </v>
   <v>       0.00000000       0.82740104       0.20426638 </v>
   <v>       0.00000000       0.66073430       0.40853280 </v>
   <v>       0.33333334       0.99406773       0.00000000 </v>
   <v>       0.33333334       0.82740104       0.20426638 </v>
   <v>       0.33333334       0.66073430       0.40853280 </v>
   <v>       0.66666669       0.99406773       0.00000000 </v>
   <v>       0.66666669       0.82740104       0.20426638 </v>
   <v>       0.66666669       0.66073430       0.40853280 </v>
   <v>       0.00000000       0.32740104       0.00000000 </v>
   <v>       0.00000000       0.16073437       0.20426638 </v>
   <v>       0.00000000       0.99406767       0.40853280 </v>
   <v>       0.33333334       0.32740104       0.00000000 </v>
   <v>       0.33333334       0.16073437       0.20426638 </v>
   <v>       0.33333334       0.99406767       0.40853280 </v>
   <v>       0.66666669       0.32740104       0.00000000 </v>
   <v>       0.66666669       0.16073437       0.20426638 </v>
   <v>       0.66666669       0.99406767       0.40853280 </v>
   <v>       0.00000000       0.66073442       0.00000000 </v>
   <v>       0.00000000       0.49406770       0.20426638 </v>
   <v>       0.00000000       0.32740104       0.40853280 </v>
   <v>       0.33333334       0.66073442       0.00000000 </v>
   <v>       0.33333334       0.49406770       0.20426638 </v>
   <v>       0.33333334       0.32740104       0.40853280 </v>
   <v>       0.66666669       0.66073442       0.00000000 </v>
   <v>       0.66666669       0.49406770       0.20426638 </v>
   <v>       0.66666669       0.32740104       0.40853280 </v>
   <v>       0.08333334       0.07740105       0.10213320 </v>
   <v>       0.08333334       0.91073436       0.30639952 </v>
   <v>       0.08333334       0.74406767       0.51066601 </v>
   <v>       0.41666669       0.07740105       0.10213320 </v>
   <v>       0.41666669       0.91073436       0.30639952 </v>
   <v>       0.41666669       0.74406767       0.51066601 </v>
   <v>       0.75000000       0.07740105       0.10213320 </v>
   <v>       0.75000000       0.91073436       0.30639952 </v>
   <v>       0.75000000       0.74406767       0.51066601 </v>
   <v>       0.08333334       0.41073436       0.10213320 </v>
   <v>       0.08333334       0.24406767       0.30639952 </v>
   <v>       0.08333334       0.07740098       0.51066601 </v>
   <v>       0.41666669       0.41073436       0.10213320 </v>
   <v>       0.41666669       0.24406767       0.30639952 </v>
   <v>       0.41666669       0.07740098       0.51066601 </v>
   <v>       0.75000000       0.41073436       0.10213320 </v>
   <v>       0.75000000       0.24406767       0.30639952 </v>
   <v>       0.75000000       0.07740098       0.51066601 </v>
   <v>       0.08333334       0.74406773       0.10213320 </v>
   <v>       0.08333334       0.57740104       0.30639952 </v>
   <v>       0.08333334       0.41073436       0.51066601 </v>
   <v>       0.41666669       0.74406773       0.10213320 </v>
   <v>       0.41666669       0.57740104       0.30639952 </v>
   <v>       0.41666669       0.41073436       0.51066601 </v>
   <v>       0.75000000       0.74406773       0.10213320 </v>
   <v>       0.75000000       0.57740104       0.30639952 </v>
   <v>       0.75000000       0.41073436       0.51066601 </v>
   <v>       0.16666667       0.16073438       0.00000000 </v>
   <v>       0.16666667       0.99406767       0.20426638 </v>
   <v>       0.16666667       0.82740098       0.40853280 </v>
   <v>       0.50000000       0.16073438       0.00000000 </v>
   <v>       0.50000000       0.99406767       0.20426638 </v>
   <v>       0.50000000       0.82740098       0.40853280 </v>
   <v>       0.83333337       0.16073438       0.00000000 </v>
   <v>       0.83333337       0.99406767       0.20426638 </v>
   <v>       0.83333337       0.82740098       0.40853280 </v>
   <v>       0.16666667       0.49406770       0.00000000 </v>
   <v>       0.16666667       0.32740104       0.20426638 </v>
   <v>       0.16666667       0.16073431       0.40853280 </v>
   <v>       0.50000000       0.49406770       0.00000000 </v>
   <v>       0.50000000       0.32740104       0.20426638 </v>
   <v>       0.50000000       0.16073431       0.40853280 </v>
   <v>       0.83333337       0.49406770       0.00000000 </v>
   <v>       0.83333337       0.32740104       0.20426638 </v>
   <v>       0.83333337       0.16073431       0.40853280 </v>
   <v>       0.16666667       0.82740104       0.00000000 </v>
   <v>       0.16666667       0.66073436       0.20426638 </v>
   <v>       0.16666667       0.49406764       0.40853280 </v>
   <v>       0.50000000       0.82740104       0.00000000 </v>
   <v>       0.50000000       0.66073436       0.20426638 </v>
   <v>       0.50000000       0.49406764       0.40853280 </v>
   <v>       0.83333337       0.82740104       0.00000000 </v>
   <v>       0.83333337       0.66073436       0.20426638 </v>
   <v>       0.83333337       0.49406764       0.40853280 </v>
   <v>       0.25000000       0.24406771       0.10213320 </v>
   <v>       0.25000000       0.07740103       0.30639952 </v>
   <v>       0.25000000       0.91073436       0.51066601 </v>
   <v>       0.58333337       0.24406771       0.10213320 </v>
   <v>       0.58333337       0.07740103       0.30639952 </v>
   <v>       0.58333337       0.91073436       0.51066601 </v>
   <v>       0.91666669       0.24406771       0.10213320 </v>
   <v>       0.91666669       0.07740103       0.30639952 </v>
   <v>       0.91666669       0.91073436       0.51066601 </v>
   <v>       0.25000000       0.57740116       0.10213320 </v>
   <v>       0.25000000       0.41073445       0.30639952 </v>
   <v>       0.25000000       0.24406774       0.51066601 </v>
   <v>       0.58333337       0.57740116       0.10213320 </v>
   <v>       0.58333337       0.41073445       0.30639952 </v>
   <v>       0.58333337       0.24406774       0.51066601 </v>
   <v>       0.91666669       0.57740116       0.10213320 </v>
   <v>       0.91666669       0.41073445       0.30639952 </v>
   <v>       0.91666669       0.24406774       0.51066601 </v>
   <v>       0.25000000       0.91073436       0.10213320 </v>
   <v>       0.25000000       0.74406767       0.30639952 </v>
   <v>       0.25000000       0.57740104       0.51066601 </v>
   <v>       0.58333337       0.91073436       0.10213320 </v>
   <v>       0.58333337       0.74406767       0.30639952 </v>
   <v>       0.58333337       0.57740104       0.51066601 </v>
   <v>       0.91666669       0.91073436       0.10213320 </v>
   <v>       0.91666669       0.74406767       0.30639952 </v>
   <v>       0.91666669       0.57740104       0.51066601 </v>
   <v>       0.50261688       0.83299089       0.62994116 </v>
   <v>       0.11372793       0.45799077       0.68009800 </v>
   <v>       0.72483897       0.08299089       0.73025465 </v>
   <v>       0.33594990       0.70799089       0.78041142 </v>
   <v>       0.94706106       0.33299089       0.83056808 </v>
   <v>       0.55817211       0.95799077       0.88072485 </v>
   <v>       0.50261688       0.33299077       0.62994116 </v>
   <v>       0.11372793       0.95799071       0.68009800 </v>
   <v>       0.72483897       0.58299077       0.73025471 </v>
   <v>       0.33594990       0.20799077       0.78041142 </v>
   <v>       0.94706106       0.83299089       0.83056808 </v>
   <v>       0.55817211       0.45799077       0.88072479 </v>
   <v>       0.25261676       0.95799077       0.62994116 </v>
   <v>       0.86372781       0.58299077       0.68009800 </v>
   <v>       0.47483897       0.20799089       0.73025465 </v>
   <v>       0.08594990       0.83299089       0.78041136 </v>
   <v>       0.69706100       0.45799089       0.83056814 </v>
   <v>       0.30817187       0.08299089       0.88072479 </v>
   <v>       0.25261688       0.45799065       0.62994116 </v>
   <v>       0.86372781       0.08299065       0.68009800 </v>
   <v>       0.47483897       0.70799065       0.73025465 </v>
   <v>       0.08594990       0.33299065       0.78041136 </v>
   <v>       0.69706100       0.95799083       0.83056814 </v>
   <v>       0.30817199       0.58299065       0.88072479 </v>
   <v>       0.25261688       0.20799077       0.62994123 </v>
   <v>       0.86372781       0.83299077       0.68009800 </v>
   <v>       0.47483897       0.45799089       0.73025465 </v>
   <v>       0.08594990       0.08299089       0.78041136 </v>
   <v>       0.69706106       0.70799089       0.83056814 </v>
   <v>       0.30817199       0.33299089       0.88072485 </v>
   <v>       0.25261688       0.70799065       0.62994116 </v>
   <v>       0.86372781       0.33299065       0.68009800 </v>
   <v>       0.47483897       0.95799077       0.73025465 </v>
   <v>       0.08594990       0.58299077       0.78041136 </v>
   <v>       0.69706106       0.20799089       0.83056814 </v>
   <v>       0.30817187       0.83299065       0.88072479 </v>
   <v>       0.50261688       0.08299077       0.62994116 </v>
   <v>       0.11372793       0.70799077       0.68009800 </v>
   <v>       0.72483897       0.33299089       0.73025471 </v>
   <v>       0.33594990       0.95799083       0.78041142 </v>
   <v>       0.94706130       0.58299100       0.83056814 </v>
   <v>       0.55817211       0.20799077       0.88072485 </v>
   <v>       0.50261688       0.58299065       0.62994116 </v>
   <v>       0.11372793       0.20799077       0.68009800 </v>
   <v>       0.72483897       0.83299089       0.73025471 </v>
   <v>       0.33595002       0.45799089       0.78041142 </v>
   <v>       0.94706118       0.08299089       0.83056808 </v>
   <v>       0.55817187       0.70799065       0.88072479 </v>
  </varray>
 </structure>
 <calculation>
  <scstep>
   <time name="dav">   45.96   46.35</time>
   <time name="total">   47.64   48.03</time>
   <energy>
    <i name="alphaZ">    566.26217954 </i>
    <i name="ewald"> -16156.98897203 </i>
    <i name="hartreedc">  -1804.17647927 </i>
    <i name="XCdc">  -1382.79960594 </i>
    <i name="pawpsdc">  13748.33917439 </i>
    <i name="pawaedc"> -11152.86130582 </i>
    <i name="eentropy">     -0.00169082 </i>
    <i name="bandstr">   2508.83968919 </i>
    <i name="atom">  16170.99902962 </i>
    <i name="e_fr_energy">   2497.61201887 </i>
    <i name="e_wo_entrp">   2497.61370969 </i>
    <i name="e_0_energy">   2497.61286428 </i>
   </energy>
  </scstep>
  <scstep>
   <time name="dav">   51.75   52.17</time>
   <time name="total">   51.75   52.18</time>
   <energy>
    <i name="e_fr_energy">   -447.38838529 </i>
    <i name="e_wo_entrp">   -447.38669780 </i>
    <i name="e_0_energy">   -447.38754154 </i>
   </energy>
  </scstep>
  <scstep>
   <time name="dav">   54.77   55.23</time>
   <time name="total">   54.78   55.23</time>
   <energy>
    <i name="e_fr_energy">   -721.70628719 </i>
    <i name="e_wo_entrp">   -721.70254847 </i>
    <i name="e_0_energy">   -721.70441783 </i>
   </energy>
  </scstep>
  <scstep>
   <time name="dav">   52.47   52.90</time>
   <time name="total">   52.47   52.90</time>
   <energy>
    <i name="e_fr_energy">   -732.66011068 </i>
    <i name="e_wo_entrp">   -732.65695940 </i>
    <i name="e_0_energy">   -732.65853504 </i>
   </energy>
  </scstep>
  <scstep>
   <time name="dav">   57.91   58.39</time>
   <time name="total">   60.26   60.76</time>
   <energy>
    <i name="e_fr_energy">   -733.10138964 </i>
    <i name="e_wo_entrp">   -733.09829781 </i>
    <i name="e_0_energy">   -733.09984372 </i>
   </energy>
  </scstep>
  <scstep>
   <time name="dav">   52.25   52.68</time>
   <time name="total">   56.06   56.51</time>
   <energy>
    <i name="e_fr_energy">   -718.06879977 </i>
    <i name="e_wo_entrp">   -718.06550518 </i>
    <i name="e_0_energy">   -718.06715248 </i>
   </energy>
  </scstep>
  <scstep>
   <time name="dav">   54.10   54.55</time>
   <time name="total">   57.89   58.36</time>
   <energy>
    <i name="e_fr_energy">   -719.10868056 </i>
    <i name="e_wo_entrp">   -719.10510978 </i>
    <i name="e_0_energy">   -719.10689517 </i>
   </energy>
  </scstep>
  <scstep>
   <time name="dav">   55.09   55.54</time>
   <time name="total">   58.87   59.34</time>
   <energy>
    <i name="e_fr_energy">   -716.99887947 </i>
    <i name="e_wo_entrp">   -716.99657224 </i>
    <i name="e_0_energy">   -716.99772585 </i>
   </energy>
  </scstep>
  <scstep>
   <time name="dav">   51.41   51.85</time>
   <time name="total">   55.17   55.63</time>
   <energy>
    <i name="e_fr_energy">   -716.94623104 </i>
    <i name="e_wo_entrp">   -716.94300705 </i>
    <i name="e_0_energy">   -716.94461904 </i>
   </energy>
  </scstep>
  <scstep>
   <time name="dav">   51.39   52.06</time>
   <time name="total">   55.14   55.84</time>
   <energy>
    <i name="e_fr_energy">   -716.92159390 </i>
    <i name="e_wo_entrp">   -716.91826655 </i>
    <i name="e_0_energy">   -716.91993022 </i>
   </energy>
  </scstep>
  <scstep>
   <time name="dav">   51.87   52.31</time>
   <time name="total">   55.63   56.09</time>
   <energy>
    <i name="e_fr_energy">   -716.91500330 </i>
    <i name="e_wo_entrp">   -716.91155476 </i>
    <i name="e_0_energy">   -716.91327903 </i>
   </energy>
  </scstep>
  <scstep>
   <time name="dav">   52.25   52.69</time>
   <time name="total">   55.99   56.45</time>
   <energy>
    <i name="e_fr_energy">   -716.91276373 </i>
    <i name="e_wo_entrp">   -716.90933365 </i>
    <i name="e_0_energy">   -716.91104869 </i>
   </energy>
  </scstep>
  <scstep>
   <time name="dav">   52.02   52.45</time>
   <time name="total">   55.75   56.21</time>
   <energy>
    <i name="e_fr_energy">   -716.91256306 </i>
    <i name="e_wo_entrp">   -716.90920887 </i>
    <i name="e_0_energy">   -716.91088596 </i>
   </energy>
  </scstep>
  <scstep>
   <time name="dav">   51.92   52.35</time>
   <time name="total">   55.65   56.12</time>
   <energy>
    <i name="e_fr_energy">   -716.91260936 </i>
    <i name="e_wo_entrp">   -716.90920955 </i>
    <i name="e_0_energy">   -716.91090946 </i>
   </energy>
  </scstep>
  <scstep>
   <time name="dav">   52.38   52.82</time>
   <time name="total">   56.11   56.58</time>
   <energy>
    <i name="e_fr_energy">   -716.91262445 </i>
    <i name="e_wo_entrp">   -716.90925328 </i>
    <i name="e_0_energy">   -716.91093887 </i>
   </energy>
  </scstep>
  <scstep>
   <time name="dav">   52.38   52.83</time>
   <time name="total">   56.10   56.58</time>
   <energy>
    <i name="e_fr_energy">   -716.91259806 </i>
    <i name="e_wo_entrp">   -716.90921888 </i>
    <i name="e_0_energy">   -716.91090847 </i>
   </energy>
  </scstep>
  <scstep>
   <time name="dav">   50.95   51.38</time>
   <time name="total">   54.69   55.14</time>
   <energy>
    <i name="e_fr_energy">   -716.91259714 </i>
    <i name="e_wo_entrp">   -716.90922116 </i>
    <i name="e_0_energy">   -716.91090915 </i>
   </energy>
  </scstep>
  <scstep>
   <time name="dav">   50.41   50.83</time>
   <time name="total">   54.15   54.59</time>
   <energy>
    <i name="e_fr_energy">   -716.91259865 </i>
    <i name="e_wo_entrp">   -716.90922364 </i>
    <i name="e_0_energy">   -716.91091114 </i>
   </energy>
  </scstep>
  <scstep>
   <time name="dav">   52.32   52.76</time>
   <time name="total">   56.06   56.52</time>
   <energy>
    <i name="e_fr_energy">   -716.91259877 </i>
    <i name="e_wo_entrp">   -716.90922244 </i>
    <i name="e_0_energy">   -716.91091060 </i>
   </energy>
  </scstep>
  <scstep>
   <time name="dav">   50.19   50.61</time>
   <time name="total">   51.83   52.26</time>
   <energy>
    <i name="alphaZ">    566.26217954 </i>
    <i name="ewald"> -16156.98897203 </i>
    <i name="hartreedc">  -2062.29391981 </i>
    <i name="XCdc">  -1343.35951930 </i>
    <i name="pawpsdc">  52267.78297253 </i>
    <i name="pawaedc"> -49690.43365274 </i>
    <i name="eentropy">     -0.00337635 </i>
    <i name="bandstr">   -468.87734023 </i>
    <i name="atom">  16170.99902962 </i>
    <i name="e_fr_energy">   -716.91259877 </i>
    <i name="e_wo_entrp">   -716.90922242 </i>
    <i name="e_0_energy">   -716.91091059 </i>
   </energy>
  </scstep>
  <structure>
   <crystal>
    <varray name="basis" >
     <v>      16.29300118       0.00000000       0.00000000 </v>
     <v>       0.00000000      16.29300118       0.00000000 </v>
     <v>       0.00000000       0.00000000      13.29391670 </v>
    </varray>
    <i name="volume">   3529.02821717 </i>
    <varray name="rec_basis" >
     <v>       0.06137605       0.00000000       0.00000000 </v>
     <v>       0.00000000       0.06137605       0.00000000 </v>
     <v>       0.00000000       0.00000000       0.07522238 </v>
    </varray>
   </crystal>
   <varray name="positions" >
    <v>       0.00000000       0.99406773       0.00000000 </v>
    <v>       0.00000000       0.82740104       0.20426638 </v>
    <v>       0.00000000       0.66073430       0.40853280 </v>
    <v>       0.33333334       0.99406773       0.00000000 </v>
    <v>       0.33333334       0.82740104       0.20426638 </v>
    <v>       0.33333334       0.66073430       0.40853280 </v>
    <v>       0.66666669       0.99406773       0.00000000 </v>
    <v>       0.66666669       0.82740104       0.20426638 </v>
    <v>       0.66666669       0.66073430       0.40853280 </v>
    <v>       0.00000000       0.32740104       0.00000000 </v>
    <v>       0.00000000       0.16073437       0.20426638 </v>
    <v>       0.00000000       0.99406767       0.40853280 </v>
    <v>       0.33333334       0.32740104       0.00000000 </v>
    <v>       0.33333334       0.16073437       0.20426638 </v>
    <v>       0.33333334       0.99406767       0.40853280 </v>
    <v>       0.66666669       0.32740104       0.00000000 </v>
    <v>       0.66666669       0.16073437       0.20426638 </v>
    <v>       0.66666669       0.99406767       0.40853280 </v>
    <v>       0.00000000       0.66073442       0.00000000 </v>
    <v>       0.00000000       0.49406770       0.20426638 </v>
    <v>       0.00000000       0.32740104       0.40853280 </v>
    <v>       0.33333334       0.66073442       0.00000000 </v>
    <v>       0.33333334       0.49406770       0.20426638 </v>
    <v>       0.33333334       0.32740104       0.40853280 </v>
    <v>       0.66666669       0.66073442       0.00000000 </v>
    <v>       0.66666669       0.49406770       0.20426638 </v>
    <v>       0.66666669       0.32740104       0.40853280 </v>
    <v>       0.08333334       0.07740105       0.10213320 </v>
    <v>       0.08333334       0.91073436       0.30639952 </v>
    <v>       0.08333334       0.74406767       0.51066601 </v>
    <v>       0.41666669       0.07740105       0.10213320 </v>
    <v>       0.41666669       0.91073436       0.30639952 </v>
    <v>       0.41666669       0.74406767       0.51066601 </v>
    <v>       0.75000000       0.07740105       0.10213320 </v>
    <v>       0.75000000       0.91073436       0.30639952 </v>
    <v>       0.75000000       0.74406767       0.51066601 </v>
    <v>       0.08333334       0.41073436       0.10213320 </v>
    <v>       0.08333334       0.24406767       0.30639952 </v>
    <v>       0.08333334       0.07740098       0.51066601 </v>
    <v>       0.41666669       0.41073436       0.10213320 </v>
    <v>       0.41666669       0.24406767       0.30639952 </v>
    <v>       0.41666669       0.07740098       0.51066601 </v>
    <v>       0.75000000       0.41073436       0.10213320 </v>
    <v>       0.75000000       0.24406767       0.30639952 </v>
    <v>       0.75000000       0.07740098       0.51066601 </v>
    <v>       0.08333334       0.74406773       0.10213320 </v>
    <v>       0.08333334       0.57740104       0.30639952 </v>
    <v>       0.08333334       0.41073436       0.51066601 </v>
    <v>       0.41666669       0.74406773       0.10213320 </v>
    <v>       0.41666669       0.57740104       0.30639952 </v>
    <v>       0.41666669       0.41073436       0.51066601 </v>
    <v>       0.75000000       0.74406773       0.10213320 </v>
    <v>       0.75000000       0.57740104       0.30639952 </v>
    <v>       0.75000000       0.41073436       0.51066601 </v>
    <v>       0.16666667       0.16073438       0.00000000 </v>
    <v>       0.16666667       0.99406767       0.20426638 </v>
    <v>       0.16666667       0.82740098       0.40853280 </v>
    <v>       0.50000000       0.16073438       0.00000000 </v>
    <v>       0.50000000       0.99406767       0.20426638 </v>
    <v>       0.50000000       0.82740098       0.40853280 </v>
    <v>       0.83333337       0.16073438       0.00000000 </v>
    <v>       0.83333337       0.99406767       0.20426638 </v>
    <v>       0.83333337       0.82740098       0.40853280 </v>
    <v>       0.16666667       0.49406770       0.00000000 </v>
    <v>       0.16666667       0.32740104       0.20426638 </v>
    <v>       0.16666667       0.16073431       0.40853280 </v>
    <v>       0.50000000       0.49406770       0.00000000 </v>
    <v>       0.50000000       0.32740104       0.20426638 </v>
    <v>       0.50000000       0.16073431       0.40853280 </v>
    <v>       0.83333337       0.49406770       0.00000000 </v>
    <v>       0.83333337       0.32740104       0.20426638 </v>
    <v>       0.83333337       0.16073431       0.40853280 </v>
    <v>       0.16666667       0.82740104       0.00000000 </v>
    <v>       0.16666667       0.66073436       0.20426638 </v>
    <v>       0.16666667       0.49406764       0.40853280 </v>
    <v>       0.50000000       0.82740104       0.00000000 </v>
    <v>       0.50000000       0.66073436       0.20426638 </v>
    <v>       0.50000000       0.49406764       0.40853280 </v>
    <v>       0.83333337       0.82740104       0.00000000 </v>
    <v>       0.83333337       0.66073436       0.20426638 </v>
    <v>       0.83333337       0.49406764       0.40853280 </v>
    <v>       0.25000000       0.24406771       0.10213320 </v>
    <v>       0.25000000       0.07740103       0.30639952 </v>
    <v>       0.25000000       0.91073436       0.51066601 </v>
    <v>       0.58333337       0.24406771       0.10213320 </v>
    <v>       0.58333337       0.07740103       0.30639952 </v>
    <v>       0.58333337       0.91073436       0.51066601 </v>
    <v>       0.91666669       0.24406771       0.10213320 </v>
    <v>       0.91666669       0.07740103       0.30639952 </v>
    <v>       0.91666669       0.91073436       0.51066601 </v>
    <v>       0.25000000       0.57740116       0.10213320 </v>
    <v>       0.25000000       0.41073445       0.30639952 </v>
    <v>       0.25000000       0.24406774       0.51066601 </v>
    <v>       0.58333337       0.57740116       0.10213320 </v>
    <v>       0.58333337       0.41073445       0.30639952 </v>
    <v>       0.58333337       0.24406774       0.51066601 </v>
    <v>       0.91666669       0.57740116       0.10213320 </v>
    <v>       0.91666669       0.41073445       0.30639952 </v>
    <v>       0.91666669       0.24406774       0.51066601 </v>
    <v>       0.25000000       0.91073436       0.10213320 </v>
    <v>       0.25000000       0.74406767       0.30639952 </v>
    <v>       0.25000000       0.57740104       0.51066601 </v>
    <v>       0.58333337       0.91073436       0.10213320 </v>
    <v>       0.58333337       0.74406767       0.30639952 </v>
    <v>       0.58333337       0.57740104       0.51066601 </v>
    <v>       0.91666669       0.91073436       0.10213320 </v>
    <v>       0.91666669       0.74406767       0.30639952 </v>
    <v>       0.91666669       0.57740104       0.51066601 </v>
    <v>       0.50261688       0.83299089       0.62994116 </v>
    <v>       0.11372793       0.45799077       0.68009800 </v>
    <v>       0.72483897       0.08299089       0.73025465 </v>
    <v>       0.33594990       0.70799089       0.78041142 </v>
    <v>       0.94706106       0.33299089       0.83056808 </v>
    <v>       0.55817211       0.95799077       0.88072485 </v>
    <v>       0.50261688       0.33299077       0.62994116 </v>
    <v>       0.11372793       0.95799071       0.68009800 </v>
    <v>       0.72483897       0.58299077       0.73025471 </v>
    <v>       0.33594990       0.20799077       0.78041142 </v>
    <v>       0.94706106       0.83299089       0.83056808 </v>
    <v>       0.55817211       0.45799077       0.88072479 </v>
    <v>       0.25261676       0.95799077       0.62994116 </v>
    <v>       0.86372781       0.58299077       0.68009800 </v>
    <v>       0.47483897       0.20799089       0.73025465 </v>
    <v>       0.08594990       0.83299089       0.78041136 </v>
    <v>       0.69706100       0.45799089       0.83056814 </v>
    <v>       0.30817187       0.08299089       0.88072479 </v>
    <v>       0.25261688       0.45799065       0.62994116 </v>
    <v>       0.86372781       0.08299065       0.68009800 </v>
    <v>       0.47483897       0.70799065       0.73025465 </v>
    <v>       0.08594990       0.33299065       0.78041136 </v>
    <v>       0.69706100       0.95799083       0.83056814 </v>
    <v>       0.30817199       0.58299065       0.88072479 </v>
    <v>       0.25261688       0.20799077       0.62994123 </v>
    <v>       0.86372781       0.83299077       0.68009800 </v>
    <v>       0.47483897       0.45799089       0.73025465 </v>
    <v>       0.08594990       0.08299089       0.78041136 </v>
    <v>       0.69706106       0.70799089       0.83056814 </v>
    <v>       0.30817199       0.33299089       0.88072485 </v>
    <v>       0.25261688       0.70799065       0.62994116 </v>
    <v>       0.86372781       0.33299065       0.68009800 </v>
    <v>       0.47483897       0.95799077       0.73025465 </v>
    <v>       0.08594990       0.58299077       0.78041136 </v>
    <v>       0.69706106       0.20799089       0.83056814 </v>
    <v>       0.30817187       0.83299065       0.88072479 </v>
    <v>       0.50261688       0.08299077       0.62994116 </v>
    <v>       0.11372793       0.70799077       0.68009800 </v>
    <v>       0.72483897       0.33299089       0.73025471 </v>
    <v>       0.33594990       0.95799083       0.78041142 </v>
    <v>       0.94706130       0.58299100       0.83056814 </v>
    <v>       0.55817211       0.20799077       0.88072485 </v>
    <v>       0.50261688       0.58299065       0.62994116 </v>
    <v>       0.11372793       0.20799077       0.68009800 </v>
    <v>       0.72483897       0.83299089       0.73025471 </v>
    <v>       0.33595002       0.45799089       0.78041142 </v>
    <v>       0.94706118       0.08299089       0.83056808 </v>
    <v>       0.55817187       0.70799065       0.88072479 </v>
   </varray>
  </structure>
  <varray name="forces" >
   <v>      -0.22125155      -0.08832866      -0.83308778 </v>
   <v>       0.05653117       0.09634739      -0.03666186 </v>
   <v>       0.09641197       0.06898789       0.52453975 </v>
   <v>       1.00844596      -1.18099019       2.08569224 </v>
   <v>       0.08492829       0.02817606      -0.04203833 </v>
   <v>       0.30026789      -0.36929099       0.02923528 </v>
   <v>       0.42289380       0.13558149       0.80664218 </v>
   <v>       0.09191556       0.15348945       0.17704448 </v>
   <v>       0.01304638       0.18481463       0.33509134 </v>
   <v>      -0.13366736      -0.29604655       0.16004792 </v>
   <v>       0.01414224       0.03665522       0.02177950 </v>
   <v>       0.08307924       0.17837218       0.33220654 </v>
   <v>       7.09143880      -1.59813232      28.40930209 </v>
   <v>       0.02845040       0.06069403       0.08393667 </v>
   <v>       0.26652653      -0.43792249       0.03786660 </v>
   <v>      -0.04712532      -0.13272739      -0.75355236 </v>
   <v>       0.17820178       0.10751382       0.09489139 </v>
   <v>       0.31936135      -0.01881257       0.33467557 </v>
   <v>      -0.49946445      -0.37024974      -0.58004901 </v>
   <v>      -0.02644279       0.04796938       0.03045729 </v>
   <v>      -0.13384806       0.02755573       0.43859479 </v>
   <v>       0.58587996       2.19168309       3.80464043 </v>
   <v>       0.03387868      -0.01964341       0.10309894 </v>
   <v>       0.25291485      -0.01503234       0.00118935 </v>
   <v>       0.28196129      -0.47826433       0.60440102 </v>
   <v>      -0.06108686       0.06508319       0.07551775 </v>
   <v>       0.09931504      -0.09565256       0.14955981 </v>
   <v>       0.17268825      -0.05107718      -0.19487992 </v>
   <v>       0.06012498      -0.10588398       0.03251211 </v>
   <v>      -0.56610636       0.26907548      -0.41397553 </v>
   <v>      -0.09426308      -0.19047991      -0.05525115 </v>
   <v>       0.05828980       0.04869285      -0.27007814 </v>
   <v>      -0.24380530       0.04247362       0.27214169 </v>
   <v>       0.11223622       0.21151673      -0.13059309 </v>
   <v>       0.00689762      -0.16481659      -0.03391730 </v>
   <v>       0.23237984       0.31540072       0.70785134 </v>
   <v>       0.00373369       0.17555585      -0.31217931 </v>
   <v>       0.00433815      -0.11940696      -0.00395253 </v>
   <v>      -0.18820576       0.18474683       0.99541076 </v>
   <v>      -0.25273475       0.28286579      -0.15797350 </v>
   <v>       0.04282170       0.07566799      -0.17206603 </v>
   <v>      -2.03791787       0.09426221      -2.85433686 </v>
   <v>       0.24269649      -0.04721434      -0.05400093 </v>
   <v>      -0.05705090      -0.01761845      -0.07077594 </v>
   <v>      -0.03787098       0.06929980       0.86285387 </v>
   <v>       0.18979746      -0.14171269      -0.34498613 </v>
   <v>       0.01969681      -0.07952222      -0.10356809 </v>
   <v>      -0.04513590       0.46341655      -0.06797680 </v>
   <v>       0.01053484       0.16801474      -0.23563157 </v>
   <v>       0.01622126       0.09004879      -0.08925437 </v>
   <v>      -0.72103701      -0.49543539       0.16404668 </v>
   <v>      -0.09599251       0.01782637      -0.15381003 </v>
   <v>      -0.06607085      -0.11274349       0.00744297 </v>
   <v>      -0.13172209      -0.12550986       0.69492167 </v>
   <v>      -0.12458351      -0.28457088      -1.01748043 </v>
   <v>      -0.02804546       0.03555112       0.15391398 </v>
   <v>      -0.13471286       0.00203137       0.36208092 </v>
   <v>      -2.40980081      -2.16816731       4.93993336 </v>
   <v>       0.16726351       0.08767906       0.03728296 </v>
   <v>       0.17344242       0.08428373      -0.52887215 </v>
   <v>      -0.08184626      -0.10080740      -1.09413370 </v>
   <v>      -0.14304429      -0.07034674       0.02395505 </v>
   <v>      -0.09328506       0.06876500       0.06586073 </v>
   <v>       0.00724517       0.46327341      -0.77016316 </v>
   <v>      -0.04232069       0.04195208      -0.01826107 </v>
   <v>      -0.12833285      -0.02868771       0.00502694 </v>
   <v>      -3.97391659       2.79814458       7.08681625 </v>
   <v>      -0.00899007      -0.06819375       0.05608019 </v>
   <v>      -0.45358509       0.34574665      -0.00784136 </v>
   <v>      -0.09503169       0.03564897      -0.82199029 </v>
   <v>      -0.11195132      -0.11526838       0.09256424 </v>
   <v>      -0.22848381       0.10879426       0.34988421 </v>
   <v>       0.35314638       0.50814331      -1.21425061 </v>
   <v>      -0.05031204      -0.14053331       0.15604437 </v>
   <v>      -0.37419502       0.17218773      -0.00963964 </v>
   <v>       0.41995633      -0.03910540      -1.21773541 </v>
   <v>       0.10431194      -0.09602956       0.00206892 </v>
   <v>       0.23883351      -0.13237866       0.11269547 </v>
   <v>       0.59066638       0.25276538      -0.90950819 </v>
   <v>      -0.02101849      -0.06875669       0.04981180 </v>
   <v>       0.00973996      -0.00311153       0.37374471 </v>
   <v>       0.23609362      -0.40739146      -0.09028832 </v>
   <v>       0.10923119       0.14063008      -0.07033011 </v>
   <v>       0.07185127      -7.71870090     -16.29894942 </v>
   <v>      -0.00131356      -0.11721639       0.26015455 </v>
   <v>      -0.05043964      -0.02072590       0.06271333 </v>
   <v>      -0.08526070      -0.31307928      -0.20979945 </v>
   <v>      -0.09790901       0.17533705      -0.23622463 </v>
   <v>      -0.03905598       0.00295264      -0.02578689 </v>
   <v>      -0.49223666      -0.60931394       0.88219900 </v>
   <v>      -0.26009871       0.17227442       0.40190066 </v>
   <v>       0.09625378      -0.00006139      -0.05507692 </v>
   <v>      -0.33006692       8.27428712     -22.21899889 </v>
   <v>       0.12909867      -0.26327596      -0.09320120 </v>
   <v>      -0.02094467      -0.07507168      -0.12652083 </v>
   <v>       0.47785073       0.16089879       0.26522971 </v>
   <v>       0.01266040       0.05469639      -0.10341890 </v>
   <v>       0.02717115       0.06269203      -0.02781149 </v>
   <v>      -0.06677119       0.13314158       1.05215169 </v>
   <v>      -0.53292818       0.16734776      -0.20482259 </v>
   <v>      -0.12187972       0.08145652      -0.02646138 </v>
   <v>       0.11980814       0.28789213       0.73720257 </v>
   <v>       0.29206489      -0.39829163       0.13248561 </v>
   <v>      -0.01959651       0.07263136      -0.17161504 </v>
   <v>       3.17185511      -0.65392947      -3.58394864 </v>
   <v>      -0.14216145       0.09700706      -0.18052967 </v>
   <v>      -0.12044199       0.04022381      -0.06203615 </v>
   <v>      -0.20059188      -0.22773015      -0.07153288 </v>
   <v>       0.13954527       0.22582453       0.31827271 </v>
   <v>      -1.10025120      -0.42109153      -0.21145691 </v>
   <v>      -0.90129766      -0.06083181      -0.75186335 </v>
   <v>      -0.45439476       0.05818946       0.01549570 </v>
   <v>      -0.22644660      -0.09410920       0.99425278 </v>
   <v>      -2.18224814      -0.41333768       0.60710813 </v>
   <v>       0.27038318      -0.31839831      -0.68595681 </v>
   <v>      -1.11921686       0.44187563      -0.32352905 </v>
   <v>      -1.09341281      -0.15482527      -0.46127727 </v>
   <v>      -0.85874853       0.28959208       0.31500659 </v>
   <v>      -1.20197753      -0.10550984       1.57132589 </v>
   <v>       3.75769183      -2.84174011      -6.02984936 </v>
   <v>       0.68150732       7.62123398      15.45684748 </v>
   <v>       0.57987171       0.32709048      -0.95792179 </v>
   <v>       0.45349069       0.24872518      -0.43571230 </v>
   <v>       1.12085174       0.05133504       0.91771848 </v>
   <v>       1.26296581       0.25361443       0.43417435 </v>
   <v>      -1.65815396       1.32770088      -1.17418586 </v>
   <v>       1.66988351       0.31919334      -1.22923512 </v>
   <v>       0.72478428      -0.09833455      -1.51732860 </v>
   <v>       0.83644695      -0.52271118      -0.27167792 </v>
   <v>       1.21250839      -0.02473013       0.05814970 </v>
   <v>       1.45115438      -0.41986827      -0.10122209 </v>
   <v>      -0.89382155      -2.63205400      -3.16713538 </v>
   <v>       1.32136767      -8.24528794      21.56836374 </v>
   <v>       1.12283114       0.39381095      -1.40864208 </v>
   <v>       1.00762557      -0.22530810      -0.50081320 </v>
   <v>       1.17532165       0.51602278       0.19727097 </v>
   <v>       1.28466507      -0.07876857      -0.60790628 </v>
   <v>      -7.23709813       1.85459058     -27.99465533 </v>
   <v>       0.74489575      -0.21361157      -1.37834604 </v>
   <v>       0.54699936      -0.04084647      -1.97557653 </v>
   <v>       0.29928066       0.21729344      -0.10509694 </v>
   <v>       1.19142456      -0.28315450       0.51449211 </v>
   <v>       1.27769679       0.48255014       1.05163287 </v>
   <v>      -0.54959516      -0.35369450       1.21830815 </v>
   <v>       2.43231988      -0.41082226       2.21355187 </v>
   <v>      -0.87396458       0.32446531       0.14056059 </v>
   <v>      -1.13793466       0.21687754      -0.40928171 </v>
   <v>      -1.02718287       0.44938211      -0.12391714 </v>
   <v>      -0.79271590       0.01367771       1.45647856 </v>
   <v>       1.57356568       2.11740379      -4.45192303 </v>
   <v>      -2.79899857       0.85857844       3.38671597 </v>
   <v>      -1.29742984      -0.61818196      -0.20551939 </v>
   <v>      -0.86755445      -0.17420012      -0.61578168 </v>
   <v>      -0.60526644      -0.22715719       0.20570605 </v>
   <v>      -0.65040618      -0.34345921       2.43972880 </v>
   <v>      -1.15560290       0.76604317       1.40708239 </v>
  </varray>
  <varray name="stress" >
   <v>      29.44501753       7.53423218      -0.75867380 </v>
   <v>       7.53423188       0.94177628      -0.31300986 </v>
   <v>      -0.75868508      -0.31301067      79.15079615 </v>
  </varray>
  <energy>
   <i name="e_fr_energy">   -716.91259877 </i>
   <i name="e_wo_entrp">   -716.90922242 </i>
   <i name="e_0_energy">   -716.91091059 </i>
  </energy>
  <time name="totalsc"> 1163.28 1173.72</time>
  <eigenvalues>
   <array>
    <dimension dim="1">band</dimension>
    <dimension dim="2">kpoint</dimension>
    <dimension dim="3">spin</dimension>
    <field>eigene</field>
    <field>occ</field>
    <set>
     <set comment="spin 1">
      <set comment="kpoint 1">
       <r>   -8.0016    1.0000 </r>
       <r>   -7.6536    1.0000 </r>
       <r>   -7.6245    1.0000 </r>
       <r>   -7.4475    1.0000 </r>
       <r>   -7.3813    1.0000 </r>
       <r>   -7.2758    1.0000 </r>
       <r>   -7.1828    1.0000 </r>
       <r>   -7.0728    1.0000 </r>
       <r>   -7.0559    1.0000 </r>
       <r>   -6.9302    1.0000 </r>
       <r>   -6.8730    1.0000 </r>
       <r>   -6.8596    1.0000 </r>
       <r>   -6.8313    1.0000 </r>
       <r>   -6.7751    1.0000 </r>
       <r>   -6.7346    1.0000 </r>
       <r>   -6.6974    1.0000 </r>
       <r>   -6.6545    1.0000 </r>
       <r>   -6.6229    1.0000 </r>
       <r>   -6.5119    1.0000 </r>
       <r>   -6.4597    1.0000 </r>
       <r>   -6.4238    1.0000 </r>
       <r>   -6.3819    1.0000 </r>
       <r>   -6.3312    1.0000 </r>
       <r>   -6.2936    1.0000 </r>
       <r>   -6.2092    1.0000 </r>
       <r>   -6.1729    1.0000 </r>
[...]
       <r>    -2.9957    26.4952   180.5733 </r>
       <r>    -2.9426    41.3714   182.7680 </r>
       <r>    -2.8896    35.1509   184.6327 </r>
       <r>    -2.8365    36.4834   186.5682 </r>
       <r>    -2.7835    27.6889   188.0370 </r>
       <r>    -2.7304    28.4447   189.5460 </r>
       <r>    -2.6774    43.1375   191.8344 </r>
       <r>    -2.6243    42.9729   194.1141 </r>
       <r>    -2.5713    39.1356   196.1902 </r>
       <r>    -2.5182    58.3449   199.2854 </r>
       <r>    -2.4652    45.2769   201.6873 </r>
       <r>    -2.4122    57.6935   204.7478 </r>
       <r>    -2.3591    28.4195   206.2555 </r>
       <r>    -2.3061    49.0336   208.8567 </r>
       <r>    -2.2530    67.0340   212.4128 </r>
       <r>    -2.2000    65.2372   215.8736 </r>
       <r>    -2.1469    56.9701   218.8958 </r>
       <r>    -2.0939    60.3580   222.0977 </r>
       <r>    -2.0408    50.9500   224.8006 </r>
       <r>    -1.9878    27.1285   226.2397 </r>
       <r>    -1.9347    73.1681   230.1212 </r>
       <r>    -1.8817    47.9890   232.6670 </r>
       <r>    -1.8286    32.4866   234.3904 </r>
       <r>    -1.7756    53.4583   237.2263 </r>
       <r>    -1.7225    52.5078   240.0118 </r>
       <r>    -1.6695    38.5704   242.0580 </r>
       <r>    -1.6164    37.2296   244.0330 </r>
       <r>    -1.5634    40.3468   246.1733 </r>
       <r>    -1.5103    45.2601   248.5743 </r>
       <r>    -1.4573    36.6670   250.5195 </r>
       <r>    -1.4042    31.6842   252.2003 </r>
       <r>    -1.3512    37.4887   254.1891 </r>
       <r>    -1.2981    30.7771   255.8218 </r>
       <r>    -1.2451    55.4571   258.7637 </r>
       <r>    -1.1920    41.6246   260.9719 </r>
       <r>    -1.1390    31.3543   262.6352 </r>
       <r>    -1.0859    36.7969   264.5873 </r>
       <r>    -1.0329    41.4856   266.7880 </r>
       <r>    -0.9798    33.8466   268.5836 </r>
       <r>    -0.9268    28.8705   270.1151 </r>
       <r>    -0.8737    35.0595   271.9750 </r>
       <r>    -0.8207    29.3173   273.5303 </r>
       <r>    -0.7676    21.6219   274.6773 </r>
       <r>    -0.7146    34.3095   276.4974 </r>
       <r>    -0.6615    19.6985   277.5424 </r>
       <r>    -0.6085    37.8866   279.5522 </r>
       <r>    -0.5554    29.6168   281.1234 </r>
       <r>    -0.5024    40.2797   283.2602 </r>
       <r>    -0.4493    37.0968   285.2281 </r>
       <r>    -0.3963    34.7727   287.0728 </r>
       <r>    -0.3432    28.8034   288.6008 </r>
       <r>    -0.2902    41.9589   290.8267 </r>
       <r>    -0.2371    28.1443   292.3197 </r>
       <r>    -0.1841    27.8009   293.7946 </r>
       <r>    -0.1310    17.2330   294.7088 </r>
       <r>    -0.0780    27.3927   296.1619 </r>
       <r>    -0.0249    29.5994   297.7321 </r>
       <r>     0.0281    32.8924   299.4771 </r>
       <r>     0.0812    50.4217   302.1519 </r>
       <r>     0.1342    37.7670   304.1554 </r>
       <r>     0.1873    33.5845   305.9370 </r>
       <r>     0.2403    48.3634   308.5027 </r>
       <r>     0.2934    63.0401   311.8469 </r>
       <r>     0.3464    77.4780   315.9570 </r>
       <r>     0.3995    59.8522   319.1322 </r>
       <r>     0.4525    83.9215   323.5841 </r>
       <r>     0.5056    81.3038   327.8972 </r>
       <r>     0.5586    93.9808   332.8828 </r>
       <r>     0.6117    90.5929   337.6887 </r>
       <r>     0.6647    75.6320   341.7009 </r>
       <r>     0.7177    77.5194   345.8133 </r>
       <r>     0.7708    77.2958   349.9138 </r>
       <r>     0.8238    98.8138   355.1557 </r>
       <r>     0.8769    85.3930   359.6858 </r>
       <r>     0.9299    83.5902   364.1202 </r>
       <r>     0.9830    75.2131   368.1102 </r>
       <r>     1.0360    76.7066   372.1794 </r>
       <r>     1.0891    92.5595   377.0896 </r>
       <r>     1.1421    97.8059   382.2782 </r>
       <r>     1.1952    87.9359   386.9431 </r>
       <r>     1.2482    76.9866   391.0272 </r>
       <r>     1.3013    98.8005   396.2685 </r>
       <r>     1.3543    83.1831   400.6813 </r>
       <r>     1.4074   111.1015   406.5751 </r>
       <r>     1.4604    85.8907   411.1316 </r>
       <r>     1.5135    88.6104   415.8323 </r>
       <r>     1.5665    94.7684   420.8597 </r>
       <r>     1.6196    86.4819   425.4475 </r>
       <r>     1.6726    90.8287   430.2659 </r>
       <r>     1.7257   110.3560   436.1202 </r>
       <r>     1.7787    79.6806   440.3472 </r>
       <r>     1.8318    93.6135   445.3133 </r>
       <r>     1.8848    97.6231   450.4922 </r>
       <r>     1.9379   103.8401   456.0008 </r>
       <r>     1.9909    72.7613   459.8608 </r>
       <r>     2.0440    80.1980   464.1152 </r>
       <r>     2.0970    75.6138   468.1265 </r>
       <r>     2.1501    86.0341   472.6905 </r>
       <r>     2.2031    86.9799   477.3047 </r>
       <r>     2.2562    75.7042   481.3208 </r>
       <r>     2.3092    98.4789   486.5450 </r>
       <r>     2.3623   104.6826   492.0983 </r>
       <r>     2.4153    86.8832   496.7074 </r>
       <r>     2.4684    80.2781   500.9661 </r>
       <r>     2.5214    95.9016   506.0536 </r>
       <r>     2.5745    75.5315   510.0605 </r>
       <r>     2.6275    81.8045   514.4001 </r>
       <r>     2.6806    94.9720   519.4383 </r>
       <r>     2.7336    82.9324   523.8378 </r>
       <r>     2.7867    88.3969   528.5272 </r>
       <r>     2.8397    75.8689   532.5520 </r>
       <r>     2.8928    68.6635   536.1945 </r>
       <r>     2.9458   104.3739   541.7315 </r>
       <r>     2.9989    80.3065   545.9917 </r>
       <r>     3.0519    58.0234   549.0698 </r>
       <r>     3.1050    65.6026   552.5500 </r>
       <r>     3.1580    73.9681   556.4739 </r>
       <r>     3.2111    62.3734   559.7828 </r>
       <r>     3.2641    63.4579   563.1492 </r>
       <r>     3.3172    68.3711   566.7762 </r>
       <r>     3.3702    72.8494   570.6408 </r>
       <r>     3.4233    52.0857   573.4039 </r>
       <r>     3.4763    61.1994   576.6505 </r>
       <r>     3.5294    55.2609   579.5820 </r>
       <r>     3.5824    56.2826   582.5678 </r>
       <r>     3.6355    68.2079   586.1862 </r>
       <r>     3.6885    49.9246   588.8346 </r>
       <r>     3.7415    58.1202   591.9179 </r>
       <r>     3.7946    29.8548   593.5017 </r>
       <r>     3.8476    42.2254   595.7417 </r>
       <r>     3.9007    62.5135   599.0580 </r>
       <r>     3.9537    49.5920   601.6888 </r>
       <r>     4.0068    45.2229   604.0879 </r>
       <r>     4.0598    57.7244   607.1501 </r>
       <r>     4.1129    40.4020   609.2934 </r>
       <r>     4.1659    42.7102   611.5592 </r>
       <r>     4.2190    60.1969   614.7526 </r>
       <r>     4.2720    52.0272   617.5126 </r>
       <r>     4.3251    61.1776   620.7580 </r>
       <r>     4.3781    45.8880   623.1923 </r>
       <r>     4.4312    42.0960   625.4255 </r>
       <r>     4.4842    61.3586   628.6805 </r>
       <r>     4.5373    47.2171   631.1853 </r>
       <r>     4.5903    58.6489   634.2966 </r>
       <r>     4.6434    57.0037   637.3206 </r>
       <r>     4.6964    72.1583   641.1485 </r>
       <r>     4.7495    57.4329   644.1953 </r>
       <r>     4.8025    50.1737   646.8570 </r>
       <r>     4.8556    65.2409   650.3180 </r>
       <r>     4.9086    51.8614   653.0692 </r>
       <r>     4.9617    54.7112   655.9716 </r>
       <r>     5.0147    57.2565   659.0090 </r>
       <r>     5.0678    49.6216   661.6414 </r>
       <r>     5.1208    63.1596   664.9919 </r>
       <r>     5.1739    47.9492   667.5356 </r>
       <r>     5.2269    59.2262   670.6775 </r>
       <r>     5.2800    57.6383   673.7352 </r>
       <r>     5.3330    55.3787   676.6730 </r>
       <r>     5.3861    43.8369   678.9985 </r>
       <r>     5.4391    63.2036   682.3514 </r>
       <r>     5.4922    68.0253   685.9601 </r>
       <r>     5.5452    56.7851   688.9725 </r>
       <r>     5.5983    68.2821   692.5948 </r>
       <r>     5.6513    66.5345   696.1244 </r>
       <r>     5.7044    61.0127   699.3611 </r>
       <r>     5.7574    64.6445   702.7904 </r>
       <r>     5.8105    76.6878   706.8587 </r>
       <r>     5.8635    74.0283   710.7858 </r>
       <r>     5.9166    73.0161   714.6592 </r>
       <r>     5.9696    85.0054   719.1687 </r>
       <r>     6.0227    52.3346   721.9450 </r>
       <r>     6.0757    81.6474   726.2764 </r>
       <r>     6.1288    74.5740   730.2324 </r>
       <r>     6.1818    59.4361   733.3855 </r>
       <r>     6.2349    67.9078   736.9880 </r>
       <r>     6.2879    66.5498   740.5184 </r>
       <r>     6.3410    85.6575   745.0624 </r>
       <r>     6.3940    78.3368   749.2181 </r>
       <r>     6.4471    40.1407   751.3476 </r>
       <r>     6.5001    12.2986   752.0000 </r>
       <r>     6.5532     0.0000   752.0000 </r>
       <r>     6.6062     0.0000   752.0000 </r>
       <r>     6.6593     0.0000   752.0000 </r>
       <r>     6.7123     0.0000   752.0000 </r>
       <r>     6.7653     0.0000   752.0000 </r>
       <r>     6.8184     0.0000   752.0000 </r>
       <r>     6.8714     0.0000   752.0000 </r>
       <r>     6.9245     0.0000   752.0000 </r>
       <r>     6.9775     0.0000   752.0000 </r>
       <r>     7.0306     0.0000   752.0000 </r>
       <r>     7.0836     0.0000   752.0000 </r>
       <r>     7.1367     0.0000   752.0000 </r>
       <r>     7.1897     0.0000   752.0000 </r>
      </set>
     </set>
    </array>
   </total>
  </dos>
 </calculation>
 <structure name="finalpos" >
  <crystal>
   <varray name="basis" >
    <v>      16.29300118       0.00000000       0.00000000 </v>
    <v>       0.00000000      16.29300118       0.00000000 </v>
    <v>       0.00000000       0.00000000      13.29391670 </v>
   </varray>
   <i name="volume">   3529.02821717 </i>
   <varray name="rec_basis" >
    <v>       0.06137605       0.00000000       0.00000000 </v>
    <v>       0.00000000       0.06137605       0.00000000 </v>
    <v>       0.00000000       0.00000000       0.07522238 </v>
   </varray>
  </crystal>
  <varray name="positions" >
   <v>       0.00000000       0.99406773       0.00000000 </v>
   <v>       0.00000000       0.82740104       0.20426638 </v>
   <v>       0.00000000       0.66073430       0.40853280 </v>
   <v>       0.33333334       0.99406773       0.00000000 </v>
   <v>       0.33333334       0.82740104       0.20426638 </v>
   <v>       0.33333334       0.66073430       0.40853280 </v>
   <v>       0.66666669       0.99406773       0.00000000 </v>
   <v>       0.66666669       0.82740104       0.20426638 </v>
   <v>       0.66666669       0.66073430       0.40853280 </v>
   <v>       0.00000000       0.32740104       0.00000000 </v>
   <v>       0.00000000       0.16073437       0.20426638 </v>
   <v>       0.00000000       0.99406767       0.40853280 </v>
   <v>       0.33333334       0.32740104       0.00000000 </v>
   <v>       0.33333334       0.16073437       0.20426638 </v>
   <v>       0.33333334       0.99406767       0.40853280 </v>
   <v>       0.66666669       0.32740104       0.00000000 </v>
   <v>       0.66666669       0.16073437       0.20426638 </v>
   <v>       0.66666669       0.99406767       0.40853280 </v>
   <v>       0.00000000       0.66073442       0.00000000 </v>
   <v>       0.00000000       0.49406770       0.20426638 </v>
   <v>       0.00000000       0.32740104       0.40853280 </v>
   <v>       0.33333334       0.66073442       0.00000000 </v>
   <v>       0.33333334       0.49406770       0.20426638 </v>
   <v>       0.33333334       0.32740104       0.40853280 </v>
   <v>       0.66666669       0.66073442       0.00000000 </v>
   <v>       0.66666669       0.49406770       0.20426638 </v>
   <v>       0.66666669       0.32740104       0.40853280 </v>
   <v>       0.08333334       0.07740105       0.10213320 </v>
   <v>       0.08333334       0.91073436       0.30639952 </v>
   <v>       0.08333334       0.74406767       0.51066601 </v>
   <v>       0.41666669       0.07740105       0.10213320 </v>
   <v>       0.41666669       0.91073436       0.30639952 </v>
   <v>       0.41666669       0.74406767       0.51066601 </v>
   <v>       0.75000000       0.07740105       0.10213320 </v>
   <v>       0.75000000       0.91073436       0.30639952 </v>
   <v>       0.75000000       0.74406767       0.51066601 </v>
   <v>       0.08333334       0.41073436       0.10213320 </v>
   <v>       0.08333334       0.24406767       0.30639952 </v>
   <v>       0.08333334       0.07740098       0.51066601 </v>
   <v>       0.41666669       0.41073436       0.10213320 </v>
   <v>       0.41666669       0.24406767       0.30639952 </v>
   <v>       0.41666669       0.07740098       0.51066601 </v>
   <v>       0.75000000       0.41073436       0.10213320 </v>
   <v>       0.75000000       0.24406767       0.30639952 </v>
   <v>       0.75000000       0.07740098       0.51066601 </v>
   <v>       0.08333334       0.74406773       0.10213320 </v>
   <v>       0.08333334       0.57740104       0.30639952 </v>
   <v>       0.08333334       0.41073436       0.51066601 </v>
   <v>       0.41666669       0.74406773       0.10213320 </v>
   <v>       0.41666669       0.57740104       0.30639952 </v>
   <v>       0.41666669       0.41073436       0.51066601 </v>
   <v>       0.75000000       0.74406773       0.10213320 </v>
   <v>       0.75000000       0.57740104       0.30639952 </v>
   <v>       0.75000000       0.41073436       0.51066601 </v>
   <v>       0.16666667       0.16073438       0.00000000 </v>
   <v>       0.16666667       0.99406767       0.20426638 </v>
   <v>       0.16666667       0.82740098       0.40853280 </v>
   <v>       0.50000000       0.16073438       0.00000000 </v>
   <v>       0.50000000       0.99406767       0.20426638 </v>
   <v>       0.50000000       0.82740098       0.40853280 </v>
   <v>       0.83333337       0.16073438       0.00000000 </v>
   <v>       0.83333337       0.99406767       0.20426638 </v>
   <v>       0.83333337       0.82740098       0.40853280 </v>
   <v>       0.16666667       0.49406770       0.00000000 </v>
   <v>       0.16666667       0.32740104       0.20426638 </v>
   <v>       0.16666667       0.16073431       0.40853280 </v>
   <v>       0.50000000       0.49406770       0.00000000 </v>
   <v>       0.50000000       0.32740104       0.20426638 </v>
   <v>       0.50000000       0.16073431       0.40853280 </v>
   <v>       0.83333337       0.49406770       0.00000000 </v>
   <v>       0.83333337       0.32740104       0.20426638 </v>
   <v>       0.83333337       0.16073431       0.40853280 </v>
   <v>       0.16666667       0.82740104       0.00000000 </v>
   <v>       0.16666667       0.66073436       0.20426638 </v>
   <v>       0.16666667       0.49406764       0.40853280 </v>
   <v>       0.50000000       0.82740104       0.00000000 </v>
   <v>       0.50000000       0.66073436       0.20426638 </v>
   <v>       0.50000000       0.49406764       0.40853280 </v>
   <v>       0.83333337       0.82740104       0.00000000 </v>
   <v>       0.83333337       0.66073436       0.20426638 </v>
   <v>       0.83333337       0.49406764       0.40853280 </v>
   <v>       0.25000000       0.24406771       0.10213320 </v>
   <v>       0.25000000       0.07740103       0.30639952 </v>
   <v>       0.25000000       0.91073436       0.51066601 </v>
   <v>       0.58333337       0.24406771       0.10213320 </v>
   <v>       0.58333337       0.07740103       0.30639952 </v>
   <v>       0.58333337       0.91073436       0.51066601 </v>
   <v>       0.91666669       0.24406771       0.10213320 </v>
   <v>       0.91666669       0.07740103       0.30639952 </v>
   <v>       0.91666669       0.91073436       0.51066601 </v>
   <v>       0.25000000       0.57740116       0.10213320 </v>
   <v>       0.25000000       0.41073445       0.30639952 </v>
   <v>       0.25000000       0.24406774       0.51066601 </v>
   <v>       0.58333337       0.57740116       0.10213320 </v>
   <v>       0.58333337       0.41073445       0.30639952 </v>
   <v>       0.58333337       0.24406774       0.51066601 </v>
   <v>       0.91666669       0.57740116       0.10213320 </v>
   <v>       0.91666669       0.41073445       0.30639952 </v>
   <v>       0.91666669       0.24406774       0.51066601 </v>
   <v>       0.25000000       0.91073436       0.10213320 </v>
   <v>       0.25000000       0.74406767       0.30639952 </v>
   <v>       0.25000000       0.57740104       0.51066601 </v>
   <v>       0.58333337       0.91073436       0.10213320 </v>
   <v>       0.58333337       0.74406767       0.30639952 </v>
   <v>       0.58333337       0.57740104       0.51066601 </v>
   <v>       0.91666669       0.91073436       0.10213320 </v>
   <v>       0.91666669       0.74406767       0.30639952 </v>
   <v>       0.91666669       0.57740104       0.51066601 </v>
   <v>       0.50261688       0.83299089       0.62994116 </v>
   <v>       0.11372793       0.45799077       0.68009800 </v>
   <v>       0.72483897       0.08299089       0.73025465 </v>
   <v>       0.33594990       0.70799089       0.78041142 </v>
   <v>       0.94706106       0.33299089       0.83056808 </v>
   <v>       0.55817211       0.95799077       0.88072485 </v>
   <v>       0.50261688       0.33299077       0.62994116 </v>
   <v>       0.11372793       0.95799071       0.68009800 </v>
   <v>       0.72483897       0.58299077       0.73025471 </v>
   <v>       0.33594990       0.20799077       0.78041142 </v>
   <v>       0.94706106       0.83299089       0.83056808 </v>
   <v>       0.55817211       0.45799077       0.88072479 </v>
   <v>       0.25261676       0.95799077       0.62994116 </v>
   <v>       0.86372781       0.58299077       0.68009800 </v>
   <v>       0.47483897       0.20799089       0.73025465 </v>
   <v>       0.08594990       0.83299089       0.78041136 </v>
   <v>       0.69706100       0.45799089       0.83056814 </v>
   <v>       0.30817187       0.08299089       0.88072479 </v>
   <v>       0.25261688       0.45799065       0.62994116 </v>
   <v>       0.86372781       0.08299065       0.68009800 </v>
   <v>       0.47483897       0.70799065       0.73025465 </v>
   <v>       0.08594990       0.33299065       0.78041136 </v>
   <v>       0.69706100       0.95799083       0.83056814 </v>
   <v>       0.30817199       0.58299065       0.88072479 </v>
   <v>       0.25261688       0.20799077       0.62994123 </v>
   <v>       0.86372781       0.83299077       0.68009800 </v>
   <v>       0.47483897       0.45799089       0.73025465 </v>
   <v>       0.08594990       0.08299089       0.78041136 </v>
   <v>       0.69706106       0.70799089       0.83056814 </v>
   <v>       0.30817199       0.33299089       0.88072485 </v>
   <v>       0.25261688       0.70799065       0.62994116 </v>
   <v>       0.86372781       0.33299065       0.68009800 </v>
   <v>       0.47483897       0.95799077       0.73025465 </v>
   <v>       0.08594990       0.58299077       0.78041136 </v>
   <v>       0.69706106       0.20799089       0.83056814 </v>
   <v>       0.30817187       0.83299065       0.88072479 </v>
   <v>       0.50261688       0.08299077       0.62994116 </v>
   <v>       0.11372793       0.70799077       0.68009800 </v>
   <v>       0.72483897       0.33299089       0.73025471 </v>
   <v>       0.33594990       0.95799083       0.78041142 </v>
   <v>       0.94706130       0.58299100       0.83056814 </v>
   <v>       0.55817211       0.20799077       0.88072485 </v>
   <v>       0.50261688       0.58299065       0.62994116 </v>
   <v>       0.11372793       0.20799077       0.68009800 </v>
   <v>       0.72483897       0.83299089       0.73025471 </v>
   <v>       0.33595002       0.45799089       0.78041142 </v>
   <v>       0.94706118       0.08299089       0.83056808 </v>
   <v>       0.55817187       0.70799065       0.88072479 </v>
  </varray>
 </structure>
</modeling>
