Si and Ge interface calculation         
           1
    16.293001    0.000000    0.000000
     0.000000   16.293001    0.000000
     0.000000    0.000000   13.293917
   Si   Ge
   108    48
Direct configuration=     1
   0.00000000  0.99406773  0.00000000
   0.00000000  0.82740104  0.20426638
   0.00000000  0.66073430  0.40853280
   0.33333334  0.99406773  0.00000000
   0.33333334  0.82740104  0.20426638
   0.33333334  0.66073430  0.40853280
   0.66666669  0.99406773  0.00000000
   0.66666669  0.82740104  0.20426638
   0.66666669  0.66073430  0.40853280
   0.00000000  0.32740104  0.00000000
   0.00000000  0.16073437  0.20426638
   0.00000000  0.99406767  0.40853280
   0.33333334  0.32740104  0.00000000
   0.33333334  0.16073437  0.20426638
   0.33333334  0.99406767  0.40853280
   0.66666669  0.32740104  0.00000000
   0.66666669  0.16073437  0.20426638
   0.66666669  0.99406767  0.40853280
   0.00000000  0.66073442  0.00000000
   0.00000000  0.49406770  0.20426638
   0.00000000  0.32740104  0.40853280
   0.33333334  0.66073442  0.00000000
   0.33333334  0.49406770  0.20426638
   0.33333334  0.32740104  0.40853280
   0.66666669  0.66073442  0.00000000
   0.66666669  0.49406770  0.20426638
   0.66666669  0.32740104  0.40853280
   0.08333334  0.07740105  0.10213320
   0.08333334  0.91073436  0.30639952
   0.08333334  0.74406767  0.51066601
   0.41666669  0.07740105  0.10213320
   0.41666669  0.91073436  0.30639952
   0.41666669  0.74406767  0.51066601
   0.75000000  0.07740105  0.10213320
   0.75000000  0.91073436  0.30639952
   0.75000000  0.74406767  0.51066601
   0.08333334  0.41073436  0.10213320
   0.08333334  0.24406767  0.30639952
   0.08333334  0.07740098  0.51066601
   0.41666669  0.41073436  0.10213320
   0.41666669  0.24406767  0.30639952
   0.41666669  0.07740098  0.51066601
   0.75000000  0.41073436  0.10213320
   0.75000000  0.24406767  0.30639952
   0.75000000  0.07740098  0.51066601
   0.08333334  0.74406773  0.10213320
   0.08333334  0.57740104  0.30639952
   0.08333334  0.41073436  0.51066601
   0.41666669  0.74406773  0.10213320
   0.41666669  0.57740104  0.30639952
   0.41666669  0.41073436  0.51066601
   0.75000000  0.74406773  0.10213320
   0.75000000  0.57740104  0.30639952
   0.75000000  0.41073436  0.51066601
   0.16666667  0.16073438  0.00000000
   0.16666667  0.99406767  0.20426638
   0.16666667  0.82740098  0.40853280
   0.50000000  0.16073438  0.00000000
   0.50000000  0.99406767  0.20426638
   0.50000000  0.82740098  0.40853280
   0.83333337  0.16073438  0.00000000
   0.83333337  0.99406767  0.20426638
   0.83333337  0.82740098  0.40853280
   0.16666667  0.49406770  0.00000000
   0.16666667  0.32740104  0.20426638
   0.16666667  0.16073431  0.40853280
   0.50000000  0.49406770  0.00000000
   0.50000000  0.32740104  0.20426638
   0.50000000  0.16073431  0.40853280
   0.83333337  0.49406770  0.00000000
   0.83333337  0.32740104  0.20426638
   0.83333337  0.16073431  0.40853280
   0.16666667  0.82740104  0.00000000
   0.16666667  0.66073436  0.20426638
   0.16666667  0.49406764  0.40853280
   0.50000000  0.82740104  0.00000000
   0.50000000  0.66073436  0.20426638
   0.50000000  0.49406764  0.40853280
   0.83333337  0.82740104  0.00000000
   0.83333337  0.66073436  0.20426638
   0.83333337  0.49406764  0.40853280
   0.25000000  0.24406771  0.10213320
   0.25000000  0.07740103  0.30639952
   0.25000000  0.91073436  0.51066601
   0.58333337  0.24406771  0.10213320
   0.58333337  0.07740103  0.30639952
   0.58333337  0.91073436  0.51066601
   0.91666669  0.24406771  0.10213320
   0.91666669  0.07740103  0.30639952
   0.91666669  0.91073436  0.51066601
   0.25000000  0.57740116  0.10213320
   0.25000000  0.41073445  0.30639952
   0.25000000  0.24406774  0.51066601
   0.58333337  0.57740116  0.10213320
   0.58333337  0.41073445  0.30639952
   0.58333337  0.24406774  0.51066601
   0.91666669  0.57740116  0.10213320
   0.91666669  0.41073445  0.30639952
   0.91666669  0.24406774  0.51066601
   0.25000000  0.91073436  0.10213320
   0.25000000  0.74406767  0.30639952
   0.25000000  0.57740104  0.51066601
   0.58333337  0.91073436  0.10213320
   0.58333337  0.74406767  0.30639952
   0.58333337  0.57740104  0.51066601
   0.91666669  0.91073436  0.10213320
   0.91666669  0.74406767  0.30639952
   0.91666669  0.57740104  0.51066601
   0.50261688  0.83299089  0.62994116
   0.11372793  0.45799077  0.68009800
   0.72483897  0.08299089  0.73025465
   0.33594990  0.70799089  0.78041142
   0.94706106  0.33299089  0.83056808
   0.55817211  0.95799077  0.88072485
   0.50261688  0.33299077  0.62994116
   0.11372793  0.95799071  0.68009800
   0.72483897  0.58299077  0.73025471
   0.33594990  0.20799077  0.78041142
   0.94706106  0.83299089  0.83056808
   0.55817211  0.45799077  0.88072479
   0.25261676  0.95799077  0.62994116
   0.86372781  0.58299077  0.68009800
   0.47483897  0.20799089  0.73025465
   0.08594990  0.83299089  0.78041136
   0.69706100  0.45799089  0.83056814
   0.30817187  0.08299089  0.88072479
   0.25261688  0.45799065  0.62994116
   0.86372781  0.08299065  0.68009800
   0.47483897  0.70799065  0.73025465
   0.08594990  0.33299065  0.78041136
   0.69706100  0.95799083  0.83056814
   0.30817199  0.58299065  0.88072479
   0.25261688  0.20799077  0.62994123
   0.86372781  0.83299077  0.68009800
   0.47483897  0.45799089  0.73025465
   0.08594990  0.08299089  0.78041136
   0.69706106  0.70799089  0.83056814
   0.30817199  0.33299089  0.88072485
   0.25261688  0.70799065  0.62994116
   0.86372781  0.33299065  0.68009800
   0.47483897  0.95799077  0.73025465
   0.08594990  0.58299077  0.78041136
   0.69706106  0.20799089  0.83056814
   0.30817187  0.83299065  0.88072479
   0.50261688  0.08299077  0.62994116
   0.11372793  0.70799077  0.68009800
   0.72483897  0.33299089  0.73025471
   0.33594990  0.95799083  0.78041142
   0.94706130  0.58299100  0.83056814
   0.55817211  0.20799077  0.88072485
   0.50261688  0.58299065  0.62994116
   0.11372793  0.20799077  0.68009800
   0.72483897  0.83299089  0.73025471
   0.33595002  0.45799089  0.78041142
   0.94706118  0.08299089  0.83056808
   0.55817187  0.70799065  0.88072479
