<?xml version="1.0" encoding="ISO-8859-1"?>
<modeling>
 <generator>
  <i name="program" type="string">vasp </i>
  <i name="version" type="string">6.4.3  </i>
  <i name="subversion" type="string">19Mar24 (build Oct 22 2024 11:23:12) complex                          parallel </i>
  <i name="platform" type="string">LinuxIFC </i>
  <i name="date" type="string">2025 06 13 </i>
  <i name="time" type="string">10:06:28 </i>
 </generator>
 <incar>
  <i type="string" name="SYSTEM">Si and Ge interface calculation</i>
  <i type="int" name="ISTART">     0</i>
  <i type="logical" name="ADDGRID"> T  </i>
  <i type="int" name="ISPIN">     2</i>
  <i name="AMIX">      0.60000000</i>
  <i type="int" name="ICHARG">     2</i>
  <i type="int" name="NELM">   100</i>
  <i name="EDIFF">      0.00000010</i>
  <i name="ENCUT">    700.00000000</i>
  <i name="ENAUG">    900.00000000</i>
  <i type="int" name="NBANDS">   634</i>
  <i name="NUPDOWN">      1.00000000</i>
  <i name="NELECT">   1056.00000000</i>
  <i type="string" name="LREAL">AUTO</i>
  <i type="int" name="ISMEAR">     0</i>
  <i name="SIGMA">      0.01000000</i>
  <i type="int" name="LMAXMIX">     6</i>
  <i type="logical" name="LWAVE"> F  </i>
  <i type="logical" name="LVTOT"> F  </i>
  <i type="logical" name="LVHAR"> T  </i>
  <i type="logical" name="LASPH"> T  </i>
  <i type="logical" name="LMIXTAU"> T  </i>
 </incar>
 <primitive_cell>
  <structure name="primitive_cell" >
   <crystal>
    <varray name="basis" >
     <v>      19.46759987       0.00000000       0.00000000 </v>
     <v>       0.00000000      19.46759987       0.00000000 </v>
     <v>       0.00000000       0.00000000      19.10025215 </v>
    </varray>
    <i name="volume">   7238.75575506 </i>
    <varray name="rec_basis" >
     <v>       0.05136740       0.00000000       0.00000000 </v>
     <v>       0.00000000       0.05136740       0.00000000 </v>
     <v>       0.00000000       0.00000000       0.05235533 </v>
    </varray>
   </crystal>
   <varray name="positions" >
    <v>       0.97705865       0.09896692       0.89005387 </v>
    <v>       0.63090485       0.36819765       0.89005387 </v>
    <v>       0.66170174       0.66666669       0.33974418 </v>
    <v>       0.74628949       0.94512075       0.89005387 </v>
    <v>       0.82836843       0.33333334       0.16987211 </v>
    <v>       0.66170174       0.33333334       0.33974418 </v>
    <v>       0.99503511       0.00000000       0.00000000 </v>
    <v>       0.82836843       0.00000000       0.16987211 </v>
    <v>       0.03475118       0.88742852       0.53462648 </v>
    <v>       0.05398178       0.48358232       0.89005387 </v>
    <v>       0.16170174       0.66666669       0.16987211 </v>
    <v>       0.05398190       0.48358247       0.60571194 </v>
    <v>       0.32836846       0.33333334       0.00000000 </v>
    <v>       0.90013558       0.71435153       0.89005387 </v>
    <v>       0.99503511       0.33333334       0.33974418 </v>
    <v>       0.36167410       0.02204371       0.89005387 </v>
    <v>       0.13090488       0.86819774       0.89005387 </v>
    <v>       0.99503511       0.00000000       0.33974418 </v>
    <v>       0.66170180       0.66666669       0.00000000 </v>
    <v>       0.49503511       0.66666669       0.16987211 </v>
    <v>       0.32836846       0.66666669       0.33974418 </v>
    <v>       0.66170180       0.33333334       0.00000000 </v>
    <v>       0.49503511       0.33333334       0.16987211 </v>
    <v>       0.32836846       0.33333334       0.33974418 </v>
    <v>       0.93859708       0.90665925       0.89005387 </v>
    <v>       0.49503511       0.00000000       0.16987211 </v>
    <v>       0.32836846       0.00000000       0.33974418 </v>
    <v>       0.55398178       0.98358226       0.89005387 </v>
    <v>       0.91170180       0.91666675       0.25480810 </v>
    <v>       0.72705883       0.34896702       0.53462648 </v>
    <v>       0.66936636       0.56050533       0.89005387 </v>
    <v>       0.65013570       0.96435159       0.53462648 </v>
    <v>       0.49628958       0.19512083       0.53462648 </v>
    <v>       0.07836843       0.25000000       0.08493605 </v>
    <v>       0.88090497       0.11819780       0.53462648 </v>
    <v>       0.74503505       0.25000000       0.42468023 </v>
    <v>       0.41170177       0.91666675       0.08493605 </v>
    <v>       0.24503510       0.91666675       0.25480810 </v>
    <v>       0.80398190       0.73358238       0.53462648 </v>
    <v>       0.41170177       0.58333343       0.08493605 </v>
    <v>       0.24503510       0.58333343       0.25480810 </v>
    <v>       0.07836838       0.58333343       0.42468023 </v>
    <v>       0.41170177       0.25000000       0.08493605 </v>
    <v>       0.24503510       0.25000000       0.25480810 </v>
    <v>       0.11167417       0.27204397       0.53462648 </v>
    <v>       0.74503517       0.91666675       0.08493605 </v>
    <v>       0.38090500       0.61819780       0.53462648 </v>
    <v>       0.41170180       0.91666675       0.42468023 </v>
    <v>       0.74503517       0.58333343       0.08493605 </v>
    <v>       0.57836855       0.58333343       0.25480810 </v>
    <v>       0.41170180       0.58333343       0.42468023 </v>
    <v>       0.74503517       0.25000000       0.08493605 </v>
    <v>       0.57836855       0.25000000       0.25480810 </v>
    <v>       0.68859726       0.15665934       0.53462648 </v>
    <v>       0.16170177       0.83333331       0.00000000 </v>
    <v>       0.20782793       0.25281307       0.89005387 </v>
    <v>       0.41936651       0.81050551       0.53462648 </v>
    <v>       0.16170177       0.50000000       0.00000000 </v>
    <v>       0.90013570       0.21435157       0.74788278 </v>
    <v>       0.82836843       0.50000000       0.33974418 </v>
    <v>       0.16170177       0.16666667       0.00000000 </v>
    <v>       0.99503505       0.16666667       0.16987211 </v>
    <v>       0.30398187       0.23358241       0.53462648 </v>
    <v>       0.16936636       0.06050539       0.89005387 </v>
    <v>       0.32836843       0.83333331       0.16987211 </v>
    <v>       0.16170175       0.83333331       0.33974418 </v>
    <v>       0.49503511       0.50000000       0.00000000 </v>
    <v>       0.78475100       0.13742843       0.89005387 </v>
    <v>       0.16170175       0.50000000       0.33974418 </v>
    <v>       0.49503511       0.16666667       0.00000000 </v>
    <v>       0.32836843       0.16666667       0.16987211 </v>
    <v>       0.16170175       0.16666667       0.33974418 </v>
    <v>       0.82836855       0.83333331       0.00000000 </v>
    <v>       0.01552022       0.29127461       0.89005387 </v>
    <v>       0.49503520       0.83333331       0.33974418 </v>
    <v>       0.47705874       0.59896690       0.89005387 </v>
    <v>       0.82321245       0.32973614       0.89005387 </v>
    <v>       0.49503520       0.50000000       0.33974418 </v>
    <v>       0.82836855       0.16666667       0.00000000 </v>
    <v>       0.66170186       0.16666667       0.16987211 </v>
    <v>       0.49503520       0.16666667       0.33974418 </v>
    <v>       0.24503510       0.75000006       0.08493605 </v>
    <v>       0.53475112       0.38742858       0.53462648 </v>
    <v>       0.91170174       0.75000006       0.42468023 </v>
    <v>       0.30398178       0.23358229       0.81896830 </v>
    <v>       0.07836843       0.41666672       0.25480810 </v>
    <v>       0.91170174       0.41666672       0.42468023 </v>
    <v>       0.24503510       0.08333334       0.08493605 </v>
    <v>       0.07836843       0.08333334       0.25480810 </v>
    <v>       0.91170174       0.08333334       0.42468023 </v>
    <v>       0.57836848       0.75000006       0.08493605 </v>
    <v>       0.57321268       0.57973623       0.53462648 </v>
    <v>       0.24503513       0.75000006       0.42468023 </v>
    <v>       0.57836848       0.41666672       0.08493605 </v>
    <v>       0.41170186       0.41666672       0.25480810 </v>
    <v>       0.24503513       0.41666672       0.42468023 </v>
    <v>       0.57836848       0.08333334       0.08493605 </v>
    <v>       0.76552028       0.54127473       0.53462648 </v>
    <v>       0.91936648       0.31050542       0.53462648 </v>
    <v>       0.28475100       0.63742852       0.89005387 </v>
    <v>       0.65013564       0.46435159       0.67679733 </v>
    <v>       0.22705880       0.84896707       0.53462648 </v>
    <v>       0.91170174       0.41666672       0.08493605 </v>
    <v>       0.74503505       0.41666672       0.25480810 </v>
    <v>       0.57836837       0.41666672       0.42468023 </v>
    <v>       0.91170174       0.08333334       0.08493605 </v>
    <v>       0.95782804       0.50281322       0.53462648 </v>
    <v>       0.57836837       0.08333334       0.42468023 </v>
    <v>       0.07321262       0.07973623       0.53462648 </v>
    <v>       0.95782793       0.00281310       0.67679733 </v>
    <v>       0.84244329       0.92588997       0.81896830 </v>
    <v>       0.15013571       0.46435168       0.53462648 </v>
    <v>       0.03475106       0.38742852       0.67679733 </v>
    <v>       0.91936636       0.31050539       0.81896830 </v>
    <v>       0.82836843       0.16666667       0.33974418 </v>
    <v>       0.18859720       0.15665928       0.67679733 </v>
    <v>       0.07321250       0.07973611       0.81896830 </v>
    <v>       0.57836837       0.75000006       0.42468023 </v>
    <v>       0.11167411       0.77204394       0.67679733 </v>
    <v>       0.99628943       0.69512081       0.81896830 </v>
    <v>       0.57836855       0.91666675       0.25480810 </v>
    <v>       0.26552030       0.54127467       0.67679733 </v>
    <v>       0.15013565       0.46435153       0.81896830 </v>
    <v>       0.07836843       0.75000006       0.25480810 </v>
    <v>       0.41936645       0.31050542       0.67679733 </v>
    <v>       0.24503510       0.41666672       0.08493605 </v>
    <v>       0.41170180       0.25000000       0.42468023 </v>
    <v>       0.57321256       0.07973611       0.67679733 </v>
    <v>       0.45782795       0.00281298       0.81896830 </v>
    <v>       0.45782810       0.00281322       0.53462648 </v>
    <v>       0.34244344       0.92589015       0.67679733 </v>
    <v>       0.22705877       0.84896696       0.81896830 </v>
    <v>       0.61167419       0.77204394       0.53462648 </v>
    <v>       0.49628952       0.69512081       0.67679733 </v>
    <v>       0.38090485       0.61819768       0.81896830 </v>
    <v>       0.41170186       0.08333334       0.25480810 </v>
    <v>       0.74503505       0.75000006       0.25480810 </v>
    <v>       0.53475094       0.38742846       0.81896830 </v>
    <v>       0.24503513       0.08333334       0.42468023 </v>
    <v>       0.80398184       0.23358226       0.67679733 </v>
    <v>       0.68859714       0.15665913       0.81896830 </v>
    <v>       0.84244347       0.92589009       0.53462648 </v>
    <v>       0.72705883       0.84896696       0.67679733 </v>
    <v>       0.61167413       0.77204382       0.81896830 </v>
    <v>       0.99628961       0.69512087       0.53462648 </v>
    <v>       0.88090497       0.61819774       0.67679733 </v>
    <v>       0.76552028       0.54127461       0.81896830 </v>
    <v>       0.09244342       0.67589009       0.60571194 </v>
    <v>       0.97705877       0.59896696       0.74788278 </v>
    <v>       0.86167407       0.52204382       0.89005387 </v>
    <v>       0.24628955       0.44512090       0.60571194 </v>
    <v>       0.13090488       0.36819777       0.74788278 </v>
    <v>       0.66170186       0.83333331       0.16987211 </v>
    <v>       0.40013573       0.21435162       0.60571194 </v>
    <v>       0.28475103       0.13742849       0.74788278 </v>
    <v>       0.49503511       0.83333331       0.00000000 </v>
    <v>       0.16936648       0.06050551       0.60571194 </v>
    <v>       0.05398178       0.98358238       0.74788278 </v>
    <v>       0.66170180       0.00000000       0.00000000 </v>
    <v>       0.32321265       0.82973629       0.60571194 </v>
    <v>       0.20782799       0.75281316       0.74788278 </v>
    <v>       0.09244330       0.67589003       0.89005387 </v>
    <v>       0.47705886       0.59896707       0.60571194 </v>
    <v>       0.36167419       0.52204388       0.74788278 </v>
    <v>       0.24628952       0.44512078       0.89005387 </v>
    <v>       0.63090497       0.36819777       0.60571194 </v>
    <v>       0.51552028       0.29127461       0.74788278 </v>
    <v>       0.40013564       0.21435148       0.89005387 </v>
    <v>       0.78475112       0.13742852       0.60571194 </v>
    <v>       0.66936642       0.06050539       0.74788278 </v>
    <v>       0.07836843       0.91666675       0.08493605 </v>
    <v>       0.55398196       0.98358244       0.60571194 </v>
    <v>       0.43859729       0.90665930       0.74788278 </v>
    <v>       0.32321259       0.82973617       0.89005387 </v>
    <v>       0.70782810       0.75281322       0.60571194 </v>
    <v>       0.59244341       0.67589003       0.74788278 </v>
    <v>       0.82836855       0.50000000       0.00000000 </v>
    <v>       0.86167425       0.52204394       0.60571194 </v>
    <v>       0.74628955       0.44512078       0.74788278 </v>
    <v>       0.82836843       0.66666669       0.16987211 </v>
    <v>       0.01552045       0.29127473       0.60571194 </v>
    <v>       0.99503505       0.50000000       0.16987211 </v>
    <v>       0.32836843       0.50000000       0.16987211 </v>
    <v>       0.93859744       0.90665937       0.60571194 </v>
    <v>       0.82321274       0.82973623       0.74788278 </v>
    <v>       0.70782799       0.75281304       0.89005387 </v>
    <v>       0.07836838       0.25000000       0.42468023 </v>
    <v>       0.99628949       0.19512083       0.67679733 </v>
    <v>       0.88090479       0.11819769       0.81896830 </v>
    <v>       0.18859725       0.65665930       0.53462648 </v>
    <v>       0.07321262       0.57973623       0.67679733 </v>
    <v>       0.95782787       0.50281304       0.81896830 </v>
    <v>       0.34244344       0.42589015       0.53462648 </v>
    <v>       0.22705877       0.34896702       0.67679733 </v>
    <v>       0.11167408       0.27204388       0.81896830 </v>
    <v>       0.74503505       0.58333343       0.42468023 </v>
    <v>       0.38090491       0.11819769       0.67679733 </v>
    <v>       0.26552022       0.04127455       0.81896830 </v>
    <v>       0.26552033       0.04127467       0.53462648 </v>
    <v>       0.15013564       0.96435153       0.67679733 </v>
    <v>       0.03475094       0.88742846       0.81896830 </v>
    <v>       0.82836843       0.83333331       0.33974418 </v>
    <v>       0.30398181       0.73358238       0.67679733 </v>
    <v>       0.18859716       0.65665925       0.81896830 </v>
    <v>       0.41170186       0.75000006       0.25480810 </v>
    <v>       0.45782801       0.50281310       0.67679733 </v>
    <v>       0.34244332       0.42588997       0.81896830 </v>
    <v>       0.74503505       0.91666675       0.42468023 </v>
    <v>       0.61167419       0.27204388       0.67679733 </v>
    <v>       0.49628952       0.19512075       0.81896830 </v>
    <v>       0.91170180       0.25000000       0.25480810 </v>
    <v>       0.76552028       0.04127467       0.67679733 </v>
    <v>       0.65013564       0.96435153       0.81896830 </v>
    <v>       0.91170180       0.58333343       0.25480810 </v>
    <v>       0.53475100       0.88742852       0.67679733 </v>
    <v>       0.41936639       0.81050533       0.81896830 </v>
    <v>       0.07836838       0.91666675       0.42468023 </v>
    <v>       0.68859720       0.65665925       0.67679733 </v>
    <v>       0.57321250       0.57973605       0.81896830 </v>
    <v>       0.74503505       0.08333334       0.25480810 </v>
    <v>       0.84244341       0.42589009       0.67679733 </v>
    <v>       0.72705871       0.34896696       0.81896830 </v>
    <v>       0.66170174       0.00000000       0.33974418 </v>
    <v>       0.91936648       0.81050539       0.67679733 </v>
    <v>       0.80398184       0.73358226       0.81896830 </v>
    <v>       0.20782801       0.25281319       0.60571194 </v>
    <v>       0.09244335       0.17589006       0.74788278 </v>
    <v>       0.99503511       0.66666669       0.00000000 </v>
    <v>       0.13090493       0.86819786       0.60571194 </v>
    <v>       0.01552033       0.79127467       0.74788278 </v>
    <v>       0.16170174       0.33333334       0.16987211 </v>
    <v>       0.28475112       0.63742864       0.60571194 </v>
    <v>       0.16936645       0.56050545       0.74788278 </v>
    <v>       0.32836846       0.66666669       0.00000000 </v>
    <v>       0.43859729       0.40665937       0.60571194 </v>
    <v>       0.32321262       0.32973623       0.74788278 </v>
    <v>       0.99503505       0.83333331       0.16987211 </v>
    <v>       0.59244341       0.17589007       0.60571194 </v>
    <v>       0.47705880       0.09896695       0.74788278 </v>
    <v>       0.32836846       0.00000000       0.00000000 </v>
    <v>       0.36167425       0.02204406       0.60571194 </v>
    <v>       0.24628958       0.94512087       0.74788278 </v>
    <v>       0.16170174       0.00000000       0.16987211 </v>
    <v>       0.51552033       0.79127485       0.60571194 </v>
    <v>       0.40013567       0.71435165       0.74788278 </v>
    <v>       0.91170174       0.75000006       0.08493605 </v>
    <v>       0.66936654       0.56050551       0.60571194 </v>
    <v>       0.55398184       0.48358238       0.74788278 </v>
    <v>       0.43859720       0.40665925       0.89005387 </v>
    <v>       0.82321268       0.32973623       0.60571194 </v>
    <v>       0.70782799       0.25281310       0.74788278 </v>
    <v>       0.59244335       0.17588994       0.89005387 </v>
    <v>       0.97705883       0.09896702       0.60571194 </v>
    <v>       0.86167413       0.02204382       0.74788278 </v>
    <v>       0.99503511       0.33333334       0.00000000 </v>
    <v>       0.74628967       0.94512099       0.60571194 </v>
    <v>       0.63090497       0.86819786       0.74788278 </v>
    <v>       0.51552028       0.79127473       0.89005387 </v>
    <v>       0.90013581       0.71435165       0.60571194 </v>
    <v>       0.78475112       0.63742852       0.74788278 </v>
    <v>       0.07836843       0.58333343       0.08493605 </v>
    <v>       0.99503511       0.66666669       0.33974418 </v>
    <v>       0.93859714       0.40665930       0.74788278 </v>
    <v>       0.66170186       0.50000000       0.16987211 </v>
   </varray>
  </structure>
  <varray name="primitive_index" >
   <v type="int" >        1 </v>
   <v type="int" >        2 </v>
   <v type="int" >        3 </v>
   <v type="int" >        4 </v>
   <v type="int" >        5 </v>
   <v type="int" >        6 </v>
   <v type="int" >        7 </v>
   <v type="int" >        8 </v>
   <v type="int" >        9 </v>
   <v type="int" >       10 </v>
   <v type="int" >       11 </v>
   <v type="int" >       12 </v>
   <v type="int" >       13 </v>
   <v type="int" >       14 </v>
   <v type="int" >       15 </v>
   <v type="int" >       16 </v>
   <v type="int" >       17 </v>
   <v type="int" >       18 </v>
   <v type="int" >       19 </v>
   <v type="int" >       20 </v>
   <v type="int" >       21 </v>
   <v type="int" >       22 </v>
   <v type="int" >       23 </v>
   <v type="int" >       24 </v>
   <v type="int" >       25 </v>
   <v type="int" >       26 </v>
   <v type="int" >       27 </v>
   <v type="int" >       28 </v>
   <v type="int" >       29 </v>
   <v type="int" >       30 </v>
   <v type="int" >       31 </v>
   <v type="int" >       32 </v>
   <v type="int" >       33 </v>
   <v type="int" >       34 </v>
   <v type="int" >       35 </v>
   <v type="int" >       36 </v>
   <v type="int" >       37 </v>
   <v type="int" >       38 </v>
   <v type="int" >       39 </v>
   <v type="int" >       40 </v>
   <v type="int" >       41 </v>
   <v type="int" >       42 </v>
   <v type="int" >       43 </v>
   <v type="int" >       44 </v>
   <v type="int" >       45 </v>
   <v type="int" >       46 </v>
   <v type="int" >       47 </v>
   <v type="int" >       48 </v>
   <v type="int" >       49 </v>
   <v type="int" >       50 </v>
   <v type="int" >       51 </v>
   <v type="int" >       52 </v>
   <v type="int" >       53 </v>
   <v type="int" >       54 </v>
   <v type="int" >       55 </v>
   <v type="int" >       56 </v>
   <v type="int" >       57 </v>
   <v type="int" >       58 </v>
   <v type="int" >       59 </v>
   <v type="int" >       60 </v>
   <v type="int" >       61 </v>
   <v type="int" >       62 </v>
   <v type="int" >       63 </v>
   <v type="int" >       64 </v>
   <v type="int" >       65 </v>
   <v type="int" >       66 </v>
   <v type="int" >       67 </v>
   <v type="int" >       68 </v>
   <v type="int" >       69 </v>
   <v type="int" >       70 </v>
   <v type="int" >       71 </v>
   <v type="int" >       72 </v>
   <v type="int" >       73 </v>
   <v type="int" >       74 </v>
   <v type="int" >       75 </v>
   <v type="int" >       76 </v>
   <v type="int" >       77 </v>
   <v type="int" >       78 </v>
   <v type="int" >       79 </v>
   <v type="int" >       80 </v>
   <v type="int" >       81 </v>
   <v type="int" >       82 </v>
   <v type="int" >       83 </v>
   <v type="int" >       84 </v>
   <v type="int" >       85 </v>
   <v type="int" >       86 </v>
   <v type="int" >       87 </v>
   <v type="int" >       88 </v>
   <v type="int" >       89 </v>
   <v type="int" >       90 </v>
   <v type="int" >       91 </v>
   <v type="int" >       92 </v>
   <v type="int" >       93 </v>
   <v type="int" >       94 </v>
   <v type="int" >       95 </v>
   <v type="int" >       96 </v>
   <v type="int" >       97 </v>
   <v type="int" >       98 </v>
   <v type="int" >       99 </v>
   <v type="int" >      100 </v>
   <v type="int" >      101 </v>
   <v type="int" >      102 </v>
   <v type="int" >      103 </v>
   <v type="int" >      104 </v>
   <v type="int" >      105 </v>
   <v type="int" >      106 </v>
   <v type="int" >      107 </v>
   <v type="int" >      108 </v>
   <v type="int" >      109 </v>
   <v type="int" >      110 </v>
   <v type="int" >      111 </v>
   <v type="int" >      112 </v>
   <v type="int" >      113 </v>
   <v type="int" >      114 </v>
   <v type="int" >      115 </v>
   <v type="int" >      116 </v>
   <v type="int" >      117 </v>
   <v type="int" >      118 </v>
   <v type="int" >      119 </v>
   <v type="int" >      120 </v>
   <v type="int" >      121 </v>
   <v type="int" >      122 </v>
   <v type="int" >      123 </v>
   <v type="int" >      124 </v>
   <v type="int" >      125 </v>
   <v type="int" >      126 </v>
   <v type="int" >      127 </v>
   <v type="int" >      128 </v>
   <v type="int" >      129 </v>
   <v type="int" >      130 </v>
   <v type="int" >      131 </v>
   <v type="int" >      132 </v>
   <v type="int" >      133 </v>
   <v type="int" >      134 </v>
   <v type="int" >      135 </v>
   <v type="int" >      136 </v>
   <v type="int" >      137 </v>
   <v type="int" >      138 </v>
   <v type="int" >      139 </v>
   <v type="int" >      140 </v>
   <v type="int" >      141 </v>
   <v type="int" >      142 </v>
   <v type="int" >      143 </v>
   <v type="int" >      144 </v>
   <v type="int" >      145 </v>
   <v type="int" >      146 </v>
   <v type="int" >      147 </v>
   <v type="int" >      148 </v>
   <v type="int" >      149 </v>
   <v type="int" >      150 </v>
   <v type="int" >      151 </v>
   <v type="int" >      152 </v>
   <v type="int" >      153 </v>
   <v type="int" >      154 </v>
   <v type="int" >      155 </v>
   <v type="int" >      156 </v>
   <v type="int" >      157 </v>
   <v type="int" >      158 </v>
   <v type="int" >      159 </v>
   <v type="int" >      160 </v>
   <v type="int" >      161 </v>
   <v type="int" >      162 </v>
   <v type="int" >      163 </v>
   <v type="int" >      164 </v>
   <v type="int" >      165 </v>
   <v type="int" >      166 </v>
   <v type="int" >      167 </v>
   <v type="int" >      168 </v>
   <v type="int" >      169 </v>
   <v type="int" >      170 </v>
   <v type="int" >      171 </v>
   <v type="int" >      172 </v>
   <v type="int" >      173 </v>
   <v type="int" >      174 </v>
   <v type="int" >      175 </v>
   <v type="int" >      176 </v>
   <v type="int" >      177 </v>
   <v type="int" >      178 </v>
   <v type="int" >      179 </v>
   <v type="int" >      180 </v>
   <v type="int" >      181 </v>
   <v type="int" >      182 </v>
   <v type="int" >      183 </v>
   <v type="int" >      184 </v>
   <v type="int" >      185 </v>
   <v type="int" >      186 </v>
   <v type="int" >      187 </v>
   <v type="int" >      188 </v>
   <v type="int" >      189 </v>
   <v type="int" >      190 </v>
   <v type="int" >      191 </v>
   <v type="int" >      192 </v>
   <v type="int" >      193 </v>
   <v type="int" >      194 </v>
   <v type="int" >      195 </v>
   <v type="int" >      196 </v>
   <v type="int" >      197 </v>
   <v type="int" >      198 </v>
   <v type="int" >      199 </v>
   <v type="int" >      200 </v>
   <v type="int" >      201 </v>
   <v type="int" >      202 </v>
   <v type="int" >      203 </v>
   <v type="int" >      204 </v>
   <v type="int" >      205 </v>
   <v type="int" >      206 </v>
   <v type="int" >      207 </v>
   <v type="int" >      208 </v>
   <v type="int" >      209 </v>
   <v type="int" >      210 </v>
   <v type="int" >      211 </v>
   <v type="int" >      212 </v>
   <v type="int" >      213 </v>
   <v type="int" >      214 </v>
   <v type="int" >      215 </v>
   <v type="int" >      216 </v>
   <v type="int" >      217 </v>
   <v type="int" >      218 </v>
   <v type="int" >      219 </v>
   <v type="int" >      220 </v>
   <v type="int" >      221 </v>
   <v type="int" >      222 </v>
   <v type="int" >      223 </v>
   <v type="int" >      224 </v>
   <v type="int" >      225 </v>
   <v type="int" >      226 </v>
   <v type="int" >      227 </v>
   <v type="int" >      228 </v>
   <v type="int" >      229 </v>
   <v type="int" >      230 </v>
   <v type="int" >      231 </v>
   <v type="int" >      232 </v>
   <v type="int" >      233 </v>
   <v type="int" >      234 </v>
   <v type="int" >      235 </v>
   <v type="int" >      236 </v>
   <v type="int" >      237 </v>
   <v type="int" >      238 </v>
   <v type="int" >      239 </v>
   <v type="int" >      240 </v>
   <v type="int" >      241 </v>
   <v type="int" >      242 </v>
   <v type="int" >      243 </v>
   <v type="int" >      244 </v>
   <v type="int" >      245 </v>
   <v type="int" >      246 </v>
   <v type="int" >      247 </v>
   <v type="int" >      248 </v>
   <v type="int" >      249 </v>
   <v type="int" >      250 </v>
   <v type="int" >      251 </v>
   <v type="int" >      252 </v>
   <v type="int" >      253 </v>
   <v type="int" >      254 </v>
   <v type="int" >      255 </v>
   <v type="int" >      256 </v>
   <v type="int" >      257 </v>
   <v type="int" >      258 </v>
   <v type="int" >      259 </v>
   <v type="int" >      260 </v>
   <v type="int" >      261 </v>
   <v type="int" >      262 </v>
   <v type="int" >      263 </v>
   <v type="int" >      264 </v>
  </varray>
 </primitive_cell>
 <kpoints>
  <generation param="Gamma">
   <v type="int" name="divisions">       2        2        2 </v>
   <v name="usershift">      0.00000000       0.00000000       0.00000000 </v>
   <v name="genvec1">      0.50000000       0.00000000       0.00000000 </v>
   <v name="genvec2">      0.00000000       0.50000000       0.00000000 </v>
   <v name="genvec3">      0.00000000       0.00000000       0.50000000 </v>
   <v name="shift">      0.00000000       0.00000000       0.00000000 </v>
  </generation>
  <varray name="kpointlist" >
   <v>       0.00000000       0.00000000       0.00000000 </v>
   <v>       0.50000000       0.00000000       0.00000000 </v>
   <v>       0.00000000       0.50000000       0.00000000 </v>
   <v>       0.50000000       0.50000000       0.00000000 </v>
   <v>       0.00000000       0.00000000       0.50000000 </v>
   <v>       0.50000000       0.00000000       0.50000000 </v>
   <v>       0.00000000       0.50000000       0.50000000 </v>
   <v>       0.50000000       0.50000000       0.50000000 </v>
  </varray>
  <varray name="weights" >
   <v>       0.12500000 </v>
   <v>       0.12500000 </v>
   <v>       0.12500000 </v>
   <v>       0.12500000 </v>
   <v>       0.12500000 </v>
   <v>       0.12500000 </v>
   <v>       0.12500000 </v>
   <v>       0.12500000 </v>
  </varray>
 </kpoints>
 <parameters>
  <separator name="general" >
   <i type="string" name="SYSTEM">Si and Ge interface calculation</i>
   <i type="logical" name="LCOMPAT"> F  </i>
  </separator>
  <separator name="electronic" >
   <i type="string" name="PREC">normal</i>
   <i name="ENMAX">    700.00000000</i>
   <i name="ENAUG">    900.00000000</i>
   <i name="EDIFF">      0.00000010</i>
   <i type="int" name="IALGO">    38</i>
   <i type="int" name="IWAVPR">    10</i>
   <i type="int" name="NBANDS">   636</i>
   <i type="int" name="NBANDSLOW">    -1</i>
   <i type="int" name="NBANDSHIGH">    -1</i>
   <i name="NELECT">   1056.00000000</i>
   <i type="int" name="TURBO">     0</i>
   <i type="int" name="IRESTART">     0</i>
   <i type="int" name="NREBOOT">     0</i>
   <i type="int" name="NMIN">     0</i>
   <i name="EREF">      0.00000000</i>
   <separator name="electronic smearing" >
    <i type="int" name="ISMEAR">     0</i>
    <i name="SIGMA">      0.01000000</i>
    <i name="KSPACING">      0.50000000</i>
    <i type="logical" name="KGAMMA"> T  </i>
    <i type="logical" name="KBLOWUP"> T  </i>
   </separator>
   <separator name="electronic projectors" >
    <i type="logical" name="LREAL"> T  </i>
    <v name="ROPT">     -0.00050000     -0.00050000</v>
    <i type="int" name="LMAXPAW">  -100</i>
    <i type="int" name="LMAXMIX">     6</i>
    <i type="logical" name="NLSPLINE"> F  </i>
   </separator>
   <separator name="electronic startup" >
    <i type="int" name="ISTART">     0</i>
    <i type="int" name="ICHARG">     2</i>
    <i type="int" name="INIWAV">     1</i>
   </separator>
   <separator name="electronic spin" >
    <i type="int" name="ISPIN">     2</i>
    <i type="logical" name="LNONCOLLINEAR"> F  </i>
    <v name="MAGMOM">      0.00378788      0.00378788      0.00378788      0.00378788      0.00378788      0.00378788      0.00378788      0.00378788      0.00378788      0.00378788      0.00378788      0.00378788      0.00378788      0.00378788      0.00378788      0.00378788      0.00378788      0.00378788      0.00378788      0.00378788
      0.00378788      0.00378788      0.00378788      0.00378788      0.00378788      0.00378788      0.00378788      0.00378788      0.00378788      0.00378788      0.00378788      0.00378788      0.00378788      0.00378788      0.00378788      0.00378788      0.00378788      0.00378788      0.00378788      0.00378788
      0.00378788      0.00378788      0.00378788      0.00378788      0.00378788      0.00378788      0.00378788      0.00378788      0.00378788      0.00378788      0.00378788      0.00378788      0.00378788      0.00378788      0.00378788      0.00378788      0.00378788      0.00378788      0.00378788      0.00378788
      0.00378788      0.00378788      0.00378788      0.00378788      0.00378788      0.00378788      0.00378788      0.00378788      0.00378788      0.00378788      0.00378788      0.00378788      0.00378788      0.00378788      0.00378788      0.00378788      0.00378788      0.00378788      0.00378788      0.00378788
      0.00378788      0.00378788      0.00378788      0.00378788      0.00378788      0.00378788      0.00378788      0.00378788      0.00378788      0.00378788      0.00378788      0.00378788      0.00378788      0.00378788      0.00378788      0.00378788      0.00378788      0.00378788      0.00378788      0.00378788
      0.00378788      0.00378788      0.00378788      0.00378788      0.00378788      0.00378788      0.00378788      0.00378788      0.00378788      0.00378788      0.00378788      0.00378788      0.00378788      0.00378788      0.00378788      0.00378788      0.00378788      0.00378788      0.00378788      0.00378788
      0.00378788      0.00378788      0.00378788      0.00378788      0.00378788      0.00378788      0.00378788      0.00378788      0.00378788      0.00378788      0.00378788      0.00378788      0.00378788      0.00378788      0.00378788      0.00378788      0.00378788      0.00378788      0.00378788      0.00378788
      0.00378788      0.00378788      0.00378788      0.00378788      0.00378788      0.00378788      0.00378788      0.00378788      0.00378788      0.00378788      0.00378788      0.00378788      0.00378788      0.00378788      0.00378788      0.00378788      0.00378788      0.00378788      0.00378788      0.00378788
      0.00378788      0.00378788      0.00378788      0.00378788      0.00378788      0.00378788      0.00378788      0.00378788      0.00378788      0.00378788      0.00378788      0.00378788      0.00378788      0.00378788      0.00378788      0.00378788      0.00378788      0.00378788      0.00378788      0.00378788
      0.00378788      0.00378788      0.00378788      0.00378788      0.00378788      0.00378788      0.00378788      0.00378788      0.00378788      0.00378788      0.00378788      0.00378788      0.00378788      0.00378788      0.00378788      0.00378788      0.00378788      0.00378788      0.00378788      0.00378788
      0.00378788      0.00378788      0.00378788      0.00378788      0.00378788      0.00378788      0.00378788      0.00378788      0.00378788      0.00378788      0.00378788      0.00378788      0.00378788      0.00378788      0.00378788      0.00378788      0.00378788      0.00378788      0.00378788      0.00378788
      0.00378788      0.00378788      0.00378788      0.00378788      0.00378788      0.00378788      0.00378788      0.00378788      0.00378788      0.00378788      0.00378788      0.00378788      0.00378788      0.00378788      0.00378788      0.00378788      0.00378788      0.00378788      0.00378788      0.00378788
      0.00378788      0.00378788      0.00378788      0.00378788      0.00378788      0.00378788      0.00378788      0.00378788      0.00378788      0.00378788      0.00378788      0.00378788      0.00378788      0.00378788      0.00378788      0.00378788      0.00378788      0.00378788      0.00378788      0.00378788
      0.00378788      0.00378788      0.00378788      0.00378788</v>
    <i name="NUPDOWN">      1.00000000</i>
    <i type="logical" name="LSORBIT"> F  </i>
    <v name="SAXIS">      0.00000000      0.00000000      1.00000000</v>
    <i type="logical" name="LSPIRAL"> F  </i>
    <v name="QSPIRAL">      0.00000000      0.00000000      0.00000000</v>
    <i type="logical" name="LZEROZ"> F  </i>
   </separator>
   <separator name="electronic exchange-correlation" >
    <i type="logical" name="LASPH"> T  </i>
   </separator>
   <separator name="electronic convergence" >
    <i type="int" name="NELM">   100</i>
    <i type="int" name="NELMDL">    -5</i>
    <i type="int" name="NELMIN">     2</i>
    <i name="ENINI">    700.00000000</i>
    <separator name="electronic convergence detail" >
     <i type="logical" name="LDIAG"> T  </i>
     <i type="logical" name="LSUBROT"> F  </i>
     <i name="WEIMIN">      0.00000000</i>
     <i name="EBREAK">      0.00000000</i>
     <i name="DEPER">      0.30000000</i>
     <i type="int" name="NRMM">     4</i>
     <i name="TIME">      0.40000000</i>
    </separator>
   </separator>
   <separator name="electronic mixer" >
    <i name="AMIX">      0.60000000</i>
    <i name="BMIX">      1.00000000</i>
    <i name="AMIN">      0.10000000</i>
    <i name="AMIX_MAG">      2.40000000</i>
    <i name="BMIX_MAG">      1.00000000</i>
    <separator name="electronic mixer details" >
     <i type="int" name="IMIX">     4</i>
     <i type="logical" name="MIXFIRST"> F  </i>
     <i type="int" name="MAXMIX">   -45</i>
     <i name="WC">    100.00000000</i>
     <i type="int" name="INIMIX">     1</i>
     <i type="int" name="MIXPRE">     1</i>
     <i type="int" name="MREMOVE">     5</i>
    </separator>
   </separator>
   <separator name="electronic dipolcorrection" >
    <i type="logical" name="LDIPOL"> F  </i>
    <i type="logical" name="LMONO"> F  </i>
    <i type="int" name="IDIPOL">     0</i>
    <i name="EPSILON">      1.00000000</i>
    <v name="DIPOL">   -100.00000000   -100.00000000   -100.00000000</v>
    <i name="EFIELD">      0.00000000</i>
    <i type="logical" name="LVACPOTAV"> F  </i>
   </separator>
  </separator>
  <separator name="grids" >
   <i type="int" name="NGX">   126</i>
   <i type="int" name="NGY">   126</i>
   <i type="int" name="NGZ">   126</i>
   <i type="int" name="NGXF">   252</i>
   <i type="int" name="NGYF">   252</i>
   <i type="int" name="NGZF">   252</i>
   <i type="logical" name="ADDGRID"> T  </i>
  </separator>
  <separator name="ionic" >
   <i type="int" name="NSW">     0</i>
   <i type="int" name="IBRION">    -1</i>
   <i type="int" name="MDALGO">     0</i>
   <i type="int" name="ISIF">     2</i>
   <i name="PSTRESS">      0.00000000</i>
   <i name="EDIFFG">      0.00000100</i>
   <i type="int" name="NFREE">     0</i>
   <i name="POTIM">      0.50000000</i>
   <i name="SMASS">     -3.00000000</i>
   <i name="SCALEE">      1.00000000</i>
  </separator>
  <separator name="ionic md" >
   <i name="TEBEG">      0.00010000</i>
   <i name="TEEND">      0.00010000</i>
   <i type="int" name="NBLOCK">     1</i>
   <i type="int" name="KBLOCK">     1</i>
   <i type="int" name="NPACO">   256</i>
   <i name="APACO">     10.00000000</i>
  </separator>
  <separator name="symmetry" >
   <i type="int" name="ISYM">     2</i>
   <i name="SYMPREC">      0.00001000</i>
  </separator>
  <separator name="dos" >
   <i type="int" name="LORBIT">     0</i>
   <v name="RWIGS">     -1.00000000     -1.00000000</v>
   <i type="int" name="NEDOS">   301</i>
   <i name="EMIN">     10.00000000</i>
   <i name="EMAX">    -10.00000000</i>
   <i name="EFERMI">      0.00000000</i>
  </separator>
  <separator name="writing" >
   <i type="int" name="NWRITE">     2</i>
   <i type="logical" name="LWAVE"> F  </i>
   <i type="logical" name="LDOWNSAMPLE"> F  </i>
   <i type="logical" name="LCHARG"> T  </i>
   <i type="logical" name="LPARD"> F  </i>
   <i type="logical" name="LVTOT"> F  </i>
   <i type="logical" name="LVHAR"> T  </i>
   <i type="logical" name="LELF"> F  </i>
   <i type="logical" name="LOPTICS"> F  </i>
   <v name="STM">      0.00000000      0.00000000      0.00000000      0.00000000      0.00000000      0.00000000      0.00000000</v>
  </separator>
  <separator name="performance" >
   <i type="int" name="NPAR">     4</i>
   <i type="int" name="NSIM">     4</i>
   <i type="int" name="NBLK">    -1</i>
   <i type="logical" name="LPLANE"> T  </i>
   <i type="logical" name="LSCALAPACK"> T  </i>
   <i type="logical" name="LSCAAWARE"> F  </i>
   <i type="logical" name="LSCALU"> F  </i>
   <i type="logical" name="LASYNC"> F  </i>
   <i type="logical" name="LORBITALREAL"> F  </i>
  </separator>
  <separator name="miscellaneous" >
   <i type="int" name="IDIOT">     3</i>
   <i type="int" name="PHON_NSTRUCT">    -1</i>
   <i type="logical" name="LMUSIC"> F  </i>
   <v name="POMASS">    118.71000000     28.08500000</v>
   <v name="DARWINR">      0.00000000      0.00000000</v>
   <v name="DARWINV">      1.00000000      1.00000000</v>
   <i type="logical" name="LCORR"> T  </i>
  </separator>
  <i type="logical" name="GGA_COMPAT"> T  </i>
  <i type="logical" name="LBERRY"> F  </i>
  <i type="int" name="ICORELEVEL">     0</i>
  <i type="logical" name="LDAU"> F  </i>
  <i type="int" name="I_CONSTRAINED_M">     0</i>
  <separator name="electronic exchange-correlation" >
   <i type="string" name="GGA    ">PE</i>
   <i type="string" name="XC_C">1</i>
   <i type="int" name="VOSKOWN">     0</i>
   <i type="logical" name="LHFCALC"> F  </i>
   <i type="string" name="PRECFOCK"></i>
   <i type="logical" name="LSYMGRAD"> F  </i>
   <i type="logical" name="LHFONE"> F  </i>
   <i type="logical" name="LRHFCALC"> F  </i>
   <i type="logical" name="LTHOMAS"> F  </i>
   <i type="logical" name="LMODELHF"> F  </i>
   <i type="logical" name="LFOCKACE"> F  </i>
   <i name="ENCUT4O">     -1.00000000</i>
   <i type="int" name="EXXOEP">     0</i>
   <i type="int" name="FOURORBIT">     0</i>
   <i name="AEXX">      0.00000000</i>
   <i name="HFALPHA">      0.00000000</i>
   <i name="MCALPHA">      0.00000000</i>
   <i name="ALDAX">      1.00000000</i>
   <i name="AGGAX">      1.00000000</i>
   <i name="AMGGAX">      1.00000000</i>
   <i name="ALDAC">      1.00000000</i>
   <i name="AGGAC">      1.00000000</i>
   <i name="AMGGAC">      1.00000000</i>
   <i type="int" name="NKREDX">     1</i>
   <i type="int" name="NKREDY">     1</i>
   <i type="int" name="NKREDZ">     1</i>
   <i type="logical" name="SHIFTRED"> F  </i>
   <i type="logical" name="ODDONLY"> F  </i>
   <i type="logical" name="EVENONLY"> F  </i>
   <i type="int" name="LMAXFOCK">     0</i>
   <i type="int" name="NMAXFOCKAE">     0</i>
   <i type="logical" name="LFOCKAEDFT"> F  </i>
   <i name="HFSCREEN">      0.00000000</i>
   <i name="HFSCREENC">      0.00000000</i>
   <i type="int" name="NBANDSGWLOW">     0</i>
  </separator>
  <separator name="vdW DFT" >
   <i type="logical" name="LUSE_VDW"> F  </i>
   <i type="int" name="IVDW_NL">    -1</i>
   <i type="logical" name="LSPIN_VDW"> F  </i>
   <i name="ZAB_VDW">     -0.84910000</i>
   <i name="GAMMA_VDW">      1.39626340</i>
   <i name="ALPHA_VDW">      0.00000000</i>
   <i name="PARAM1">      0.12340000</i>
   <i name="PARAM2">      1.00000000</i>
   <i name="BPARAM">      6.30000000</i>
   <i name="CPARAM">      0.00930000</i>
  </separator>
  <separator name="model GW" >
   <i type="int" name="MODEL_GW">     0</i>
   <i name="MODEL_EPS0">     16.45171763</i>
   <i name="MODEL_ALPHA">      1.00000000</i>
  </separator>
  <separator name="linear response parameters" >
   <i type="logical" name="LEPSILON"> F  </i>
   <i type="logical" name="LRPA"> F  </i>
   <i type="logical" name="LNABLA"> F  </i>
   <i type="logical" name="LVEL"> F  </i>
   <i name="CSHIFT">      0.10000000</i>
   <i name="OMEGAMAX">     -1.00000000</i>
   <i name="DEG_THRESHOLD">      0.00200000</i>
   <i name="RTIME">     -0.10000000</i>
   <i name="WPLASMAI">      0.00000000</i>
   <v name="DFIELD">      0.00000000      0.00000000      0.00000000</v>
   <v name="WPLASMA">      0.00000000      0.00000000      0.00000000      0.00000000      0.00000000      0.00000000      0.00000000      0.00000000      0.00000000</v>
  </separator>
  <separator name="orbital magnetization" >
   <i type="logical" name="NUCIND"> F  </i>
   <v name="MAGPOS">      0.00000000      0.00000000      0.00000000</v>
   <i type="logical" name="LNICSALL"> T  </i>
   <i type="logical" name="ORBITALMAG"> F  </i>
   <i type="logical" name="LMAGBLOCH"> F  </i>
   <i type="logical" name="LCHIMAG"> F  </i>
   <i type="logical" name="LGAUGE"> T  </i>
   <i type="int" name="MAGATOM">     0</i>
   <v name="MAGDIPOL">      0.00000000      0.00000000      0.00000000</v>
   <v name="AVECCONST">      0.00000000      0.00000000      0.00000000</v>
  </separator>
  <separator name="response functions" >
   <i type="logical" name="LALL_IN_ONE"> F  </i>
   <i type="int" name="IALL_IN_ONE">    -1</i>
   <i type="int" name="NBANDS_WAVE">    -1</i>
   <i type="logical" name="LFINITE_TEMPERATURE"> F  </i>
   <i type="logical" name="LADDER"> F  </i>
   <i type="logical" name="LRPAFORCE"> F  </i>
   <i type="logical" name="LFXC"> F  </i>
   <i type="logical" name="LHARTREE"> T  </i>
   <i type="int" name="IBSE">     0</i>
   <v type="int" name="KPOINT">    -1     0     0     0</v>
   <i type="logical" name="LTCTC"> F  </i>
   <i type="logical" name="LTCTE"> F  </i>
   <i type="logical" name="LTETE"> F  </i>
   <i type="logical" name="LTRIPLET"> F  </i>
   <i type="logical" name="LFXCEPS"> F  </i>
   <i type="logical" name="LFXHEG"> F  </i>
   <i type="int" name="NATURALO">     2</i>
   <i type="logical" name="LHOLEGF"> F  </i>
   <i type="logical" name="L2ORDER"> F  </i>
   <i type="logical" name="LDMP1"> F  </i>
   <i type="logical" name="LMP2LT"> F  </i>
   <i type="logical" name="LSMP2LT"> F  </i>
   <i type="logical" name="LGWLF"> F  </i>
   <i name="ENCUTGW">     -1.60000002</i>
   <i name="ENCUTGWSOFT">     -1.60000002</i>
   <i name="ENCUTLF">     -1.00000000</i>
   <i type="logical" name="ESF_SPLINES"> F  </i>
   <i name="ESF_CONV">      0.01000000</i>
   <i type="int" name="ESF_NINTER">    15</i>
   <i type="int" name="LMAXMP2">    -1</i>
   <i name="SCISSOR">      0.00000000</i>
   <i type="int" name="NOMEGA">     0</i>
   <i type="int" name="NOMEGAR">     0</i>
   <i type="int" name="NBANDSGW">    -1</i>
   <i type="int" name="NBANDSO">    -1</i>
   <i type="int" name="NBANDSV">    -1</i>
   <i type="int" name="NELMGW">     1</i>
   <i type="int" name="NELMHF">     1</i>
   <i type="int" name="DIM">     3</i>
   <i type="int" name="IESPILON">     4</i>
   <i type="int" name="ANTIRES">     0</i>
   <i name="OMEGAMAX">    -30.00000000</i>
   <i name="OMEGAMIN">    -30.00000000</i>
   <i name="OMEGATL">   -200.00000000</i>
   <i type="int" name="OMEGAGRID">     0</i>
   <i name="CSHIFT">     -0.10000000</i>
   <i type="logical" name="LSELFENERGY"> F  </i>
   <i type="logical" name="LSPECTRAL"> F  </i>
   <i type="logical" name="LSPECTRALGW"> F  </i>
   <i type="logical" name="LSINGLES"> F  </i>
   <i type="logical" name="LFERMIGW"> F  </i>
   <i type="logical" name="ODDONLYGW"> F  </i>
   <i type="logical" name="EVENONLYGW"> F  </i>
   <i type="int" name="NKREDLFX">     1</i>
   <i type="int" name="NKREDLFY">     1</i>
   <i type="int" name="NKREDLFZ">     1</i>
   <i type="int" name="MAXMEM">  2800</i>
   <i type="int" name="TELESCOPE">     0</i>
   <i type="int" name="NTAUPAR">    -1</i>
   <i type="int" name="NOMEGAPAR">    -1</i>
   <i name="DAMP_NEWTON">      0.80000001</i>
   <i name="LAMBDA">      1.00000000</i>
  </separator>
  <separator name="External order field" >
   <i name="OFIELD_KAPPA">      0.00000000</i>
   <v name="OFIELD_K">      0.00000000      0.00000000      0.00000000</v>
   <i name="OFIELD_Q6_NEAR">      0.00000000</i>
   <i name="OFIELD_Q6_FAR">      0.00000000</i>
   <i name="OFIELD_A">      0.00000000</i>
  </separator>
  <separator name="optional k-points parameters" >
   <i type="int" name="KPOINTS_OPT_MODE">     1</i>
   <i type="logical" name="LKPOINTS_OPT"> F  </i>
  </separator>
 </parameters>
 <atominfo>
  <atoms>     264 </atoms>
  <types>       2 </types>
  <array name="atoms" >
   <dimension dim="1">ion</dimension>
   <field type="string">element</field>
   <field type="int">atomtype</field>
   <set>
    <rc><c>Sn</c><c>   1</c></rc>
    <rc><c>Sn</c><c>   1</c></rc>
    <rc><c>Sn</c><c>   1</c></rc>
    <rc><c>Sn</c><c>   1</c></rc>
    <rc><c>Sn</c><c>   1</c></rc>
    <rc><c>Sn</c><c>   1</c></rc>
    <rc><c>Sn</c><c>   1</c></rc>
    <rc><c>Sn</c><c>   1</c></rc>
    <rc><c>Sn</c><c>   1</c></rc>
    <rc><c>Sn</c><c>   1</c></rc>
    <rc><c>Sn</c><c>   1</c></rc>
    <rc><c>Sn</c><c>   1</c></rc>
    <rc><c>Sn</c><c>   1</c></rc>
    <rc><c>Sn</c><c>   1</c></rc>
    <rc><c>Sn</c><c>   1</c></rc>
    <rc><c>Sn</c><c>   1</c></rc>
    <rc><c>Sn</c><c>   1</c></rc>
    <rc><c>Sn</c><c>   1</c></rc>
    <rc><c>Sn</c><c>   1</c></rc>
    <rc><c>Sn</c><c>   1</c></rc>
    <rc><c>Sn</c><c>   1</c></rc>
    <rc><c>Sn</c><c>   1</c></rc>
    <rc><c>Sn</c><c>   1</c></rc>
    <rc><c>Sn</c><c>   1</c></rc>
    <rc><c>Sn</c><c>   1</c></rc>
    <rc><c>Sn</c><c>   1</c></rc>
    <rc><c>Sn</c><c>   1</c></rc>
    <rc><c>Sn</c><c>   1</c></rc>
    <rc><c>Sn</c><c>   1</c></rc>
    <rc><c>Sn</c><c>   1</c></rc>
    <rc><c>Sn</c><c>   1</c></rc>
    <rc><c>Sn</c><c>   1</c></rc>
    <rc><c>Sn</c><c>   1</c></rc>
    <rc><c>Sn</c><c>   1</c></rc>
    <rc><c>Sn</c><c>   1</c></rc>
    <rc><c>Sn</c><c>   1</c></rc>
    <rc><c>Sn</c><c>   1</c></rc>
    <rc><c>Sn</c><c>   1</c></rc>
    <rc><c>Sn</c><c>   1</c></rc>
    <rc><c>Sn</c><c>   1</c></rc>
    <rc><c>Sn</c><c>   1</c></rc>
    <rc><c>Sn</c><c>   1</c></rc>
    <rc><c>Sn</c><c>   1</c></rc>
    <rc><c>Sn</c><c>   1</c></rc>
    <rc><c>Sn</c><c>   1</c></rc>
    <rc><c>Sn</c><c>   1</c></rc>
    <rc><c>Sn</c><c>   1</c></rc>
    <rc><c>Sn</c><c>   1</c></rc>
    <rc><c>Sn</c><c>   1</c></rc>
    <rc><c>Sn</c><c>   1</c></rc>
    <rc><c>Sn</c><c>   1</c></rc>
    <rc><c>Sn</c><c>   1</c></rc>
    <rc><c>Sn</c><c>   1</c></rc>
    <rc><c>Sn</c><c>   1</c></rc>
    <rc><c>Sn</c><c>   1</c></rc>
    <rc><c>Sn</c><c>   1</c></rc>
    <rc><c>Sn</c><c>   1</c></rc>
    <rc><c>Sn</c><c>   1</c></rc>
    <rc><c>Sn</c><c>   1</c></rc>
    <rc><c>Sn</c><c>   1</c></rc>
    <rc><c>Sn</c><c>   1</c></rc>
    <rc><c>Sn</c><c>   1</c></rc>
    <rc><c>Sn</c><c>   1</c></rc>
    <rc><c>Sn</c><c>   1</c></rc>
    <rc><c>Sn</c><c>   1</c></rc>
    <rc><c>Sn</c><c>   1</c></rc>
    <rc><c>Sn</c><c>   1</c></rc>
    <rc><c>Sn</c><c>   1</c></rc>
    <rc><c>Sn</c><c>   1</c></rc>
    <rc><c>Sn</c><c>   1</c></rc>
    <rc><c>Sn</c><c>   1</c></rc>
    <rc><c>Sn</c><c>   1</c></rc>
    <rc><c>Sn</c><c>   1</c></rc>
    <rc><c>Sn</c><c>   1</c></rc>
    <rc><c>Sn</c><c>   1</c></rc>
    <rc><c>Sn</c><c>   1</c></rc>
    <rc><c>Sn</c><c>   1</c></rc>
    <rc><c>Sn</c><c>   1</c></rc>
    <rc><c>Sn</c><c>   1</c></rc>
    <rc><c>Sn</c><c>   1</c></rc>
    <rc><c>Sn</c><c>   1</c></rc>
    <rc><c>Sn</c><c>   1</c></rc>
    <rc><c>Sn</c><c>   1</c></rc>
    <rc><c>Sn</c><c>   1</c></rc>
    <rc><c>Sn</c><c>   1</c></rc>
    <rc><c>Sn</c><c>   1</c></rc>
    <rc><c>Sn</c><c>   1</c></rc>
    <rc><c>Sn</c><c>   1</c></rc>
    <rc><c>Sn</c><c>   1</c></rc>
    <rc><c>Sn</c><c>   1</c></rc>
    <rc><c>Sn</c><c>   1</c></rc>
    <rc><c>Sn</c><c>   1</c></rc>
    <rc><c>Sn</c><c>   1</c></rc>
    <rc><c>Sn</c><c>   1</c></rc>
    <rc><c>Sn</c><c>   1</c></rc>
    <rc><c>Sn</c><c>   1</c></rc>
    <rc><c>Sn</c><c>   1</c></rc>
    <rc><c>Sn</c><c>   1</c></rc>
    <rc><c>Sn</c><c>   1</c></rc>
    <rc><c>Sn</c><c>   1</c></rc>
    <rc><c>Sn</c><c>   1</c></rc>
    <rc><c>Sn</c><c>   1</c></rc>
    <rc><c>Sn</c><c>   1</c></rc>
    <rc><c>Sn</c><c>   1</c></rc>
    <rc><c>Sn</c><c>   1</c></rc>
    <rc><c>Sn</c><c>   1</c></rc>
    <rc><c>Sn</c><c>   1</c></rc>
    <rc><c>Sn</c><c>   1</c></rc>
    <rc><c>Si</c><c>   2</c></rc>
    <rc><c>Si</c><c>   2</c></rc>
    <rc><c>Si</c><c>   2</c></rc>
    <rc><c>Si</c><c>   2</c></rc>
    <rc><c>Si</c><c>   2</c></rc>
    <rc><c>Si</c><c>   2</c></rc>
    <rc><c>Si</c><c>   2</c></rc>
    <rc><c>Si</c><c>   2</c></rc>
    <rc><c>Si</c><c>   2</c></rc>
    <rc><c>Si</c><c>   2</c></rc>
    <rc><c>Si</c><c>   2</c></rc>
    <rc><c>Si</c><c>   2</c></rc>
    <rc><c>Si</c><c>   2</c></rc>
    <rc><c>Si</c><c>   2</c></rc>
    <rc><c>Si</c><c>   2</c></rc>
    <rc><c>Si</c><c>   2</c></rc>
    <rc><c>Si</c><c>   2</c></rc>
    <rc><c>Si</c><c>   2</c></rc>
    <rc><c>Si</c><c>   2</c></rc>
    <rc><c>Si</c><c>   2</c></rc>
    <rc><c>Si</c><c>   2</c></rc>
    <rc><c>Si</c><c>   2</c></rc>
    <rc><c>Si</c><c>   2</c></rc>
    <rc><c>Si</c><c>   2</c></rc>
    <rc><c>Si</c><c>   2</c></rc>
    <rc><c>Si</c><c>   2</c></rc>
    <rc><c>Si</c><c>   2</c></rc>
    <rc><c>Si</c><c>   2</c></rc>
    <rc><c>Si</c><c>   2</c></rc>
    <rc><c>Si</c><c>   2</c></rc>
    <rc><c>Si</c><c>   2</c></rc>
    <rc><c>Si</c><c>   2</c></rc>
    <rc><c>Si</c><c>   2</c></rc>
    <rc><c>Si</c><c>   2</c></rc>
    <rc><c>Si</c><c>   2</c></rc>
    <rc><c>Si</c><c>   2</c></rc>
    <rc><c>Si</c><c>   2</c></rc>
    <rc><c>Si</c><c>   2</c></rc>
    <rc><c>Si</c><c>   2</c></rc>
    <rc><c>Si</c><c>   2</c></rc>
    <rc><c>Si</c><c>   2</c></rc>
    <rc><c>Si</c><c>   2</c></rc>
    <rc><c>Si</c><c>   2</c></rc>
    <rc><c>Si</c><c>   2</c></rc>
    <rc><c>Si</c><c>   2</c></rc>
    <rc><c>Si</c><c>   2</c></rc>
    <rc><c>Si</c><c>   2</c></rc>
    <rc><c>Si</c><c>   2</c></rc>
    <rc><c>Si</c><c>   2</c></rc>
    <rc><c>Si</c><c>   2</c></rc>
    <rc><c>Si</c><c>   2</c></rc>
    <rc><c>Si</c><c>   2</c></rc>
    <rc><c>Si</c><c>   2</c></rc>
    <rc><c>Si</c><c>   2</c></rc>
    <rc><c>Si</c><c>   2</c></rc>
    <rc><c>Si</c><c>   2</c></rc>
    <rc><c>Si</c><c>   2</c></rc>
    <rc><c>Si</c><c>   2</c></rc>
    <rc><c>Si</c><c>   2</c></rc>
    <rc><c>Si</c><c>   2</c></rc>
    <rc><c>Si</c><c>   2</c></rc>
    <rc><c>Si</c><c>   2</c></rc>
    <rc><c>Si</c><c>   2</c></rc>
    <rc><c>Si</c><c>   2</c></rc>
    <rc><c>Si</c><c>   2</c></rc>
    <rc><c>Si</c><c>   2</c></rc>
    <rc><c>Si</c><c>   2</c></rc>
    <rc><c>Si</c><c>   2</c></rc>
    <rc><c>Si</c><c>   2</c></rc>
    <rc><c>Si</c><c>   2</c></rc>
    <rc><c>Si</c><c>   2</c></rc>
    <rc><c>Si</c><c>   2</c></rc>
    <rc><c>Si</c><c>   2</c></rc>
    <rc><c>Si</c><c>   2</c></rc>
    <rc><c>Si</c><c>   2</c></rc>
    <rc><c>Si</c><c>   2</c></rc>
    <rc><c>Si</c><c>   2</c></rc>
    <rc><c>Si</c><c>   2</c></rc>
    <rc><c>Si</c><c>   2</c></rc>
    <rc><c>Si</c><c>   2</c></rc>
    <rc><c>Si</c><c>   2</c></rc>
    <rc><c>Si</c><c>   2</c></rc>
    <rc><c>Si</c><c>   2</c></rc>
    <rc><c>Si</c><c>   2</c></rc>
    <rc><c>Si</c><c>   2</c></rc>
    <rc><c>Si</c><c>   2</c></rc>
    <rc><c>Si</c><c>   2</c></rc>
    <rc><c>Si</c><c>   2</c></rc>
    <rc><c>Si</c><c>   2</c></rc>
    <rc><c>Si</c><c>   2</c></rc>
    <rc><c>Si</c><c>   2</c></rc>
    <rc><c>Si</c><c>   2</c></rc>
    <rc><c>Si</c><c>   2</c></rc>
    <rc><c>Si</c><c>   2</c></rc>
    <rc><c>Si</c><c>   2</c></rc>
    <rc><c>Si</c><c>   2</c></rc>
    <rc><c>Si</c><c>   2</c></rc>
    <rc><c>Si</c><c>   2</c></rc>
    <rc><c>Si</c><c>   2</c></rc>
    <rc><c>Si</c><c>   2</c></rc>
    <rc><c>Si</c><c>   2</c></rc>
    <rc><c>Si</c><c>   2</c></rc>
    <rc><c>Si</c><c>   2</c></rc>
    <rc><c>Si</c><c>   2</c></rc>
    <rc><c>Si</c><c>   2</c></rc>
    <rc><c>Si</c><c>   2</c></rc>
    <rc><c>Si</c><c>   2</c></rc>
    <rc><c>Si</c><c>   2</c></rc>
    <rc><c>Si</c><c>   2</c></rc>
    <rc><c>Si</c><c>   2</c></rc>
    <rc><c>Si</c><c>   2</c></rc>
    <rc><c>Si</c><c>   2</c></rc>
    <rc><c>Si</c><c>   2</c></rc>
    <rc><c>Si</c><c>   2</c></rc>
    <rc><c>Si</c><c>   2</c></rc>
    <rc><c>Si</c><c>   2</c></rc>
    <rc><c>Si</c><c>   2</c></rc>
    <rc><c>Si</c><c>   2</c></rc>
    <rc><c>Si</c><c>   2</c></rc>
    <rc><c>Si</c><c>   2</c></rc>
    <rc><c>Si</c><c>   2</c></rc>
    <rc><c>Si</c><c>   2</c></rc>
    <rc><c>Si</c><c>   2</c></rc>
    <rc><c>Si</c><c>   2</c></rc>
    <rc><c>Si</c><c>   2</c></rc>
    <rc><c>Si</c><c>   2</c></rc>
    <rc><c>Si</c><c>   2</c></rc>
    <rc><c>Si</c><c>   2</c></rc>
    <rc><c>Si</c><c>   2</c></rc>
    <rc><c>Si</c><c>   2</c></rc>
    <rc><c>Si</c><c>   2</c></rc>
    <rc><c>Si</c><c>   2</c></rc>
    <rc><c>Si</c><c>   2</c></rc>
    <rc><c>Si</c><c>   2</c></rc>
    <rc><c>Si</c><c>   2</c></rc>
    <rc><c>Si</c><c>   2</c></rc>
    <rc><c>Si</c><c>   2</c></rc>
    <rc><c>Si</c><c>   2</c></rc>
    <rc><c>Si</c><c>   2</c></rc>
    <rc><c>Si</c><c>   2</c></rc>
    <rc><c>Si</c><c>   2</c></rc>
    <rc><c>Si</c><c>   2</c></rc>
    <rc><c>Si</c><c>   2</c></rc>
    <rc><c>Si</c><c>   2</c></rc>
    <rc><c>Si</c><c>   2</c></rc>
    <rc><c>Si</c><c>   2</c></rc>
    <rc><c>Si</c><c>   2</c></rc>
    <rc><c>Si</c><c>   2</c></rc>
    <rc><c>Si</c><c>   2</c></rc>
    <rc><c>Si</c><c>   2</c></rc>
    <rc><c>Si</c><c>   2</c></rc>
    <rc><c>Si</c><c>   2</c></rc>
    <rc><c>Si</c><c>   2</c></rc>
    <rc><c>Si</c><c>   2</c></rc>
    <rc><c>Si</c><c>   2</c></rc>
    <rc><c>Si</c><c>   2</c></rc>
   </set>
  </array>
  <array name="atomtypes" >
   <dimension dim="1">type</dimension>
   <field type="int">atomspertype</field>
   <field type="string">element</field>
   <field>mass</field>
   <field>valence</field>
   <field type="string">pseudopotential</field>
   <set>
    <rc><c> 108</c><c>Sn</c><c>    118.71000000</c><c>      4.00000000</c><c>  PAW_PBE Sn 08Apr2002                  </c></rc>
    <rc><c> 156</c><c>Si</c><c>     28.08500000</c><c>      4.00000000</c><c>  PAW_PBE Si 05Jan2001                  </c></rc>
   </set>
  </array>
 </atominfo>
 <structure name="initialpos" >
  <crystal>
   <varray name="basis" >
    <v>      19.46759987       0.00000000       0.00000000 </v>
    <v>       0.00000000      19.46759987       0.00000000 </v>
    <v>       0.00000000       0.00000000      19.10025215 </v>
   </varray>
   <i name="volume">   7238.75575506 </i>
   <varray name="rec_basis" >
    <v>       0.05136740       0.00000000       0.00000000 </v>
    <v>       0.00000000       0.05136740       0.00000000 </v>
    <v>       0.00000000       0.00000000       0.05235533 </v>
   </varray>
  </crystal>
  <varray name="positions" >
   <v>       0.97705865       0.09896692       0.89005387 </v>
   <v>       0.63090485       0.36819765       0.89005387 </v>
   <v>       0.66170174       0.66666669       0.33974418 </v>
   <v>       0.74628949       0.94512075       0.89005387 </v>
   <v>       0.82836843       0.33333334       0.16987211 </v>
   <v>       0.66170174       0.33333334       0.33974418 </v>
   <v>       0.99503511       0.00000000       0.00000000 </v>
   <v>       0.82836843       0.00000000       0.16987211 </v>
   <v>       0.03475118       0.88742852       0.53462648 </v>
   <v>       0.05398178       0.48358232       0.89005387 </v>
   <v>       0.16170174       0.66666669       0.16987211 </v>
   <v>       0.05398190       0.48358247       0.60571194 </v>
   <v>       0.32836846       0.33333334       0.00000000 </v>
   <v>       0.90013558       0.71435153       0.89005387 </v>
   <v>       0.99503511       0.33333334       0.33974418 </v>
   <v>       0.36167410       0.02204371       0.89005387 </v>
   <v>       0.13090488       0.86819774       0.89005387 </v>
   <v>       0.99503511       0.00000000       0.33974418 </v>
   <v>       0.66170180       0.66666669       0.00000000 </v>
   <v>       0.49503511       0.66666669       0.16987211 </v>
   <v>       0.32836846       0.66666669       0.33974418 </v>
   <v>       0.66170180       0.33333334       0.00000000 </v>
   <v>       0.49503511       0.33333334       0.16987211 </v>
   <v>       0.32836846       0.33333334       0.33974418 </v>
   <v>       0.93859708       0.90665925       0.89005387 </v>
   <v>       0.49503511       0.00000000       0.16987211 </v>
   <v>       0.32836846       0.00000000       0.33974418 </v>
   <v>       0.55398178       0.98358226       0.89005387 </v>
   <v>       0.91170180       0.91666675       0.25480810 </v>
   <v>       0.72705883       0.34896702       0.53462648 </v>
   <v>       0.66936636       0.56050533       0.89005387 </v>
   <v>       0.65013570       0.96435159       0.53462648 </v>
   <v>       0.49628958       0.19512083       0.53462648 </v>
   <v>       0.07836843       0.25000000       0.08493605 </v>
   <v>       0.88090497       0.11819780       0.53462648 </v>
   <v>       0.74503505       0.25000000       0.42468023 </v>
   <v>       0.41170177       0.91666675       0.08493605 </v>
   <v>       0.24503510       0.91666675       0.25480810 </v>
   <v>       0.80398190       0.73358238       0.53462648 </v>
   <v>       0.41170177       0.58333343       0.08493605 </v>
   <v>       0.24503510       0.58333343       0.25480810 </v>
   <v>       0.07836838       0.58333343       0.42468023 </v>
   <v>       0.41170177       0.25000000       0.08493605 </v>
   <v>       0.24503510       0.25000000       0.25480810 </v>
   <v>       0.11167417       0.27204397       0.53462648 </v>
   <v>       0.74503517       0.91666675       0.08493605 </v>
   <v>       0.38090500       0.61819780       0.53462648 </v>
   <v>       0.41170180       0.91666675       0.42468023 </v>
   <v>       0.74503517       0.58333343       0.08493605 </v>
   <v>       0.57836855       0.58333343       0.25480810 </v>
   <v>       0.41170180       0.58333343       0.42468023 </v>
   <v>       0.74503517       0.25000000       0.08493605 </v>
   <v>       0.57836855       0.25000000       0.25480810 </v>
   <v>       0.68859726       0.15665934       0.53462648 </v>
   <v>       0.16170177       0.83333331       0.00000000 </v>
   <v>       0.20782793       0.25281307       0.89005387 </v>
   <v>       0.41936651       0.81050551       0.53462648 </v>
   <v>       0.16170177       0.50000000       0.00000000 </v>
   <v>       0.90013570       0.21435157       0.74788278 </v>
   <v>       0.82836843       0.50000000       0.33974418 </v>
   <v>       0.16170177       0.16666667       0.00000000 </v>
   <v>       0.99503505       0.16666667       0.16987211 </v>
   <v>       0.30398187       0.23358241       0.53462648 </v>
   <v>       0.16936636       0.06050539       0.89005387 </v>
   <v>       0.32836843       0.83333331       0.16987211 </v>
   <v>       0.16170175       0.83333331       0.33974418 </v>
   <v>       0.49503511       0.50000000       0.00000000 </v>
   <v>       0.78475100       0.13742843       0.89005387 </v>
   <v>       0.16170175       0.50000000       0.33974418 </v>
   <v>       0.49503511       0.16666667       0.00000000 </v>
   <v>       0.32836843       0.16666667       0.16987211 </v>
   <v>       0.16170175       0.16666667       0.33974418 </v>
   <v>       0.82836855       0.83333331       0.00000000 </v>
   <v>       0.01552022       0.29127461       0.89005387 </v>
   <v>       0.49503520       0.83333331       0.33974418 </v>
   <v>       0.47705874       0.59896690       0.89005387 </v>
   <v>       0.82321245       0.32973614       0.89005387 </v>
   <v>       0.49503520       0.50000000       0.33974418 </v>
   <v>       0.82836855       0.16666667       0.00000000 </v>
   <v>       0.66170186       0.16666667       0.16987211 </v>
   <v>       0.49503520       0.16666667       0.33974418 </v>
   <v>       0.24503510       0.75000006       0.08493605 </v>
   <v>       0.53475112       0.38742858       0.53462648 </v>
   <v>       0.91170174       0.75000006       0.42468023 </v>
   <v>       0.30398178       0.23358229       0.81896830 </v>
   <v>       0.07836843       0.41666672       0.25480810 </v>
   <v>       0.91170174       0.41666672       0.42468023 </v>
   <v>       0.24503510       0.08333334       0.08493605 </v>
   <v>       0.07836843       0.08333334       0.25480810 </v>
   <v>       0.91170174       0.08333334       0.42468023 </v>
   <v>       0.57836848       0.75000006       0.08493605 </v>
   <v>       0.57321268       0.57973623       0.53462648 </v>
   <v>       0.24503513       0.75000006       0.42468023 </v>
   <v>       0.57836848       0.41666672       0.08493605 </v>
   <v>       0.41170186       0.41666672       0.25480810 </v>
   <v>       0.24503513       0.41666672       0.42468023 </v>
   <v>       0.57836848       0.08333334       0.08493605 </v>
   <v>       0.76552028       0.54127473       0.53462648 </v>
   <v>       0.91936648       0.31050542       0.53462648 </v>
   <v>       0.28475100       0.63742852       0.89005387 </v>
   <v>       0.65013564       0.46435159       0.67679733 </v>
   <v>       0.22705880       0.84896707       0.53462648 </v>
   <v>       0.91170174       0.41666672       0.08493605 </v>
   <v>       0.74503505       0.41666672       0.25480810 </v>
   <v>       0.57836837       0.41666672       0.42468023 </v>
   <v>       0.91170174       0.08333334       0.08493605 </v>
   <v>       0.95782804       0.50281322       0.53462648 </v>
   <v>       0.57836837       0.08333334       0.42468023 </v>
   <v>       0.07321262       0.07973623       0.53462648 </v>
   <v>       0.95782793       0.00281310       0.67679733 </v>
   <v>       0.84244329       0.92588997       0.81896830 </v>
   <v>       0.15013571       0.46435168       0.53462648 </v>
   <v>       0.03475106       0.38742852       0.67679733 </v>
   <v>       0.91936636       0.31050539       0.81896830 </v>
   <v>       0.82836843       0.16666667       0.33974418 </v>
   <v>       0.18859720       0.15665928       0.67679733 </v>
   <v>       0.07321250       0.07973611       0.81896830 </v>
   <v>       0.57836837       0.75000006       0.42468023 </v>
   <v>       0.11167411       0.77204394       0.67679733 </v>
   <v>       0.99628943       0.69512081       0.81896830 </v>
   <v>       0.57836855       0.91666675       0.25480810 </v>
   <v>       0.26552030       0.54127467       0.67679733 </v>
   <v>       0.15013565       0.46435153       0.81896830 </v>
   <v>       0.07836843       0.75000006       0.25480810 </v>
   <v>       0.41936645       0.31050542       0.67679733 </v>
   <v>       0.24503510       0.41666672       0.08493605 </v>
   <v>       0.41170180       0.25000000       0.42468023 </v>
   <v>       0.57321256       0.07973611       0.67679733 </v>
   <v>       0.45782795       0.00281298       0.81896830 </v>
   <v>       0.45782810       0.00281322       0.53462648 </v>
   <v>       0.34244344       0.92589015       0.67679733 </v>
   <v>       0.22705877       0.84896696       0.81896830 </v>
   <v>       0.61167419       0.77204394       0.53462648 </v>
   <v>       0.49628952       0.69512081       0.67679733 </v>
   <v>       0.38090485       0.61819768       0.81896830 </v>
   <v>       0.41170186       0.08333334       0.25480810 </v>
   <v>       0.74503505       0.75000006       0.25480810 </v>
   <v>       0.53475094       0.38742846       0.81896830 </v>
   <v>       0.24503513       0.08333334       0.42468023 </v>
   <v>       0.80398184       0.23358226       0.67679733 </v>
   <v>       0.68859714       0.15665913       0.81896830 </v>
   <v>       0.84244347       0.92589009       0.53462648 </v>
   <v>       0.72705883       0.84896696       0.67679733 </v>
   <v>       0.61167413       0.77204382       0.81896830 </v>
   <v>       0.99628961       0.69512087       0.53462648 </v>
   <v>       0.88090497       0.61819774       0.67679733 </v>
   <v>       0.76552028       0.54127461       0.81896830 </v>
   <v>       0.09244342       0.67589009       0.60571194 </v>
   <v>       0.97705877       0.59896696       0.74788278 </v>
   <v>       0.86167407       0.52204382       0.89005387 </v>
   <v>       0.24628955       0.44512090       0.60571194 </v>
   <v>       0.13090488       0.36819777       0.74788278 </v>
   <v>       0.66170186       0.83333331       0.16987211 </v>
   <v>       0.40013573       0.21435162       0.60571194 </v>
   <v>       0.28475103       0.13742849       0.74788278 </v>
   <v>       0.49503511       0.83333331       0.00000000 </v>
   <v>       0.16936648       0.06050551       0.60571194 </v>
   <v>       0.05398178       0.98358238       0.74788278 </v>
   <v>       0.66170180       0.00000000       0.00000000 </v>
   <v>       0.32321265       0.82973629       0.60571194 </v>
   <v>       0.20782799       0.75281316       0.74788278 </v>
   <v>       0.09244330       0.67589003       0.89005387 </v>
   <v>       0.47705886       0.59896707       0.60571194 </v>
   <v>       0.36167419       0.52204388       0.74788278 </v>
   <v>       0.24628952       0.44512078       0.89005387 </v>
   <v>       0.63090497       0.36819777       0.60571194 </v>
   <v>       0.51552028       0.29127461       0.74788278 </v>
   <v>       0.40013564       0.21435148       0.89005387 </v>
   <v>       0.78475112       0.13742852       0.60571194 </v>
   <v>       0.66936642       0.06050539       0.74788278 </v>
   <v>       0.07836843       0.91666675       0.08493605 </v>
   <v>       0.55398196       0.98358244       0.60571194 </v>
   <v>       0.43859729       0.90665930       0.74788278 </v>
   <v>       0.32321259       0.82973617       0.89005387 </v>
   <v>       0.70782810       0.75281322       0.60571194 </v>
   <v>       0.59244341       0.67589003       0.74788278 </v>
   <v>       0.82836855       0.50000000       0.00000000 </v>
   <v>       0.86167425       0.52204394       0.60571194 </v>
   <v>       0.74628955       0.44512078       0.74788278 </v>
   <v>       0.82836843       0.66666669       0.16987211 </v>
   <v>       0.01552045       0.29127473       0.60571194 </v>
   <v>       0.99503505       0.50000000       0.16987211 </v>
   <v>       0.32836843       0.50000000       0.16987211 </v>
   <v>       0.93859744       0.90665937       0.60571194 </v>
   <v>       0.82321274       0.82973623       0.74788278 </v>
   <v>       0.70782799       0.75281304       0.89005387 </v>
   <v>       0.07836838       0.25000000       0.42468023 </v>
   <v>       0.99628949       0.19512083       0.67679733 </v>
   <v>       0.88090479       0.11819769       0.81896830 </v>
   <v>       0.18859725       0.65665930       0.53462648 </v>
   <v>       0.07321262       0.57973623       0.67679733 </v>
   <v>       0.95782787       0.50281304       0.81896830 </v>
   <v>       0.34244344       0.42589015       0.53462648 </v>
   <v>       0.22705877       0.34896702       0.67679733 </v>
   <v>       0.11167408       0.27204388       0.81896830 </v>
   <v>       0.74503505       0.58333343       0.42468023 </v>
   <v>       0.38090491       0.11819769       0.67679733 </v>
   <v>       0.26552022       0.04127455       0.81896830 </v>
   <v>       0.26552033       0.04127467       0.53462648 </v>
   <v>       0.15013564       0.96435153       0.67679733 </v>
   <v>       0.03475094       0.88742846       0.81896830 </v>
   <v>       0.82836843       0.83333331       0.33974418 </v>
   <v>       0.30398181       0.73358238       0.67679733 </v>
   <v>       0.18859716       0.65665925       0.81896830 </v>
   <v>       0.41170186       0.75000006       0.25480810 </v>
   <v>       0.45782801       0.50281310       0.67679733 </v>
   <v>       0.34244332       0.42588997       0.81896830 </v>
   <v>       0.74503505       0.91666675       0.42468023 </v>
   <v>       0.61167419       0.27204388       0.67679733 </v>
   <v>       0.49628952       0.19512075       0.81896830 </v>
   <v>       0.91170180       0.25000000       0.25480810 </v>
   <v>       0.76552028       0.04127467       0.67679733 </v>
   <v>       0.65013564       0.96435153       0.81896830 </v>
   <v>       0.91170180       0.58333343       0.25480810 </v>
   <v>       0.53475100       0.88742852       0.67679733 </v>
   <v>       0.41936639       0.81050533       0.81896830 </v>
   <v>       0.07836838       0.91666675       0.42468023 </v>
   <v>       0.68859720       0.65665925       0.67679733 </v>
   <v>       0.57321250       0.57973605       0.81896830 </v>
   <v>       0.74503505       0.08333334       0.25480810 </v>
   <v>       0.84244341       0.42589009       0.67679733 </v>
   <v>       0.72705871       0.34896696       0.81896830 </v>
   <v>       0.66170174       0.00000000       0.33974418 </v>
   <v>       0.91936648       0.81050539       0.67679733 </v>
   <v>       0.80398184       0.73358226       0.81896830 </v>
   <v>       0.20782801       0.25281319       0.60571194 </v>
   <v>       0.09244335       0.17589006       0.74788278 </v>
   <v>       0.99503511       0.66666669       0.00000000 </v>
   <v>       0.13090493       0.86819786       0.60571194 </v>
   <v>       0.01552033       0.79127467       0.74788278 </v>
   <v>       0.16170174       0.33333334       0.16987211 </v>
   <v>       0.28475112       0.63742864       0.60571194 </v>
   <v>       0.16936645       0.56050545       0.74788278 </v>
   <v>       0.32836846       0.66666669       0.00000000 </v>
   <v>       0.43859729       0.40665937       0.60571194 </v>
   <v>       0.32321262       0.32973623       0.74788278 </v>
   <v>       0.99503505       0.83333331       0.16987211 </v>
   <v>       0.59244341       0.17589007       0.60571194 </v>
   <v>       0.47705880       0.09896695       0.74788278 </v>
   <v>       0.32836846       0.00000000       0.00000000 </v>
   <v>       0.36167425       0.02204406       0.60571194 </v>
   <v>       0.24628958       0.94512087       0.74788278 </v>
   <v>       0.16170174       0.00000000       0.16987211 </v>
   <v>       0.51552033       0.79127485       0.60571194 </v>
   <v>       0.40013567       0.71435165       0.74788278 </v>
   <v>       0.91170174       0.75000006       0.08493605 </v>
   <v>       0.66936654       0.56050551       0.60571194 </v>
   <v>       0.55398184       0.48358238       0.74788278 </v>
   <v>       0.43859720       0.40665925       0.89005387 </v>
   <v>       0.82321268       0.32973623       0.60571194 </v>
   <v>       0.70782799       0.25281310       0.74788278 </v>
   <v>       0.59244335       0.17588994       0.89005387 </v>
   <v>       0.97705883       0.09896702       0.60571194 </v>
   <v>       0.86167413       0.02204382       0.74788278 </v>
   <v>       0.99503511       0.33333334       0.00000000 </v>
   <v>       0.74628967       0.94512099       0.60571194 </v>
   <v>       0.63090497       0.86819786       0.74788278 </v>
   <v>       0.51552028       0.79127473       0.89005387 </v>
   <v>       0.90013581       0.71435165       0.60571194 </v>
   <v>       0.78475112       0.63742852       0.74788278 </v>
   <v>       0.07836843       0.58333343       0.08493605 </v>
   <v>       0.99503511       0.66666669       0.33974418 </v>
   <v>       0.93859714       0.40665930       0.74788278 </v>
   <v>       0.66170186       0.50000000       0.16987211 </v>
  </varray>
 </structure>
 <calculation>
  <scstep>
   <time name="dav">  202.31  204.83</time>
   <time name="total">  205.33  207.89</time>
   <energy>
    <i name="alphaZ">    684.23465349 </i>
    <i name="ewald"> -19023.07465855 </i>
    <i name="hartreedc">  -9562.70773018 </i>
    <i name="XCdc"> -14256.40996318 </i>
    <i name="pawpsdc">  34204.16796134 </i>
    <i name="pawaedc"> -18083.40668920 </i>
    <i name="eentropy">     -0.00255975 </i>
    <i name="bandstr">   4443.45134048 </i>
    <i name="atom">  26239.67945397 </i>
    <i name="e_fr_energy">   4645.93180841 </i>
    <i name="e_wo_entrp">   4645.93436816 </i>
    <i name="e_0_energy">   4645.93308829 </i>
   </energy>
  </scstep>
  <scstep>
   <time name="dav">  231.42  233.58</time>
   <time name="total">  231.42  233.58</time>
   <energy>
    <i name="e_fr_energy">   -603.42248181 </i>
    <i name="e_wo_entrp">   -603.41912179 </i>
    <i name="e_0_energy">   -603.42080180 </i>
   </energy>
  </scstep>
  <scstep>
   <time name="dav">  247.43  249.82</time>
   <time name="total">  247.43  249.82</time>
   <energy>
    <i name="e_fr_energy">  -1134.05313919 </i>
    <i name="e_wo_entrp">  -1134.04901545 </i>
    <i name="e_0_energy">  -1134.05107732 </i>
   </energy>
  </scstep>
  <scstep>
   <time name="dav">  237.99  240.19</time>
   <time name="total">  237.99  240.19</time>
   <energy>
    <i name="e_fr_energy">  -1156.19366668 </i>
    <i name="e_wo_entrp">  -1156.18843026 </i>
    <i name="e_0_energy">  -1156.19104847 </i>
   </energy>
  </scstep>
  <scstep>
   <time name="dav">  268.70  271.33</time>
   <time name="total">  278.49  281.22</time>
   <energy>
    <i name="e_fr_energy">  -1157.22848514 </i>
    <i name="e_wo_entrp">  -1157.22299429 </i>
    <i name="e_0_energy">  -1157.22573971 </i>
   </energy>
  </scstep>
  <scstep>
   <time name="dav">  285.50  288.07</time>
   <time name="total">  297.92  300.89</time>
   <energy>
    <i name="e_fr_energy">  -1125.08552958 </i>
    <i name="e_wo_entrp">  -1125.08063054 </i>
    <i name="e_0_energy">  -1125.08308006 </i>
   </energy>
  </scstep>
  <scstep>
   <time name="dav">  244.88  247.09</time>
   <time name="total">  257.32  259.74</time>
   <energy>
    <i name="e_fr_energy">  -1124.50414892 </i>
    <i name="e_wo_entrp">  -1124.49998711 </i>
    <i name="e_0_energy">  -1124.50206802 </i>
   </energy>
  </scstep>
  <scstep>
   <time name="dav">  236.07  238.26</time>
   <time name="total">  248.50  250.80</time>
   <energy>
    <i name="e_fr_energy">  -1121.86436785 </i>
    <i name="e_wo_entrp">  -1121.86006187 </i>
    <i name="e_0_energy">  -1121.86221486 </i>
   </energy>
  </scstep>
  <scstep>
   <time name="dav">  242.39  244.67</time>
   <time name="total">  254.93  257.33</time>
   <energy>
    <i name="e_fr_energy">  -1121.82378058 </i>
    <i name="e_wo_entrp">  -1121.81914785 </i>
    <i name="e_0_energy">  -1121.82146422 </i>
   </energy>
  </scstep>
  <scstep>
   <time name="dav">  237.50  239.77</time>
   <time name="total">  250.03  252.42</time>
   <energy>
    <i name="e_fr_energy">  -1121.59530521 </i>
    <i name="e_wo_entrp">  -1121.59015736 </i>
    <i name="e_0_energy">  -1121.59273128 </i>
   </energy>
  </scstep>
  <scstep>
   <time name="dav">  227.68  229.84</time>
   <time name="total">  240.55  242.82</time>
   <energy>
    <i name="e_fr_energy">  -1121.59672571 </i>
    <i name="e_wo_entrp">  -1121.59175847 </i>
    <i name="e_0_energy">  -1121.59424209 </i>
   </energy>
  </scstep>
  <scstep>
   <time name="dav">  230.59  232.77</time>
   <time name="total">  243.49  245.78</time>
   <energy>
    <i name="e_fr_energy">  -1121.59618779 </i>
    <i name="e_wo_entrp">  -1121.59112700 </i>
    <i name="e_0_energy">  -1121.59365740 </i>
   </energy>
  </scstep>
  <scstep>
   <time name="dav">  238.45  240.67</time>
   <time name="total">  251.18  253.51</time>
   <energy>
    <i name="e_fr_energy">  -1121.59638194 </i>
    <i name="e_wo_entrp">  -1121.59135702 </i>
    <i name="e_0_energy">  -1121.59386948 </i>
   </energy>
  </scstep>
  <scstep>
   <time name="dav">  243.75  245.95</time>
   <time name="total">  256.47  258.78</time>
   <energy>
    <i name="e_fr_energy">  -1121.59546683 </i>
    <i name="e_wo_entrp">  -1121.59046954 </i>
    <i name="e_0_energy">  -1121.59296818 </i>
   </energy>
  </scstep>
  <scstep>
   <time name="dav">  237.33  239.71</time>
   <time name="total">  250.05  252.57</time>
   <energy>
    <i name="e_fr_energy">  -1121.59470014 </i>
    <i name="e_wo_entrp">  -1121.58972627 </i>
    <i name="e_0_energy">  -1121.59221321 </i>
   </energy>
  </scstep>
  <scstep>
   <time name="dav">  226.89  229.11</time>
   <time name="total">  239.70  242.04</time>
   <energy>
    <i name="e_fr_energy">  -1121.59461720 </i>
    <i name="e_wo_entrp">  -1121.58961807 </i>
    <i name="e_0_energy">  -1121.59211763 </i>
   </energy>
  </scstep>
  <scstep>
   <time name="dav">  224.48  226.60</time>
   <time name="total">  237.25  239.48</time>
   <energy>
    <i name="e_fr_energy">  -1121.59461560 </i>
    <i name="e_wo_entrp">  -1121.58962458 </i>
    <i name="e_0_energy">  -1121.59212009 </i>
   </energy>
  </scstep>
  <scstep>
   <time name="dav">  229.48  231.62</time>
   <time name="total">  242.16  244.41</time>
   <energy>
    <i name="e_fr_energy">  -1121.59462256 </i>
    <i name="e_wo_entrp">  -1121.58963936 </i>
    <i name="e_0_energy">  -1121.59213096 </i>
   </energy>
  </scstep>
  <scstep>
   <time name="dav">  228.99  231.04</time>
   <time name="total">  241.52  243.68</time>
   <energy>
    <i name="e_fr_energy">  -1121.59461653 </i>
    <i name="e_wo_entrp">  -1121.58963089 </i>
    <i name="e_0_energy">  -1121.59212371 </i>
   </energy>
  </scstep>
  <scstep>
   <time name="dav">  234.39  236.58</time>
   <time name="total">  246.92  249.22</time>
[...]
       <r>     3.9984    33.5170  1044.4997 </r>
       <r>     4.0504    50.7627  1047.1394 </r>
       <r>     4.1024    69.6316  1050.7604 </r>
       <r>     4.1544    83.3775  1055.0961 </r>
       <r>     4.2064   109.3188  1060.7809 </r>
       <r>     4.2584    86.2945  1065.2683 </r>
       <r>     4.3104    90.3346  1069.9658 </r>
       <r>     4.3624   104.0187  1075.3750 </r>
       <r>     4.4144    70.8810  1079.0609 </r>
       <r>     4.4664   132.0978  1085.9301 </r>
       <r>     4.5184    99.6150  1091.1103 </r>
       <r>     4.5704   116.8741  1097.1879 </r>
       <r>     4.6224   111.1913  1102.9700 </r>
       <r>     4.6744    85.8332  1107.4334 </r>
       <r>     4.7264    88.7335  1112.0477 </r>
       <r>     4.7784   114.9446  1118.0250 </r>
       <r>     4.8304   109.5050  1123.7194 </r>
       <r>     4.8824   127.6993  1130.3599 </r>
       <r>     4.9344   137.0126  1137.4848 </r>
       <r>     4.9864   113.7563  1143.4003 </r>
       <r>     5.0384   112.8927  1149.2709 </r>
       <r>     5.0904   125.9431  1155.8201 </r>
       <r>     5.1424    91.3438  1160.5701 </r>
       <r>     5.1944   146.1475  1168.1700 </r>
       <r>     5.2464   121.0083  1174.4626 </r>
       <r>     5.2984    91.9519  1179.2442 </r>
       <r>     5.3504   107.2143  1184.8195 </r>
       <r>     5.4024   121.8393  1191.1553 </r>
       <r>     5.4544   114.9025  1197.1304 </r>
       <r>     5.5064   145.0332  1204.6723 </r>
       <r>     5.5584   163.3564  1213.1671 </r>
       <r>     5.6104   135.2360  1220.1996 </r>
       <r>     5.6624   139.1430  1227.4352 </r>
       <r>     5.7144   133.2515  1234.3645 </r>
       <r>     5.7664   130.5372  1241.1526 </r>
       <r>     5.8184   127.9384  1247.8056 </r>
       <r>     5.8704   129.9171  1254.5614 </r>
       <r>     5.9224   129.3649  1261.2886 </r>
       <r>     5.9744   126.3217  1267.8575 </r>
       <r>     6.0264    71.2366  1271.5619 </r>
       <r>     6.0784     8.4250  1272.0000 </r>
       <r>     6.1304     0.0000  1272.0000 </r>
       <r>     6.1824     0.0000  1272.0000 </r>
       <r>     6.2344     0.0000  1272.0000 </r>
       <r>     6.2864     0.0000  1272.0000 </r>
       <r>     6.3384     0.0000  1272.0000 </r>
       <r>     6.3905     0.0000  1272.0000 </r>
       <r>     6.4425     0.0000  1272.0000 </r>
       <r>     6.4945     0.0000  1272.0000 </r>
       <r>     6.5465     0.0000  1272.0000 </r>
       <r>     6.5985     0.0000  1272.0000 </r>
       <r>     6.6505     0.0000  1272.0000 </r>
       <r>     6.7025     0.0000  1272.0000 </r>
       <r>     6.7545     0.0000  1272.0000 </r>
      </set>
     </set>
    </array>
   </total>
  </dos>
 </calculation>
 <structure name="finalpos" >
  <crystal>
   <varray name="basis" >
    <v>      19.46759987       0.00000000       0.00000000 </v>
    <v>       0.00000000      19.46759987       0.00000000 </v>
    <v>       0.00000000       0.00000000      19.10025215 </v>
   </varray>
   <i name="volume">   7238.75575506 </i>
   <varray name="rec_basis" >
    <v>       0.05136740       0.00000000       0.00000000 </v>
    <v>       0.00000000       0.05136740       0.00000000 </v>
    <v>       0.00000000       0.00000000       0.05235533 </v>
   </varray>
  </crystal>
  <varray name="positions" >
   <v>       0.97705865       0.09896692       0.89005387 </v>
   <v>       0.63090485       0.36819765       0.89005387 </v>
   <v>       0.66170174       0.66666669       0.33974418 </v>
   <v>       0.74628949       0.94512075       0.89005387 </v>
   <v>       0.82836843       0.33333334       0.16987211 </v>
   <v>       0.66170174       0.33333334       0.33974418 </v>
   <v>       0.99503511       0.00000000       0.00000000 </v>
   <v>       0.82836843       0.00000000       0.16987211 </v>
   <v>       0.03475118       0.88742852       0.53462648 </v>
   <v>       0.05398178       0.48358232       0.89005387 </v>
   <v>       0.16170174       0.66666669       0.16987211 </v>
   <v>       0.05398190       0.48358247       0.60571194 </v>
   <v>       0.32836846       0.33333334       0.00000000 </v>
   <v>       0.90013558       0.71435153       0.89005387 </v>
   <v>       0.99503511       0.33333334       0.33974418 </v>
   <v>       0.36167410       0.02204371       0.89005387 </v>
   <v>       0.13090488       0.86819774       0.89005387 </v>
   <v>       0.99503511       0.00000000       0.33974418 </v>
   <v>       0.66170180       0.66666669       0.00000000 </v>
   <v>       0.49503511       0.66666669       0.16987211 </v>
   <v>       0.32836846       0.66666669       0.33974418 </v>
   <v>       0.66170180       0.33333334       0.00000000 </v>
   <v>       0.49503511       0.33333334       0.16987211 </v>
   <v>       0.32836846       0.33333334       0.33974418 </v>
   <v>       0.93859708       0.90665925       0.89005387 </v>
   <v>       0.49503511       0.00000000       0.16987211 </v>
   <v>       0.32836846       0.00000000       0.33974418 </v>
   <v>       0.55398178       0.98358226       0.89005387 </v>
   <v>       0.91170180       0.91666675       0.25480810 </v>
   <v>       0.72705883       0.34896702       0.53462648 </v>
   <v>       0.66936636       0.56050533       0.89005387 </v>
   <v>       0.65013570       0.96435159       0.53462648 </v>
   <v>       0.49628958       0.19512083       0.53462648 </v>
   <v>       0.07836843       0.25000000       0.08493605 </v>
   <v>       0.88090497       0.11819780       0.53462648 </v>
   <v>       0.74503505       0.25000000       0.42468023 </v>
   <v>       0.41170177       0.91666675       0.08493605 </v>
   <v>       0.24503510       0.91666675       0.25480810 </v>
   <v>       0.80398190       0.73358238       0.53462648 </v>
   <v>       0.41170177       0.58333343       0.08493605 </v>
   <v>       0.24503510       0.58333343       0.25480810 </v>
   <v>       0.07836838       0.58333343       0.42468023 </v>
   <v>       0.41170177       0.25000000       0.08493605 </v>
   <v>       0.24503510       0.25000000       0.25480810 </v>
   <v>       0.11167417       0.27204397       0.53462648 </v>
   <v>       0.74503517       0.91666675       0.08493605 </v>
   <v>       0.38090500       0.61819780       0.53462648 </v>
   <v>       0.41170180       0.91666675       0.42468023 </v>
   <v>       0.74503517       0.58333343       0.08493605 </v>
   <v>       0.57836855       0.58333343       0.25480810 </v>
   <v>       0.41170180       0.58333343       0.42468023 </v>
   <v>       0.74503517       0.25000000       0.08493605 </v>
   <v>       0.57836855       0.25000000       0.25480810 </v>
   <v>       0.68859726       0.15665934       0.53462648 </v>
   <v>       0.16170177       0.83333331       0.00000000 </v>
   <v>       0.20782793       0.25281307       0.89005387 </v>
   <v>       0.41936651       0.81050551       0.53462648 </v>
   <v>       0.16170177       0.50000000       0.00000000 </v>
   <v>       0.90013570       0.21435157       0.74788278 </v>
   <v>       0.82836843       0.50000000       0.33974418 </v>
   <v>       0.16170177       0.16666667       0.00000000 </v>
   <v>       0.99503505       0.16666667       0.16987211 </v>
   <v>       0.30398187       0.23358241       0.53462648 </v>
   <v>       0.16936636       0.06050539       0.89005387 </v>
   <v>       0.32836843       0.83333331       0.16987211 </v>
   <v>       0.16170175       0.83333331       0.33974418 </v>
   <v>       0.49503511       0.50000000       0.00000000 </v>
   <v>       0.78475100       0.13742843       0.89005387 </v>
   <v>       0.16170175       0.50000000       0.33974418 </v>
   <v>       0.49503511       0.16666667       0.00000000 </v>
   <v>       0.32836843       0.16666667       0.16987211 </v>
   <v>       0.16170175       0.16666667       0.33974418 </v>
   <v>       0.82836855       0.83333331       0.00000000 </v>
   <v>       0.01552022       0.29127461       0.89005387 </v>
   <v>       0.49503520       0.83333331       0.33974418 </v>
   <v>       0.47705874       0.59896690       0.89005387 </v>
   <v>       0.82321245       0.32973614       0.89005387 </v>
   <v>       0.49503520       0.50000000       0.33974418 </v>
   <v>       0.82836855       0.16666667       0.00000000 </v>
   <v>       0.66170186       0.16666667       0.16987211 </v>
   <v>       0.49503520       0.16666667       0.33974418 </v>
   <v>       0.24503510       0.75000006       0.08493605 </v>
   <v>       0.53475112       0.38742858       0.53462648 </v>
   <v>       0.91170174       0.75000006       0.42468023 </v>
   <v>       0.30398178       0.23358229       0.81896830 </v>
   <v>       0.07836843       0.41666672       0.25480810 </v>
   <v>       0.91170174       0.41666672       0.42468023 </v>
   <v>       0.24503510       0.08333334       0.08493605 </v>
   <v>       0.07836843       0.08333334       0.25480810 </v>
   <v>       0.91170174       0.08333334       0.42468023 </v>
   <v>       0.57836848       0.75000006       0.08493605 </v>
   <v>       0.57321268       0.57973623       0.53462648 </v>
   <v>       0.24503513       0.75000006       0.42468023 </v>
   <v>       0.57836848       0.41666672       0.08493605 </v>
   <v>       0.41170186       0.41666672       0.25480810 </v>
   <v>       0.24503513       0.41666672       0.42468023 </v>
   <v>       0.57836848       0.08333334       0.08493605 </v>
   <v>       0.76552028       0.54127473       0.53462648 </v>
   <v>       0.91936648       0.31050542       0.53462648 </v>
   <v>       0.28475100       0.63742852       0.89005387 </v>
   <v>       0.65013564       0.46435159       0.67679733 </v>
   <v>       0.22705880       0.84896707       0.53462648 </v>
   <v>       0.91170174       0.41666672       0.08493605 </v>
   <v>       0.74503505       0.41666672       0.25480810 </v>
   <v>       0.57836837       0.41666672       0.42468023 </v>
   <v>       0.91170174       0.08333334       0.08493605 </v>
   <v>       0.95782804       0.50281322       0.53462648 </v>
   <v>       0.57836837       0.08333334       0.42468023 </v>
   <v>       0.07321262       0.07973623       0.53462648 </v>
   <v>       0.95782793       0.00281310       0.67679733 </v>
   <v>       0.84244329       0.92588997       0.81896830 </v>
   <v>       0.15013571       0.46435168       0.53462648 </v>
   <v>       0.03475106       0.38742852       0.67679733 </v>
   <v>       0.91936636       0.31050539       0.81896830 </v>
   <v>       0.82836843       0.16666667       0.33974418 </v>
   <v>       0.18859720       0.15665928       0.67679733 </v>
   <v>       0.07321250       0.07973611       0.81896830 </v>
   <v>       0.57836837       0.75000006       0.42468023 </v>
   <v>       0.11167411       0.77204394       0.67679733 </v>
   <v>       0.99628943       0.69512081       0.81896830 </v>
   <v>       0.57836855       0.91666675       0.25480810 </v>
   <v>       0.26552030       0.54127467       0.67679733 </v>
   <v>       0.15013565       0.46435153       0.81896830 </v>
   <v>       0.07836843       0.75000006       0.25480810 </v>
   <v>       0.41936645       0.31050542       0.67679733 </v>
   <v>       0.24503510       0.41666672       0.08493605 </v>
   <v>       0.41170180       0.25000000       0.42468023 </v>
   <v>       0.57321256       0.07973611       0.67679733 </v>
   <v>       0.45782795       0.00281298       0.81896830 </v>
   <v>       0.45782810       0.00281322       0.53462648 </v>
   <v>       0.34244344       0.92589015       0.67679733 </v>
   <v>       0.22705877       0.84896696       0.81896830 </v>
   <v>       0.61167419       0.77204394       0.53462648 </v>
   <v>       0.49628952       0.69512081       0.67679733 </v>
   <v>       0.38090485       0.61819768       0.81896830 </v>
   <v>       0.41170186       0.08333334       0.25480810 </v>
   <v>       0.74503505       0.75000006       0.25480810 </v>
   <v>       0.53475094       0.38742846       0.81896830 </v>
   <v>       0.24503513       0.08333334       0.42468023 </v>
   <v>       0.80398184       0.23358226       0.67679733 </v>
   <v>       0.68859714       0.15665913       0.81896830 </v>
   <v>       0.84244347       0.92589009       0.53462648 </v>
   <v>       0.72705883       0.84896696       0.67679733 </v>
   <v>       0.61167413       0.77204382       0.81896830 </v>
   <v>       0.99628961       0.69512087       0.53462648 </v>
   <v>       0.88090497       0.61819774       0.67679733 </v>
   <v>       0.76552028       0.54127461       0.81896830 </v>
   <v>       0.09244342       0.67589009       0.60571194 </v>
   <v>       0.97705877       0.59896696       0.74788278 </v>
   <v>       0.86167407       0.52204382       0.89005387 </v>
   <v>       0.24628955       0.44512090       0.60571194 </v>
   <v>       0.13090488       0.36819777       0.74788278 </v>
   <v>       0.66170186       0.83333331       0.16987211 </v>
   <v>       0.40013573       0.21435162       0.60571194 </v>
   <v>       0.28475103       0.13742849       0.74788278 </v>
   <v>       0.49503511       0.83333331       0.00000000 </v>
   <v>       0.16936648       0.06050551       0.60571194 </v>
   <v>       0.05398178       0.98358238       0.74788278 </v>
   <v>       0.66170180       0.00000000       0.00000000 </v>
   <v>       0.32321265       0.82973629       0.60571194 </v>
   <v>       0.20782799       0.75281316       0.74788278 </v>
   <v>       0.09244330       0.67589003       0.89005387 </v>
   <v>       0.47705886       0.59896707       0.60571194 </v>
   <v>       0.36167419       0.52204388       0.74788278 </v>
   <v>       0.24628952       0.44512078       0.89005387 </v>
   <v>       0.63090497       0.36819777       0.60571194 </v>
   <v>       0.51552028       0.29127461       0.74788278 </v>
   <v>       0.40013564       0.21435148       0.89005387 </v>
   <v>       0.78475112       0.13742852       0.60571194 </v>
   <v>       0.66936642       0.06050539       0.74788278 </v>
   <v>       0.07836843       0.91666675       0.08493605 </v>
   <v>       0.55398196       0.98358244       0.60571194 </v>
   <v>       0.43859729       0.90665930       0.74788278 </v>
   <v>       0.32321259       0.82973617       0.89005387 </v>
   <v>       0.70782810       0.75281322       0.60571194 </v>
   <v>       0.59244341       0.67589003       0.74788278 </v>
   <v>       0.82836855       0.50000000       0.00000000 </v>
   <v>       0.86167425       0.52204394       0.60571194 </v>
   <v>       0.74628955       0.44512078       0.74788278 </v>
   <v>       0.82836843       0.66666669       0.16987211 </v>
   <v>       0.01552045       0.29127473       0.60571194 </v>
   <v>       0.99503505       0.50000000       0.16987211 </v>
   <v>       0.32836843       0.50000000       0.16987211 </v>
   <v>       0.93859744       0.90665937       0.60571194 </v>
   <v>       0.82321274       0.82973623       0.74788278 </v>
   <v>       0.70782799       0.75281304       0.89005387 </v>
   <v>       0.07836838       0.25000000       0.42468023 </v>
   <v>       0.99628949       0.19512083       0.67679733 </v>
   <v>       0.88090479       0.11819769       0.81896830 </v>
   <v>       0.18859725       0.65665930       0.53462648 </v>
   <v>       0.07321262       0.57973623       0.67679733 </v>
   <v>       0.95782787       0.50281304       0.81896830 </v>
   <v>       0.34244344       0.42589015       0.53462648 </v>
   <v>       0.22705877       0.34896702       0.67679733 </v>
   <v>       0.11167408       0.27204388       0.81896830 </v>
   <v>       0.74503505       0.58333343       0.42468023 </v>
   <v>       0.38090491       0.11819769       0.67679733 </v>
   <v>       0.26552022       0.04127455       0.81896830 </v>
   <v>       0.26552033       0.04127467       0.53462648 </v>
   <v>       0.15013564       0.96435153       0.67679733 </v>
   <v>       0.03475094       0.88742846       0.81896830 </v>
   <v>       0.82836843       0.83333331       0.33974418 </v>
   <v>       0.30398181       0.73358238       0.67679733 </v>
   <v>       0.18859716       0.65665925       0.81896830 </v>
   <v>       0.41170186       0.75000006       0.25480810 </v>
   <v>       0.45782801       0.50281310       0.67679733 </v>
   <v>       0.34244332       0.42588997       0.81896830 </v>
   <v>       0.74503505       0.91666675       0.42468023 </v>
   <v>       0.61167419       0.27204388       0.67679733 </v>
   <v>       0.49628952       0.19512075       0.81896830 </v>
   <v>       0.91170180       0.25000000       0.25480810 </v>
   <v>       0.76552028       0.04127467       0.67679733 </v>
   <v>       0.65013564       0.96435153       0.81896830 </v>
   <v>       0.91170180       0.58333343       0.25480810 </v>
   <v>       0.53475100       0.88742852       0.67679733 </v>
   <v>       0.41936639       0.81050533       0.81896830 </v>
   <v>       0.07836838       0.91666675       0.42468023 </v>
   <v>       0.68859720       0.65665925       0.67679733 </v>
   <v>       0.57321250       0.57973605       0.81896830 </v>
   <v>       0.74503505       0.08333334       0.25480810 </v>
   <v>       0.84244341       0.42589009       0.67679733 </v>
   <v>       0.72705871       0.34896696       0.81896830 </v>
   <v>       0.66170174       0.00000000       0.33974418 </v>
   <v>       0.91936648       0.81050539       0.67679733 </v>
   <v>       0.80398184       0.73358226       0.81896830 </v>
   <v>       0.20782801       0.25281319       0.60571194 </v>
   <v>       0.09244335       0.17589006       0.74788278 </v>
   <v>       0.99503511       0.66666669       0.00000000 </v>
   <v>       0.13090493       0.86819786       0.60571194 </v>
   <v>       0.01552033       0.79127467       0.74788278 </v>
   <v>       0.16170174       0.33333334       0.16987211 </v>
   <v>       0.28475112       0.63742864       0.60571194 </v>
   <v>       0.16936645       0.56050545       0.74788278 </v>
   <v>       0.32836846       0.66666669       0.00000000 </v>
   <v>       0.43859729       0.40665937       0.60571194 </v>
   <v>       0.32321262       0.32973623       0.74788278 </v>
   <v>       0.99503505       0.83333331       0.16987211 </v>
   <v>       0.59244341       0.17589007       0.60571194 </v>
   <v>       0.47705880       0.09896695       0.74788278 </v>
   <v>       0.32836846       0.00000000       0.00000000 </v>
   <v>       0.36167425       0.02204406       0.60571194 </v>
   <v>       0.24628958       0.94512087       0.74788278 </v>
   <v>       0.16170174       0.00000000       0.16987211 </v>
   <v>       0.51552033       0.79127485       0.60571194 </v>
   <v>       0.40013567       0.71435165       0.74788278 </v>
   <v>       0.91170174       0.75000006       0.08493605 </v>
   <v>       0.66936654       0.56050551       0.60571194 </v>
   <v>       0.55398184       0.48358238       0.74788278 </v>
   <v>       0.43859720       0.40665925       0.89005387 </v>
   <v>       0.82321268       0.32973623       0.60571194 </v>
   <v>       0.70782799       0.25281310       0.74788278 </v>
   <v>       0.59244335       0.17588994       0.89005387 </v>
   <v>       0.97705883       0.09896702       0.60571194 </v>
   <v>       0.86167413       0.02204382       0.74788278 </v>
   <v>       0.99503511       0.33333334       0.00000000 </v>
   <v>       0.74628967       0.94512099       0.60571194 </v>
   <v>       0.63090497       0.86819786       0.74788278 </v>
   <v>       0.51552028       0.79127473       0.89005387 </v>
   <v>       0.90013581       0.71435165       0.60571194 </v>
   <v>       0.78475112       0.63742852       0.74788278 </v>
   <v>       0.07836843       0.58333343       0.08493605 </v>
   <v>       0.99503511       0.66666669       0.33974418 </v>
   <v>       0.93859714       0.40665930       0.74788278 </v>
   <v>       0.66170186       0.50000000       0.16987211 </v>
  </varray>
 </structure>
</modeling>
