 vasp.6.4.3 19Mar24 (build Oct 22 2024 11:23:12) complex                        
  
 executed on             LinuxIFC date 2025.04.30  03:08:14
 running   16 mpi-ranks, on    1 nodes
 distrk:  each k-point on   16 cores,    1 groups
 distr:  one band on NCORE=  16 cores,    1 groups


--------------------------------------------------------------------------------------------------------


 INCAR:
   SYSTEM = Si012 and Ge012 interface calculation
   ISTART = 0
   ICHARG = 2
   LWAVE = .FALSE.
   LREAL = AUTO
   ENCUT = 700
   ENAUG = 900
   ADDGRID = .TRUE.
   LMAXMIX = 6
   LASPH = .TRUE.
   LMIXTAU = .TRUE.
   NCORE = 16
   NELM = 100
   NBANDS = 245
   EDIFF = 1d-7
   AMIX = 0.6
   ISMEAR = 0
   SIGMA = 0.01
   NELECT = 408
   ISPIN = 2
   NUPDOWN = 1
   LVTOT = .FALSE.
   LVHAR = .TRUE.

 POTCAR:    PAW_PBE Si 05Jan2001                  
 POTCAR:    PAW_PBE Ge 05Jan2001                  
 -----------------------------------------------------------------------------
|                                                                             |
|           W    W    AA    RRRRR   N    N  II  N    N   GGGG   !!!           |
|           W    W   A  A   R    R  NN   N  II  NN   N  G    G  !!!           |
|           W    W  A    A  R    R  N N  N  II  N N  N  G       !!!           |
|           W WW W  AAAAAA  RRRRR   N  N N  II  N  N N  G  GGG   !            |
|           WW  WW  A    A  R   R   N   NN  II  N   NN  G    G                |
|           W    W  A    A  R    R  N    N  II  N    N   GGGG   !!!           |
|                                                                             |
|     You use a magnetic or noncollinear calculation, but did not specify     |
|     the initial magnetic moment with the MAGMOM tag. Note that a            |
|     default of 9.804e-3 will be used for all atoms. This ferromagnetic      |
|     setup may break the symmetry of the crystal, in particular it may       |
|     rule out finding an antiferromagnetic solution. Thence, we              |
|     recommend setting the initial magnetic moment manually or verifying     |
|     carefully that this magnetic setup is desired.                          |
|                                                                             |
 -----------------------------------------------------------------------------

 -----------------------------------------------------------------------------
|                                                                             |
|           W    W    AA    RRRRR   N    N  II  N    N   GGGG   !!!           |
|           W    W   A  A   R    R  NN   N  II  NN   N  G    G  !!!           |
|           W    W  A    A  R    R  N N  N  II  N N  N  G       !!!           |
|           W WW W  AAAAAA  RRRRR   N  N N  II  N  N N  G  GGG   !            |
|           WW  WW  A    A  R   R   N   NN  II  N   NN  G    G                |
|           W    W  A    A  R    R  N    N  II  N    N   GGGG   !!!           |
|                                                                             |
|     For optimal performance we recommend to set                             |
|       NCORE = 2 up to number-of-cores-per-socket                            |
|     NCORE specifies how many cores store one orbital (NPAR=cpu/NCORE).      |
|     This setting can greatly improve the performance of VASP for DFT.       |
|     The default, NCORE=1 might be grossly inefficient on modern             |
|     multi-core architectures or massively parallel machines. Do your        |
|     own testing! More info at https://www.vasp.at/wiki/index.php/NCORE      |
|     Unfortunately you need to use the default for GW and RPA                |
|     calculations (for HF NCORE is supported but not extensively tested      |
|     yet).                                                                   |
|                                                                             |
 -----------------------------------------------------------------------------

 POTCAR:    PAW_PBE Si 05Jan2001                  
   VRHFIN =Si: s2p2                                                                                 
   LEXCH  = PE                                                                                      
   EATOM  =   103.0669 eV,    7.5752 Ry                                                             
                                                                                                    
   TITEL  = PAW_PBE Si 05Jan2001                                                                    
   LULTRA =        F    use ultrasoft PP ?                                                          
   IUNSCR =        1    unscreen: 0-lin 1-nonlin 2-no                                               
   RPACOR =    1.500    partial core radius                                                         
   POMASS =   28.085; ZVAL   =    4.000    mass and valenz                                          
   RCORE  =    1.900    outmost cutoff radius                                                       
   RWIGS  =    2.480; RWIGS  =    1.312    wigner-seitz radius (au A)                               
   ENMAX  =  245.345; ENMIN  =  184.009 eV                                                          
   ICORE  =        2    local potential                                                             
   LCOR   =        T    correct aug charges                                                         
   LPAW   =        T    paw PP                                                                      
   EAUG   =  322.069                                                                                
   DEXC   =    0.000                                                                                
   RMAX   =    1.950    core radius for proj-oper                                                   
   RAUG   =    1.300    factor for augmentation sphere                                              
   RDEP   =    1.993    radius for radial grids                                                     
   RDEPT  =    1.837    core radius for aug-charge                                                  
                                                                                                    
   Atomic configuration                                                                             
    6 entries                                                                                       
     n  l   j            E        occ.                                                              
     1  0  0.50     -1785.8828   2.0000                                                             
     2  0  0.50      -139.4969   2.0000                                                             
     2  1  1.50       -95.5546   6.0000                                                             
     3  0  0.50       -10.8127   2.0000                                                             
     3  1  0.50        -4.0811   2.0000                                                             
     3  2  1.50        -4.0817   0.0000                                                             
   Description                                                                                      
     l       E           TYP  RCUT    TYP  RCUT                                                     
     0    -10.8127223     23  1.900                                                                 
     0     -7.6451159     23  1.900                                                                 
     1     -4.0811372     23  1.900                                                                 
     1      2.4879257     23  1.900                                                                 
     2     -4.0817478      7  1.900                                                                 
  local pseudopotential read in
  partial core-charges read in
  partial kinetic energy density read in
  atomic valenz-charges read in
  non local Contribution for L=           0  read in
    real space projection operators read in
  non local Contribution for L=           0  read in
    real space projection operators read in
  non local Contribution for L=           1  read in
    real space projection operators read in
  non local Contribution for L=           1  read in
    real space projection operators read in
    PAW grid and wavefunctions read in
 
   number of l-projection  operators is LMAX  =           4
   number of lm-projection operators is LMMAX =           8
 
 POTCAR:    PAW_PBE Ge 05Jan2001                  
   VRHFIN =Ge: s2p2                                                                                 
   LEXCH  = PE                                                                                      
   EATOM  =   104.9960 eV,    7.7170 Ry                                                             
                                                                                                    
   TITEL  = PAW_PBE Ge 05Jan2001                                                                    
   LULTRA =        F    use ultrasoft PP ?                                                          
   IUNSCR =        1    unscreen: 0-lin 1-nonlin 2-no                                               
   RPACOR =    2.170    partial core radius                                                         
   POMASS =   72.610; ZVAL   =    4.000    mass and valenz                                          
   RCORE  =    2.300    outmost cutoff radius                                                       
   RWIGS  =    2.300; RWIGS  =    1.217    wigner-seitz radius (au A)                               
   ENMAX  =  173.807; ENMIN  =  130.355 eV                                                          
   ICORE  =        3    local potential                                                             
   LCOR   =        T    correct aug charges                                                         
   LPAW   =        T    paw PP                                                                      
   EAUG   =  385.843                                                                                
   DEXC   =    0.000                                                                                
   RMAX   =    2.342    core radius for proj-oper                                                   
   RAUG   =    1.300    factor for augmentation sphere                                              
   RDEP   =    2.318    radius for radial grids                                                     
   RDEPT  =    2.103    core radius for aug-charge                                                  
                                                                                                    
   Atomic configuration                                                                             
   10 entries                                                                                       
     n  l   j            E        occ.                                                              
     1  0  0.50    -10959.8463   2.0000                                                             
     2  0  0.50     -1371.6056   2.0000                                                             
     2  1  1.50     -1198.4791   6.0000                                                             
     3  0  0.50      -168.4733   2.0000                                                             
     3  1  1.50      -115.6019   6.0000                                                             
     3  2  2.50       -29.3106  10.0000                                                             
     4  0  0.50       -11.7309   2.0000                                                             
     4  1  0.50        -3.8952   2.0000                                                             
     4  2  1.50        -4.0817   0.0000                                                             
     4  3  2.50        -4.0817   0.0000                                                             
   Description                                                                                      
     l       E           TYP  RCUT    TYP  RCUT                                                     
     0    -11.7309493     23  2.300                                                                 
     0     -7.4578696     23  2.300                                                                 
     1     -3.8952261     23  2.300                                                                 
     1      6.1178114     23  2.300                                                                 
     2     -4.0817478     23  2.300                                                                 
     3     -1.3605826      7  2.300                                                                 
  local pseudopotential read in
  partial core-charges read in
  partial kinetic energy density read in
  atomic valenz-charges read in
  non local Contribution for L=           0  read in
    real space projection operators read in
  non local Contribution for L=           0  read in
    real space projection operators read in
  non local Contribution for L=           1  read in
    real space projection operators read in
  non local Contribution for L=           1  read in
    real space projection operators read in
  non local Contribution for L=           2  read in
    real space projection operators read in
    PAW grid and wavefunctions read in
 
   number of l-projection  operators is LMAX  =           5
   number of lm-projection operators is LMMAX =          13
 
 Optimization of the real space projectors (new method)

 maximal supplied QI-value         = 19.84
 optimisation between [QCUT,QGAM] = [ 13.49, 26.99] = [ 50.98,203.92] Ry 
 Optimized for a Real-space Cutoff    1.07 Angstroem

   l    n(q)    QCUT    max X(q) W(low)/X(q) W(high)/X(q)  e(spline) 
   0      9    13.493   159.560    0.22E-03    0.15E-03    0.72E-07
   0      9    13.493   115.863    0.21E-03    0.15E-03    0.71E-07
   1      8    13.493    88.339    0.15E-03    0.11E-03    0.13E-06
   1      8    13.493    48.592    0.15E-03    0.10E-03    0.13E-06
 Optimization of the real space projectors (new method)

 maximal supplied QI-value         = 16.25
 optimisation between [QCUT,QGAM] = [ 13.49, 26.98] = [ 50.95,203.80] Ry 
 Optimized for a Real-space Cutoff    1.25 Angstroem

   l    n(q)    QCUT    max X(q) W(low)/X(q) W(high)/X(q)  e(spline) 
   0     10    13.489    65.336    0.91E-04    0.11E-03    0.34E-06
   0     10    13.489    52.220    0.89E-04    0.11E-03    0.34E-06
   1     10    13.489    36.409    0.22E-03    0.27E-03    0.14E-06
   1     10    13.489    21.334    0.21E-03    0.27E-03    0.14E-06
   2      9    13.489     4.673    0.11E-03    0.12E-03    0.19E-06
  PAW_PBE Si 05Jan2001                  :
 energy of atom  1       EATOM= -103.0669
 kinetic energy error for atom=    0.0003 (will be added to EATOM!!)
  PAW_PBE Ge 05Jan2001                  :
 energy of atom  2       EATOM= -104.9960
 kinetic energy error for atom=    0.0001 (will be added to EATOM!!)
 
 
 POSCAR: fcc Si+fcc Ge
  positions in direct lattice
  No initial velocities read in


 exchange-correlation table for PE
   RHO(1)=    0.500       N(1)  =     2000
   RHO(2)=  100.500       N(2)  =     4000
 


--------------------------------------------------------------------------------------------------------


 ion  position               nearest neighbor table
   1  0.000  0.667  0.000-  19 2.37  29 2.37  61 2.52  90 2.78
   2  0.300  0.433  0.097-  30 2.37  20 2.37  22 2.37
   3  0.600  0.200  0.195-  23 2.37  21 2.37  34 2.37
   4  0.000  0.333  0.000-  78 1.73  32 2.37  22 2.37
   5  0.300  0.100  0.097-  23 2.37  25 2.37  33 2.37
   6  0.600  0.867  0.195-  26 2.37  24 2.37  28 2.37  97 2.46
   7  0.000  0.000  0.000-  25 2.37  35 2.37  96 2.88
   8  0.300  0.767  0.097-  26 2.37  19 2.37  36 2.37
   9  0.600  0.533  0.195-  31 2.37  20 2.37  27 2.37  67 2.51
  10  0.500  0.667  0.000-  28 2.37  20 2.37  41 2.52  84 2.78
  11  0.800  0.433  0.097-  21 2.37  29 2.37  31 2.37
  12  0.100  0.200  0.195-  32 2.37  30 2.37  25 2.37
  13  0.500  0.333  0.000- 102 1.73  23 2.37  31 2.37
  14  0.800  0.100  0.097-  32 2.37  34 2.37  24 2.37
  15  0.100  0.867  0.195-  35 2.37  33 2.37  19 2.37  73 2.46
  16  0.500  0.000  0.000-  34 2.37  26 2.37  72 2.88
  17  0.800  0.767  0.097-  35 2.37  28 2.37  27 2.37
  18  0.100  0.533  0.195-  22 2.37  29 2.37  36 2.37  91 2.51
  19  0.150  0.800  0.049-   1 2.37   8 2.37  15 2.37
  20  0.450  0.567  0.146-  10 2.37   9 2.37   2 2.37
  21  0.750  0.333  0.243-   3 2.37  11 2.37  57 2.53
  22  0.150  0.467  0.049-  18 2.37   4 2.37   2 2.37  78 2.79
  23  0.450  0.233  0.146-   3 2.37   5 2.37  13 2.37  79 3.03
  24  0.750  0.000  0.243-   6 2.37  14 2.37
  25  0.150  0.133  0.049-   7 2.37   5 2.37  12 2.37  96 2.84
  26  0.450  0.900  0.146-   6 2.37   8 2.37  16 2.37
  27  0.750  0.667  0.243-  17 2.37   9 2.37  67 2.43  42 2.48
  28  0.650  0.800  0.049-  10 2.37  17 2.37   6 2.37
  29  0.950  0.567  0.146-   1 2.37  18 2.37  11 2.37
  30  0.250  0.333  0.243-  12 2.37   2 2.37  37 2.53
  31  0.650  0.467  0.049-   9 2.37  13 2.37  11 2.37 102 2.79
  32  0.950  0.233  0.146-  12 2.37  14 2.37   4 2.37  85 3.03
  33  0.250  0.000  0.243-  15 2.37   5 2.37
  34  0.650  0.133  0.049-  16 2.37  14 2.37   3 2.37  72 2.84
  35  0.950  0.900  0.146-  15 2.37  17 2.37   7 2.37
  36  0.250  0.667  0.243-   8 2.37  18 2.37  91 2.43  62 2.48
  37  0.344  0.344  0.421-  80 2.38  79 2.38  87 2.42  30 2.53
  38  0.144  0.444  0.521-  81 2.38  80 2.38  91 2.42  88 2.42
  39  0.944  0.544  0.622-  82 2.38  81 2.38  89 2.42  92 2.42
  40  0.744  0.644  0.722-  83 2.38  82 2.38  90 2.42  93 2.42
  41  0.544  0.744  0.823-  84 2.38  83 2.38  94 2.42  10 2.52
  42  0.677  0.678  0.421-  68 2.38  67 2.38  93 2.42  27 2.48
  43  0.477  0.778  0.521-  69 2.38  68 2.38  97 2.42  94 2.42
  44  0.277  0.878  0.622-  70 2.38  69 2.38  95 2.42  98 2.42
  45  0.077  0.978  0.722-  71 2.38  70 2.38  96 2.42  99 2.42
  46  0.877  0.078  0.823-  72 2.38  71 2.38 100 2.42
  47  0.010  0.011  0.421-  74 2.38  73 2.38  99 2.42
  48  0.810  0.111  0.521-  75 2.38  74 2.38  85 2.42 100 2.42
  49  0.610  0.211  0.622-  76 2.38  75 2.38 101 2.42  86 2.42
  50  0.410  0.311  0.722-  77 2.38  76 2.38 102 2.42  87 2.42
  51  0.210  0.411  0.823-  78 2.38  77 2.38  88 2.42
  52  0.510  0.011  0.421-  98 2.38  97 2.38  75 2.42
  53  0.310  0.111  0.521-  99 2.38  98 2.38  79 2.42  76 2.42
  54  0.110  0.211  0.622- 100 2.38  99 2.38  77 2.42  80 2.42
  55  0.910  0.311  0.722- 101 2.38 100 2.38  78 2.42  81 2.42
  56  0.710  0.411  0.823- 102 2.38 101 2.38  82 2.42
  57  0.844  0.344  0.421-  86 2.38  85 2.38  81 2.42  21 2.53
  58  0.644  0.444  0.521-  87 2.38  86 2.38  67 2.42  82 2.42
  59  0.444  0.544  0.622-  88 2.38  87 2.38  83 2.42  68 2.42
  60  0.244  0.644  0.722-  89 2.38  88 2.38  84 2.42  69 2.42
  61  0.044  0.744  0.823-  90 2.38  89 2.38  70 2.42   1 2.52
  62  0.177  0.678  0.421-  92 2.38  91 2.38  69 2.42  36 2.48
  63  0.977  0.778  0.521-  93 2.38  92 2.38  73 2.42  70 2.42
  64  0.777  0.878  0.622-  94 2.38  93 2.38  71 2.42  74 2.42
  65  0.577  0.978  0.722-  95 2.38  94 2.38  72 2.42  75 2.42
  66  0.377  0.078  0.823-  96 2.38  95 2.38  76 2.42
  67  0.694  0.544  0.370-  42 2.38  58 2.42  27 2.43   9 2.51
  68  0.494  0.644  0.471-  42 2.38  43 2.38  59 2.42
  69  0.294  0.744  0.571-  43 2.38  44 2.38  62 2.42  60 2.42
  70  0.094  0.844  0.672-  44 2.38  45 2.38  61 2.42  63 2.42
  71  0.894  0.944  0.772-  45 2.38  46 2.38  64 2.42
  72  0.694  0.044  0.873-  46 2.38  65 2.42  34 2.84  16 2.88
  73  0.027  0.878  0.370-  47 2.38  63 2.42  15 2.46
  74  0.827  0.978  0.471-  47 2.38  48 2.38  64 2.42
  75  0.627  0.078  0.571-  48 2.38  49 2.38  52 2.42  65 2.42
  76  0.427  0.178  0.672-  49 2.38  50 2.38  66 2.42  53 2.42
  77  0.227  0.278  0.772-  50 2.38  51 2.38  54 2.42
  78  0.027  0.378  0.873-   4 1.73  51 2.38  55 2.42  22 2.79
  79  0.360  0.211  0.370-  37 2.38  53 2.42  23 3.03
  80  0.160  0.311  0.471-  37 2.38  38 2.38  54 2.42
  81  0.960  0.411  0.571-  38 2.38  39 2.38  57 2.42  55 2.42
  82  0.760  0.511  0.672-  39 2.38  40 2.38  56 2.42  58 2.42
  83  0.560  0.611  0.772-  40 2.38  41 2.38  59 2.42
  84  0.360  0.711  0.873-  41 2.38  60 2.42  10 2.78
  85  0.860  0.211  0.370-  57 2.38  48 2.42  32 3.03
  86  0.660  0.311  0.471-  57 2.38  58 2.38  49 2.42
  87  0.460  0.411  0.571-  58 2.38  59 2.38  37 2.42  50 2.42
  88  0.260  0.511  0.672-  59 2.38  60 2.38  51 2.42  38 2.42
  89  0.060  0.611  0.772-  60 2.38  61 2.38  39 2.42
  90  0.860  0.711  0.873-  61 2.38  40 2.42   1 2.78
  91  0.194  0.544  0.370-  62 2.38  38 2.42  36 2.43  18 2.51
  92  0.994  0.644  0.471-  62 2.38  63 2.38  39 2.42
  93  0.794  0.744  0.571-  63 2.38  64 2.38  42 2.42  40 2.42
  94  0.594  0.844  0.672-  64 2.38  65 2.38  41 2.42  43 2.42
  95  0.394  0.944  0.772-  65 2.38  66 2.38  44 2.42
  96  0.194  0.044  0.873-  66 2.38  45 2.42  25 2.84   7 2.88
  97  0.527  0.878  0.370-  52 2.38  43 2.42   6 2.46
  98  0.327  0.978  0.471-  52 2.38  53 2.38  44 2.42
  99  0.127  0.078  0.571-  53 2.38  54 2.38  47 2.42  45 2.42
 100  0.927  0.178  0.672-  54 2.38  55 2.38  46 2.42  48 2.42
 101  0.727  0.278  0.772-  55 2.38  56 2.38  49 2.42
 102  0.527  0.378  0.873-  13 1.73  56 2.38  50 2.42  31 2.79
 
  LATTYP: Found a base centered orthorhombic cell.
 ALAT       =    13.4232037900
 B/A-ratio  =     2.2360679776
 C/A-ratio  =     0.9380387650
  
  Lattice vectors:
  
 A1 = (   6.7116018950, -15.0075980760,   0.0000000000)
 A2 = (   6.7116018950,  15.0075980760,   0.0000000000)
 A3 = (   0.0000000000,   0.0000000000,  12.5914855050)


Analysis of symmetry for initial positions (statically):
=====================================================================
 Subroutine PRICEL returns following result:
 
  LATTYP: Found a simple orthorhombic cell.
 ALAT       =     6.7116018950
 B/A-ratio  =     1.8760775299
 C/A-ratio  =     2.2360679776
  
  Lattice vectors:
  
 A1 = (  -6.7116018950,   0.0000000000,   0.0000000000)
 A2 = (   0.0000000000,   0.0000000000,  12.5914855050)
 A3 = (   0.0000000000,  15.0075980760,   0.0000000000)
 
   2 primitive cells build up your supercell.
 

 Routine SETGRP: Setting up the symmetry group for a 
 base centered orthorhombic supercell.


 Subroutine GETGRP returns: Found  1 space group operations
 (whereof  1 operations were pure point group operations)
 out of a pool of  8 trial point group operations.


The static configuration has the point symmetry C_1 .


Analysis of symmetry for dynamics (positions and initial velocities):
=====================================================================
 Subroutine PRICEL returns following result:
 
  LATTYP: Found a simple orthorhombic cell.
 ALAT       =     6.7116018950
 B/A-ratio  =     1.8760775299
 C/A-ratio  =     2.2360679776
  
  Lattice vectors:
  
 A1 = (  -6.7116018950,   0.0000000000,   0.0000000000)
 A2 = (   0.0000000000,   0.0000000000,  12.5914855050)
 A3 = (   0.0000000000,  15.0075980760,   0.0000000000)
 
   2 primitive cells build up your supercell.
 

 Routine SETGRP: Setting up the symmetry group for a 
 base centered orthorhombic supercell.


 Subroutine GETGRP returns: Found  1 space group operations
 (whereof  1 operations were pure point group operations)
 out of a pool of  8 trial point group operations.


The dynamic configuration has the point symmetry C_1 .


Analysis of structural, dynamic, and magnetic symmetry:
=====================================================================
 Subroutine PRICEL returns following result:
 
  LATTYP: Found a simple orthorhombic cell.
 ALAT       =     6.7116018950
 B/A-ratio  =     1.8760775299
 C/A-ratio  =     2.2360679776
  
  Lattice vectors:
  
 A1 = (  -6.7116018950,   0.0000000000,   0.0000000000)
 A2 = (   0.0000000000,   0.0000000000,  12.5914855050)
 A3 = (   0.0000000000,  15.0075980760,   0.0000000000)
 
   2 primitive cells build up your supercell.
 

 Routine SETGRP: Setting up the symmetry group for a 
 base centered orthorhombic supercell.


 Subroutine GETGRP returns: Found  1 space group operations
 (whereof  1 operations were pure point group operations)
 out of a pool of  8 trial point group operations.


The overall configuration has the point symmetry C_1 .


 Subroutine INISYM returns: Found  1 space group operations
 (whereof  1 operations are pure point group operations),
 and found     2 'primitive' translations


----------------------------------------------------------------------------------------

                                     Primitive cell                                     

  volume of cell :    1268.2777

  direct lattice vectors                    reciprocal lattice vectors
    -6.711601895  0.000000000  0.000000000    -0.148995726  0.000000000  0.000000000
     0.000000000  0.000000000 12.591485505     0.000000000  0.000000000  0.079418747
     0.000000000 15.007598076  0.000000000     0.000000000  0.066632915  0.000000000

  length of vectors
     6.711601895 12.591485505 15.007598076     0.148995726  0.079418747  0.066632915

  position of ions in fractional coordinates (direct lattice)
     0.666666667  0.000000000  0.666666667
     0.833333333  0.097316973  0.433333333
     0.000000000  0.194633945  0.200000000
     0.333333333  0.000000000  0.333333333
     0.500000000  0.097316973  0.100000000
     0.666666667  0.194633945  0.866666667
     0.000000000  0.000000000  0.000000000
     0.166666667  0.097316973  0.766666667
     0.333333333  0.194633945  0.533333333
     0.500000000  0.048658486  0.800000000
     0.666666667  0.145975459  0.566666667
     0.833333333  0.243292432  0.333333333
     0.166666667  0.048658486  0.466666667
     0.333333333  0.145975459  0.233333333
     0.500000000  0.243292432  0.000000000
     0.833333333  0.048658486  0.133333333
     1.000000000  0.145975459  0.900000000
     0.166666667  0.243292432  0.666666667
     0.657260482  0.420619185  0.344478528
     0.157260482  0.521132700  0.444478528
     0.657260482  0.621646216  0.544478528
     0.157260482  0.722159732  0.644478528
     0.657260482  0.822673247  0.744478528
     0.323927149  0.420619185  0.677811861
     0.823927149  0.521132700  0.777811861
     0.323927149  0.621646216  0.877811861
     0.823927149  0.722159732  0.977811861
     0.323927149  0.822673247  0.077811861
     0.990593816  0.420619185  0.011145194
     0.490593816  0.521132700  0.111145194
     0.990593816  0.621646216  0.211145194
     0.490593816  0.722159732  0.311145194
     0.990593816  0.822673247  0.411145194
     0.157260482  0.370362427  0.544478528
     0.657260482  0.470875942  0.644478528
     0.157260482  0.571389458  0.744478528
     0.657260482  0.671902974  0.844478528
     0.157260482  0.772416489  0.944478528
     0.657260482  0.872930005  0.044478528
     0.823927149  0.370362427  0.877811861
     0.323927149  0.470875942  0.977811861
     0.823927149  0.571389458  0.077811861
     0.323927149  0.671902974  0.177811861
     0.823927149  0.772416489  0.277811861
     0.323927149  0.872930005  0.377811861
     0.490593816  0.370362427  0.211145194
     0.990593816  0.470875942  0.311145194
     0.490593816  0.571389458  0.411145194
     0.990593816  0.671902974  0.511145194
     0.490593816  0.772416489  0.611145194
     0.990593816  0.872930005  0.711145194

  ion indices of the primitive-cell ions
   primitive index   ion index
                 1           1
                 2          11
                 3          12
                 4           4
                 5          14
                 6          15
                 7           7
                 8          17
                 9          18
                10          19
                11          29
                12          21
                13          22
                14          32
                15          24
                16          25
                17          35
                18          27
                19          57
                20          38
                21          39
                22          60
                23          61
                24          62
                25          63
                26          64
                27          45
                28          46
                29          47
                30          48
                31          54
                32          55
                33          51
                34          91
                35          92
                36          93
                37          70
                38          71
                39          96
                40          73
                41          74
                42          99
                43         100
                44          77
                45          78
                46          85
                47          80
                48          81
                49          82
                50          89
                51          90

----------------------------------------------------------------------------------------

 
 
 KPOINTS: Automatic KPOINTS generated             

Automatic generation of k-mesh.
 Grid dimensions read from file:
 generate k-points for:    3    2    2

 Generating k-lattice:

  Cartesian coordinates                     Fractional coordinates (reciprocal lattice)
     0.024832621  0.011105486  0.000000000     0.333333333 -0.000000000  0.000000000
     0.000000000  0.033316457  0.000000000     0.000000000  0.500000000  0.000000000
     0.000000000  0.000000000  0.039709373     0.000000000  0.000000000  0.500000000

  Length of vectors
     0.027202773  0.033316457  0.039709373

  Shift w.r.t. Gamma in fractional coordinates (k-lattice)
     0.000000000  0.000000000  0.000000000

 WARNING: IBZKPT: internal override: KBLOWUP is changed to .FALSE.
      ... skipping the blow-up phase ...

 
 Subroutine IBZKPT returns following result:
 ===========================================
 
 Found      8 irreducible k-points:
 
 Following reciprocal coordinates:
            Coordinates               Weight
  0.000000  0.000000  0.000000      1.000000
  0.333333 -0.000000  0.000000      2.000000
  0.000000  0.500000  0.000000      1.000000
  0.333333  0.500000  0.000000      2.000000
  0.000000  0.000000  0.500000      1.000000
  0.333333 -0.000000  0.500000      2.000000
  0.000000  0.500000  0.500000      1.000000
  0.333333  0.500000  0.500000      2.000000
 
 Following cartesian coordinates:
            Coordinates               Weight
  0.000000  0.000000  0.000000      1.000000
  0.024833  0.011105  0.000000      2.000000
  0.000000  0.033316  0.000000      1.000000
  0.024833  0.044422  0.000000      2.000000
  0.000000  0.000000  0.039709      1.000000
  0.024833  0.011105  0.039709      2.000000
  0.000000  0.033316  0.039709      1.000000
  0.024833  0.044422  0.039709      2.000000
 


--------------------------------------------------------------------------------------------------------




 Dimension of arrays:
   k-points           NKPTS =      8   k-points in BZ     NKDIM =      8   number of bands    NBANDS=    245
   number of dos      NEDOS =    301   number of ions     NIONS =    102
   non local maximal  LDIM  =      5   non local SUM 2l+1 LMDIM =     13
   total plane-waves  NPLWV = 816480
   max r-space proj   IRMAX =   2658   max aug-charges    IRDMAX= 140140
   dimension x,y,z NGX =    90 NGY =  108 NGZ =   84
   dimension x,y,z NGXF=   180 NGYF=  216 NGZF=  168
   support grid    NGXF=   360 NGYF=  432 NGZF=  336
   ions per type =              36  66
   NGX,Y,Z   is equivalent  to a cutoff of  11.15, 10.92, 11.09 a.u.
   NGXF,Y,Z  is equivalent  to a cutoff of  22.29, 21.84, 22.18 a.u.

 SYSTEM =  Si012 and Ge012 interface calculation   
 POSCAR =  fcc Si+fcc Ge                           

 Startparameter for this run:
   NWRITE =      2    write-flag & timer
   PREC   = normal    normal or accurate (medium, high low for compatibility)
   ISTART =      0    job   : 0-new  1-cont  2-samecut
   ICHARG =      2    charge: 1-file 2-atom 10-const
   ISPIN  =      2    spin polarized calculation?
   LNONCOLLINEAR =      F non collinear calculations
   LSORBIT =      F    spin-orbit coupling
   INIWAV =      1    electr: 0-lowe 1-rand  2-diag
   LASPH  =      T    aspherical Exc in radial PAW
 Electronic Relaxation 1
   ENCUT  =  700.0 eV  51.45 Ry    7.17 a.u.  28.96 35.47 27.16*2*pi/ulx,y,z
   ENINI  =  700.0     initial cutoff
   ENAUG  =  900.0 eV  augmentation charge cutoff
   NELM   =    100;   NELMIN=  2; NELMDL= -5     # of ELM steps 
   EDIFF  = 0.1E-06   stopping-criterion for ELM
   LREAL  =      T    real-space projection
   NLSPLINE    = F    spline interpolate recip. space projectors
   LCOMPAT=      F    compatible to vasp.4.4
   GGA_COMPAT  = T    GGA compatible to vasp.4.4-vasp.4.6
   LMAXPAW     = -100 max onsite density
   LMAXMIX     =    6 max onsite mixed and CHGCAR
   VOSKOWN=      0    Vosko Wilk Nusair interpolation
   ROPT   =   -0.00050  -0.00050
 Ionic relaxation
   EDIFFG = 0.1E-05   stopping-criterion for IOM
   NSW    =      0    number of steps for IOM
   NBLOCK =      1;   KBLOCK =      1    inner block; outer block 
   IBRION =     -1    ionic relax: 0-MD 1-quasi-New 2-CG
   NFREE  =      0    steps in history (QN), initial steepest desc. (CG)
   ISIF   =      2    stress and relaxation
   IWAVPR =     10    prediction:  0-non 1-charg 2-wave 3-comb
   ISYM   =      2    0-nonsym 1-usesym 2-fastsym
   LCORR  =      T    Harris-Foulkes like correction to forces

   POTIM  = 0.5000    time-step for ionic-motion
   TEIN   =    0.0    initial temperature
   TEBEG  =    0.0;   TEEND  =   0.0 temperature during run
   SMASS  =  -3.00    Nose mass-parameter (am)
   estimated Nose-frequenzy (Omega)   =  0.10E-29 period in steps = 0.13E+47 mass=  -0.412E-26a.u.
   SCALEE = 1.0000    scale energy and forces
   NPACO  =    256;   APACO  = 10.0  distance and # of slots for P.C.
   PSTRESS=    0.0 pullay stress

  Mass of Ions in am
   POMASS =  28.09 72.61
  Ionic Valenz
   ZVAL   =   4.00  4.00
  Atomic Wigner-Seitz radii
   RWIGS  =  -1.00 -1.00
  virtual crystal weights 
   VCA    =   1.00  1.00
   NELECT =     408.0000    total number of electrons
   NUPDOWN=       1.0000    fix difference up-down

 DOS related values:
   EMIN   =  10.00;   EMAX   =-10.00  energy-range for DOS
   EFERMI =   0.00;   METHOD = LEGACY      
   ISMEAR =     0;   SIGMA  =   0.01  broadening in eV -4-tet -1-fermi 0-gaus

 Electronic relaxation 2 (details)
   IALGO  =     38    algorithm
   LDIAG  =      T    sub-space diagonalisation (order eigenvalues)
   LSUBROT=      F    optimize rotation matrix (better conditioning)
   TURBO    =      0    0=normal 1=particle mesh
   IRESTART =      0    0=no restart 2=restart with 2 vectors
   NREBOOT  =      0    no. of reboots
   NMIN     =      0    reboot dimension
   EREF     =   0.00    reference energy to select bands
   IMIX   =      4    mixing-type and parameters
     AMIX     =   0.60;   BMIX     =  1.00
     AMIX_MAG =   2.40;   BMIX_MAG =  1.00
     AMIN     =   0.10
     WC   =   100.;   INIMIX=   1;  MIXPRE=   1;  MAXMIX= -45

 Intra band minimization:
   WEIMIN = 0.0000     energy-eigenvalue tresh-hold
   EBREAK =  0.10E-09  absolut break condition
   DEPER  =   0.30     relativ break condition  

   TIME   =   0.40     timestep for ELM

  volume/ion in A,a.u.               =      24.87       167.82
  Fermi-wavevector in a.u.,A,eV,Ry     =   0.890321  1.682463 10.784958  0.792672
  Thomas-Fermi vector in A             =   2.011997
 
 Write flags
   LWAVE        =      F    write WAVECAR
   LDOWNSAMPLE  =      F    k-point downsampling of WAVECAR
   LCHARG       =      T    write CHGCAR
   LVTOT        =      F    write LOCPOT, total local potential
   LVHAR        =      T    write LOCPOT, Hartree potential only
   WRT_POTENTIAL=  hartree ionic  ! write potential to hdf5 file
   LELF         =      F    write electronic localiz. function (ELF)
   LORBIT       =      0    0 simple, 1 ext, 2 COOP (PROOUT), +10 PAW based schemes


 Dipole corrections
   LMONO      =      F    monopole corrections only (constant potential shift)
   LDIPOL     =      F    correct potential (dipole corrections)
   IDIPOL     =      0    1-x, 2-y, 3-z, 4-all directions 
   EPSILON    =  1.0000000 bulk dielectric constant
   LVACPOTAV  =      F  vacuum potentials using an averaging scheme for the charge density
   VACPOTFLAT =  0.1000000 required flatness to determine vacuum potential
 Exchange correlation treatment:
   GGA     = PE    functional components
   XC_C    = 1    coefficients multiplying the functional components
   LIBXC   =     F    Libxc                    
   VOSKOWN =     0    Vosko Wilk Nusair interpolation
   LHFCALC =     F    Hartree Fock is set to
   LHFONE  =     F    Hartree Fock one center treatment
   AEXX    =    0.0000 exact exchange contribution

 Parameters of functionals:
   PE:
     No parameter
 
 Van der Waals corrections
   IVDW    =     0    specifies the selected vdW correction

 Linear response parameters
   LEPSILON=     F    determine dielectric tensor
   LRPA    =     F    only Hartree local field effects (RPA)
   LNABLA  =     F    use nabla operator in PAW spheres
   LVEL    =     F    velocity operator in full k-point grid
   CSHIFT  =0.1000    complex shift for real part using Kramers Kronig
   OMEGAMAX=  -1.0    maximum frequency
   DEG_THRESHOLD= 0.2000000E-02 threshold for treating states as degnerate
   RTIME   =   -0.100 relaxation time in fs
  (WPLASMAI=    0.000 imaginary part of plasma frequency in eV, 0.658/RTIME)
   DFIELD  = 0.0000000 0.0000000 0.0000000 field for delta impulse in time
 
  Optional k-point grid parameters
   LKPOINTS_OPT  =     F    use optional k-point grid
   KPOINTS_OPT_MODE=     1    mode for optional k-point grid
 
 Orbital magnetization related:
   ORBITALMAG=     F  switch on orbital magnetization
   LCHIMAG   =     F  perturbation theory with respect to B field
   DQ        =  0.001000  dq finite difference perturbation B field
   LLRAUG    =     F  two centre corrections for induced B field
   LBONE     =     F  B-component reconstruction in AE one-centre
   LVGVCALC  =     T  calculate vGv susceptibility
   LVGVAPPL  =     F  apply vGv susceptibility instead of pGv for G=0

 Random number generation:
   RANDOM_GENERATOR = DEFAULT
   PCG_SEED         = not used


--------------------------------------------------------------------------------------------------------


 Static calculation
 charge density and potential will be updated during run
 spin polarized calculation
 Variant of blocked Davidson
 Davidson routine will perform the subspace rotation
 perform sub-space diagonalisation
    after iterative eigenvector-optimisation
 modified Broyden-mixing scheme, WC =      100.0
 initial mixing is a Kerker type mixing with AMIX =  0.6000 and BMIX =      1.0000
 Hartree-type preconditioning will be used
 using additional bands           41
 real space projection scheme for non local part
 use partial core corrections
 calculate Harris-corrections to forces 
   (improved forces if not selfconsistent)
 use gradient corrections 
 use of overlap-Matrix (Vanderbilt PP)
 Gauss-broadening in eV      SIGMA  =   0.01


--------------------------------------------------------------------------------------------------------


  energy-cutoff  :      700.00
  volume of cell :     2536.56
      direct lattice vectors                 reciprocal lattice vectors
    13.423203790  0.000000000  0.000000000     0.074497863  0.033316457  0.000000000
    -6.711601895 15.007598076  0.000000000     0.000000000  0.066632915  0.000000000
     0.000000000  0.000000000 12.591485505     0.000000000  0.000000000  0.079418747

  length of vectors
    13.423203790 16.440000000 12.591485505     0.081608320  0.066632915  0.079418747


 
 k-points in units of 2pi/SCALE and weight: Automatic KPOINTS generated             
   0.00000000  0.00000000  0.00000000       0.083
   0.02483262  0.01110549  0.00000000       0.167
   0.00000000  0.03331646  0.00000000       0.083
   0.02483262  0.04442194  0.00000000       0.167
   0.00000000  0.00000000  0.03970937       0.083
   0.02483262  0.01110549  0.03970937       0.167
   0.00000000  0.03331646  0.03970937       0.083
   0.02483262  0.04442194  0.03970937       0.167
 
 k-points in reciprocal lattice and weights: Automatic KPOINTS generated             
   0.00000000  0.00000000  0.00000000       0.083
   0.33333333 -0.00000000  0.00000000       0.167
   0.00000000  0.50000000  0.00000000       0.083
   0.33333333  0.50000000  0.00000000       0.167
   0.00000000  0.00000000  0.50000000       0.083
   0.33333333 -0.00000000  0.50000000       0.167
   0.00000000  0.50000000  0.50000000       0.083
   0.33333333  0.50000000  0.50000000       0.167
 
 position of ions in fractional coordinates (direct lattice) 
   0.00000000  0.66666667  0.00000000
   0.30000000  0.43333333  0.09731697
   0.60000000  0.20000000  0.19463394
   0.00000000  0.33333333  0.00000000
   0.30000000  0.10000000  0.09731697
   0.60000000  0.86666667  0.19463394
   0.00000000  0.00000000  0.00000000
   0.30000000  0.76666667  0.09731697
   0.60000000  0.53333333  0.19463394
   0.50000000  0.66666667  0.00000000
   0.80000000  0.43333333  0.09731697
   0.10000000  0.20000000  0.19463394
   0.50000000  0.33333333  0.00000000
   0.80000000  0.10000000  0.09731697
   0.10000000  0.86666667  0.19463394
   0.50000000  0.00000000  0.00000000
   0.80000000  0.76666667  0.09731697
   0.10000000  0.53333333  0.19463394
   0.15000000  0.80000000  0.04865849
   0.45000000  0.56666667  0.14597546
   0.75000000  0.33333333  0.24329243
   0.15000000  0.46666667  0.04865849
   0.45000000  0.23333333  0.14597546
   0.75000000  0.00000000  0.24329243
   0.15000000  0.13333333  0.04865849
   0.45000000  0.90000000  0.14597546
   0.75000000  0.66666667  0.24329243
   0.65000000  0.80000000  0.04865849
   0.95000000  0.56666667  0.14597546
   0.25000000  0.33333333  0.24329243
   0.65000000  0.46666667  0.04865849
   0.95000000  0.23333333  0.14597546
   0.25000000  0.00000000  0.24329243
   0.65000000  0.13333333  0.04865849
   0.95000000  0.90000000  0.14597546
   0.25000000  0.66666667  0.24329243
   0.34360902  0.34447853  0.42061918
   0.14360902  0.44447853  0.52113270
   0.94360902  0.54447853  0.62164622
   0.74360902  0.64447853  0.72215973
   0.54360902  0.74447853  0.82267325
   0.67694236  0.67781186  0.42061918
   0.47694236  0.77781186  0.52113270
   0.27694236  0.87781186  0.62164622
   0.07694236  0.97781186  0.72215973
   0.87694236  0.07781186  0.82267325
   0.01027569  0.01114519  0.42061918
   0.81027569  0.11114519  0.52113270
   0.61027569  0.21114519  0.62164622
   0.41027569  0.31114519  0.72215973
   0.21027569  0.41114519  0.82267325
   0.51027569  0.01114519  0.42061918
   0.31027569  0.11114519  0.52113270
   0.11027569  0.21114519  0.62164622
   0.91027569  0.31114519  0.72215973
   0.71027569  0.41114519  0.82267325
   0.84360902  0.34447853  0.42061918
   0.64360902  0.44447853  0.52113270
   0.44360902  0.54447853  0.62164622
   0.24360902  0.64447853  0.72215973
   0.04360902  0.74447853  0.82267325
   0.17694236  0.67781186  0.42061918
   0.97694236  0.77781186  0.52113270
   0.77694236  0.87781186  0.62164622
   0.57694236  0.97781186  0.72215973
   0.37694236  0.07781186  0.82267325
   0.69360902  0.54447853  0.37036243
   0.49360902  0.64447853  0.47087594
   0.29360902  0.74447853  0.57138946
   0.09360902  0.84447853  0.67190297
   0.89360902  0.94447853  0.77241649
   0.69360902  0.04447853  0.87293001
   0.02694236  0.87781186  0.37036243
   0.82694236  0.97781186  0.47087594
   0.62694236  0.07781186  0.57138946
   0.42694236  0.17781186  0.67190297
   0.22694236  0.27781186  0.77241649
   0.02694236  0.37781186  0.87293001
   0.36027569  0.21114519  0.37036243
   0.16027569  0.31114519  0.47087594
   0.96027569  0.41114519  0.57138946
   0.76027569  0.51114519  0.67190297
   0.56027569  0.61114519  0.77241649
   0.36027569  0.71114519  0.87293001
   0.86027569  0.21114519  0.37036243
   0.66027569  0.31114519  0.47087594
   0.46027569  0.41114519  0.57138946
   0.26027569  0.51114519  0.67190297
   0.06027569  0.61114519  0.77241649
   0.86027569  0.71114519  0.87293001
   0.19360902  0.54447853  0.37036243
   0.99360902  0.64447853  0.47087594
   0.79360902  0.74447853  0.57138946
   0.59360902  0.84447853  0.67190297
   0.39360902  0.94447853  0.77241649
   0.19360902  0.04447853  0.87293001
   0.52694236  0.87781186  0.37036243
   0.32694236  0.97781186  0.47087594
   0.12694236  0.07781186  0.57138946
   0.92694236  0.17781186  0.67190297
   0.72694236  0.27781186  0.77241649
   0.52694236  0.37781186  0.87293001
 
 position of ions in cartesian coordinates  (Angst):
  -4.47440127 10.00506539  0.00000000
   1.11860032  6.50329249  1.22536525
   6.71160190  3.00151962  2.45073050
  -2.23720063  5.00253269  0.00000000
   3.35580095  1.50075981  1.22536525
   2.23720063 13.00658500  2.45073050
   0.00000000  0.00000000  0.00000000
  -1.11860032 11.50582520  1.22536525
   4.47440127  8.00405230  2.45073050
   2.23720063 10.00506539  0.00000000
   7.83020221  6.50329249  1.22536525
   0.00000000  3.00151962  2.45073050
   4.47440127  5.00253269  0.00000000
  10.06740284  1.50075981  1.22536525
  -4.47440127 13.00658500  2.45073050
   6.71160190  0.00000000  0.00000000
   5.59300158 11.50582520  1.22536525
  -2.23720063  8.00405230  2.45073050
  -3.35580095 12.00607846  0.61268262
   2.23720063  8.50430558  1.83804788
   7.83020221  5.00253269  3.06341313
  -1.11860032  7.00354577  0.61268262
   4.47440127  3.50177288  1.83804788
  10.06740284  0.00000000  3.06341313
   1.11860032  2.00101307  0.61268262
   0.00000000 13.50683827  1.83804788
   5.59300158 10.00506539  3.06341313
   3.35580095 12.00607846  0.61268262
   8.94880252  8.50430558  1.83804788
   1.11860032  5.00253269  3.06341313
   5.59300158  7.00354577  0.61268262
  11.18600316  3.50177288  1.83804788
   3.35580095  0.00000000  3.06341313
   7.83020221  2.00101307  0.61268262
   6.71160190 13.50683827  1.83804788
  -1.11860032 10.00506539  3.06341313
   2.30033120  5.16979529  5.29622037
  -1.05546975  6.67055510  6.56183484
   9.01193309  8.17131491  7.82744932
   5.65613215  9.67207472  9.09306380
   2.30033120 11.17283452 10.35867826
   4.53753183 10.17232798  5.29622037
   1.18173088 11.67308779  6.56183484
  -2.17407007 13.17384760  7.82744932
  -5.52987101 14.67460740  9.09306380
  11.24913372  1.16776914 10.35867826
   0.06313056  0.16726259  5.29622037
  10.13053340  1.66802240  6.56183484
   6.77473246  3.16878221  7.82744932
   3.41893151  4.66954201  9.09306380
   0.06313056  6.17030182 10.35867826
   6.77473246  0.16726259  5.29622037
   3.41893151  1.66802240  6.56183484
   0.06313056  3.16878221  7.82744932
  10.13053340  4.66954201  9.09306380
   6.77473246  6.17030182 10.35867826
   9.01193309  5.16979529  5.29622037
   5.65613215  6.67055510  6.56183484
   2.30033120  8.17131491  7.82744932
  -1.05546975  9.67207472  9.09306380
  -4.41127070 11.17283452 10.35867826
  -2.17407007 10.17232798  5.29622037
   7.89333278 11.67308779  6.56183484
   4.53753183 13.17384760  7.82744932
   1.18173088 14.67460740  9.09306380
   4.53753183  1.16776914 10.35867826
   5.65613215  8.17131491  4.66341313
   2.30033120  9.67207472  5.92902760
  -1.05546975 11.17283452  7.19464208
  -4.41127070 12.67359433  8.46025656
   5.65613215 14.17435414  9.72587103
   9.01193309  0.66751587 10.99148550
  -5.52987101 13.17384760  4.66341313
   4.53753183 14.67460740  5.92902760
   7.89333278  1.16776914  7.19464208
   4.53753183  2.66852894  8.46025656
   1.18173088  4.16928875  9.72587103
  -2.17407007  5.67004856 10.99148550
   3.41893151  3.16878221  4.66341313
   0.06313056  4.66954201  5.92902760
  10.13053340  6.17030182  7.19464208
   6.77473246  7.67106163  8.46025656
   3.41893151  9.17182144  9.72587103
   0.06313056 10.67258125 10.99148550
  10.13053340  3.16878221  4.66341313
   6.77473246  4.66954201  5.92902760
   3.41893151  6.17030182  7.19464208
   0.06313056  7.67106163  8.46025656
  -3.29267039  9.17182144  9.72587103
   6.77473246 10.67258125 10.99148550
  -1.05546975  8.17131491  4.66341313
   9.01193309  9.67207472  5.92902760
   5.65613215 11.17283452  7.19464208
   2.30033120 12.67359433  8.46025656
  -1.05546975 14.17435414  9.72587103
   2.30033120  0.66751587 10.99148550
   1.18173088 13.17384760  4.66341313
  -2.17407007 14.67460740  5.92902760
   1.18173088  1.16776914  7.19464208
  11.24913372  2.66852894  8.46025656
   7.89333278  4.16928875  9.72587103
   4.53753183  5.67004856 10.99148550
 


--------------------------------------------------------------------------------------------------------


 k-point     1 :   0.0000 0.0000 0.0000  plane waves:  106659
 k-point     2 :   0.3333-0.0000 0.0000  plane waves:  106670
 k-point     3 :   0.0000 0.5000 0.0000  plane waves:  106632
 k-point     4 :   0.3333 0.5000 0.0000  plane waves:  106644
 k-point     5 :   0.0000 0.0000 0.5000  plane waves:  106738
 k-point     6 :   0.3333-0.0000 0.5000  plane waves:  106732
 k-point     7 :   0.0000 0.5000 0.5000  plane waves:  106636
 k-point     8 :   0.3333 0.5000 0.5000  plane waves:  106686

 maximum and minimum number of plane-waves per node :      6714     6632

 maximum number of plane-waves:    106738
 maximum index in each direction: 
   IXMAX=   28   IYMAX=   35   IZMAX=   27
   IXMIN=  -29   IYMIN=  -35   IZMIN=  -27


 real space projection operators:
  total allocation   :      20614.83 KBytes
  max/ min on nodes  :       1417.55       1117.91


 parallel 3D FFT for wavefunctions:
    minimum data exchange during FFTs selected (reduces bandwidth)
 parallel 3D FFT for charge:
    minimum data exchange during FFTs selected (reduces bandwidth)


 total amount of memory used by VASP MPI-rank0   562885. kBytes
=======================================================================

   base      :      30000. kBytes
   nonlr-proj:       6219. kBytes
   fftplans  :      62647. kBytes
   grid      :      39543. kBytes
   one-center:        113. kBytes
   wavefun   :     424363. kBytes
 
     INWAV:  cpu time      0.0000: real time      0.0001
 Broyden mixing: mesh for mixing (old mesh)
   NGX = 57   NGY = 71   NGZ = 55
  (NGX  =180   NGY  =216   NGZ  =168)
  gives a total of 222585 points

 initial charge density was supplied:
 charge density of overlapping atoms calculated
 number of electron     408.0000000 magnetization       1.0000000
 keeping initial charge density in first step


--------------------------------------------------------------------------------------------------------


 Maximum index for non-local projection operator          289
 Maximum index for augmentation-charges        10128 (set IRDMAX)


--------------------------------------------------------------------------------------------------------


 First call to EWALD:  gamma=   0.130
 Maximum number of real-space cells 3x 3x 3
 Maximum number of reciprocal cells 3x 3x 3

    FEWALD:  cpu time      0.0043: real time      0.0043


--------------------------------------- Ionic step        1  -------------------------------------------




--------------------------------------- Iteration      1(   1)  ---------------------------------------


    POTLOK:  cpu time      0.7021: real time      0.7072
    SETDIJ:  cpu time      4.0896: real time      4.1075
     EDDAV:  cpu time     62.5479: real time     63.0717
       DOS:  cpu time      0.0021: real time      0.0021
    --------------------------------------------
      LOOP:  cpu time     67.3417: real time     67.8885

 eigenvalue-minimisations  :  7840
 total energy-change (2. order) : 0.1860294E+04  (-0.1762709E+05)
 number of electron     408.0000000 magnetization       1.0000000
 augmentation part      408.0000000 magnetization       1.0000000

 Free energy of the ion-electron system (eV)
  ---------------------------------------------------
  alpha Z        PSCENC =       555.99566033
  Ewald energy   TEWEN  =    -10202.63633178
  -Hartree energ DENC   =     -1212.49302155
  -exchange      EXHF   =         0.00000000
  -V(xc)+E(xc)   XCENC  =      -846.49450645
  PAW double counting   =      8990.03884467    -7400.50093193
  entropy T*S    EENTRO =        -0.00127008
  eigenvalues    EBANDS =      1336.25739553
  atomic energy  EATOM  =     10640.12850283
  Solvation  Ediel_sol  =         0.00000000
  ---------------------------------------------------
  free energy    TOTEN  =      1860.29434157 eV

  energy without entropy =     1860.29561165  energy(sigma->0) =     1860.29497661


--------------------------------------------------------------------------------------------------------




--------------------------------------- Iteration      1(   2)  ---------------------------------------


     EDDAV:  cpu time     70.4662: real time     71.0565
       DOS:  cpu time      0.0032: real time      0.0032
    --------------------------------------------
      LOOP:  cpu time     70.4694: real time     71.0596

 eigenvalue-minimisations  :  9152
 total energy-change (2. order) :-0.2079390E+04  (-0.2016649E+04)
 number of electron     408.0000000 magnetization       1.0000000
 augmentation part      408.0000000 magnetization       1.0000000

 Free energy of the ion-electron system (eV)
  ---------------------------------------------------
  alpha Z        PSCENC =       555.99566033
  Ewald energy   TEWEN  =    -10202.63633178
  -Hartree energ DENC   =     -1212.49302155
  -exchange      EXHF   =         0.00000000
  -V(xc)+E(xc)   XCENC  =      -846.49450645
  PAW double counting   =      8990.03884467    -7400.50093193
  entropy T*S    EENTRO =        -0.00193394
  eigenvalues    EBANDS =      -743.13233720
  atomic energy  EATOM  =     10640.12850283
  Solvation  Ediel_sol  =         0.00000000
  ---------------------------------------------------
  free energy    TOTEN  =      -219.09605502 eV

  energy without entropy =     -219.09412108  energy(sigma->0) =     -219.09508805


--------------------------------------------------------------------------------------------------------




--------------------------------------- Iteration      1(   3)  ---------------------------------------


     EDDAV:  cpu time     73.6295: real time     74.2587
       DOS:  cpu time      0.0022: real time      0.0022
    --------------------------------------------
      LOOP:  cpu time     73.6317: real time     74.2610

 eigenvalue-minimisations  :  9680
 total energy-change (2. order) :-0.2060157E+03  (-0.1976054E+03)
 number of electron     408.0000000 magnetization       1.0000000
 augmentation part      408.0000000 magnetization       1.0000000

 Free energy of the ion-electron system (eV)
  ---------------------------------------------------
  alpha Z        PSCENC =       555.99566033
  Ewald energy   TEWEN  =    -10202.63633178
  -Hartree energ DENC   =     -1212.49302155
  -exchange      EXHF   =         0.00000000
  -V(xc)+E(xc)   XCENC  =      -846.49450645
  PAW double counting   =      8990.03884467    -7400.50093193
  entropy T*S    EENTRO =        -0.00197116
  eigenvalues    EBANDS =      -949.14803313
  atomic energy  EATOM  =     10640.12850283
  Solvation  Ediel_sol  =         0.00000000
  ---------------------------------------------------
  free energy    TOTEN  =      -425.11178817 eV

  energy without entropy =     -425.10981701  energy(sigma->0) =     -425.11080259


--------------------------------------------------------------------------------------------------------




--------------------------------------- Iteration      1(   4)  ---------------------------------------


     EDDAV:  cpu time     71.6184: real time     72.2136
       DOS:  cpu time      0.0022: real time      0.0022
    --------------------------------------------
      LOOP:  cpu time     71.6206: real time     72.2158

 eigenvalue-minimisations  :  9288
 total energy-change (2. order) :-0.8629315E+01  (-0.8391522E+01)
 number of electron     408.0000000 magnetization       1.0000000
 augmentation part      408.0000000 magnetization       1.0000000

 Free energy of the ion-electron system (eV)
  ---------------------------------------------------
  alpha Z        PSCENC =       555.99566033
  Ewald energy   TEWEN  =    -10202.63633178
  -Hartree energ DENC   =     -1212.49302155
  -exchange      EXHF   =         0.00000000
  -V(xc)+E(xc)   XCENC  =      -846.49450645
  PAW double counting   =      8990.03884467    -7400.50093193
  entropy T*S    EENTRO =        -0.00108663
  eigenvalues    EBANDS =      -957.77823315
  atomic energy  EATOM  =     10640.12850283
  Solvation  Ediel_sol  =         0.00000000
  ---------------------------------------------------
  free energy    TOTEN  =      -433.74110367 eV

  energy without entropy =     -433.74001703  energy(sigma->0) =     -433.74056035


--------------------------------------------------------------------------------------------------------




--------------------------------------- Iteration      1(   5)  ---------------------------------------


     EDDAV:  cpu time     80.5650: real time     81.2313
       DOS:  cpu time      0.0030: real time      0.0030
    CHARGE:  cpu time      3.6686: real time      3.7191
    MIXING:  cpu time      0.0224: real time      0.0226
    --------------------------------------------
      LOOP:  cpu time     84.2590: real time     84.9760

 eigenvalue-minimisations  : 10768
 total energy-change (2. order) :-0.3570485E+00  (-0.3542722E+00)
 number of electron     407.9999997 magnetization       1.0000000
 augmentation part      -52.9801130 magnetization      -0.0768799

 Broyden mixing:
  rms(total) = 0.24666E+01    rms(broyden)= 0.24666E+01
  rms(prec ) = 0.27297E+01
  weight for this iteration     100.00

 Free energy of the ion-electron system (eV)
  ---------------------------------------------------
  alpha Z        PSCENC =       555.99566033
  Ewald energy   TEWEN  =    -10202.63633178
  -Hartree energ DENC   =     -1212.49302155
  -exchange      EXHF   =         0.00000000
  -V(xc)+E(xc)   XCENC  =      -846.49450645
  PAW double counting   =      8990.03884467    -7400.50093193
  entropy T*S    EENTRO =        -0.00116840
  eigenvalues    EBANDS =      -958.13519993
  atomic energy  EATOM  =     10640.12850283
  Solvation  Ediel_sol  =         0.00000000
  ---------------------------------------------------
  free energy    TOTEN  =      -434.09815221 eV

  energy without entropy =     -434.09698381  energy(sigma->0) =     -434.09756801


--------------------------------------------------------------------------------------------------------




--------------------------------------- Iteration      1(   6)  ---------------------------------------


    POTLOK:  cpu time      0.7006: real time      0.7088
    SETDIJ:  cpu time      4.0910: real time      4.1094
     EDDAV:  cpu time     68.7855: real time     69.3602
       DOS:  cpu time      0.0038: real time      0.0038
    CHARGE:  cpu time      3.5898: real time      3.6120
    MIXING:  cpu time      0.0202: real time      0.0203
    --------------------------------------------
      LOOP:  cpu time     77.1908: real time     77.8145

 eigenvalue-minimisations  :  8872
 total energy-change (2. order) : 0.8675930E+01  (-0.2398488E+01)
 number of electron     407.9999997 magnetization       1.0000000
 augmentation part      -52.5004132 magnetization      -0.0669939

 Broyden mixing:
  rms(total) = 0.10795E+01    rms(broyden)= 0.10795E+01
  rms(prec ) = 0.12206E+01
  weight for this iteration     100.00

 eigenvalues of (default mixing * dielectric matrix)
  average eigenvalue GAMMA=   1.5375
  1.5375

 Free energy of the ion-electron system (eV)
  ---------------------------------------------------
  alpha Z        PSCENC =       555.99566033
  Ewald energy   TEWEN  =    -10202.63633178
  -Hartree energ DENC   =     -1320.35542554
  -exchange      EXHF   =         0.00000000
  -V(xc)+E(xc)   XCENC  =      -832.48915331
  PAW double counting   =     16352.43423862   -14770.62159906
  entropy T*S    EENTRO =        -0.00329910
  eigenvalues    EBANDS =      -847.87481503
  atomic energy  EATOM  =     10640.12850283
  Solvation  Ediel_sol  =         0.00000000
  ---------------------------------------------------
  free energy    TOTEN  =      -425.42222204 eV

  energy without entropy =     -425.41892294  energy(sigma->0) =     -425.42057249


--------------------------------------------------------------------------------------------------------




--------------------------------------- Iteration      1(   7)  ---------------------------------------


    POTLOK:  cpu time      0.7042: real time      0.7098
    SETDIJ:  cpu time      4.0952: real time      4.1136
     EDDAV:  cpu time     69.9733: real time     70.5539
       DOS:  cpu time      0.0029: real time      0.0029
    CHARGE:  cpu time      3.5955: real time      3.6181
    MIXING:  cpu time      0.0211: real time      0.0212
    --------------------------------------------
      LOOP:  cpu time     78.3922: real time     79.0195

 eigenvalue-minimisations  :  9096
 total energy-change (2. order) :-0.1302503E+00  (-0.1120592E+01)
 number of electron     407.9999997 magnetization       1.0000000
 augmentation part      -52.4058929 magnetization      -0.0708789

 Broyden mixing:
  rms(total) = 0.58137E+00    rms(broyden)= 0.58137E+00
  rms(prec ) = 0.84456E+00
  weight for this iteration     100.00

 eigenvalues of (default mixing * dielectric matrix)
  average eigenvalue GAMMA=   1.1517
  1.7421  0.5614

 Free energy of the ion-electron system (eV)
  ---------------------------------------------------
  alpha Z        PSCENC =       555.99566033
  Ewald energy   TEWEN  =    -10202.63633178
  -Hartree energ DENC   =     -1356.75644967
  -exchange      EXHF   =         0.00000000
  -V(xc)+E(xc)   XCENC  =      -825.41188286
  PAW double counting   =     21956.81888252   -20378.96706836
  entropy T*S    EENTRO =        -0.00198121
  eigenvalues    EBANDS =      -814.72180416
  atomic energy  EATOM  =     10640.12850283
  Solvation  Ediel_sol  =         0.00000000
  ---------------------------------------------------
  free energy    TOTEN  =      -425.55247236 eV

  energy without entropy =     -425.55049115  energy(sigma->0) =     -425.55148176


--------------------------------------------------------------------------------------------------------




--------------------------------------- Iteration      1(   8)  ---------------------------------------


    POTLOK:  cpu time      0.7004: real time      0.7060
    SETDIJ:  cpu time      4.0936: real time      4.1123
     EDDAV:  cpu time     71.3684: real time     71.9556
       DOS:  cpu time      0.0029: real time      0.0030
    CHARGE:  cpu time      3.6614: real time      3.6839
    MIXING:  cpu time      0.0232: real time      0.0234
    --------------------------------------------
      LOOP:  cpu time     79.8499: real time     80.4841

 eigenvalue-minimisations  :  9240
 total energy-change (2. order) : 0.5310463E+00  (-0.3106704E+00)
 number of electron     407.9999997 magnetization       1.0000000
 augmentation part      -52.3210983 magnetization      -0.0697922

 Broyden mixing:
  rms(total) = 0.20398E+00    rms(broyden)= 0.20398E+00
  rms(prec ) = 0.24597E+00
  weight for this iteration     100.00

 eigenvalues of (default mixing * dielectric matrix)
  average eigenvalue GAMMA=   1.0829
  1.7996  0.8159  0.6332

 Free energy of the ion-electron system (eV)
  ---------------------------------------------------
  alpha Z        PSCENC =       555.99566033
  Ewald energy   TEWEN  =    -10202.63633178
  -Hartree energ DENC   =     -1368.33271922
  -exchange      EXHF   =         0.00000000
  -V(xc)+E(xc)   XCENC  =      -822.87715989
  PAW double counting   =     24688.40621806   -23112.00166752
  entropy T*S    EENTRO =        -0.00224578
  eigenvalues    EBANDS =      -803.70168306
  atomic energy  EATOM  =     10640.12850283
  Solvation  Ediel_sol  =         0.00000000
  ---------------------------------------------------
  free energy    TOTEN  =      -425.02142604 eV

  energy without entropy =     -425.01918026  energy(sigma->0) =     -425.02030315


--------------------------------------------------------------------------------------------------------




--------------------------------------- Iteration      1(   9)  ---------------------------------------


    POTLOK:  cpu time      0.7020: real time      0.7072
    SETDIJ:  cpu time      4.0956: real time      4.1141
     EDDAV:  cpu time     70.2434: real time     70.8158
       DOS:  cpu time      0.0027: real time      0.0027
    CHARGE:  cpu time      3.6646: real time      3.6870
    MIXING:  cpu time      0.0238: real time      0.0240
    --------------------------------------------
      LOOP:  cpu time     78.7321: real time     79.3508

 eigenvalue-minimisations  :  9024
 total energy-change (2. order) : 0.9699040E-02  (-0.5152205E-01)
 number of electron     407.9999997 magnetization       1.0000000
 augmentation part      -52.3465606 magnetization      -0.0691451

 Broyden mixing:
  rms(total) = 0.10821E+00    rms(broyden)= 0.10821E+00
  rms(prec ) = 0.13253E+00
  weight for this iteration     100.00

 eigenvalues of (default mixing * dielectric matrix)
  average eigenvalue GAMMA=   1.0744
  1.7765  1.2198  0.7996  0.5017

 Free energy of the ion-electron system (eV)
  ---------------------------------------------------
  alpha Z        PSCENC =       555.99566033
  Ewald energy   TEWEN  =    -10202.63633178
  -Hartree energ DENC   =     -1368.09117238
  -exchange      EXHF   =         0.00000000
  -V(xc)+E(xc)   XCENC  =      -822.41230690
  PAW double counting   =     25596.00801560   -24019.96739010
  entropy T*S    EENTRO =        -0.00126953
  eigenvalues    EBANDS =      -804.03543506
  atomic energy  EATOM  =     10640.12850283
  Solvation  Ediel_sol  =         0.00000000
  ---------------------------------------------------
  free energy    TOTEN  =      -425.01172700 eV

  energy without entropy =     -425.01045747  energy(sigma->0) =     -425.01109223


--------------------------------------------------------------------------------------------------------




--------------------------------------- Iteration      1(  10)  ---------------------------------------


    POTLOK:  cpu time      0.7019: real time      0.7084
    SETDIJ:  cpu time      4.0949: real time      4.1137
     EDDAV:  cpu time     69.2883: real time     69.8536
       DOS:  cpu time      0.0023: real time      0.0023
    CHARGE:  cpu time      3.6258: real time      3.6481
    MIXING:  cpu time      0.0257: real time      0.0258
    --------------------------------------------
      LOOP:  cpu time     77.7389: real time     78.3520

 eigenvalue-minimisations  :  8944
 total energy-change (2. order) : 0.7657973E-02  (-0.1182382E-01)
 number of electron     407.9999997 magnetization       1.0000000
 augmentation part      -52.3665669 magnetization      -0.0689912

 Broyden mixing:
  rms(total) = 0.55395E-01    rms(broyden)= 0.55395E-01
  rms(prec ) = 0.62533E-01
  weight for this iteration     100.00

 eigenvalues of (default mixing * dielectric matrix)
  average eigenvalue GAMMA=   1.0867
  1.8013  1.4977  1.0367  0.5488  0.5488

 Free energy of the ion-electron system (eV)
  ---------------------------------------------------
  alpha Z        PSCENC =       555.99566033
  Ewald energy   TEWEN  =    -10202.63633178
  -Hartree energ DENC   =     -1366.11598085
  -exchange      EXHF   =         0.00000000
  -V(xc)+E(xc)   XCENC  =      -822.50486211
  PAW double counting   =     25876.07093415   -24300.07654128
  entropy T*S    EENTRO =        -0.00127801
  eigenvalues    EBANDS =      -805.86417232
  atomic energy  EATOM  =     10640.12850283
  Solvation  Ediel_sol  =         0.00000000
  ---------------------------------------------------
  free energy    TOTEN  =      -425.00406903 eV

  energy without entropy =     -425.00279101  energy(sigma->0) =     -425.00343002


--------------------------------------------------------------------------------------------------------




--------------------------------------- Iteration      1(  11)  ---------------------------------------


    POTLOK:  cpu time      0.7028: real time      0.7080
    SETDIJ:  cpu time      4.0779: real time      4.0962
     EDDAV:  cpu time     68.4848: real time     69.0344
       DOS:  cpu time      0.0023: real time      0.0023
    CHARGE:  cpu time      3.6233: real time      3.6448
    MIXING:  cpu time      0.0271: real time      0.0273
    --------------------------------------------
      LOOP:  cpu time     76.9182: real time     77.5129

 eigenvalue-minimisations  :  8816
 total energy-change (2. order) :-0.9171835E-03  (-0.2915771E-02)
 number of electron     407.9999997 magnetization       1.0000000
 augmentation part      -52.3641038 magnetization      -0.0692143

 Broyden mixing:
  rms(total) = 0.22815E-01    rms(broyden)= 0.22815E-01
  rms(prec ) = 0.27474E-01
  weight for this iteration     100.00

 eigenvalues of (default mixing * dielectric matrix)
  average eigenvalue GAMMA=   1.0711
  1.8291  1.5220  1.2728  0.6514  0.6514  0.5000

 Free energy of the ion-electron system (eV)
  ---------------------------------------------------
  alpha Z        PSCENC =       555.99566033
  Ewald energy   TEWEN  =    -10202.63633178
  -Hartree energ DENC   =     -1365.28643080
  -exchange      EXHF   =         0.00000000
  -V(xc)+E(xc)   XCENC  =      -822.56000232
  PAW double counting   =     26052.91236856   -24476.94516013
  entropy T*S    EENTRO =        -0.00119088
  eigenvalues    EBANDS =      -806.61240203
  atomic energy  EATOM  =     10640.12850283
  Solvation  Ediel_sol  =         0.00000000
  ---------------------------------------------------
  free energy    TOTEN  =      -425.00498621 eV

  energy without entropy =     -425.00379533  energy(sigma->0) =     -425.00439077


--------------------------------------------------------------------------------------------------------




--------------------------------------- Iteration      1(  12)  ---------------------------------------


    POTLOK:  cpu time      0.7032: real time      0.7091
    SETDIJ:  cpu time      4.0785: real time      4.0974
     EDDAV:  cpu time     70.6339: real time     71.2043
       DOS:  cpu time      0.0036: real time      0.0036
    CHARGE:  cpu time      3.6215: real time      3.6432
    MIXING:  cpu time      0.0270: real time      0.0272
    --------------------------------------------
      LOOP:  cpu time     79.0678: real time     79.6849

 eigenvalue-minimisations  :  9184
 total energy-change (2. order) : 0.6145565E-04  (-0.6007871E-03)
 number of electron     407.9999997 magnetization       1.0000000
 augmentation part      -52.3642073 magnetization      -0.0689331

 Broyden mixing:
  rms(total) = 0.13080E-01    rms(broyden)= 0.13080E-01
  rms(prec ) = 0.15521E-01
  weight for this iteration     100.00

 eigenvalues of (default mixing * dielectric matrix)
  average eigenvalue GAMMA=   1.0381
  1.7078  1.5386  1.5386  0.7033  0.7033  0.5054  0.5693

 Free energy of the ion-electron system (eV)
  ---------------------------------------------------
  alpha Z        PSCENC =       555.99566033
  Ewald energy   TEWEN  =    -10202.63633178
  -Hartree energ DENC   =     -1365.55748725
  -exchange      EXHF   =         0.00000000
  -V(xc)+E(xc)   XCENC  =      -822.53854310
  PAW double counting   =     26078.74833244   -24502.79735113
  entropy T*S    EENTRO =        -0.00131437
  eigenvalues    EBANDS =      -806.34639272
  atomic energy  EATOM  =     10640.12850283
  Solvation  Ediel_sol  =         0.00000000
  ---------------------------------------------------
  free energy    TOTEN  =      -425.00492476 eV

  energy without entropy =     -425.00361038  energy(sigma->0) =     -425.00426757


--------------------------------------------------------------------------------------------------------




--------------------------------------- Iteration      1(  13)  ---------------------------------------


    POTLOK:  cpu time      0.7016: real time      0.7072
    SETDIJ:  cpu time      4.0768: real time      4.0950
     EDDAV:  cpu time     69.6553: real time     70.2182
       DOS:  cpu time      0.0033: real time      0.0033
    CHARGE:  cpu time      3.6201: real time      3.6439
    MIXING:  cpu time      0.0276: real time      0.0278
    --------------------------------------------
      LOOP:  cpu time     78.0847: real time     78.6954

 eigenvalue-minimisations  :  9032
 total energy-change (2. order) : 0.3186482E-05  (-0.1385781E-03)
 number of electron     407.9999997 magnetization       1.0000000
 augmentation part      -52.3638827 magnetization      -0.0690173

 Broyden mixing:
  rms(total) = 0.68917E-02    rms(broyden)= 0.68917E-02
  rms(prec ) = 0.74385E-02
  weight for this iteration     100.00

 eigenvalues of (default mixing * dielectric matrix)
  average eigenvalue GAMMA=   1.0805
  1.9058  1.9058  1.4200  0.8805  0.8805  0.6387  0.5200  0.4930

 Free energy of the ion-electron system (eV)
  ---------------------------------------------------
  alpha Z        PSCENC =       555.99566033
  Ewald energy   TEWEN  =    -10202.63633178
  -Hartree energ DENC   =     -1365.81162270
  -exchange      EXHF   =         0.00000000
  -V(xc)+E(xc)   XCENC  =      -822.52795899
  PAW double counting   =     26067.73070497   -24491.78372585
  entropy T*S    EENTRO =        -0.00125100
  eigenvalues    EBANDS =      -806.09889939
  atomic energy  EATOM  =     10640.12850283
  Solvation  Ediel_sol  =         0.00000000
  ---------------------------------------------------
  free energy    TOTEN  =      -425.00492157 eV

  energy without entropy =     -425.00367057  energy(sigma->0) =     -425.00429607


--------------------------------------------------------------------------------------------------------




--------------------------------------- Iteration      1(  14)  ---------------------------------------


    POTLOK:  cpu time      0.7021: real time      0.7078
    SETDIJ:  cpu time      4.0777: real time      4.0959
     EDDAV:  cpu time     67.3873: real time     67.9239
       DOS:  cpu time      0.0023: real time      0.0023
    CHARGE:  cpu time      3.6791: real time      3.7014
    MIXING:  cpu time      0.0284: real time      0.0286
    --------------------------------------------
      LOOP:  cpu time     75.8769: real time     76.4599

 eigenvalue-minimisations  :  8632
 total energy-change (2. order) :-0.4129556E-04  (-0.3407686E-04)
 number of electron     407.9999997 magnetization       1.0000000
 augmentation part      -52.3629870 magnetization      -0.0689367

 Broyden mixing:
  rms(total) = 0.30624E-02    rms(broyden)= 0.30624E-02
  rms(prec ) = 0.32328E-02
  weight for this iteration     100.00

 eigenvalues of (default mixing * dielectric matrix)
  average eigenvalue GAMMA=   1.0769
  2.0169  2.0169  1.3015  1.1165  0.8086  0.8086  0.6382  0.5106  0.4740

 Free energy of the ion-electron system (eV)
  ---------------------------------------------------
  alpha Z        PSCENC =       555.99566033
  Ewald energy   TEWEN  =    -10202.63633178
  -Hartree energ DENC   =     -1365.91051158
  -exchange      EXHF   =         0.00000000
  -V(xc)+E(xc)   XCENC  =      -822.52543726
  PAW double counting   =     26066.04906718   -24490.10434223
  entropy T*S    EENTRO =        -0.00125432
  eigenvalues    EBANDS =      -806.00031603
  atomic energy  EATOM  =     10640.12850283
  Solvation  Ediel_sol  =         0.00000000
  ---------------------------------------------------
  free energy    TOTEN  =      -425.00496287 eV

  energy without entropy =     -425.00370854  energy(sigma->0) =     -425.00433570


--------------------------------------------------------------------------------------------------------




--------------------------------------- Iteration      1(  15)  ---------------------------------------


    POTLOK:  cpu time      0.7029: real time      0.7079
    SETDIJ:  cpu time      4.0870: real time      4.1055
     EDDAV:  cpu time     69.2024: real time     69.7585
       DOS:  cpu time      0.0023: real time      0.0023
    CHARGE:  cpu time      3.5897: real time      3.6120
    MIXING:  cpu time      0.0332: real time      0.0334
    --------------------------------------------
      LOOP:  cpu time     77.6175: real time     78.2196

 eigenvalue-minimisations  :  8928
 total energy-change (2. order) :-0.1313017E-04  (-0.8652703E-05)
 number of electron     407.9999997 magnetization       1.0000000
 augmentation part      -52.3628100 magnetization      -0.0689650

 Broyden mixing:
  rms(total) = 0.19120E-02    rms(broyden)= 0.19120E-02
  rms(prec ) = 0.21602E-02
  weight for this iteration     100.00

 eigenvalues of (default mixing * dielectric matrix)
  average eigenvalue GAMMA=   1.0567
  2.1003  2.0130  1.2933  1.2933  0.8874  0.8874  0.5923  0.5336  0.4833  0.4833

 Free energy of the ion-electron system (eV)
  ---------------------------------------------------
  alpha Z        PSCENC =       555.99566033
  Ewald energy   TEWEN  =    -10202.63633178
  -Hartree energ DENC   =     -1365.92352704
  -exchange      EXHF   =         0.00000000
  -V(xc)+E(xc)   XCENC  =      -822.52159277
  PAW double counting   =     26066.69529840   -24490.75170446
  entropy T*S    EENTRO =        -0.00125892
  eigenvalues    EBANDS =      -805.99002259
  atomic energy  EATOM  =     10640.12850283
  Solvation  Ediel_sol  =         0.00000000
  ---------------------------------------------------
  free energy    TOTEN  =      -425.00497600 eV

  energy without entropy =     -425.00371707  energy(sigma->0) =     -425.00434653


--------------------------------------------------------------------------------------------------------




--------------------------------------- Iteration      1(  16)  ---------------------------------------


    POTLOK:  cpu time      0.6999: real time      0.7052
    SETDIJ:  cpu time      4.0945: real time      4.1129
     EDDAV:  cpu time     68.4255: real time     68.9764
       DOS:  cpu time      0.0024: real time      0.0024
    CHARGE:  cpu time      3.7394: real time      3.7642
    MIXING:  cpu time      0.0350: real time      0.0353
    --------------------------------------------
      LOOP:  cpu time     76.9967: real time     77.5964

 eigenvalue-minimisations  :  8776
 total energy-change (2. order) :-0.7843249E-05  (-0.2349716E-05)
 number of electron     407.9999997 magnetization       1.0000000
 augmentation part      -52.3629160 magnetization      -0.0689638

 Broyden mixing:
  rms(total) = 0.74026E-03    rms(broyden)= 0.74019E-03
  rms(prec ) = 0.80796E-03
  weight for this iteration     100.00

 eigenvalues of (default mixing * dielectric matrix)
  average eigenvalue GAMMA=   1.0548
  2.2630  1.9178  1.3649  1.3649  0.8952  0.8952  0.7213  0.7213  0.5014  0.5014
  0.4560

 Free energy of the ion-electron system (eV)
  ---------------------------------------------------
  alpha Z        PSCENC =       555.99566033
  Ewald energy   TEWEN  =    -10202.63633178
  -Hartree energ DENC   =     -1365.93391802
  -exchange      EXHF   =         0.00000000
  -V(xc)+E(xc)   XCENC  =      -822.51872708
  PAW double counting   =     26066.47805358   -24490.53500767
[...]
   -.198E+02 -.401E+01 -.838E+01   0.195E+02 0.432E+01 0.717E+01   0.511E+00 -.558E+00 0.155E+01   -.530E-05 -.255E-04 -.481E-04
   0.707E+01 -.254E+02 0.121E+02   -.777E+01 0.245E+02 -.979E+01   0.726E+00 0.692E+00 -.238E+01   0.183E-06 -.157E-04 -.495E-04
   0.210E+02 -.108E+02 -.995E+01   -.206E+02 0.103E+02 0.849E+01   -.714E+00 0.316E+00 0.124E+01   0.109E-04 -.750E-05 -.378E-04
   -.251E+02 -.243E+02 0.131E+02   0.237E+02 0.232E+02 -.148E+02   0.139E+01 0.155E+01 0.119E+01   -.218E-05 -.173E-04 0.281E-05
   -.120E+02 -.219E+02 0.294E+02   0.117E+02 0.207E+02 -.295E+02   0.927E-01 0.152E+01 -.846E+00   -.422E-06 0.540E-04 0.103E-04
   -.136E+01 -.442E+00 0.217E+02   0.181E+01 0.423E-02 -.217E+02   0.869E-01 0.415E+00 -.840E-01   -.709E-06 0.323E-04 0.783E-05
   0.105E+00 -.299E-01 0.355E+00   0.935E-01 0.547E+00 -.559E+00   -.142E+00 -.755E-01 0.863E-01   0.506E-06 0.119E-04 0.157E-04
   0.600E+00 -.287E+01 -.236E+02   -.805E+00 0.242E+01 0.236E+02   0.262E+00 0.468E+00 0.788E-01   0.440E-05 0.722E-05 0.194E-04
   -.113E+02 -.197E+02 -.222E+02   0.112E+02 0.197E+02 0.219E+02   0.727E+00 0.101E+01 0.204E+00   -.515E-05 0.656E-05 0.530E-05
   0.111E+02 -.236E+02 0.235E+02   -.114E+02 0.232E+02 -.237E+02   0.822E-01 0.114E+01 -.425E+00   -.479E-06 -.127E-04 -.143E-04
   -.266E+01 -.441E+00 0.224E+02   0.281E+01 -.108E-01 -.225E+02   -.251E-01 0.459E+00 0.479E-01   0.595E-05 -.199E-04 0.272E-04
   -.501E+00 -.449E+00 -.305E+00   0.760E+00 0.861E+00 0.492E+00   -.131E+00 -.282E+00 -.265E+00   -.482E-05 -.116E-04 0.404E-04
   -.735E+00 -.115E+01 -.187E+02   0.530E+00 0.125E+01 0.187E+02   0.135E+00 0.270E+00 -.167E+00   0.739E-05 -.108E-04 0.387E-04
   -.938E+01 -.115E+02 -.409E+02   0.982E+01 0.116E+02 0.412E+02   0.365E+00 0.191E+00 0.722E+00   -.132E-05 -.397E-05 0.177E-04
   0.337E+01 -.184E+02 0.436E+02   -.354E+01 0.191E+02 -.439E+02   0.363E+00 0.277E+00 -.550E+00   0.356E-05 -.151E-04 0.134E-04
   -.312E+01 -.236E+01 0.202E+02   0.325E+01 0.242E+01 -.203E+02   0.145E+00 0.555E-01 0.264E+00   -.320E-05 -.115E-04 0.615E-04
   -.501E-01 -.202E+00 -.473E+00   0.296E+00 0.669E+00 0.412E+00   -.117E+00 -.143E+00 0.594E-01   0.194E-05 0.383E-05 0.427E-04
   0.382E+01 -.157E+01 -.190E+02   -.385E+01 0.149E+01 0.194E+02   -.647E-01 0.370E+00 -.574E+00   0.882E-05 0.796E-05 0.403E-04
   -.217E+02 -.104E+02 -.345E+02   0.225E+02 0.112E+02 0.350E+02   -.202E+00 0.197E+00 0.352E+00   -.109E-04 0.952E-05 0.293E-04
   0.337E+01 -.184E+02 0.436E+02   -.354E+01 0.191E+02 -.439E+02   0.363E+00 0.277E+00 -.550E+00   0.130E-05 -.137E-04 0.140E-04
   -.312E+01 -.236E+01 0.202E+02   0.325E+01 0.242E+01 -.203E+02   0.145E+00 0.555E-01 0.264E+00   0.266E-06 -.102E-04 0.600E-04
   -.501E-01 -.202E+00 -.473E+00   0.296E+00 0.669E+00 0.412E+00   -.117E+00 -.143E+00 0.594E-01   0.387E-05 0.565E-05 0.425E-04
   0.382E+01 -.157E+01 -.190E+02   -.385E+01 0.149E+01 0.194E+02   -.647E-01 0.370E+00 -.574E+00   0.621E-05 0.992E-05 0.378E-04
   -.217E+02 -.104E+02 -.345E+02   0.225E+02 0.112E+02 0.350E+02   -.202E+00 0.197E+00 0.352E+00   -.128E-04 0.762E-05 0.310E-04
   -.120E+02 -.219E+02 0.294E+02   0.117E+02 0.207E+02 -.295E+02   0.927E-01 0.152E+01 -.846E+00   -.206E-05 0.556E-04 0.124E-04
   -.136E+01 -.442E+00 0.217E+02   0.181E+01 0.423E-02 -.217E+02   0.869E-01 0.415E+00 -.840E-01   -.391E-06 0.306E-04 0.644E-05
   0.105E+00 -.299E-01 0.355E+00   0.935E-01 0.547E+00 -.559E+00   -.142E+00 -.755E-01 0.863E-01   -.174E-05 0.120E-04 0.151E-04
   0.600E+00 -.287E+01 -.236E+02   -.805E+00 0.242E+01 0.236E+02   0.262E+00 0.468E+00 0.788E-01   0.286E-05 0.637E-05 0.181E-04
   -.113E+02 -.197E+02 -.222E+02   0.112E+02 0.197E+02 0.219E+02   0.727E+00 0.101E+01 0.204E+00   -.484E-05 0.683E-05 0.633E-05
   0.111E+02 -.236E+02 0.235E+02   -.114E+02 0.232E+02 -.237E+02   0.822E-01 0.114E+01 -.425E+00   -.355E-06 -.118E-04 -.137E-04
   -.266E+01 -.441E+00 0.224E+02   0.281E+01 -.108E-01 -.225E+02   -.251E-01 0.459E+00 0.479E-01   0.740E-05 -.193E-04 0.279E-04
   -.501E+00 -.449E+00 -.305E+00   0.760E+00 0.861E+00 0.492E+00   -.131E+00 -.282E+00 -.265E+00   -.404E-05 -.117E-04 0.399E-04
   -.735E+00 -.115E+01 -.187E+02   0.530E+00 0.125E+01 0.187E+02   0.135E+00 0.270E+00 -.167E+00   0.399E-05 -.885E-05 0.372E-04
   -.938E+01 -.115E+02 -.409E+02   0.982E+01 0.116E+02 0.412E+02   0.365E+00 0.191E+00 0.722E+00   -.696E-06 -.253E-05 0.198E-04
   -.245E+02 0.237E+02 0.153E+02   0.242E+02 -.236E+02 -.158E+02   0.882E+00 -.122E+01 -.113E+00   -.289E-05 0.943E-05 -.124E-04
   0.130E+02 0.115E+02 0.448E+02   -.137E+02 -.122E+02 -.457E+02   -.164E-01 0.271E-01 0.205E+00   0.314E-05 -.592E-05 -.811E-05
   0.189E+01 -.732E+00 0.974E+01   -.191E+01 0.947E+00 -.989E+01   -.468E-01 -.320E+00 -.431E-01   -.256E-05 -.126E-04 0.194E-04
   -.135E+01 0.101E+01 -.106E+02   0.160E+01 -.125E+01 0.109E+02   -.175E+00 0.254E+00 -.338E+00   -.263E-05 -.109E-04 0.387E-04
   0.584E+01 0.199E+02 -.393E+02   -.591E+01 -.202E+02 0.394E+02   0.296E-01 -.524E+00 0.638E+00   0.462E-05 -.132E-04 0.220E-04
   -.132E+01 -.616E+00 -.269E+02   0.106E+01 0.432E+00 0.271E+02   -.736E+00 0.512E+00 0.122E+01   -.126E-04 -.972E-05 0.578E-05
   -.896E+00 0.109E+02 0.193E+02   0.156E+01 -.107E+02 -.197E+02   -.152E+00 -.442E+00 -.450E+00   0.102E-04 -.401E-04 -.124E-04
   0.614E+01 0.130E+02 0.383E+02   -.619E+01 -.131E+02 -.386E+02   -.692E+00 -.332E+00 -.102E+01   -.105E-04 -.274E-04 0.370E-04
   0.260E+01 -.528E+00 0.114E+02   -.293E+01 0.892E-01 -.116E+02   0.191E+00 0.745E-01 0.431E-01   0.811E-05 -.762E-05 0.590E-04
   -.119E+01 0.197E+01 -.111E+02   0.117E+01 -.229E+01 0.111E+02   -.730E-01 0.160E+00 0.290E-02   -.565E-05 -.571E-05 0.410E-04
   0.572E+00 0.159E+02 -.458E+02   -.687E+00 -.165E+02 0.459E+02   0.839E-02 -.433E+00 0.389E+00   0.284E-05 -.344E-05 0.288E-04
   0.197E+02 -.216E+02 0.127E+02   -.195E+02 0.232E+02 -.187E+02   -.313E+00 0.580E+01 -.118E+02   -.926E-07 0.118E-04 0.832E-05
   -.151E+02 0.514E+01 0.346E+02   0.159E+02 -.509E+01 -.354E+02   0.103E+00 -.192E+00 -.901E+00   0.558E-05 0.944E-05 0.581E-05
   0.160E+02 0.122E+02 0.347E+02   -.163E+02 -.124E+02 -.349E+02   -.426E+00 -.528E+00 -.392E+00   -.641E-05 0.335E-04 0.255E-04
   0.231E+01 0.336E+00 0.124E+02   -.219E+01 -.439E-01 -.121E+02   -.182E+00 -.247E+00 -.453E+00   0.852E-05 0.233E-04 0.206E-04
   -.208E+01 0.109E+01 -.114E+02   0.197E+01 -.144E+01 0.116E+02   0.126E-01 0.296E-01 -.187E+00   -.408E-05 0.790E-05 0.113E-04
   -.244E+01 0.201E+02 -.385E+02   0.213E+01 -.205E+02 0.387E+02   0.801E-01 -.312E+00 0.619E+00   -.594E-05 0.678E-05 0.200E-04
   0.245E+02 -.385E+01 -.357E+02   -.249E+02 0.521E+01 0.364E+02   -.132E+00 -.793E+00 0.154E+01   0.696E-05 0.371E-05 -.337E-05
   -.151E+02 0.514E+01 0.346E+02   0.159E+02 -.509E+01 -.354E+02   0.103E+00 -.192E+00 -.901E+00   0.398E-05 0.108E-04 0.801E-05
   0.160E+02 0.122E+02 0.347E+02   -.163E+02 -.124E+02 -.349E+02   -.426E+00 -.528E+00 -.392E+00   -.803E-05 0.308E-04 0.270E-04
   0.231E+01 0.336E+00 0.124E+02   -.219E+01 -.439E-01 -.121E+02   -.182E+00 -.247E+00 -.453E+00   0.844E-05 0.215E-04 0.200E-04
   -.208E+01 0.109E+01 -.114E+02   0.197E+01 -.144E+01 0.116E+02   0.126E-01 0.296E-01 -.187E+00   -.568E-05 0.904E-05 0.106E-04
   -.244E+01 0.201E+02 -.385E+02   0.213E+01 -.205E+02 0.387E+02   0.801E-01 -.312E+00 0.619E+00   -.538E-05 0.763E-05 0.200E-04
   0.245E+02 -.385E+01 -.357E+02   -.249E+02 0.521E+01 0.364E+02   -.132E+00 -.793E+00 0.154E+01   0.964E-05 0.406E-05 -.172E-05
   -.245E+02 0.237E+02 0.153E+02   0.242E+02 -.236E+02 -.158E+02   0.882E+00 -.122E+01 -.113E+00   -.294E-05 0.102E-04 -.111E-04
   0.130E+02 0.115E+02 0.448E+02   -.137E+02 -.122E+02 -.457E+02   -.164E-01 0.271E-01 0.205E+00   0.410E-05 -.420E-05 -.720E-05
   0.189E+01 -.732E+00 0.974E+01   -.191E+01 0.947E+00 -.989E+01   -.468E-01 -.320E+00 -.431E-01   -.203E-06 -.117E-04 0.186E-04
   -.135E+01 0.101E+01 -.106E+02   0.160E+01 -.125E+01 0.109E+02   -.175E+00 0.254E+00 -.338E+00   -.351E-05 -.999E-05 0.388E-04
   0.584E+01 0.199E+02 -.393E+02   -.591E+01 -.202E+02 0.394E+02   0.296E-01 -.524E+00 0.638E+00   0.289E-05 -.108E-04 0.229E-04
   -.132E+01 -.616E+00 -.269E+02   0.106E+01 0.432E+00 0.271E+02   -.736E+00 0.512E+00 0.122E+01   -.787E-05 -.945E-05 0.708E-05
   -.896E+00 0.109E+02 0.193E+02   0.156E+01 -.107E+02 -.197E+02   -.152E+00 -.442E+00 -.450E+00   0.760E-05 -.392E-04 -.128E-04
   0.614E+01 0.130E+02 0.383E+02   -.619E+01 -.131E+02 -.386E+02   -.692E+00 -.332E+00 -.102E+01   -.101E-04 -.260E-04 0.357E-04
   0.260E+01 -.528E+00 0.114E+02   -.293E+01 0.892E-01 -.116E+02   0.191E+00 0.745E-01 0.431E-01   0.122E-04 -.925E-05 0.582E-04
   -.119E+01 0.197E+01 -.111E+02   0.117E+01 -.229E+01 0.111E+02   -.730E-01 0.160E+00 0.290E-02   -.846E-05 -.506E-05 0.401E-04
   0.572E+00 0.159E+02 -.458E+02   -.687E+00 -.165E+02 0.459E+02   0.839E-02 -.433E+00 0.389E+00   -.121E-05 -.439E-05 0.270E-04
   0.197E+02 -.216E+02 0.127E+02   -.195E+02 0.232E+02 -.187E+02   -.313E+00 0.580E+01 -.118E+02   0.363E-06 0.885E-05 0.967E-05
 -----------------------------------------------------------------------------------------------
   0.561E+01 0.670E+00 -.105E+02   0.284E-13 -.121E-12 -.405E-12   -.551E+01 -.653E+00 0.104E+02   -.147E-04 0.454E-04 0.223E-03
 
 
 POSITION                                       TOTAL-FORCE (eV/Angst)
 -----------------------------------------------------------------------------------
     -4.47440     10.00507      0.00000        -0.285154     -0.762392      0.628962
      1.11860      6.50329      1.22537         0.111143      0.335159      0.247975
      6.71160      3.00152      2.45073         0.179265      0.001543      0.129161
     -2.23720      5.00253      0.00000        -0.463298     -7.290090     19.150835
      3.35580      1.50076      1.22537         0.107160     -0.081265      0.211954
      2.23720     13.00659      2.45073        -0.015282      0.542962      0.009320
      0.00000      0.00000      0.00000         0.061582      0.183468     -0.284683
     -1.11860     11.50583      1.22537         0.605444      0.443615     -0.609807
      4.47440      8.00405      2.45073        -0.017173      0.211073      0.043244
      2.23720     10.00507      0.00000        -0.285154     -0.762392      0.628962
      7.83020      6.50329      1.22537         0.111143      0.335159      0.247975
      0.00000      3.00152      2.45073         0.179265      0.001543      0.129161
      4.47440      5.00253      0.00000        -0.463298     -7.290090     19.150835
     10.06740      1.50076      1.22537         0.107160     -0.081265      0.211954
     -4.47440     13.00659      2.45073        -0.015282      0.542962      0.009320
      6.71160      0.00000      0.00000         0.061582      0.183468     -0.284683
      5.59300     11.50583      1.22537         0.605444      0.443615     -0.609807
     -2.23720      8.00405      2.45073        -0.017173      0.211073      0.043244
     -3.35580     12.00608      0.61268        -0.151144     -0.147226     -0.270168
      2.23720      8.50431      1.83805        -0.369677     -0.356166     -0.433480
      7.83020      5.00253      3.06341        -0.027401      0.269551     -0.066587
     -1.11860      7.00355      0.61268         0.430025     -0.331162      0.409494
      4.47440      3.50177      1.83805        -0.413817     -0.385009      0.406483
     10.06740      0.00000      3.06341         0.183337     -0.248813      0.335269
      1.11860      2.00101      0.61268         0.024217     -0.166092     -0.013883
      0.00000     13.50684      1.83805        -0.316631     -0.162723     -0.226016
      5.59300     10.00507      3.06341        -0.078490      0.450444     -0.501417
      3.35580     12.00608      0.61268        -0.151144     -0.147226     -0.270168
      8.94880      8.50431      1.83805        -0.369677     -0.356166     -0.433480
      1.11860      5.00253      3.06341        -0.027401      0.269551     -0.066587
      5.59300      7.00355      0.61268         0.430025     -0.331162      0.409494
     11.18600      3.50177      1.83805        -0.413817     -0.385009      0.406483
      3.35580      0.00000      3.06341         0.183337     -0.248813      0.335269
      7.83020      2.00101      0.61268         0.024217     -0.166092     -0.013883
      6.71160     13.50684      1.83805        -0.316631     -0.162723     -0.226016
     -1.11860     10.00507      3.06341        -0.078490      0.450444     -0.501417
      2.30033      5.16980      5.29622        -0.230578      0.243061     -0.974360
     -1.05547      6.67056      6.56183         0.538984     -0.023412     -0.029412
      9.01193      8.17131      7.82745         0.055640      0.441690     -0.116916
      5.65613      9.67207      9.09306         0.055688      0.013551      0.081027
      2.30033     11.17283     10.35868         0.634659      0.982662     -0.107547
      4.53753     10.17233      5.29622        -0.182295      0.737055     -0.642725
      1.18173     11.67309      6.56183         0.117981      0.006275     -0.013270
     -2.17407     13.17385      7.82745         0.126707      0.129383     -0.077214
     -5.52987     14.67461      9.09306        -0.070768      0.366724     -0.179508
     11.24913      1.16777     10.35868         0.805443      0.337249      1.035663
      0.06313      0.16726      5.29622         0.190874      0.933575     -0.826455
     10.13053      1.66802      6.56183         0.265746      0.122793      0.101650
      6.77473      3.16878      7.82745         0.128060      0.323874     -0.001645
      3.41893      4.66954      9.09306        -0.088061      0.291890     -0.251481
      0.06313      6.17030     10.35868         0.651922      0.947028      0.892399
      6.77473      0.16726      5.29622         0.190874      0.933575     -0.826455
      3.41893      1.66802      6.56183         0.265746      0.122793      0.101650
      0.06313      3.16878      7.82745         0.128060      0.323874     -0.001645
     10.13053      4.66954      9.09306        -0.088061      0.291890     -0.251481
      6.77473      6.17030     10.35868         0.651922      0.947028      0.892399
      9.01193      5.16980      5.29622        -0.230578      0.243061     -0.974360
      5.65613      6.67056      6.56183         0.538984     -0.023412     -0.029412
      2.30033      8.17131      7.82745         0.055640      0.441690     -0.116916
     -1.05547      9.67207      9.09306         0.055688      0.013551      0.081027
     -4.41127     11.17283     10.35868         0.634659      0.982662     -0.107547
     -2.17407     10.17233      5.29622        -0.182295      0.737055     -0.642725
      7.89333     11.67309      6.56183         0.117981      0.006275     -0.013270
      4.53753     13.17385      7.82745         0.126707      0.129383     -0.077214
      1.18173     14.67461      9.09306        -0.070768      0.366724     -0.179508
      4.53753      1.16777     10.35868         0.805443      0.337249      1.035663
      5.65613      8.17131      4.66341         0.582483     -1.094868     -0.565126
      2.30033      9.67207      5.92903        -0.693250     -0.654967     -0.654881
     -1.05547     11.17283      7.19464        -0.070843     -0.105105     -0.191212
     -4.41127     12.67359      8.46026         0.067861      0.009973      0.029175
      5.65613     14.17435      9.72587        -0.039504     -0.735547      0.811296
      9.01193      0.66752     10.99149        -0.991181      0.328429      1.411048
     -5.52987     13.17385      4.66341         0.511791     -0.216273     -0.908184
      4.53753     14.67461      5.92903        -0.742733     -0.409534     -1.311629
      7.89333      1.16777      7.19464        -0.140045     -0.364488     -0.168686
      4.53753      2.66853      8.46026        -0.089740     -0.162431      0.046532
      1.18173      4.16929      9.72587        -0.108072     -1.037035      0.533234
     -2.17407      5.67005     10.99149        -0.097832      7.380250    -17.803868
      3.41893      3.16878      4.66341         0.910425     -0.147260     -1.627572
      0.06313      4.66954      5.92903        -0.723938     -0.678743     -0.611034
     10.13053      6.17030      7.19464        -0.069086      0.045295     -0.112878
      6.77473      7.67106      8.46026        -0.104395     -0.318003      0.008087
      3.41893      9.17182      9.72587        -0.235413     -0.764731      0.841506
      0.06313     10.67258     10.99149        -0.530638      0.564759      2.217330
     10.13053      3.16878      4.66341         0.910425     -0.147260     -1.627572
      6.77473      4.66954      5.92903        -0.723938     -0.678743     -0.611034
      3.41893      6.17030      7.19464        -0.069086      0.045295     -0.112878
      0.06313      7.67106      8.46026        -0.104395     -0.318003      0.008087
     -3.29267      9.17182      9.72587        -0.235413     -0.764731      0.841506
      6.77473     10.67258     10.99149        -0.530638      0.564759      2.217330
     -1.05547      8.17131      4.66341         0.582483     -1.094868     -0.565126
      9.01193      9.67207      5.92903        -0.693250     -0.654967     -0.654881
      5.65613     11.17283      7.19464        -0.070843     -0.105105     -0.191212
      2.30033     12.67359      8.46026         0.067861      0.009973      0.029175
     -1.05547     14.17435      9.72587        -0.039504     -0.735547      0.811296
      2.30033      0.66752     10.99149        -0.991181      0.328429      1.411048
      1.18173     13.17385      4.66341         0.511791     -0.216273     -0.908184
     -2.17407     14.67461      5.92903        -0.742733     -0.409534     -1.311629
      1.18173      1.16777      7.19464        -0.140045     -0.364488     -0.168686
     11.24913      2.66853      8.46026        -0.089740     -0.162431      0.046532
      7.89333      4.16929      9.72587        -0.108072     -1.037035      0.533234
      4.53753      5.67005     10.99149        -0.097832      7.380250    -17.803868
 -----------------------------------------------------------------------------------
    total drift:                                0.102235      0.016781     -0.058552


--------------------------------------------------------------------------------------------------------



  FREE ENERGIE OF THE ION-ELECTRON SYSTEM (eV)
  ---------------------------------------------------
  free  energy   TOTEN  =      -425.00498604 eV

  energy  without entropy=     -425.00373096  energy(sigma->0) =     -425.00435850
 


--------------------------------------------------------------------------------------------------------


    POTLOK:  cpu time      4.7978: real time      4.8243


--------------------------------------------------------------------------------------------------------


     LOOP+:  cpu time   1633.4925: real time   1648.1929
    4ORBIT:  cpu time      0.0000: real time      0.0000

 total amount of memory used by VASP MPI-rank0   562885. kBytes
=======================================================================

   base      :      30000. kBytes
   nonlr-proj:       6219. kBytes
   fftplans  :      62647. kBytes
   grid      :      39543. kBytes
   one-center:        113. kBytes
   wavefun   :     424363. kBytes
 
  
  
 General timing and accounting informations for this job:
 ========================================================
  
                  Total CPU time used (sec):     1693.855
                            User time (sec):     1575.144
                          System time (sec):      118.710
                         Elapsed time (sec):     1711.471
  
                   Maximum memory used (kb):      839376.
                   Average memory used (kb):          N/A
  
                          Minor page faults:       266238
                          Major page faults:           45
                 Voluntary context switches:         1371
