<?xml version="1.0" encoding="ISO-8859-1"?>
<modeling>
 <generator>
  <i name="program" type="string">vasp </i>
  <i name="version" type="string">6.4.3  </i>
  <i name="subversion" type="string">19Mar24 (build Oct 22 2024 11:23:12) complex                          parallel </i>
  <i name="platform" type="string">LinuxIFC </i>
  <i name="date" type="string">2025 04 30 </i>
  <i name="time" type="string">03:08:14 </i>
 </generator>
 <incar>
  <i type="string" name="SYSTEM">Si012 and Ge012 interface calculation</i>
  <i type="int" name="ISTART">     0</i>
  <i type="logical" name="ADDGRID"> T  </i>
  <i type="int" name="ISPIN">     2</i>
  <i name="AMIX">      0.60000000</i>
  <i type="int" name="ICHARG">     2</i>
  <i type="int" name="NELM">   100</i>
  <i name="EDIFF">      0.00000010</i>
  <i name="ENCUT">    700.00000000</i>
  <i name="ENAUG">    900.00000000</i>
  <i type="int" name="NBANDS">   245</i>
  <i name="NUPDOWN">      1.00000000</i>
  <i name="NELECT">    408.00000000</i>
  <i type="string" name="LREAL">AUTO</i>
  <i type="int" name="ISMEAR">     0</i>
  <i name="SIGMA">      0.01000000</i>
  <i type="int" name="LMAXMIX">     6</i>
  <i type="logical" name="LWAVE"> F  </i>
  <i type="logical" name="LVTOT"> F  </i>
  <i type="logical" name="LVHAR"> T  </i>
  <i type="logical" name="LASPH"> T  </i>
  <i type="logical" name="LMIXTAU"> T  </i>
 </incar>
 <primitive_cell>
  <structure name="primitive_cell" >
   <crystal>
    <varray name="basis" >
     <v>      -6.71160190       0.00000000       0.00000000 </v>
     <v>       0.00000000       0.00000000      12.59148550 </v>
     <v>       0.00000000      15.00759808       0.00000000 </v>
    </varray>
    <i name="volume">   1268.27767574 </i>
    <varray name="rec_basis" >
     <v>      -0.14899573       0.00000000       0.00000000 </v>
     <v>       0.00000000       0.00000000       0.07941875 </v>
     <v>       0.00000000       0.06663291       0.00000000 </v>
    </varray>
   </crystal>
   <varray name="positions" >
    <v>       0.66666667       0.00000000       0.66666667 </v>
    <v>       0.83333333       0.09731697       0.43333333 </v>
    <v>       0.00000000       0.19463394       0.20000000 </v>
    <v>       0.33333333       0.00000000       0.33333333 </v>
    <v>       0.50000000       0.09731697       0.10000000 </v>
    <v>       0.66666667       0.19463394       0.86666667 </v>
    <v>       0.00000000       0.00000000       0.00000000 </v>
    <v>       0.16666667       0.09731697       0.76666667 </v>
    <v>       0.33333333       0.19463394       0.53333333 </v>
    <v>       0.50000000       0.04865849       0.80000000 </v>
    <v>       0.66666667       0.14597546       0.56666667 </v>
    <v>       0.83333333       0.24329243       0.33333333 </v>
    <v>       0.16666667       0.04865849       0.46666667 </v>
    <v>       0.33333333       0.14597546       0.23333333 </v>
    <v>       0.50000000       0.24329243       0.00000000 </v>
    <v>       0.83333333       0.04865849       0.13333333 </v>
    <v>       1.00000000       0.14597546       0.90000000 </v>
    <v>       0.16666667       0.24329243       0.66666667 </v>
    <v>       0.65726048       0.42061918       0.34447853 </v>
    <v>       0.15726048       0.52113270       0.44447853 </v>
    <v>       0.65726048       0.62164622       0.54447853 </v>
    <v>       0.15726048       0.72215973       0.64447853 </v>
    <v>       0.65726048       0.82267325       0.74447853 </v>
    <v>       0.32392715       0.42061918       0.67781186 </v>
    <v>       0.82392715       0.52113270       0.77781186 </v>
    <v>       0.32392715       0.62164622       0.87781186 </v>
    <v>       0.82392715       0.72215973       0.97781186 </v>
    <v>       0.32392715       0.82267325       0.07781186 </v>
    <v>       0.99059382       0.42061918       0.01114519 </v>
    <v>       0.49059382       0.52113270       0.11114519 </v>
    <v>       0.99059382       0.62164622       0.21114519 </v>
    <v>       0.49059382       0.72215973       0.31114519 </v>
    <v>       0.99059382       0.82267325       0.41114519 </v>
    <v>       0.15726048       0.37036243       0.54447853 </v>
    <v>       0.65726048       0.47087594       0.64447853 </v>
    <v>       0.15726048       0.57138946       0.74447853 </v>
    <v>       0.65726048       0.67190297       0.84447853 </v>
    <v>       0.15726048       0.77241649       0.94447853 </v>
    <v>       0.65726048       0.87293001       0.04447853 </v>
    <v>       0.82392715       0.37036243       0.87781186 </v>
    <v>       0.32392715       0.47087594       0.97781186 </v>
    <v>       0.82392715       0.57138946       0.07781186 </v>
    <v>       0.32392715       0.67190297       0.17781186 </v>
    <v>       0.82392715       0.77241649       0.27781186 </v>
    <v>       0.32392715       0.87293001       0.37781186 </v>
    <v>       0.49059382       0.37036243       0.21114519 </v>
    <v>       0.99059382       0.47087594       0.31114519 </v>
    <v>       0.49059382       0.57138946       0.41114519 </v>
    <v>       0.99059382       0.67190297       0.51114519 </v>
    <v>       0.49059382       0.77241649       0.61114519 </v>
    <v>       0.99059382       0.87293001       0.71114519 </v>
   </varray>
  </structure>
  <varray name="primitive_index" >
   <v type="int" >        1 </v>
   <v type="int" >       11 </v>
   <v type="int" >       12 </v>
   <v type="int" >        4 </v>
   <v type="int" >       14 </v>
   <v type="int" >       15 </v>
   <v type="int" >        7 </v>
   <v type="int" >       17 </v>
   <v type="int" >       18 </v>
   <v type="int" >       19 </v>
   <v type="int" >       29 </v>
   <v type="int" >       21 </v>
   <v type="int" >       22 </v>
   <v type="int" >       32 </v>
   <v type="int" >       24 </v>
   <v type="int" >       25 </v>
   <v type="int" >       35 </v>
   <v type="int" >       27 </v>
   <v type="int" >       57 </v>
   <v type="int" >       38 </v>
   <v type="int" >       39 </v>
   <v type="int" >       60 </v>
   <v type="int" >       61 </v>
   <v type="int" >       62 </v>
   <v type="int" >       63 </v>
   <v type="int" >       64 </v>
   <v type="int" >       45 </v>
   <v type="int" >       46 </v>
   <v type="int" >       47 </v>
   <v type="int" >       48 </v>
   <v type="int" >       54 </v>
   <v type="int" >       55 </v>
   <v type="int" >       51 </v>
   <v type="int" >       91 </v>
   <v type="int" >       92 </v>
   <v type="int" >       93 </v>
   <v type="int" >       70 </v>
   <v type="int" >       71 </v>
   <v type="int" >       96 </v>
   <v type="int" >       73 </v>
   <v type="int" >       74 </v>
   <v type="int" >       99 </v>
   <v type="int" >      100 </v>
   <v type="int" >       77 </v>
   <v type="int" >       78 </v>
   <v type="int" >       85 </v>
   <v type="int" >       80 </v>
   <v type="int" >       81 </v>
   <v type="int" >       82 </v>
   <v type="int" >       89 </v>
   <v type="int" >       90 </v>
  </varray>
 </primitive_cell>
 <kpoints>
  <generation param="Gamma">
   <v type="int" name="divisions">       3        2        2 </v>
   <v name="usershift">      0.00000000       0.00000000       0.00000000 </v>
   <v name="genvec1">      0.33333333      -0.00000000       0.00000000 </v>
   <v name="genvec2">      0.00000000       0.50000000       0.00000000 </v>
   <v name="genvec3">      0.00000000       0.00000000       0.50000000 </v>
   <v name="shift">      0.00000000       0.00000000       0.00000000 </v>
  </generation>
  <varray name="kpointlist" >
   <v>       0.00000000       0.00000000       0.00000000 </v>
   <v>       0.33333333      -0.00000000       0.00000000 </v>
   <v>       0.00000000       0.50000000       0.00000000 </v>
   <v>       0.33333333       0.50000000       0.00000000 </v>
   <v>       0.00000000       0.00000000       0.50000000 </v>
   <v>       0.33333333      -0.00000000       0.50000000 </v>
   <v>       0.00000000       0.50000000       0.50000000 </v>
   <v>       0.33333333       0.50000000       0.50000000 </v>
  </varray>
  <varray name="weights" >
   <v>       0.08333333 </v>
   <v>       0.16666667 </v>
   <v>       0.08333333 </v>
   <v>       0.16666667 </v>
   <v>       0.08333333 </v>
   <v>       0.16666667 </v>
   <v>       0.08333333 </v>
   <v>       0.16666667 </v>
  </varray>
 </kpoints>
 <parameters>
  <separator name="general" >
   <i type="string" name="SYSTEM">Si012 and Ge012 interface calculation</i>
   <i type="logical" name="LCOMPAT"> F  </i>
  </separator>
  <separator name="electronic" >
   <i type="string" name="PREC">normal</i>
   <i name="ENMAX">    700.00000000</i>
   <i name="ENAUG">    900.00000000</i>
   <i name="EDIFF">      0.00000010</i>
   <i type="int" name="IALGO">    38</i>
   <i type="int" name="IWAVPR">    10</i>
   <i type="int" name="NBANDS">   245</i>
   <i type="int" name="NBANDSLOW">    -1</i>
   <i type="int" name="NBANDSHIGH">    -1</i>
   <i name="NELECT">    408.00000000</i>
   <i type="int" name="TURBO">     0</i>
   <i type="int" name="IRESTART">     0</i>
   <i type="int" name="NREBOOT">     0</i>
   <i type="int" name="NMIN">     0</i>
   <i name="EREF">      0.00000000</i>
   <separator name="electronic smearing" >
    <i type="int" name="ISMEAR">     0</i>
    <i name="SIGMA">      0.01000000</i>
    <i name="KSPACING">      0.50000000</i>
    <i type="logical" name="KGAMMA"> T  </i>
    <i type="logical" name="KBLOWUP"> F  </i>
   </separator>
   <separator name="electronic projectors" >
    <i type="logical" name="LREAL"> T  </i>
    <v name="ROPT">     -0.00050000     -0.00050000</v>
    <i type="int" name="LMAXPAW">  -100</i>
    <i type="int" name="LMAXMIX">     6</i>
    <i type="logical" name="NLSPLINE"> F  </i>
   </separator>
   <separator name="electronic startup" >
    <i type="int" name="ISTART">     0</i>
    <i type="int" name="ICHARG">     2</i>
    <i type="int" name="INIWAV">     1</i>
   </separator>
   <separator name="electronic spin" >
    <i type="int" name="ISPIN">     2</i>
    <i type="logical" name="LNONCOLLINEAR"> F  </i>
    <v name="MAGMOM">      0.00980392      0.00980392      0.00980392      0.00980392      0.00980392      0.00980392      0.00980392      0.00980392      0.00980392      0.00980392      0.00980392      0.00980392      0.00980392      0.00980392      0.00980392      0.00980392      0.00980392      0.00980392      0.00980392      0.00980392
      0.00980392      0.00980392      0.00980392      0.00980392      0.00980392      0.00980392      0.00980392      0.00980392      0.00980392      0.00980392      0.00980392      0.00980392      0.00980392      0.00980392      0.00980392      0.00980392      0.00980392      0.00980392      0.00980392      0.00980392
      0.00980392      0.00980392      0.00980392      0.00980392      0.00980392      0.00980392      0.00980392      0.00980392      0.00980392      0.00980392      0.00980392      0.00980392      0.00980392      0.00980392      0.00980392      0.00980392      0.00980392      0.00980392      0.00980392      0.00980392
      0.00980392      0.00980392      0.00980392      0.00980392      0.00980392      0.00980392      0.00980392      0.00980392      0.00980392      0.00980392      0.00980392      0.00980392      0.00980392      0.00980392      0.00980392      0.00980392      0.00980392      0.00980392      0.00980392      0.00980392
      0.00980392      0.00980392      0.00980392      0.00980392      0.00980392      0.00980392      0.00980392      0.00980392      0.00980392      0.00980392      0.00980392      0.00980392      0.00980392      0.00980392      0.00980392      0.00980392      0.00980392      0.00980392      0.00980392      0.00980392
      0.00980392      0.00980392</v>
    <i name="NUPDOWN">      1.00000000</i>
    <i type="logical" name="LSORBIT"> F  </i>
    <v name="SAXIS">      0.00000000      0.00000000      1.00000000</v>
    <i type="logical" name="LSPIRAL"> F  </i>
    <v name="QSPIRAL">      0.00000000      0.00000000      0.00000000</v>
    <i type="logical" name="LZEROZ"> F  </i>
   </separator>
   <separator name="electronic exchange-correlation" >
    <i type="logical" name="LASPH"> T  </i>
   </separator>
   <separator name="electronic convergence" >
    <i type="int" name="NELM">   100</i>
    <i type="int" name="NELMDL">    -5</i>
    <i type="int" name="NELMIN">     2</i>
    <i name="ENINI">    700.00000000</i>
    <separator name="electronic convergence detail" >
     <i type="logical" name="LDIAG"> T  </i>
     <i type="logical" name="LSUBROT"> F  </i>
     <i name="WEIMIN">      0.00000000</i>
     <i name="EBREAK">      0.00000000</i>
     <i name="DEPER">      0.30000000</i>
     <i type="int" name="NRMM">     4</i>
     <i name="TIME">      0.40000000</i>
    </separator>
   </separator>
   <separator name="electronic mixer" >
    <i name="AMIX">      0.60000000</i>
    <i name="BMIX">      1.00000000</i>
    <i name="AMIN">      0.10000000</i>
    <i name="AMIX_MAG">      2.40000000</i>
    <i name="BMIX_MAG">      1.00000000</i>
    <separator name="electronic mixer details" >
     <i type="int" name="IMIX">     4</i>
     <i type="logical" name="MIXFIRST"> F  </i>
     <i type="int" name="MAXMIX">   -45</i>
     <i name="WC">    100.00000000</i>
     <i type="int" name="INIMIX">     1</i>
     <i type="int" name="MIXPRE">     1</i>
     <i type="int" name="MREMOVE">     5</i>
    </separator>
   </separator>
   <separator name="electronic dipolcorrection" >
    <i type="logical" name="LDIPOL"> F  </i>
    <i type="logical" name="LMONO"> F  </i>
    <i type="int" name="IDIPOL">     0</i>
    <i name="EPSILON">      1.00000000</i>
    <v name="DIPOL">   -100.00000000   -100.00000000   -100.00000000</v>
    <i name="EFIELD">      0.00000000</i>
    <i type="logical" name="LVACPOTAV"> F  </i>
   </separator>
  </separator>
  <separator name="grids" >
   <i type="int" name="NGX">    90</i>
   <i type="int" name="NGY">   108</i>
   <i type="int" name="NGZ">    84</i>
   <i type="int" name="NGXF">   180</i>
   <i type="int" name="NGYF">   216</i>
   <i type="int" name="NGZF">   168</i>
   <i type="logical" name="ADDGRID"> T  </i>
  </separator>
  <separator name="ionic" >
   <i type="int" name="NSW">     0</i>
   <i type="int" name="IBRION">    -1</i>
   <i type="int" name="MDALGO">     0</i>
   <i type="int" name="ISIF">     2</i>
   <i name="PSTRESS">      0.00000000</i>
   <i name="EDIFFG">      0.00000100</i>
   <i type="int" name="NFREE">     0</i>
   <i name="POTIM">      0.50000000</i>
   <i name="SMASS">     -3.00000000</i>
   <i name="SCALEE">      1.00000000</i>
  </separator>
  <separator name="ionic md" >
   <i name="TEBEG">      0.00010000</i>
   <i name="TEEND">      0.00010000</i>
   <i type="int" name="NBLOCK">     1</i>
   <i type="int" name="KBLOCK">     1</i>
   <i type="int" name="NPACO">   256</i>
   <i name="APACO">     10.00000000</i>
  </separator>
  <separator name="symmetry" >
   <i type="int" name="ISYM">     2</i>
   <i name="SYMPREC">      0.00001000</i>
  </separator>
  <separator name="dos" >
   <i type="int" name="LORBIT">     0</i>
   <v name="RWIGS">     -1.00000000     -1.00000000</v>
   <i type="int" name="NEDOS">   301</i>
   <i name="EMIN">     10.00000000</i>
   <i name="EMAX">    -10.00000000</i>
   <i name="EFERMI">      0.00000000</i>
  </separator>
  <separator name="writing" >
   <i type="int" name="NWRITE">     2</i>
   <i type="logical" name="LWAVE"> F  </i>
   <i type="logical" name="LDOWNSAMPLE"> F  </i>
   <i type="logical" name="LCHARG"> T  </i>
   <i type="logical" name="LPARD"> F  </i>
   <i type="logical" name="LVTOT"> F  </i>
   <i type="logical" name="LVHAR"> T  </i>
   <i type="logical" name="LELF"> F  </i>
   <i type="logical" name="LOPTICS"> F  </i>
   <v name="STM">      0.00000000      0.00000000      0.00000000      0.00000000      0.00000000      0.00000000      0.00000000</v>
  </separator>
  <separator name="performance" >
   <i type="int" name="NPAR">     1</i>
   <i type="int" name="NSIM">     4</i>
   <i type="int" name="NBLK">    -1</i>
   <i type="logical" name="LPLANE"> T  </i>
   <i type="logical" name="LSCALAPACK"> T  </i>
   <i type="logical" name="LSCAAWARE"> F  </i>
   <i type="logical" name="LSCALU"> F  </i>
   <i type="logical" name="LASYNC"> F  </i>
   <i type="logical" name="LORBITALREAL"> F  </i>
  </separator>
  <separator name="miscellaneous" >
   <i type="int" name="IDIOT">     3</i>
   <i type="int" name="PHON_NSTRUCT">    -1</i>
   <i type="logical" name="LMUSIC"> F  </i>
   <v name="POMASS">     28.08500000     72.61000000</v>
   <v name="DARWINR">      0.00000000      0.00000000</v>
   <v name="DARWINV">      1.00000000      1.00000000</v>
   <i type="logical" name="LCORR"> T  </i>
  </separator>
  <i type="logical" name="GGA_COMPAT"> T  </i>
  <i type="logical" name="LBERRY"> F  </i>
  <i type="int" name="ICORELEVEL">     0</i>
  <i type="logical" name="LDAU"> F  </i>
  <i type="int" name="I_CONSTRAINED_M">     0</i>
  <separator name="electronic exchange-correlation" >
   <i type="string" name="GGA    ">PE</i>
   <i type="string" name="XC_C">1</i>
   <i type="int" name="VOSKOWN">     0</i>
   <i type="logical" name="LHFCALC"> F  </i>
   <i type="string" name="PRECFOCK"></i>
   <i type="logical" name="LSYMGRAD"> F  </i>
   <i type="logical" name="LHFONE"> F  </i>
   <i type="logical" name="LRHFCALC"> F  </i>
   <i type="logical" name="LTHOMAS"> F  </i>
   <i type="logical" name="LMODELHF"> F  </i>
   <i type="logical" name="LFOCKACE"> F  </i>
   <i name="ENCUT4O">     -1.00000000</i>
   <i type="int" name="EXXOEP">     0</i>
   <i type="int" name="FOURORBIT">     0</i>
   <i name="AEXX">      0.00000000</i>
   <i name="HFALPHA">      0.00000000</i>
   <i name="MCALPHA">      0.00000000</i>
   <i name="ALDAX">      1.00000000</i>
   <i name="AGGAX">      1.00000000</i>
   <i name="AMGGAX">      1.00000000</i>
   <i name="ALDAC">      1.00000000</i>
   <i name="AGGAC">      1.00000000</i>
   <i name="AMGGAC">      1.00000000</i>
   <i type="int" name="NKREDX">     1</i>
   <i type="int" name="NKREDY">     1</i>
   <i type="int" name="NKREDZ">     1</i>
   <i type="logical" name="SHIFTRED"> F  </i>
   <i type="logical" name="ODDONLY"> F  </i>
   <i type="logical" name="EVENONLY"> F  </i>
   <i type="int" name="LMAXFOCK">     0</i>
   <i type="int" name="NMAXFOCKAE">     0</i>
   <i type="logical" name="LFOCKAEDFT"> F  </i>
   <i name="HFSCREEN">      0.00000000</i>
   <i name="HFSCREENC">      0.00000000</i>
   <i type="int" name="NBANDSGWLOW">     0</i>
  </separator>
  <separator name="vdW DFT" >
   <i type="logical" name="LUSE_VDW"> F  </i>
   <i type="int" name="IVDW_NL">    -1</i>
   <i type="logical" name="LSPIN_VDW"> F  </i>
   <i name="ZAB_VDW">     -0.84910000</i>
   <i name="GAMMA_VDW">      1.39626340</i>
   <i name="ALPHA_VDW">      0.00000000</i>
   <i name="PARAM1">      0.12340000</i>
   <i name="PARAM2">      1.00000000</i>
   <i name="BPARAM">      6.30000000</i>
   <i name="CPARAM">      0.00930000</i>
  </separator>
  <separator name="model GW" >
   <i type="int" name="MODEL_GW">     0</i>
   <i name="MODEL_EPS0">     14.92091383</i>
   <i name="MODEL_ALPHA">      1.00000000</i>
  </separator>
  <separator name="linear response parameters" >
   <i type="logical" name="LEPSILON"> F  </i>
   <i type="logical" name="LRPA"> F  </i>
   <i type="logical" name="LNABLA"> F  </i>
   <i type="logical" name="LVEL"> F  </i>
   <i name="CSHIFT">      0.10000000</i>
   <i name="OMEGAMAX">     -1.00000000</i>
   <i name="DEG_THRESHOLD">      0.00200000</i>
   <i name="RTIME">     -0.10000000</i>
   <i name="WPLASMAI">      0.00000000</i>
   <v name="DFIELD">      0.00000000      0.00000000      0.00000000</v>
   <v name="WPLASMA">      0.00000000      0.00000000      0.00000000      0.00000000      0.00000000      0.00000000      0.00000000      0.00000000      0.00000000</v>
  </separator>
  <separator name="orbital magnetization" >
   <i type="logical" name="NUCIND"> F  </i>
   <v name="MAGPOS">      0.00000000      0.00000000      0.00000000</v>
   <i type="logical" name="LNICSALL"> T  </i>
   <i type="logical" name="ORBITALMAG"> F  </i>
   <i type="logical" name="LMAGBLOCH"> F  </i>
   <i type="logical" name="LCHIMAG"> F  </i>
   <i type="logical" name="LGAUGE"> T  </i>
   <i type="int" name="MAGATOM">     0</i>
   <v name="MAGDIPOL">      0.00000000      0.00000000      0.00000000</v>
   <v name="AVECCONST">      0.00000000      0.00000000      0.00000000</v>
  </separator>
  <separator name="response functions" >
   <i type="logical" name="LALL_IN_ONE"> F  </i>
   <i type="int" name="IALL_IN_ONE">    -1</i>
   <i type="int" name="NBANDS_WAVE">    -1</i>
   <i type="logical" name="LFINITE_TEMPERATURE"> F  </i>
   <i type="logical" name="LADDER"> F  </i>
   <i type="logical" name="LRPAFORCE"> F  </i>
   <i type="logical" name="LFXC"> F  </i>
   <i type="logical" name="LHARTREE"> T  </i>
   <i type="int" name="IBSE">     0</i>
   <v type="int" name="KPOINT">    -1     0     0     0</v>
   <i type="logical" name="LTCTC"> F  </i>
   <i type="logical" name="LTCTE"> F  </i>
   <i type="logical" name="LTETE"> F  </i>
   <i type="logical" name="LTRIPLET"> F  </i>
   <i type="logical" name="LFXCEPS"> F  </i>
   <i type="logical" name="LFXHEG"> F  </i>
   <i type="int" name="NATURALO">     2</i>
   <i type="logical" name="LHOLEGF"> F  </i>
   <i type="logical" name="L2ORDER"> F  </i>
   <i type="logical" name="LDMP1"> F  </i>
   <i type="logical" name="LMP2LT"> F  </i>
   <i type="logical" name="LSMP2LT"> F  </i>
   <i type="logical" name="LGWLF"> F  </i>
   <i name="ENCUTGW">     -1.60000002</i>
   <i name="ENCUTGWSOFT">     -1.60000002</i>
   <i name="ENCUTLF">     -1.00000000</i>
   <i type="logical" name="ESF_SPLINES"> F  </i>
   <i name="ESF_CONV">      0.01000000</i>
   <i type="int" name="ESF_NINTER">    15</i>
   <i type="int" name="LMAXMP2">    -1</i>
   <i name="SCISSOR">      0.00000000</i>
   <i type="int" name="NOMEGA">     0</i>
   <i type="int" name="NOMEGAR">     0</i>
   <i type="int" name="NBANDSGW">    -1</i>
   <i type="int" name="NBANDSO">    -1</i>
   <i type="int" name="NBANDSV">    -1</i>
   <i type="int" name="NELMGW">     1</i>
   <i type="int" name="NELMHF">     1</i>
   <i type="int" name="DIM">     3</i>
   <i type="int" name="IESPILON">     4</i>
   <i type="int" name="ANTIRES">     0</i>
   <i name="OMEGAMAX">    -30.00000000</i>
   <i name="OMEGAMIN">    -30.00000000</i>
   <i name="OMEGATL">   -200.00000000</i>
   <i type="int" name="OMEGAGRID">     0</i>
   <i name="CSHIFT">     -0.10000000</i>
   <i type="logical" name="LSELFENERGY"> F  </i>
   <i type="logical" name="LSPECTRAL"> F  </i>
   <i type="logical" name="LSPECTRALGW"> F  </i>
   <i type="logical" name="LSINGLES"> F  </i>
   <i type="logical" name="LFERMIGW"> F  </i>
   <i type="logical" name="ODDONLYGW"> F  </i>
   <i type="logical" name="EVENONLYGW"> F  </i>
   <i type="int" name="NKREDLFX">     1</i>
   <i type="int" name="NKREDLFY">     1</i>
   <i type="int" name="NKREDLFZ">     1</i>
   <i type="int" name="MAXMEM">  2800</i>
   <i type="int" name="TELESCOPE">     0</i>
   <i type="int" name="NTAUPAR">    -1</i>
   <i type="int" name="NOMEGAPAR">    -1</i>
   <i name="DAMP_NEWTON">      0.80000001</i>
   <i name="LAMBDA">      1.00000000</i>
  </separator>
  <separator name="External order field" >
   <i name="OFIELD_KAPPA">      0.00000000</i>
   <v name="OFIELD_K">      0.00000000      0.00000000      0.00000000</v>
   <i name="OFIELD_Q6_NEAR">      0.00000000</i>
   <i name="OFIELD_Q6_FAR">      0.00000000</i>
   <i name="OFIELD_A">      0.00000000</i>
  </separator>
  <separator name="optional k-points parameters" >
   <i type="int" name="KPOINTS_OPT_MODE">     1</i>
   <i type="logical" name="LKPOINTS_OPT"> F  </i>
  </separator>
 </parameters>
 <atominfo>
  <atoms>     102 </atoms>
  <types>       2 </types>
  <array name="atoms" >
   <dimension dim="1">ion</dimension>
   <field type="string">element</field>
   <field type="int">atomtype</field>
   <set>
    <rc><c>Si</c><c>   1</c></rc>
    <rc><c>Si</c><c>   1</c></rc>
    <rc><c>Si</c><c>   1</c></rc>
    <rc><c>Si</c><c>   1</c></rc>
    <rc><c>Si</c><c>   1</c></rc>
    <rc><c>Si</c><c>   1</c></rc>
    <rc><c>Si</c><c>   1</c></rc>
    <rc><c>Si</c><c>   1</c></rc>
    <rc><c>Si</c><c>   1</c></rc>
    <rc><c>Si</c><c>   1</c></rc>
    <rc><c>Si</c><c>   1</c></rc>
    <rc><c>Si</c><c>   1</c></rc>
    <rc><c>Si</c><c>   1</c></rc>
    <rc><c>Si</c><c>   1</c></rc>
    <rc><c>Si</c><c>   1</c></rc>
    <rc><c>Si</c><c>   1</c></rc>
    <rc><c>Si</c><c>   1</c></rc>
    <rc><c>Si</c><c>   1</c></rc>
    <rc><c>Si</c><c>   1</c></rc>
    <rc><c>Si</c><c>   1</c></rc>
    <rc><c>Si</c><c>   1</c></rc>
    <rc><c>Si</c><c>   1</c></rc>
    <rc><c>Si</c><c>   1</c></rc>
    <rc><c>Si</c><c>   1</c></rc>
    <rc><c>Si</c><c>   1</c></rc>
    <rc><c>Si</c><c>   1</c></rc>
    <rc><c>Si</c><c>   1</c></rc>
    <rc><c>Si</c><c>   1</c></rc>
    <rc><c>Si</c><c>   1</c></rc>
    <rc><c>Si</c><c>   1</c></rc>
    <rc><c>Si</c><c>   1</c></rc>
    <rc><c>Si</c><c>   1</c></rc>
    <rc><c>Si</c><c>   1</c></rc>
    <rc><c>Si</c><c>   1</c></rc>
    <rc><c>Si</c><c>   1</c></rc>
    <rc><c>Si</c><c>   1</c></rc>
    <rc><c>Ge</c><c>   2</c></rc>
    <rc><c>Ge</c><c>   2</c></rc>
    <rc><c>Ge</c><c>   2</c></rc>
    <rc><c>Ge</c><c>   2</c></rc>
    <rc><c>Ge</c><c>   2</c></rc>
    <rc><c>Ge</c><c>   2</c></rc>
    <rc><c>Ge</c><c>   2</c></rc>
    <rc><c>Ge</c><c>   2</c></rc>
    <rc><c>Ge</c><c>   2</c></rc>
    <rc><c>Ge</c><c>   2</c></rc>
    <rc><c>Ge</c><c>   2</c></rc>
    <rc><c>Ge</c><c>   2</c></rc>
    <rc><c>Ge</c><c>   2</c></rc>
    <rc><c>Ge</c><c>   2</c></rc>
    <rc><c>Ge</c><c>   2</c></rc>
    <rc><c>Ge</c><c>   2</c></rc>
    <rc><c>Ge</c><c>   2</c></rc>
    <rc><c>Ge</c><c>   2</c></rc>
    <rc><c>Ge</c><c>   2</c></rc>
    <rc><c>Ge</c><c>   2</c></rc>
    <rc><c>Ge</c><c>   2</c></rc>
    <rc><c>Ge</c><c>   2</c></rc>
    <rc><c>Ge</c><c>   2</c></rc>
    <rc><c>Ge</c><c>   2</c></rc>
    <rc><c>Ge</c><c>   2</c></rc>
    <rc><c>Ge</c><c>   2</c></rc>
    <rc><c>Ge</c><c>   2</c></rc>
    <rc><c>Ge</c><c>   2</c></rc>
    <rc><c>Ge</c><c>   2</c></rc>
    <rc><c>Ge</c><c>   2</c></rc>
    <rc><c>Ge</c><c>   2</c></rc>
    <rc><c>Ge</c><c>   2</c></rc>
    <rc><c>Ge</c><c>   2</c></rc>
    <rc><c>Ge</c><c>   2</c></rc>
    <rc><c>Ge</c><c>   2</c></rc>
    <rc><c>Ge</c><c>   2</c></rc>
    <rc><c>Ge</c><c>   2</c></rc>
    <rc><c>Ge</c><c>   2</c></rc>
    <rc><c>Ge</c><c>   2</c></rc>
    <rc><c>Ge</c><c>   2</c></rc>
    <rc><c>Ge</c><c>   2</c></rc>
    <rc><c>Ge</c><c>   2</c></rc>
    <rc><c>Ge</c><c>   2</c></rc>
    <rc><c>Ge</c><c>   2</c></rc>
    <rc><c>Ge</c><c>   2</c></rc>
    <rc><c>Ge</c><c>   2</c></rc>
    <rc><c>Ge</c><c>   2</c></rc>
    <rc><c>Ge</c><c>   2</c></rc>
    <rc><c>Ge</c><c>   2</c></rc>
    <rc><c>Ge</c><c>   2</c></rc>
    <rc><c>Ge</c><c>   2</c></rc>
    <rc><c>Ge</c><c>   2</c></rc>
    <rc><c>Ge</c><c>   2</c></rc>
    <rc><c>Ge</c><c>   2</c></rc>
    <rc><c>Ge</c><c>   2</c></rc>
    <rc><c>Ge</c><c>   2</c></rc>
    <rc><c>Ge</c><c>   2</c></rc>
    <rc><c>Ge</c><c>   2</c></rc>
    <rc><c>Ge</c><c>   2</c></rc>
    <rc><c>Ge</c><c>   2</c></rc>
    <rc><c>Ge</c><c>   2</c></rc>
    <rc><c>Ge</c><c>   2</c></rc>
    <rc><c>Ge</c><c>   2</c></rc>
    <rc><c>Ge</c><c>   2</c></rc>
    <rc><c>Ge</c><c>   2</c></rc>
    <rc><c>Ge</c><c>   2</c></rc>
   </set>
  </array>
  <array name="atomtypes" >
   <dimension dim="1">type</dimension>
   <field type="int">atomspertype</field>
   <field type="string">element</field>
   <field>mass</field>
   <field>valence</field>
   <field type="string">pseudopotential</field>
   <set>
    <rc><c>  36</c><c>Si</c><c>     28.08500000</c><c>      4.00000000</c><c>  PAW_PBE Si 05Jan2001                  </c></rc>
    <rc><c>  66</c><c>Ge</c><c>     72.61000000</c><c>      4.00000000</c><c>  PAW_PBE Ge 05Jan2001                  </c></rc>
   </set>
  </array>
 </atominfo>
 <structure name="initialpos" >
  <crystal>
   <varray name="basis" >
    <v>      13.42320379       0.00000000       0.00000000 </v>
    <v>      -6.71160190      15.00759808       0.00000000 </v>
    <v>       0.00000000       0.00000000      12.59148550 </v>
   </varray>
   <i name="volume">   2536.55535147 </i>
   <varray name="rec_basis" >
    <v>       0.07449786       0.03331646       0.00000000 </v>
    <v>       0.00000000       0.06663291       0.00000000 </v>
    <v>       0.00000000       0.00000000       0.07941875 </v>
   </varray>
  </crystal>
  <varray name="positions" >
   <v>       0.00000000       0.66666667       0.00000000 </v>
   <v>       0.30000000       0.43333333       0.09731697 </v>
   <v>       0.60000000       0.20000000       0.19463394 </v>
   <v>       0.00000000       0.33333333       0.00000000 </v>
   <v>       0.30000000       0.10000000       0.09731697 </v>
   <v>       0.60000000       0.86666667       0.19463394 </v>
   <v>       0.00000000       0.00000000       0.00000000 </v>
   <v>       0.30000000       0.76666667       0.09731697 </v>
   <v>       0.60000000       0.53333333       0.19463394 </v>
   <v>       0.50000000       0.66666667       0.00000000 </v>
   <v>       0.80000000       0.43333333       0.09731697 </v>
   <v>       0.10000000       0.20000000       0.19463394 </v>
   <v>       0.50000000       0.33333333       0.00000000 </v>
   <v>       0.80000000       0.10000000       0.09731697 </v>
   <v>       0.10000000       0.86666667       0.19463394 </v>
   <v>       0.50000000       0.00000000       0.00000000 </v>
   <v>       0.80000000       0.76666667       0.09731697 </v>
   <v>       0.10000000       0.53333333       0.19463394 </v>
   <v>       0.15000000       0.80000000       0.04865849 </v>
   <v>       0.45000000       0.56666667       0.14597546 </v>
   <v>       0.75000000       0.33333333       0.24329243 </v>
   <v>       0.15000000       0.46666667       0.04865849 </v>
   <v>       0.45000000       0.23333333       0.14597546 </v>
   <v>       0.75000000       0.00000000       0.24329243 </v>
   <v>       0.15000000       0.13333333       0.04865849 </v>
   <v>       0.45000000       0.90000000       0.14597546 </v>
   <v>       0.75000000       0.66666667       0.24329243 </v>
   <v>       0.65000000       0.80000000       0.04865849 </v>
   <v>       0.95000000       0.56666667       0.14597546 </v>
   <v>       0.25000000       0.33333333       0.24329243 </v>
   <v>       0.65000000       0.46666667       0.04865849 </v>
   <v>       0.95000000       0.23333333       0.14597546 </v>
   <v>       0.25000000       0.00000000       0.24329243 </v>
   <v>       0.65000000       0.13333333       0.04865849 </v>
   <v>       0.95000000       0.90000000       0.14597546 </v>
   <v>       0.25000000       0.66666667       0.24329243 </v>
   <v>       0.34360902       0.34447853       0.42061918 </v>
   <v>       0.14360902       0.44447853       0.52113270 </v>
   <v>       0.94360902       0.54447853       0.62164622 </v>
   <v>       0.74360902       0.64447853       0.72215973 </v>
   <v>       0.54360902       0.74447853       0.82267325 </v>
   <v>       0.67694236       0.67781186       0.42061918 </v>
   <v>       0.47694236       0.77781186       0.52113270 </v>
   <v>       0.27694236       0.87781186       0.62164622 </v>
   <v>       0.07694236       0.97781186       0.72215973 </v>
   <v>       0.87694236       0.07781186       0.82267325 </v>
   <v>       0.01027569       0.01114519       0.42061918 </v>
   <v>       0.81027569       0.11114519       0.52113270 </v>
   <v>       0.61027569       0.21114519       0.62164622 </v>
   <v>       0.41027569       0.31114519       0.72215973 </v>
   <v>       0.21027569       0.41114519       0.82267325 </v>
   <v>       0.51027569       0.01114519       0.42061918 </v>
   <v>       0.31027569       0.11114519       0.52113270 </v>
   <v>       0.11027569       0.21114519       0.62164622 </v>
   <v>       0.91027569       0.31114519       0.72215973 </v>
   <v>       0.71027569       0.41114519       0.82267325 </v>
   <v>       0.84360902       0.34447853       0.42061918 </v>
   <v>       0.64360902       0.44447853       0.52113270 </v>
   <v>       0.44360902       0.54447853       0.62164622 </v>
   <v>       0.24360902       0.64447853       0.72215973 </v>
   <v>       0.04360902       0.74447853       0.82267325 </v>
   <v>       0.17694236       0.67781186       0.42061918 </v>
   <v>       0.97694236       0.77781186       0.52113270 </v>
   <v>       0.77694236       0.87781186       0.62164622 </v>
   <v>       0.57694236       0.97781186       0.72215973 </v>
   <v>       0.37694236       0.07781186       0.82267325 </v>
   <v>       0.69360902       0.54447853       0.37036243 </v>
   <v>       0.49360902       0.64447853       0.47087594 </v>
   <v>       0.29360902       0.74447853       0.57138946 </v>
   <v>       0.09360902       0.84447853       0.67190297 </v>
   <v>       0.89360902       0.94447853       0.77241649 </v>
   <v>       0.69360902       0.04447853       0.87293001 </v>
   <v>       0.02694236       0.87781186       0.37036243 </v>
   <v>       0.82694236       0.97781186       0.47087594 </v>
   <v>       0.62694236       0.07781186       0.57138946 </v>
   <v>       0.42694236       0.17781186       0.67190297 </v>
   <v>       0.22694236       0.27781186       0.77241649 </v>
   <v>       0.02694236       0.37781186       0.87293001 </v>
   <v>       0.36027569       0.21114519       0.37036243 </v>
   <v>       0.16027569       0.31114519       0.47087594 </v>
   <v>       0.96027569       0.41114519       0.57138946 </v>
   <v>       0.76027569       0.51114519       0.67190297 </v>
   <v>       0.56027569       0.61114519       0.77241649 </v>
   <v>       0.36027569       0.71114519       0.87293001 </v>
   <v>       0.86027569       0.21114519       0.37036243 </v>
   <v>       0.66027569       0.31114519       0.47087594 </v>
   <v>       0.46027569       0.41114519       0.57138946 </v>
   <v>       0.26027569       0.51114519       0.67190297 </v>
   <v>       0.06027569       0.61114519       0.77241649 </v>
   <v>       0.86027569       0.71114519       0.87293001 </v>
   <v>       0.19360902       0.54447853       0.37036243 </v>
   <v>       0.99360902       0.64447853       0.47087594 </v>
   <v>       0.79360902       0.74447853       0.57138946 </v>
   <v>       0.59360902       0.84447853       0.67190297 </v>
   <v>       0.39360902       0.94447853       0.77241649 </v>
   <v>       0.19360902       0.04447853       0.87293001 </v>
   <v>       0.52694236       0.87781186       0.37036243 </v>
   <v>       0.32694236       0.97781186       0.47087594 </v>
   <v>       0.12694236       0.07781186       0.57138946 </v>
   <v>       0.92694236       0.17781186       0.67190297 </v>
   <v>       0.72694236       0.27781186       0.77241649 </v>
   <v>       0.52694236       0.37781186       0.87293001 </v>
  </varray>
 </structure>
 <calculation>
  <scstep>
   <time name="dav">   62.55   63.07</time>
   <time name="total">   67.34   67.89</time>
   <energy>
    <i name="alphaZ">    555.99566033 </i>
    <i name="ewald"> -10202.63633178 </i>
    <i name="hartreedc">  -1212.49302155 </i>
    <i name="XCdc">   -846.49450645 </i>
    <i name="pawpsdc">   8990.03884467 </i>
    <i name="pawaedc">  -7400.50093193 </i>
    <i name="eentropy">     -0.00127008 </i>
    <i name="bandstr">   1336.25739553 </i>
    <i name="atom">  10640.12850283 </i>
    <i name="e_fr_energy">   1860.29434157 </i>
    <i name="e_wo_entrp">   1860.29561165 </i>
    <i name="e_0_energy">   1860.29497661 </i>
   </energy>
  </scstep>
  <scstep>
   <time name="dav">   70.47   71.06</time>
   <time name="total">   70.47   71.06</time>
   <energy>
    <i name="e_fr_energy">   -219.09605502 </i>
    <i name="e_wo_entrp">   -219.09412108 </i>
    <i name="e_0_energy">   -219.09508805 </i>
   </energy>
  </scstep>
  <scstep>
   <time name="dav">   73.63   74.26</time>
   <time name="total">   73.63   74.26</time>
   <energy>
    <i name="e_fr_energy">   -425.11178817 </i>
    <i name="e_wo_entrp">   -425.10981701 </i>
    <i name="e_0_energy">   -425.11080259 </i>
   </energy>
  </scstep>
  <scstep>
   <time name="dav">   71.62   72.21</time>
   <time name="total">   71.62   72.22</time>
   <energy>
    <i name="e_fr_energy">   -433.74110367 </i>
    <i name="e_wo_entrp">   -433.74001703 </i>
    <i name="e_0_energy">   -433.74056035 </i>
   </energy>
  </scstep>
  <scstep>
   <time name="dav">   80.57   81.23</time>
   <time name="total">   84.26   84.98</time>
   <energy>
    <i name="e_fr_energy">   -434.09815221 </i>
    <i name="e_wo_entrp">   -434.09698381 </i>
    <i name="e_0_energy">   -434.09756801 </i>
   </energy>
  </scstep>
  <scstep>
   <time name="dav">   68.79   69.36</time>
   <time name="total">   77.19   77.81</time>
   <energy>
    <i name="e_fr_energy">   -425.42222204 </i>
    <i name="e_wo_entrp">   -425.41892294 </i>
    <i name="e_0_energy">   -425.42057249 </i>
   </energy>
  </scstep>
  <scstep>
   <time name="dav">   69.97   70.55</time>
   <time name="total">   78.39   79.02</time>
   <energy>
    <i name="e_fr_energy">   -425.55247236 </i>
    <i name="e_wo_entrp">   -425.55049115 </i>
    <i name="e_0_energy">   -425.55148176 </i>
   </energy>
  </scstep>
  <scstep>
   <time name="dav">   71.37   71.96</time>
   <time name="total">   79.85   80.48</time>
   <energy>
    <i name="e_fr_energy">   -425.02142604 </i>
    <i name="e_wo_entrp">   -425.01918026 </i>
    <i name="e_0_energy">   -425.02030315 </i>
   </energy>
  </scstep>
  <scstep>
   <time name="dav">   70.24   70.82</time>
   <time name="total">   78.73   79.35</time>
   <energy>
    <i name="e_fr_energy">   -425.01172700 </i>
    <i name="e_wo_entrp">   -425.01045747 </i>
    <i name="e_0_energy">   -425.01109223 </i>
   </energy>
  </scstep>
  <scstep>
   <time name="dav">   69.29   69.85</time>
   <time name="total">   77.74   78.35</time>
   <energy>
    <i name="e_fr_energy">   -425.00406903 </i>
    <i name="e_wo_entrp">   -425.00279101 </i>
    <i name="e_0_energy">   -425.00343002 </i>
   </energy>
  </scstep>
  <scstep>
   <time name="dav">   68.48   69.03</time>
   <time name="total">   76.92   77.51</time>
   <energy>
    <i name="e_fr_energy">   -425.00498621 </i>
    <i name="e_wo_entrp">   -425.00379533 </i>
    <i name="e_0_energy">   -425.00439077 </i>
   </energy>
  </scstep>
  <scstep>
   <time name="dav">   70.63   71.20</time>
   <time name="total">   79.07   79.68</time>
   <energy>
    <i name="e_fr_energy">   -425.00492476 </i>
    <i name="e_wo_entrp">   -425.00361038 </i>
    <i name="e_0_energy">   -425.00426757 </i>
   </energy>
  </scstep>
  <scstep>
   <time name="dav">   69.66   70.22</time>
   <time name="total">   78.08   78.70</time>
   <energy>
    <i name="e_fr_energy">   -425.00492157 </i>
    <i name="e_wo_entrp">   -425.00367057 </i>
    <i name="e_0_energy">   -425.00429607 </i>
   </energy>
  </scstep>
  <scstep>
   <time name="dav">   67.39   67.92</time>
   <time name="total">   75.88   76.46</time>
   <energy>
    <i name="e_fr_energy">   -425.00496287 </i>
    <i name="e_wo_entrp">   -425.00370854 </i>
    <i name="e_0_energy">   -425.00433570 </i>
   </energy>
  </scstep>
  <scstep>
   <time name="dav">   69.20   69.76</time>
   <time name="total">   77.62   78.22</time>
   <energy>
    <i name="e_fr_energy">   -425.00497600 </i>
    <i name="e_wo_entrp">   -425.00371707 </i>
    <i name="e_0_energy">   -425.00434653 </i>
   </energy>
  </scstep>
  <scstep>
   <time name="dav">   68.43   68.98</time>
   <time name="total">   77.00   77.60</time>
   <energy>
    <i name="e_fr_energy">   -425.00498384 </i>
    <i name="e_wo_entrp">   -425.00372837 </i>
    <i name="e_0_energy">   -425.00435610 </i>
   </energy>
  </scstep>
  <scstep>
   <time name="dav">   71.45   72.03</time>
   <time name="total">   80.02   80.64</time>
   <energy>
    <i name="e_fr_energy">   -425.00498549 </i>
    <i name="e_wo_entrp">   -425.00372928 </i>
    <i name="e_0_energy">   -425.00435738 </i>
   </energy>
  </scstep>
  <scstep>
   <time name="dav">   68.07   68.62</time>
   <time name="total">   76.55   77.15</time>
   <energy>
    <i name="e_fr_energy">   -425.00498575 </i>
    <i name="e_wo_entrp">   -425.00373001 </i>
    <i name="e_0_energy">   -425.00435788 </i>
   </energy>
  </scstep>
  <scstep>
   <time name="dav">   43.78   44.14</time>
   <time name="total">   52.35   52.76</time>
   <energy>
    <i name="e_fr_energy">   -425.00498585 </i>
    <i name="e_wo_entrp">   -425.00373050 </i>
    <i name="e_0_energy">   -425.00435818 </i>
   </energy>
  </scstep>
  <scstep>
   <time name="dav">   42.80   43.15</time>
   <time name="total">   51.37   51.77</time>
   <energy>
    <i name="e_fr_energy">   -425.00498595 </i>
    <i name="e_wo_entrp">   -425.00373074 </i>
    <i name="e_0_energy">   -425.00435835 </i>
   </energy>
  </scstep>
  <scstep>
   <time name="dav">   42.90   43.25</time>
   <time name="total">   47.70   48.07</time>
   <energy>
    <i name="alphaZ">    555.99566033 </i>
    <i name="ewald"> -10202.63633178 </i>
    <i name="hartreedc">  -1365.95371169 </i>
    <i name="XCdc">   -822.51555419 </i>
    <i name="pawpsdc">  26065.21776345 </i>
    <i name="pawaedc"> -24489.27500444 </i>
    <i name="eentropy">     -0.00125508 </i>
    <i name="bandstr">   -805.96505547 </i>
    <i name="atom">  10640.12850283 </i>
    <i name="e_fr_energy">   -425.00498604 </i>
    <i name="e_wo_entrp">   -425.00373096 </i>
    <i name="e_0_energy">   -425.00435850 </i>
   </energy>
  </scstep>
  <structure>
   <crystal>
    <varray name="basis" >
     <v>      13.42320379       0.00000000       0.00000000 </v>
     <v>      -6.71160190      15.00759808       0.00000000 </v>
     <v>       0.00000000       0.00000000      12.59148550 </v>
    </varray>
    <i name="volume">   2536.55535147 </i>
    <varray name="rec_basis" >
     <v>       0.07449786       0.03331646       0.00000000 </v>
     <v>       0.00000000       0.06663291       0.00000000 </v>
     <v>       0.00000000       0.00000000       0.07941875 </v>
    </varray>
   </crystal>
   <varray name="positions" >
    <v>       0.00000000       0.66666667       0.00000000 </v>
    <v>       0.30000000       0.43333333       0.09731697 </v>
    <v>       0.60000000       0.20000000       0.19463394 </v>
    <v>       0.00000000       0.33333333       0.00000000 </v>
    <v>       0.30000000       0.10000000       0.09731697 </v>
    <v>       0.60000000       0.86666667       0.19463394 </v>
    <v>       0.00000000       0.00000000       0.00000000 </v>
    <v>       0.30000000       0.76666667       0.09731697 </v>
    <v>       0.60000000       0.53333333       0.19463394 </v>
    <v>       0.50000000       0.66666667       0.00000000 </v>
    <v>       0.80000000       0.43333333       0.09731697 </v>
    <v>       0.10000000       0.20000000       0.19463394 </v>
    <v>       0.50000000       0.33333333       0.00000000 </v>
    <v>       0.80000000       0.10000000       0.09731697 </v>
    <v>       0.10000000       0.86666667       0.19463394 </v>
    <v>       0.50000000       0.00000000       0.00000000 </v>
    <v>       0.80000000       0.76666667       0.09731697 </v>
    <v>       0.10000000       0.53333333       0.19463394 </v>
    <v>       0.15000000       0.80000000       0.04865849 </v>
    <v>       0.45000000       0.56666667       0.14597546 </v>
    <v>       0.75000000       0.33333333       0.24329243 </v>
    <v>       0.15000000       0.46666667       0.04865849 </v>
    <v>       0.45000000       0.23333333       0.14597546 </v>
    <v>       0.75000000       0.00000000       0.24329243 </v>
    <v>       0.15000000       0.13333333       0.04865849 </v>
    <v>       0.45000000       0.90000000       0.14597546 </v>
    <v>       0.75000000       0.66666667       0.24329243 </v>
    <v>       0.65000000       0.80000000       0.04865849 </v>
    <v>       0.95000000       0.56666667       0.14597546 </v>
    <v>       0.25000000       0.33333333       0.24329243 </v>
    <v>       0.65000000       0.46666667       0.04865849 </v>
    <v>       0.95000000       0.23333333       0.14597546 </v>
    <v>       0.25000000       0.00000000       0.24329243 </v>
    <v>       0.65000000       0.13333333       0.04865849 </v>
    <v>       0.95000000       0.90000000       0.14597546 </v>
    <v>       0.25000000       0.66666667       0.24329243 </v>
    <v>       0.34360902       0.34447853       0.42061918 </v>
    <v>       0.14360902       0.44447853       0.52113270 </v>
    <v>       0.94360902       0.54447853       0.62164622 </v>
    <v>       0.74360902       0.64447853       0.72215973 </v>
    <v>       0.54360902       0.74447853       0.82267325 </v>
    <v>       0.67694236       0.67781186       0.42061918 </v>
    <v>       0.47694236       0.77781186       0.52113270 </v>
    <v>       0.27694236       0.87781186       0.62164622 </v>
    <v>       0.07694236       0.97781186       0.72215973 </v>
    <v>       0.87694236       0.07781186       0.82267325 </v>
    <v>       0.01027569       0.01114519       0.42061918 </v>
    <v>       0.81027569       0.11114519       0.52113270 </v>
    <v>       0.61027569       0.21114519       0.62164622 </v>
    <v>       0.41027569       0.31114519       0.72215973 </v>
    <v>       0.21027569       0.41114519       0.82267325 </v>
    <v>       0.51027569       0.01114519       0.42061918 </v>
    <v>       0.31027569       0.11114519       0.52113270 </v>
    <v>       0.11027569       0.21114519       0.62164622 </v>
    <v>       0.91027569       0.31114519       0.72215973 </v>
    <v>       0.71027569       0.41114519       0.82267325 </v>
    <v>       0.84360902       0.34447853       0.42061918 </v>
    <v>       0.64360902       0.44447853       0.52113270 </v>
    <v>       0.44360902       0.54447853       0.62164622 </v>
    <v>       0.24360902       0.64447853       0.72215973 </v>
    <v>       0.04360902       0.74447853       0.82267325 </v>
    <v>       0.17694236       0.67781186       0.42061918 </v>
    <v>       0.97694236       0.77781186       0.52113270 </v>
    <v>       0.77694236       0.87781186       0.62164622 </v>
    <v>       0.57694236       0.97781186       0.72215973 </v>
    <v>       0.37694236       0.07781186       0.82267325 </v>
    <v>       0.69360902       0.54447853       0.37036243 </v>
    <v>       0.49360902       0.64447853       0.47087594 </v>
    <v>       0.29360902       0.74447853       0.57138946 </v>
    <v>       0.09360902       0.84447853       0.67190297 </v>
    <v>       0.89360902       0.94447853       0.77241649 </v>
    <v>       0.69360902       0.04447853       0.87293001 </v>
    <v>       0.02694236       0.87781186       0.37036243 </v>
    <v>       0.82694236       0.97781186       0.47087594 </v>
    <v>       0.62694236       0.07781186       0.57138946 </v>
    <v>       0.42694236       0.17781186       0.67190297 </v>
    <v>       0.22694236       0.27781186       0.77241649 </v>
    <v>       0.02694236       0.37781186       0.87293001 </v>
    <v>       0.36027569       0.21114519       0.37036243 </v>
    <v>       0.16027569       0.31114519       0.47087594 </v>
    <v>       0.96027569       0.41114519       0.57138946 </v>
    <v>       0.76027569       0.51114519       0.67190297 </v>
    <v>       0.56027569       0.61114519       0.77241649 </v>
    <v>       0.36027569       0.71114519       0.87293001 </v>
    <v>       0.86027569       0.21114519       0.37036243 </v>
    <v>       0.66027569       0.31114519       0.47087594 </v>
    <v>       0.46027569       0.41114519       0.57138946 </v>
    <v>       0.26027569       0.51114519       0.67190297 </v>
    <v>       0.06027569       0.61114519       0.77241649 </v>
    <v>       0.86027569       0.71114519       0.87293001 </v>
    <v>       0.19360902       0.54447853       0.37036243 </v>
    <v>       0.99360902       0.64447853       0.47087594 </v>
    <v>       0.79360902       0.74447853       0.57138946 </v>
    <v>       0.59360902       0.84447853       0.67190297 </v>
    <v>       0.39360902       0.94447853       0.77241649 </v>
    <v>       0.19360902       0.04447853       0.87293001 </v>
    <v>       0.52694236       0.87781186       0.37036243 </v>
    <v>       0.32694236       0.97781186       0.47087594 </v>
    <v>       0.12694236       0.07781186       0.57138946 </v>
    <v>       0.92694236       0.17781186       0.67190297 </v>
    <v>       0.72694236       0.27781186       0.77241649 </v>
    <v>       0.52694236       0.37781186       0.87293001 </v>
   </varray>
  </structure>
  <varray name="forces" >
   <v>      -0.28515413      -0.76239200       0.62896182 </v>
   <v>       0.11114345       0.33515887       0.24797485 </v>
   <v>       0.17926501       0.00154302       0.12916084 </v>
   <v>      -0.46329800      -7.29009033      19.15083482 </v>
   <v>       0.10716024      -0.08126543       0.21195445 </v>
   <v>      -0.01528168       0.54296224       0.00932005 </v>
   <v>       0.06158202       0.18346836      -0.28468292 </v>
   <v>       0.60544430       0.44361475      -0.60980695 </v>
   <v>      -0.01717339       0.21107312       0.04324423 </v>
   <v>      -0.28515413      -0.76239200       0.62896182 </v>
   <v>       0.11114345       0.33515887       0.24797485 </v>
   <v>       0.17926501       0.00154302       0.12916084 </v>
   <v>      -0.46329800      -7.29009033      19.15083482 </v>
   <v>       0.10716024      -0.08126543       0.21195445 </v>
   <v>      -0.01528168       0.54296224       0.00932005 </v>
   <v>       0.06158202       0.18346836      -0.28468292 </v>
   <v>       0.60544430       0.44361475      -0.60980695 </v>
   <v>      -0.01717339       0.21107312       0.04324423 </v>
   <v>      -0.15114422      -0.14722564      -0.27016826 </v>
   <v>      -0.36967734      -0.35616600      -0.43348029 </v>
   <v>      -0.02740065       0.26955088      -0.06658731 </v>
   <v>       0.43002525      -0.33116164       0.40949447 </v>
   <v>      -0.41381656      -0.38500909       0.40648266 </v>
   <v>       0.18333667      -0.24881301       0.33526877 </v>
   <v>       0.02421679      -0.16609223      -0.01388282 </v>
   <v>      -0.31663096      -0.16272296      -0.22601600 </v>
   <v>      -0.07848976       0.45044370      -0.50141723 </v>
   <v>      -0.15114422      -0.14722564      -0.27016826 </v>
   <v>      -0.36967734      -0.35616600      -0.43348029 </v>
   <v>      -0.02740065       0.26955088      -0.06658731 </v>
   <v>       0.43002525      -0.33116164       0.40949447 </v>
   <v>      -0.41381656      -0.38500909       0.40648266 </v>
   <v>       0.18333667      -0.24881301       0.33526877 </v>
   <v>       0.02421679      -0.16609223      -0.01388282 </v>
   <v>      -0.31663096      -0.16272296      -0.22601600 </v>
   <v>      -0.07848976       0.45044370      -0.50141723 </v>
   <v>      -0.23057783       0.24306081      -0.97436038 </v>
   <v>       0.53898429      -0.02341154      -0.02941246 </v>
   <v>       0.05564001       0.44168982      -0.11691551 </v>
   <v>       0.05568754       0.01355138       0.08102711 </v>
   <v>       0.63465926       0.98266241      -0.10754658 </v>
   <v>      -0.18229461       0.73705496      -0.64272503 </v>
   <v>       0.11798070       0.00627493      -0.01326954 </v>
   <v>       0.12670718       0.12938303      -0.07721394 </v>
   <v>      -0.07076834       0.36672435      -0.17950847 </v>
   <v>       0.80544328       0.33724856       1.03566349 </v>
   <v>       0.19087399       0.93357507      -0.82645485 </v>
   <v>       0.26574575       0.12279338       0.10165027 </v>
   <v>       0.12805994       0.32387428      -0.00164502 </v>
   <v>      -0.08806107       0.29188968      -0.25148066 </v>
   <v>       0.65192191       0.94702820       0.89239872 </v>
   <v>       0.19087399       0.93357507      -0.82645485 </v>
   <v>       0.26574575       0.12279338       0.10165027 </v>
   <v>       0.12805994       0.32387428      -0.00164502 </v>
   <v>      -0.08806107       0.29188968      -0.25148066 </v>
   <v>       0.65192191       0.94702820       0.89239872 </v>
   <v>      -0.23057783       0.24306081      -0.97436038 </v>
   <v>       0.53898429      -0.02341154      -0.02941246 </v>
   <v>       0.05564001       0.44168982      -0.11691551 </v>
   <v>       0.05568754       0.01355138       0.08102711 </v>
   <v>       0.63465926       0.98266241      -0.10754658 </v>
   <v>      -0.18229461       0.73705496      -0.64272503 </v>
   <v>       0.11798070       0.00627493      -0.01326954 </v>
   <v>       0.12670718       0.12938303      -0.07721394 </v>
   <v>      -0.07076834       0.36672435      -0.17950847 </v>
   <v>       0.80544328       0.33724856       1.03566349 </v>
   <v>       0.58248289      -1.09486837      -0.56512625 </v>
   <v>      -0.69325018      -0.65496656      -0.65488098 </v>
   <v>      -0.07084280      -0.10510453      -0.19121209 </v>
   <v>       0.06786098       0.00997297       0.02917520 </v>
   <v>      -0.03950443      -0.73554658       0.81129591 </v>
   <v>      -0.99118065       0.32842891       1.41104802 </v>
   <v>       0.51179127      -0.21627313      -0.90818429 </v>
   <v>      -0.74273326      -0.40953352      -1.31162892 </v>
   <v>      -0.14004471      -0.36448762      -0.16868619 </v>
   <v>      -0.08973969      -0.16243076       0.04653218 </v>
   <v>      -0.10807205      -1.03703484       0.53323368 </v>
   <v>      -0.09783179       7.38025020     -17.80386823 </v>
   <v>       0.91042472      -0.14725956      -1.62757188 </v>
   <v>      -0.72393830      -0.67874267      -0.61103373 </v>
   <v>      -0.06908586       0.04529467      -0.11287790 </v>
   <v>      -0.10439471      -0.31800285       0.00808651 </v>
   <v>      -0.23541274      -0.76473077       0.84150636 </v>
   <v>      -0.53063773       0.56475911       2.21733030 </v>
   <v>       0.91042472      -0.14725956      -1.62757188 </v>
   <v>      -0.72393830      -0.67874267      -0.61103373 </v>
   <v>      -0.06908586       0.04529467      -0.11287790 </v>
   <v>      -0.10439471      -0.31800285       0.00808651 </v>
   <v>      -0.23541274      -0.76473077       0.84150636 </v>
   <v>      -0.53063773       0.56475911       2.21733030 </v>
   <v>       0.58248289      -1.09486837      -0.56512625 </v>
   <v>      -0.69325018      -0.65496656      -0.65488098 </v>
   <v>      -0.07084280      -0.10510453      -0.19121209 </v>
   <v>       0.06786098       0.00997297       0.02917520 </v>
   <v>      -0.03950443      -0.73554658       0.81129591 </v>
   <v>      -0.99118065       0.32842891       1.41104802 </v>
   <v>       0.51179127      -0.21627313      -0.90818429 </v>
   <v>      -0.74273326      -0.40953352      -1.31162892 </v>
   <v>      -0.14004471      -0.36448762      -0.16868619 </v>
   <v>      -0.08973969      -0.16243076       0.04653218 </v>
   <v>      -0.10807205      -1.03703484       0.53323368 </v>
   <v>      -0.09783179       7.38025020     -17.80386823 </v>
  </varray>
  <varray name="stress" >
   <v>      43.28035491      -0.67107884     -11.56335961 </v>
   <v>      -0.67107423      51.01451519     -13.49580696 </v>
   <v>     -11.56336824     -13.49580701      42.21789081 </v>
  </varray>
  <energy>
   <i name="e_fr_energy">   -425.00498604 </i>
   <i name="e_wo_entrp">   -425.00373096 </i>
   <i name="e_0_energy">   -425.00435850 </i>
  </energy>
  <time name="totalsc"> 1633.49 1648.19</time>
  <eigenvalues>
   <array>
    <dimension dim="1">band</dimension>
    <dimension dim="2">kpoint</dimension>
    <dimension dim="3">spin</dimension>
    <field>eigene</field>
    <field>occ</field>
    <set>
     <set comment="spin 1">
      <set comment="kpoint 1">
       <r>   -9.4585    1.0000 </r>
       <r>   -9.0385    1.0000 </r>
       <r>   -8.9910    1.0000 </r>
       <r>   -8.8739    1.0000 </r>
       <r>   -8.6338    1.0000 </r>
       <r>   -8.6309    1.0000 </r>
       <r>   -8.6156    1.0000 </r>
       <r>   -8.5665    1.0000 </r>
       <r>   -8.3753    1.0000 </r>
       <r>   -8.2777    1.0000 </r>
       <r>   -7.9838    1.0000 </r>
       <r>   -7.8778    1.0000 </r>
       <r>   -7.8010    1.0000 </r>
       <r>   -7.7849    1.0000 </r>
       <r>   -7.7187    1.0000 </r>
       <r>   -7.7116    1.0000 </r>
       <r>   -7.6338    1.0000 </r>
       <r>   -7.5242    1.0000 </r>
       <r>   -7.4775    1.0000 </r>
       <r>   -7.4676    1.0000 </r>
       <r>   -7.3769    1.0000 </r>
       <r>   -7.3693    1.0000 </r>
       <r>   -7.2381    1.0000 </r>
       <r>   -7.1996    1.0000 </r>
       <r>   -7.1766    1.0000 </r>
       <r>   -7.0511    1.0000 </r>
       <r>   -6.9826    1.0000 </r>
       <r>   -6.9794    1.0000 </r>
       <r>   -6.6882    1.0000 </r>
       <r>   -6.5982    1.0000 </r>
       <r>   -6.5218    1.0000 </r>
       <r>   -6.5059    1.0000 </r>
       <r>   -6.4085    1.0000 </r>
       <r>   -6.3158    1.0000 </r>
       <r>   -6.2870    1.0000 </r>
       <r>   -6.2465    1.0000 </r>
       <r>   -6.1975    1.0000 </r>
       <r>   -6.1326    1.0000 </r>
       <r>   -6.1035    1.0000 </r>
       <r>   -5.9174    1.0000 </r>
       <r>   -5.9016    1.0000 </r>
       <r>   -5.8279    1.0000 </r>
       <r>   -5.6913    1.0000 </r>
       <r>   -5.6064    1.0000 </r>
       <r>   -5.5056    1.0000 </r>
       <r>   -5.4023    1.0000 </r>
       <r>   -5.2806    1.0000 </r>
       <r>   -5.2403    1.0000 </r>
       <r>   -5.1956    1.0000 </r>
       <r>   -5.0919    1.0000 </r>
       <r>   -5.0862    1.0000 </r>
       <r>   -4.9796    1.0000 </r>
       <r>   -4.9670    1.0000 </r>
       <r>   -4.9345    1.0000 </r>
       <r>   -4.8324    1.0000 </r>
       <r>   -4.6379    1.0000 </r>
       <r>   -4.5377    1.0000 </r>
       <r>   -4.4851    1.0000 </r>
       <r>   -4.3939    1.0000 </r>
       <r>   -4.3698    1.0000 </r>
       <r>   -4.2699    1.0000 </r>
       <r>   -4.1468    1.0000 </r>
       <r>   -4.1347    1.0000 </r>
       <r>   -3.9822    1.0000 </r>
       <r>   -3.9442    1.0000 </r>
       <r>   -3.9093    1.0000 </r>
       <r>   -3.9050    1.0000 </r>
       <r>   -3.8354    1.0000 </r>
       <r>   -3.7454    1.0000 </r>
       <r>   -3.7060    1.0000 </r>
       <r>   -3.5698    1.0000 </r>
       <r>   -3.5644    1.0000 </r>
       <r>   -3.5502    1.0000 </r>
       <r>   -3.4540    1.0000 </r>
       <r>   -3.4411    1.0000 </r>
       <r>   -3.4007    1.0000 </r>
       <r>   -3.2676    1.0000 </r>
       <r>   -3.2672    1.0000 </r>
       <r>   -3.0435    1.0000 </r>
       <r>   -2.9767    1.0000 </r>
       <r>   -2.8849    1.0000 </r>
       <r>   -2.8378    1.0000 </r>
       <r>   -2.7192    1.0000 </r>
       <r>   -2.6419    1.0000 </r>
       <r>   -2.5711    1.0000 </r>
       <r>   -2.5137    1.0000 </r>
       <r>   -2.4824    1.0000 </r>
       <r>   -2.1226    1.0000 </r>
       <r>   -2.0701    1.0000 </r>
       <r>   -1.9188    1.0000 </r>
       <r>   -1.9002    1.0000 </r>
       <r>   -1.7448    1.0000 </r>
       <r>   -1.6472    1.0000 </r>
       <r>   -1.5907    1.0000 </r>
       <r>   -1.5064    1.0000 </r>
       <r>   -1.4466    1.0000 </r>
       <r>   -1.1901    1.0000 </r>
       <r>   -1.1409    1.0000 </r>
       <r>   -1.1073    1.0000 </r>
       <r>   -0.9926    1.0000 </r>
       <r>   -0.9471    1.0000 </r>
       <r>   -0.8679    1.0000 </r>
       <r>   -0.8398    1.0000 </r>
       <r>   -0.7341    1.0000 </r>
       <r>   -0.7308    1.0000 </r>
       <r>   -0.7151    1.0000 </r>
       <r>   -0.6783    1.0000 </r>
       <r>   -0.6568    1.0000 </r>
       <r>   -0.5680    1.0000 </r>
       <r>   -0.5597    1.0000 </r>
       <r>   -0.5190    1.0000 </r>
       <r>   -0.4552    1.0000 </r>
       <r>   -0.4102    1.0000 </r>
       <r>   -0.4024    1.0000 </r>
       <r>   -0.3676    1.0000 </r>
       <r>   -0.3093    1.0000 </r>
       <r>   -0.3009    1.0000 </r>
       <r>   -0.2689    1.0000 </r>
       <r>   -0.1689    1.0000 </r>
       <r>   -0.1406    1.0000 </r>
       <r>   -0.1186    1.0000 </r>
       <r>   -0.0757    1.0000 </r>
       <r>   -0.0689    1.0000 </r>
       <r>    0.0381    1.0000 </r>
       <r>    0.0478    1.0000 </r>
       <r>    0.0505    1.0000 </r>
       <r>    0.1124    1.0000 </r>
       <r>    0.1523    1.0000 </r>
       <r>    0.1754    1.0000 </r>
       <r>    0.1795    1.0000 </r>
       <r>    0.2573    1.0000 </r>
       <r>    0.2824    1.0000 </r>
       <r>    0.3194    1.0000 </r>
       <r>    0.3724    1.0000 </r>
       <r>    0.4045    1.0000 </r>
       <r>    0.4349    1.0000 </r>
       <r>    0.5000    1.0000 </r>
       <r>    0.5230    1.0000 </r>
       <r>    0.5302    1.0000 </r>
       <r>    0.5830    1.0000 </r>
       <r>    0.5980    1.0000 </r>
       <r>    0.6152    1.0000 </r>
       <r>    0.6171    1.0000 </r>
       <r>    0.7061    1.0000 </r>
       <r>    0.7269    1.0000 </r>
       <r>    0.7339    1.0000 </r>
       <r>    0.7519    1.0000 </r>
       <r>    0.8018    1.0000 </r>
       <r>    0.8806    1.0000 </r>
       <r>    0.9229    1.0000 </r>
       <r>    0.9433    1.0000 </r>
       <r>    0.9784    1.0000 </r>
       <r>    1.0385    1.0000 </r>
       <r>    1.0692    1.0000 </r>
       <r>    1.0695    1.0000 </r>
       <r>    1.0907    1.0000 </r>
       <r>    1.1638    1.0000 </r>
       <r>    1.1954    1.0000 </r>
       <r>    1.1997    1.0000 </r>
       <r>    1.2740    1.0000 </r>
       <r>    1.3004    1.0000 </r>
       <r>    1.3480    1.0000 </r>
       <r>    1.4313    1.0000 </r>
       <r>    1.4600    1.0000 </r>
       <r>    1.4758    1.0000 </r>
       <r>    1.5068    1.0000 </r>
       <r>    1.5655    1.0000 </r>
       <r>    1.6113    1.0000 </r>
       <r>    1.6614    1.0000 </r>
       <r>    1.7316    1.0000 </r>
       <r>    1.7715    1.0000 </r>
       <r>    1.7835    1.0000 </r>
       <r>    1.8186    1.0000 </r>
       <r>    1.8384    1.0000 </r>
       <r>    1.8416    1.0000 </r>
       <r>    1.9451    1.0000 </r>
       <r>    1.9831    1.0000 </r>
       <r>    2.0148    1.0000 </r>
       <r>    2.0291    1.0000 </r>
       <r>    2.0341    1.0000 </r>
       <r>    2.1010    1.0000 </r>
       <r>    2.1153    1.0000 </r>
       <r>    2.1651    1.0000 </r>
       <r>    2.1834    1.0000 </r>
       <r>    2.2373    1.0000 </r>
       <r>    2.2460    1.0000 </r>
       <r>    2.3505    1.0000 </r>
       <r>    2.3973    1.0000 </r>
       <r>    2.4724    1.0000 </r>
       <r>    2.5043    1.0000 </r>
       <r>    2.5100    1.0000 </r>
       <r>    2.6155    1.0000 </r>
       <r>    2.6258    1.0000 </r>
       <r>    2.6731    1.0000 </r>
       <r>    2.7055    1.0000 </r>
       <r>    2.7105    1.0000 </r>
       <r>    2.7396    1.0000 </r>
       <r>    2.7625    1.0000 </r>
       <r>    2.8262    1.0000 </r>
       <r>    2.8360    1.0000 </r>
       <r>    2.8615    1.0000 </r>
       <r>    2.9721    1.0000 </r>
       <r>    3.0085    1.0000 </r>
       <r>    3.0746    0.9999 </r>
       <r>    3.1235    0.0005 </r>
       <r>    3.1292    0.0000 </r>
       <r>    3.1510    0.0000 </r>
       <r>    3.1688    0.0000 </r>
       <r>    3.2553    0.0000 </r>
       <r>    3.2768    0.0000 </r>
       <r>    3.3395    0.0000 </r>
       <r>    3.3650    0.0000 </r>
       <r>    3.4300    0.0000 </r>
       <r>    3.4610    0.0000 </r>
       <r>    3.4870    0.0000 </r>
       <r>    3.5634    0.0000 </r>
       <r>    3.5649    0.0000 </r>
       <r>    3.6599    0.0000 </r>
       <r>    3.6927    0.0000 </r>
       <r>    3.6999    0.0000 </r>
       <r>    3.7391    0.0000 </r>
       <r>    3.8097    0.0000 </r>
       <r>    3.9783    0.0000 </r>
       <r>    3.9812    0.0000 </r>
       <r>    4.0293    0.0000 </r>
       <r>    4.0867    0.0000 </r>
       <r>    4.1509    0.0000 </r>
       <r>    4.1695    0.0000 </r>
       <r>    4.2837    0.0000 </r>
       <r>    4.3001    0.0000 </r>
       <r>    4.3243    0.0000 </r>
       <r>    4.4314    0.0000 </r>
       <r>    4.4466    0.0000 </r>
       <r>    4.4495    0.0000 </r>
       <r>    4.5227    0.0000 </r>
       <r>    4.6001    0.0000 </r>
       <r>    4.6048    0.0000 </r>
       <r>    4.6360    0.0000 </r>
       <r>    4.7062    0.0000 </r>
       <r>    4.7975    0.0000 </r>
       <r>    4.8294    0.0000 </r>
       <r>    4.9126    0.0000 </r>
       <r>    5.0337    0.0000 </r>
       <r>    5.0390    0.0000 </r>
       <r>    5.1177    0.0000 </r>
      </set>
      <set comment="kpoint 2">
       <r>   -9.3733    1.0000 </r>
       <r>   -9.1465    1.0000 </r>
       <r>   -9.0459    1.0000 </r>
       <r>   -8.9388    1.0000 </r>
       <r>   -8.7701    1.0000 </r>
       <r>   -8.6612    1.0000 </r>
       <r>   -8.5368    1.0000 </r>
       <r>   -8.3048    1.0000 </r>
       <r>   -8.2481    1.0000 </r>
       <r>   -8.1736    1.0000 </r>
       <r>   -8.0192    1.0000 </r>
       <r>   -7.9151    1.0000 </r>
       <r>   -7.8643    1.0000 </r>
       <r>   -7.7880    1.0000 </r>
       <r>   -7.7878    1.0000 </r>
       <r>   -7.7050    1.0000 </r>
       <r>   -7.6607    1.0000 </r>
       <r>   -7.5505    1.0000 </r>
       <r>   -7.5160    1.0000 </r>
       <r>   -7.4927    1.0000 </r>
       <r>   -7.3975    1.0000 </r>
       <r>   -7.3848    1.0000 </r>
       <r>   -7.2777    1.0000 </r>
       <r>   -7.2032    1.0000 </r>
       <r>   -7.1805    1.0000 </r>
       <r>   -6.9231    1.0000 </r>
       <r>   -6.8925    1.0000 </r>
       <r>   -6.8168    1.0000 </r>
       <r>   -6.8119    1.0000 </r>
       <r>   -6.6267    1.0000 </r>
       <r>   -6.5749    1.0000 </r>
       <r>   -6.4442    1.0000 </r>
       <r>   -6.4169    1.0000 </r>
       <r>   -6.3417    1.0000 </r>
       <r>   -6.3199    1.0000 </r>
       <r>   -6.3053    1.0000 </r>
       <r>   -6.2509    1.0000 </r>
       <r>   -6.1239    1.0000 </r>
       <r>   -6.0943    1.0000 </r>
       <r>   -5.9596    1.0000 </r>
       <r>   -5.9287    1.0000 </r>
       <r>   -5.8261    1.0000 </r>
       <r>   -5.7505    1.0000 </r>
       <r>   -5.6420    1.0000 </r>
       <r>   -5.5998    1.0000 </r>
       <r>   -5.4087    1.0000 </r>
       <r>   -5.2479    1.0000 </r>
       <r>   -5.2297    1.0000 </r>
       <r>   -5.1917    1.0000 </r>
       <r>   -5.1052    1.0000 </r>
       <r>   -5.0457    1.0000 </r>
       <r>   -5.0213    1.0000 </r>
       <r>   -4.8431    1.0000 </r>
       <r>   -4.8025    1.0000 </r>
       <r>   -4.6610    1.0000 </r>
       <r>   -4.5684    1.0000 </r>
       <r>   -4.5234    1.0000 </r>
       <r>   -4.4693    1.0000 </r>
       <r>   -4.3582    1.0000 </r>
       <r>   -4.2820    1.0000 </r>
       <r>   -4.2356    1.0000 </r>
       <r>   -4.1863    1.0000 </r>
       <r>   -4.1565    1.0000 </r>
       <r>   -4.1307    1.0000 </r>
       <r>   -3.9749    1.0000 </r>
       <r>   -3.8586    1.0000 </r>
       <r>   -3.8460    1.0000 </r>
       <r>   -3.7965    1.0000 </r>
       <r>   -3.7562    1.0000 </r>
       <r>   -3.7346    1.0000 </r>
       <r>   -3.6342    1.0000 </r>
       <r>   -3.6077    1.0000 </r>
       <r>   -3.5267    1.0000 </r>
       <r>   -3.5212    1.0000 </r>
       <r>   -3.4291    1.0000 </r>
       <r>   -3.3784    1.0000 </r>
       <r>   -3.2985    1.0000 </r>
       <r>   -3.2428    1.0000 </r>
       <r>   -3.0699    1.0000 </r>
       <r>   -2.9025    1.0000 </r>
       <r>   -2.9007    1.0000 </r>
       <r>   -2.8039    1.0000 </r>
       <r>   -2.8001    1.0000 </r>
       <r>   -2.7019    1.0000 </r>
       <r>   -2.5911    1.0000 </r>
       <r>   -2.4623    1.0000 </r>
       <r>   -2.3386    1.0000 </r>
       <r>   -2.3306    1.0000 </r>
       <r>   -2.2337    1.0000 </r>
       <r>   -2.2254    1.0000 </r>
       <r>   -1.8853    1.0000 </r>
       <r>   -1.8493    1.0000 </r>
       <r>   -1.6372    1.0000 </r>
       <r>   -1.5798    1.0000 </r>
       <r>   -1.4760    1.0000 </r>
       <r>   -1.3821    1.0000 </r>
       <r>   -1.1726    1.0000 </r>
       <r>   -1.0670    1.0000 </r>
       <r>   -1.0299    1.0000 </r>
       <r>   -0.9202    1.0000 </r>
       <r>   -0.9083    1.0000 </r>
       <r>   -0.8020    1.0000 </r>
       <r>   -0.7722    1.0000 </r>
       <r>   -0.7606    1.0000 </r>
       <r>   -0.6913    1.0000 </r>
       <r>   -0.6649    1.0000 </r>
       <r>   -0.6535    1.0000 </r>
       <r>   -0.5719    1.0000 </r>
       <r>   -0.5305    1.0000 </r>
       <r>   -0.5103    1.0000 </r>
       <r>   -0.4650    1.0000 </r>
       <r>   -0.4441    1.0000 </r>
       <r>   -0.4055    1.0000 </r>
       <r>   -0.3457    1.0000 </r>
       <r>   -0.3026    1.0000 </r>
       <r>   -0.2593    1.0000 </r>
       <r>   -0.2491    1.0000 </r>
       <r>   -0.2243    1.0000 </r>
       <r>   -0.1959    1.0000 </r>
       <r>   -0.1384    1.0000 </r>
       <r>   -0.0806    1.0000 </r>
       <r>   -0.0717    1.0000 </r>
       <r>   -0.0459    1.0000 </r>
       <r>   -0.0387    1.0000 </r>
       <r>    0.0222    1.0000 </r>
       <r>    0.0440    1.0000 </r>
       <r>    0.0676    1.0000 </r>
       <r>    0.0821    1.0000 </r>
       <r>    0.1309    1.0000 </r>
       <r>    0.1389    1.0000 </r>
       <r>    0.1626    1.0000 </r>
       <r>    0.2256    1.0000 </r>
       <r>    0.2621    1.0000 </r>
       <r>    0.3002    1.0000 </r>
       <r>    0.3360    1.0000 </r>
       <r>    0.4008    1.0000 </r>
       <r>    0.4383    1.0000 </r>
       <r>    0.4670    1.0000 </r>
       <r>    0.5258    1.0000 </r>
       <r>    0.5563    1.0000 </r>
       <r>    0.5783    1.0000 </r>
       <r>    0.6050    1.0000 </r>
       <r>    0.6735    1.0000 </r>
       <r>    0.6940    1.0000 </r>
       <r>    0.7140    1.0000 </r>
       <r>    0.7289    1.0000 </r>
       <r>    0.7740    1.0000 </r>
       <r>    0.8046    1.0000 </r>
       <r>    0.8137    1.0000 </r>
       <r>    0.8377    1.0000 </r>
       <r>    0.9236    1.0000 </r>
       <r>    0.9388    1.0000 </r>
       <r>    0.9978    1.0000 </r>
       <r>    1.0318    1.0000 </r>
       <r>    1.1255    1.0000 </r>
       <r>    1.1263    1.0000 </r>
       <r>    1.1592    1.0000 </r>
       <r>    1.1872    1.0000 </r>
       <r>    1.3054    1.0000 </r>
       <r>    1.3230    1.0000 </r>
       <r>    1.3552    1.0000 </r>
       <r>    1.3766    1.0000 </r>
       <r>    1.3881    1.0000 </r>
       <r>    1.4617    1.0000 </r>
       <r>    1.5033    1.0000 </r>
       <r>    1.5153    1.0000 </r>
       <r>    1.5716    1.0000 </r>
       <r>    1.5741    1.0000 </r>
       <r>    1.6035    1.0000 </r>
       <r>    1.7129    1.0000 </r>
       <r>    1.7408    1.0000 </r>
       <r>    1.7612    1.0000 </r>
       <r>    1.8043    1.0000 </r>
       <r>    1.8465    1.0000 </r>
       <r>    1.9073    1.0000 </r>
       <r>    1.9477    1.0000 </r>
       <r>    1.9685    1.0000 </r>
       <r>    1.9871    1.0000 </r>
       <r>    2.0452    1.0000 </r>
       <r>    2.0488    1.0000 </r>
       <r>    2.1275    1.0000 </r>
       <r>    2.2150    1.0000 </r>
       <r>    2.2380    1.0000 </r>
       <r>    2.2665    1.0000 </r>
       <r>    2.3108    1.0000 </r>
       <r>    2.3257    1.0000 </r>
       <r>    2.3511    1.0000 </r>
       <r>    2.4182    1.0000 </r>
       <r>    2.4295    1.0000 </r>
       <r>    2.4785    1.0000 </r>
       <r>    2.4891    1.0000 </r>
       <r>    2.5773    1.0000 </r>
       <r>    2.5795    1.0000 </r>
       <r>    2.6200    1.0000 </r>
       <r>    2.7028    1.0000 </r>
       <r>    2.7516    1.0000 </r>
       <r>    2.7934    1.0000 </r>
       <r>    2.8014    1.0000 </r>
       <r>    2.8320    1.0000 </r>
       <r>    2.8963    1.0000 </r>
       <r>    2.9664    1.0000 </r>
       <r>    2.9735    1.0000 </r>
       <r>    3.0170    1.0000 </r>
       <r>    3.0437    1.0000 </r>
       <r>    3.0693    1.0000 </r>
       <r>    3.1084    0.1250 </r>
       <r>    3.1793    0.0000 </r>
       <r>    3.2282    0.0000 </r>
       <r>    3.2615    0.0000 </r>
       <r>    3.3153    0.0000 </r>
       <r>    3.3232    0.0000 </r>
       <r>    3.3864    0.0000 </r>
       <r>    3.4281    0.0000 </r>
       <r>    3.4967    0.0000 </r>
       <r>    3.5089    0.0000 </r>
       <r>    3.5633    0.0000 </r>
       <r>    3.6236    0.0000 </r>
       <r>    3.6883    0.0000 </r>
       <r>    3.7178    0.0000 </r>
       <r>    3.7795    0.0000 </r>
       <r>    3.7940    0.0000 </r>
       <r>    3.8545    0.0000 </r>
       <r>    3.9218    0.0000 </r>
       <r>    3.9488    0.0000 </r>
       <r>    3.9973    0.0000 </r>
       <r>    4.0581    0.0000 </r>
       <r>    4.0743    0.0000 </r>
       <r>    4.2173    0.0000 </r>
       <r>    4.2224    0.0000 </r>
       <r>    4.3200    0.0000 </r>
       <r>    4.3476    0.0000 </r>
       <r>    4.4312    0.0000 </r>
       <r>    4.4463    0.0000 </r>
       <r>    4.4881    0.0000 </r>
       <r>    4.4997    0.0000 </r>
       <r>    4.5971    0.0000 </r>
       <r>    4.6097    0.0000 </r>
       <r>    4.6731    0.0000 </r>
       <r>    4.6944    0.0000 </r>
       <r>    4.7538    0.0000 </r>
       <r>    4.7760    0.0000 </r>
       <r>    4.9200    0.0000 </r>
       <r>    4.9207    0.0000 </r>
       <r>    4.9735    0.0000 </r>
       <r>    5.0035    0.0000 </r>
      </set>
      <set comment="kpoint 3">
       <r>   -9.3775    1.0000 </r>
       <r>   -9.2658    1.0000 </r>
       <r>   -9.0008    1.0000 </r>
       <r>   -8.7945    1.0000 </r>
       <r>   -8.7208    1.0000 </r>
       <r>   -8.6197    1.0000 </r>
       <r>   -8.3180    1.0000 </r>
       <r>   -8.2923    1.0000 </r>
       <r>   -8.2521    1.0000 </r>
       <r>   -8.2318    1.0000 </r>
       <r>   -8.1912    1.0000 </r>
       <r>   -8.1852    1.0000 </r>
       <r>   -8.0419    1.0000 </r>
       <r>   -7.9298    1.0000 </r>
       <r>   -7.8639    1.0000 </r>
       <r>   -7.6692    1.0000 </r>
       <r>   -7.6121    1.0000 </r>
       <r>   -7.6079    1.0000 </r>
       <r>   -7.5184    1.0000 </r>
       <r>   -7.3749    1.0000 </r>
       <r>   -7.3591    1.0000 </r>
       <r>   -7.2261    1.0000 </r>
       <r>   -7.1719    1.0000 </r>
       <r>   -7.1628    1.0000 </r>
       <r>   -7.0304    1.0000 </r>
       <r>   -6.8603    1.0000 </r>
       <r>   -6.8074    1.0000 </r>
       <r>   -6.7751    1.0000 </r>
       <r>   -6.7470    1.0000 </r>
       <r>   -6.6799    1.0000 </r>
       <r>   -6.5773    1.0000 </r>
       <r>   -6.5371    1.0000 </r>
       <r>   -6.4819    1.0000 </r>
       <r>   -6.3953    1.0000 </r>
       <r>   -6.3616    1.0000 </r>
       <r>   -6.2801    1.0000 </r>
       <r>   -6.2229    1.0000 </r>
       <r>   -6.2183    1.0000 </r>
       <r>   -6.1612    1.0000 </r>
       <r>   -6.0066    1.0000 </r>
       <r>   -5.8556    1.0000 </r>
       <r>   -5.7518    1.0000 </r>
       <r>   -5.6943    1.0000 </r>
       <r>   -5.6920    1.0000 </r>
       <r>   -5.6029    1.0000 </r>
       <r>   -5.2846    1.0000 </r>
       <r>   -5.2827    1.0000 </r>
       <r>   -5.2659    1.0000 </r>
       <r>   -5.2014    1.0000 </r>
       <r>   -5.1395    1.0000 </r>
       <r>   -5.0050    1.0000 </r>
       <r>   -4.9477    1.0000 </r>
       <r>   -4.7913    1.0000 </r>
       <r>   -4.7751    1.0000 </r>
       <r>   -4.6901    1.0000 </r>
       <r>   -4.5702    1.0000 </r>
       <r>   -4.5292    1.0000 </r>
       <r>   -4.5196    1.0000 </r>
       <r>   -4.4478    1.0000 </r>
       <r>   -4.3431    1.0000 </r>
       <r>   -4.2882    1.0000 </r>
       <r>   -4.2550    1.0000 </r>
       <r>   -4.2209    1.0000 </r>
       <r>   -4.2075    1.0000 </r>
       <r>   -4.1664    1.0000 </r>
       <r>   -4.0679    1.0000 </r>
       <r>   -3.9571    1.0000 </r>
       <r>   -3.7796    1.0000 </r>
       <r>   -3.7701    1.0000 </r>
       <r>   -3.7358    1.0000 </r>
       <r>   -3.5790    1.0000 </r>
       <r>   -3.5674    1.0000 </r>
       <r>   -3.5162    1.0000 </r>
       <r>   -3.4826    1.0000 </r>
       <r>   -3.3459    1.0000 </r>
       <r>   -3.2540    1.0000 </r>
       <r>   -3.1691    1.0000 </r>
       <r>   -3.1282    1.0000 </r>
       <r>   -2.9525    1.0000 </r>
       <r>   -2.8929    1.0000 </r>
       <r>   -2.8332    1.0000 </r>
       <r>   -2.8037    1.0000 </r>
       <r>   -2.6931    1.0000 </r>
       <r>   -2.6092    1.0000 </r>
       <r>   -2.5439    1.0000 </r>
       <r>   -2.4917    1.0000 </r>
       <r>   -2.3474    1.0000 </r>
       <r>   -2.2200    1.0000 </r>
       <r>   -2.1366    1.0000 </r>
       <r>   -2.1096    1.0000 </r>
       <r>   -2.0286    1.0000 </r>
       <r>   -1.8348    1.0000 </r>
       <r>   -1.6457    1.0000 </r>
       <r>   -1.6024    1.0000 </r>
       <r>   -1.4942    1.0000 </r>
       <r>   -1.3451    1.0000 </r>
       <r>   -1.3343    1.0000 </r>
       <r>   -1.1915    1.0000 </r>
       <r>   -1.0945    1.0000 </r>
       <r>   -1.0827    1.0000 </r>
       <r>   -0.9023    1.0000 </r>
       <r>   -0.8651    1.0000 </r>
       <r>   -0.8471    1.0000 </r>
       <r>   -0.8310    1.0000 </r>
       <r>   -0.7648    1.0000 </r>
       <r>   -0.6866    1.0000 </r>
       <r>   -0.6716    1.0000 </r>
       <r>   -0.6046    1.0000 </r>
       <r>   -0.5926    1.0000 </r>
       <r>   -0.5701    1.0000 </r>
       <r>   -0.4323    1.0000 </r>
       <r>   -0.3955    1.0000 </r>
       <r>   -0.3902    1.0000 </r>
       <r>   -0.3440    1.0000 </r>
       <r>   -0.3287    1.0000 </r>
       <r>   -0.2781    1.0000 </r>
       <r>   -0.2358    1.0000 </r>
       <r>   -0.2088    1.0000 </r>
       <r>   -0.2005    1.0000 </r>
       <r>   -0.1108    1.0000 </r>
       <r>   -0.0810    1.0000 </r>
       <r>   -0.0602    1.0000 </r>
       <r>   -0.0187    1.0000 </r>
       <r>    0.0170    1.0000 </r>
       <r>    0.0371    1.0000 </r>
       <r>    0.0953    1.0000 </r>
       <r>    0.1638    1.0000 </r>
       <r>    0.1647    1.0000 </r>
       <r>    0.1898    1.0000 </r>
       <r>    0.1975    1.0000 </r>
       <r>    0.2339    1.0000 </r>
       <r>    0.2709    1.0000 </r>
       <r>    0.2978    1.0000 </r>
       <r>    0.3182    1.0000 </r>
       <r>    0.4120    1.0000 </r>
       <r>    0.4174    1.0000 </r>
       <r>    0.4418    1.0000 </r>
       <r>    0.4661    1.0000 </r>
       <r>    0.4707    1.0000 </r>
       <r>    0.5968    1.0000 </r>
       <r>    0.5992    1.0000 </r>
       <r>    0.6159    1.0000 </r>
       <r>    0.6209    1.0000 </r>
       <r>    0.6525    1.0000 </r>
       <r>    0.7264    1.0000 </r>
       <r>    0.7325    1.0000 </r>
       <r>    0.8030    1.0000 </r>
       <r>    0.8108    1.0000 </r>
       <r>    0.8468    1.0000 </r>
       <r>    0.8886    1.0000 </r>
       <r>    0.9138    1.0000 </r>
       <r>    0.9217    1.0000 </r>
       <r>    0.9385    1.0000 </r>
       <r>    0.9542    1.0000 </r>
       <r>    1.0455    1.0000 </r>
       <r>    1.1378    1.0000 </r>
       <r>    1.1509    1.0000 </r>
       <r>    1.1928    1.0000 </r>
       <r>    1.2486    1.0000 </r>
       <r>    1.2806    1.0000 </r>
       <r>    1.3112    1.0000 </r>
       <r>    1.3308    1.0000 </r>
       <r>    1.4092    1.0000 </r>
       <r>    1.4204    1.0000 </r>
       <r>    1.4555    1.0000 </r>
       <r>    1.4870    1.0000 </r>
       <r>    1.5585    1.0000 </r>
       <r>    1.6309    1.0000 </r>
[...]
       <r>    -8.1017     0.3812    20.6667 </r>
       <r>    -8.0482     3.3333    20.8450 </r>
       <r>    -7.9947    27.7686    22.3305 </r>
       <r>    -7.9412    16.7352    23.2257 </r>
       <r>    -7.8877    33.4271    25.0139 </r>
       <r>    -7.8342    26.7064    26.4425 </r>
       <r>    -7.7807    24.8349    27.7711 </r>
       <r>    -7.7273    17.9853    28.7332 </r>
       <r>    -7.6738    34.6805    30.5884 </r>
       <r>    -7.6203    30.1721    32.2025 </r>
       <r>    -7.5668    31.9927    33.9139 </r>
       <r>    -7.5133    37.3280    35.9108 </r>
       <r>    -7.4598    41.5270    38.1322 </r>
       <r>    -7.4063    19.1943    39.1591 </r>
       <r>    -7.3528    52.4964    41.9673 </r>
       <r>    -7.2993    19.4052    43.0054 </r>
       <r>    -7.2458    23.3247    44.2532 </r>
       <r>    -7.1923    34.9978    46.1254 </r>
       <r>    -7.1388    48.0655    48.6966 </r>
       <r>    -7.0853    23.2066    49.9381 </r>
       <r>    -7.0318    10.3380    50.4911 </r>
       <r>    -6.9783    20.2328    51.5735 </r>
       <r>    -6.9248    19.2012    52.6006 </r>
       <r>    -6.8713    26.7281    54.0305 </r>
       <r>    -6.8178    19.2810    55.0619 </r>
       <r>    -6.7643    40.7591    57.2423 </r>
       <r>    -6.7108    15.1202    58.0511 </r>
       <r>    -6.6574    34.4961    59.8965 </r>
       <r>    -6.6039    20.4160    60.9887 </r>
       <r>    -6.5504    26.5225    62.4075 </r>
       <r>    -6.4969    16.3687    63.2831 </r>
       <r>    -6.4434    29.5009    64.8613 </r>
       <r>    -6.3899    38.6378    66.9282 </r>
       <r>    -6.3364    23.2067    68.1696 </r>
       <r>    -6.2829    35.4189    70.0644 </r>
       <r>    -6.2294    43.2664    72.3789 </r>
       <r>    -6.1759    34.4401    74.2213 </r>
       <r>    -6.1224    17.7259    75.1695 </r>
       <r>    -6.0689    36.5623    77.1254 </r>
       <r>    -6.0154    24.4338    78.4325 </r>
       <r>    -5.9619    10.9534    79.0185 </r>
       <r>    -5.9084    30.5416    80.6523 </r>
       <r>    -5.8549    17.2681    81.5760 </r>
       <r>    -5.8014    21.6675    82.7351 </r>
       <r>    -5.7479    19.6347    83.7855 </r>
       <r>    -5.6944    19.9798    84.8543 </r>
       <r>    -5.6410    25.2310    86.2040 </r>
       <r>    -5.5875    17.9186    87.1626 </r>
       <r>    -5.5340     9.5072    87.6712 </r>
       <r>    -5.4805    26.4692    89.0871 </r>
       <r>    -5.4270    24.7150    90.4092 </r>
       <r>    -5.3735    16.1027    91.2707 </r>
       <r>    -5.3200    13.6541    92.0011 </r>
       <r>    -5.2665    37.4568    94.0048 </r>
       <r>    -5.2130    30.0015    95.6097 </r>
       <r>    -5.1595    29.0239    97.1624 </r>
       <r>    -5.1060    28.4628    98.6850 </r>
       <r>    -5.0525    21.3476    99.8270 </r>
       <r>    -4.9990    36.5758   101.7836 </r>
       <r>    -4.9455    32.8322   103.5400 </r>
       <r>    -4.8920    27.7029   105.0219 </r>
       <r>    -4.8385    22.9615   106.2503 </r>
       <r>    -4.7850    27.0682   107.6983 </r>
       <r>    -4.7315    21.7863   108.8637 </r>
       <r>    -4.6780    24.8067   110.1908 </r>
       <r>    -4.6246    21.4687   111.3392 </r>
       <r>    -4.5711    29.8134   112.9341 </r>
       <r>    -4.5176    26.2087   114.3361 </r>
       <r>    -4.4641    30.4609   115.9656 </r>
       <r>    -4.4106    21.0172   117.0900 </r>
       <r>    -4.3571    16.6784   117.9822 </r>
       <r>    -4.3036    23.4362   119.2359 </r>
       <r>    -4.2501    38.5647   121.2989 </r>
       <r>    -4.1966    32.7997   123.0535 </r>
       <r>    -4.1431    40.3407   125.2115 </r>
       <r>    -4.0896    30.2921   126.8320 </r>
       <r>    -4.0361    20.6520   127.9368 </r>
       <r>    -3.9826    27.4832   129.4070 </r>
       <r>    -3.9291    38.4930   131.4662 </r>
       <r>    -3.8756    21.7307   132.6287 </r>
       <r>    -3.8221    31.5705   134.3175 </r>
       <r>    -3.7686    23.1059   135.5536 </r>
       <r>    -3.7151    59.2052   138.7207 </r>
       <r>    -3.6616    20.3813   139.8110 </r>
       <r>    -3.6082    42.5446   142.0870 </r>
       <r>    -3.5547    19.6870   143.1401 </r>
       <r>    -3.5012    36.8501   145.1114 </r>
       <r>    -3.4477    27.6506   146.5906 </r>
       <r>    -3.3942    27.3227   148.0522 </r>
       <r>    -3.3407    31.2823   149.7257 </r>
       <r>    -3.2872    18.1276   150.6954 </r>
       <r>    -3.2337    32.7631   152.4481 </r>
       <r>    -3.1802    24.6263   153.7654 </r>
       <r>    -3.1267    21.8948   154.9367 </r>
       <r>    -3.0732    19.7599   155.9938 </r>
       <r>    -3.0197    21.6435   157.1516 </r>
       <r>    -2.9662    26.1721   158.5517 </r>
       <r>    -2.9127    17.4450   159.4849 </r>
       <r>    -2.8592    39.9916   161.6242 </r>
       <r>    -2.8057    20.4801   162.7198 </r>
       <r>    -2.7522    39.3868   164.8268 </r>
       <r>    -2.6987    10.9202   165.4110 </r>
       <r>    -2.6452    31.5075   167.0964 </r>
       <r>    -2.5918    31.3770   168.7749 </r>
       <r>    -2.5383    19.2408   169.8042 </r>
       <r>    -2.4848    29.6770   171.3918 </r>
       <r>    -2.4313    26.0329   172.7844 </r>
       <r>    -2.3778     4.9941   173.0516 </r>
       <r>    -2.3243    34.6580   174.9056 </r>
       <r>    -2.2708    17.5302   175.8434 </r>
       <r>    -2.2173    21.2191   176.9785 </r>
       <r>    -2.1638    20.6014   178.0806 </r>
       <r>    -2.1103    19.6381   179.1311 </r>
       <r>    -2.0568     7.6020   179.5378 </r>
       <r>    -2.0033     8.6585   180.0010 </r>
       <r>    -1.9498     9.3292   180.5000 </r>
       <r>    -1.8963    17.6279   181.4430 </r>
       <r>    -1.8428    27.3382   182.9055 </r>
       <r>    -1.7893    17.3221   183.8321 </r>
       <r>    -1.7358     6.6817   184.1896 </r>
       <r>    -1.6823    17.7146   185.1372 </r>
       <r>    -1.6288    21.4485   186.2846 </r>
       <r>    -1.5754    15.3172   187.1040 </r>
       <r>    -1.5219    19.7900   188.1626 </r>
       <r>    -1.4684    16.2457   189.0317 </r>
       <r>    -1.4149    18.2114   190.0059 </r>
       <r>    -1.3614    16.3335   190.8797 </r>
       <r>    -1.3079    11.5714   191.4987 </r>
       <r>    -1.2544     7.2428   191.8861 </r>
       <r>    -1.2009    20.3168   192.9730 </r>
       <r>    -1.1474    16.0555   193.8319 </r>
       <r>    -1.0939     7.5394   194.2352 </r>
       <r>    -1.0404    46.5526   196.7255 </r>
       <r>    -0.9869    19.4429   197.7656 </r>
       <r>    -0.9334    22.0450   198.9449 </r>
       <r>    -0.8799    41.3143   201.1550 </r>
       <r>    -0.8264    40.4587   203.3193 </r>
       <r>    -0.7729    34.8929   205.1859 </r>
       <r>    -0.7194    55.7244   208.1669 </r>
       <r>    -0.6659    48.4572   210.7591 </r>
       <r>    -0.6124    56.6571   213.7900 </r>
       <r>    -0.5589    50.5828   216.4959 </r>
       <r>    -0.5055    58.4616   219.6233 </r>
       <r>    -0.4520    51.0856   222.3561 </r>
       <r>    -0.3985    55.6248   225.3317 </r>
       <r>    -0.3450    52.7519   228.1537 </r>
       <r>    -0.2915    52.5403   230.9643 </r>
       <r>    -0.2380    61.7325   234.2667 </r>
       <r>    -0.1845    57.9996   237.3693 </r>
       <r>    -0.1310    46.6648   239.8657 </r>
       <r>    -0.0775    52.7783   242.6891 </r>
       <r>    -0.0240    81.3196   247.0392 </r>
       <r>     0.0295    30.1335   248.6512 </r>
       <r>     0.0830    70.5759   252.4267 </r>
       <r>     0.1365    48.1641   255.0032 </r>
       <r>     0.1900    61.8736   258.3131 </r>
       <r>     0.2435    71.4960   262.1378 </r>
       <r>     0.2970    45.8555   264.5908 </r>
       <r>     0.3505    63.3182   267.9780 </r>
       <r>     0.4040    45.0751   270.3893 </r>
       <r>     0.4575    67.3894   273.9943 </r>
       <r>     0.5109    46.3810   276.4755 </r>
       <r>     0.5644    56.4905   279.4974 </r>
       <r>     0.6179    75.3169   283.5265 </r>
       <r>     0.6714    51.1614   286.2634 </r>
       <r>     0.7249    39.6638   288.3852 </r>
       <r>     0.7784    68.6977   292.0602 </r>
       <r>     0.8319    59.8863   295.2638 </r>
       <r>     0.8854    47.2974   297.7939 </r>
       <r>     0.9389    50.8124   300.5121 </r>
       <r>     0.9924    66.9512   304.0937 </r>
       <r>     1.0459    38.3366   306.1445 </r>
       <r>     1.0994    61.6471   309.4423 </r>
       <r>     1.1529    43.5611   311.7726 </r>
       <r>     1.2064    67.6635   315.3923 </r>
       <r>     1.2599    38.6486   317.4598 </r>
       <r>     1.3134    52.2063   320.2525 </r>
       <r>     1.3669    57.1522   323.3099 </r>
       <r>     1.4204    35.6245   325.2157 </r>
       <r>     1.4739    64.6428   328.6737 </r>
       <r>     1.5273    56.0152   331.6703 </r>
       <r>     1.5808    35.6048   333.5749 </r>
       <r>     1.6343    60.9938   336.8378 </r>
       <r>     1.6878    56.4559   339.8579 </r>
       <r>     1.7413    45.0245   342.2665 </r>
       <r>     1.7948    50.8377   344.9860 </r>
       <r>     1.8483    48.3840   347.5743 </r>
       <r>     1.9018    46.3352   350.0530 </r>
       <r>     1.9553    51.6189   352.8144 </r>
       <r>     2.0088    68.5911   356.4836 </r>
       <r>     2.0623    35.6693   358.3918 </r>
       <r>     2.1158    35.7855   360.3062 </r>
       <r>     2.1693    42.4798   362.5786 </r>
       <r>     2.2228    51.9689   365.3587 </r>
       <r>     2.2763    55.6326   368.3347 </r>
       <r>     2.3298    48.4675   370.9275 </r>
       <r>     2.3833    51.8076   373.6990 </r>
       <r>     2.4368    57.6329   376.7820 </r>
       <r>     2.4903    37.9779   378.8137 </r>
       <r>     2.5437    57.4048   381.8845 </r>
       <r>     2.5972    40.6226   384.0576 </r>
       <r>     2.6507    54.0293   386.9479 </r>
       <r>     2.7042    41.1671   389.1502 </r>
       <r>     2.7577    60.5796   392.3909 </r>
       <r>     2.8112    44.3695   394.7644 </r>
       <r>     2.8647    64.3566   398.2071 </r>
       <r>     2.9182    50.8534   400.9275 </r>
       <r>     2.9717    41.3405   403.1390 </r>
       <r>     3.0252    42.2395   405.3986 </r>
       <r>     3.0787    34.6873   407.2542 </r>
       <r>     3.1322    45.8308   409.7059 </r>
       <r>     3.1857    35.6171   411.6113 </r>
       <r>     3.2392    38.6193   413.6773 </r>
       <r>     3.2927    53.4323   416.5356 </r>
       <r>     3.3462    46.3300   419.0140 </r>
       <r>     3.3997    45.4150   421.4435 </r>
       <r>     3.4532    47.7990   424.0005 </r>
       <r>     3.5067    31.2096   425.6701 </r>
       <r>     3.5601    50.9470   428.3955 </r>
       <r>     3.6136    33.2797   430.1758 </r>
       <r>     3.6671    35.7110   432.0861 </r>
       <r>     3.7206    46.9688   434.5987 </r>
       <r>     3.7741    42.9737   436.8976 </r>
       <r>     3.8276    59.0435   440.0561 </r>
       <r>     3.8811    32.2907   441.7835 </r>
       <r>     3.9346    39.5337   443.8983 </r>
       <r>     3.9881    35.7718   445.8119 </r>
       <r>     4.0416    42.3991   448.0801 </r>
       <r>     4.0951    54.9401   451.0191 </r>
       <r>     4.1486    27.6617   452.4989 </r>
       <r>     4.2021    36.7239   454.4634 </r>
       <r>     4.2556    38.9211   456.5455 </r>
       <r>     4.3091    38.0028   458.5785 </r>
       <r>     4.3626    49.0324   461.2015 </r>
       <r>     4.4161    28.2175   462.7110 </r>
       <r>     4.4696    52.7935   465.5352 </r>
       <r>     4.5231    57.9185   468.6335 </r>
       <r>     4.5766    33.1494   470.4069 </r>
       <r>     4.6300    53.5179   473.2698 </r>
       <r>     4.6835    27.9309   474.7640 </r>
       <r>     4.7370    51.0819   477.4966 </r>
       <r>     4.7905    24.7575   478.8210 </r>
       <r>     4.8440    56.2885   481.8322 </r>
       <r>     4.8975    21.6000   482.9877 </r>
       <r>     4.9510    40.4193   485.1499 </r>
       <r>     5.0045    26.6152   486.5737 </r>
       <r>     5.0580    36.5195   488.5273 </r>
       <r>     5.1115    17.9272   489.4863 </r>
       <r>     5.1650     9.6030   490.0000 </r>
       <r>     5.2185     0.0000   490.0000 </r>
       <r>     5.2720     0.0000   490.0000 </r>
       <r>     5.3255     0.0000   490.0000 </r>
       <r>     5.3790     0.0000   490.0000 </r>
       <r>     5.4325     0.0000   490.0000 </r>
       <r>     5.4860     0.0000   490.0000 </r>
       <r>     5.5395     0.0000   490.0000 </r>
       <r>     5.5930     0.0000   490.0000 </r>
       <r>     5.6464     0.0000   490.0000 </r>
       <r>     5.6999     0.0000   490.0000 </r>
       <r>     5.7534     0.0000   490.0000 </r>
       <r>     5.8069     0.0000   490.0000 </r>
       <r>     5.8604     0.0000   490.0000 </r>
      </set>
     </set>
    </array>
   </total>
  </dos>
 </calculation>
 <structure name="finalpos" >
  <crystal>
   <varray name="basis" >
    <v>      13.42320379       0.00000000       0.00000000 </v>
    <v>      -6.71160190      15.00759808       0.00000000 </v>
    <v>       0.00000000       0.00000000      12.59148550 </v>
   </varray>
   <i name="volume">   2536.55535147 </i>
   <varray name="rec_basis" >
    <v>       0.07449786       0.03331646       0.00000000 </v>
    <v>       0.00000000       0.06663291       0.00000000 </v>
    <v>       0.00000000       0.00000000       0.07941875 </v>
   </varray>
  </crystal>
  <varray name="positions" >
   <v>       0.00000000       0.66666667       0.00000000 </v>
   <v>       0.30000000       0.43333333       0.09731697 </v>
   <v>       0.60000000       0.20000000       0.19463394 </v>
   <v>       0.00000000       0.33333333       0.00000000 </v>
   <v>       0.30000000       0.10000000       0.09731697 </v>
   <v>       0.60000000       0.86666667       0.19463394 </v>
   <v>       0.00000000       0.00000000       0.00000000 </v>
   <v>       0.30000000       0.76666667       0.09731697 </v>
   <v>       0.60000000       0.53333333       0.19463394 </v>
   <v>       0.50000000       0.66666667       0.00000000 </v>
   <v>       0.80000000       0.43333333       0.09731697 </v>
   <v>       0.10000000       0.20000000       0.19463394 </v>
   <v>       0.50000000       0.33333333       0.00000000 </v>
   <v>       0.80000000       0.10000000       0.09731697 </v>
   <v>       0.10000000       0.86666667       0.19463394 </v>
   <v>       0.50000000       0.00000000       0.00000000 </v>
   <v>       0.80000000       0.76666667       0.09731697 </v>
   <v>       0.10000000       0.53333333       0.19463394 </v>
   <v>       0.15000000       0.80000000       0.04865849 </v>
   <v>       0.45000000       0.56666667       0.14597546 </v>
   <v>       0.75000000       0.33333333       0.24329243 </v>
   <v>       0.15000000       0.46666667       0.04865849 </v>
   <v>       0.45000000       0.23333333       0.14597546 </v>
   <v>       0.75000000       0.00000000       0.24329243 </v>
   <v>       0.15000000       0.13333333       0.04865849 </v>
   <v>       0.45000000       0.90000000       0.14597546 </v>
   <v>       0.75000000       0.66666667       0.24329243 </v>
   <v>       0.65000000       0.80000000       0.04865849 </v>
   <v>       0.95000000       0.56666667       0.14597546 </v>
   <v>       0.25000000       0.33333333       0.24329243 </v>
   <v>       0.65000000       0.46666667       0.04865849 </v>
   <v>       0.95000000       0.23333333       0.14597546 </v>
   <v>       0.25000000       0.00000000       0.24329243 </v>
   <v>       0.65000000       0.13333333       0.04865849 </v>
   <v>       0.95000000       0.90000000       0.14597546 </v>
   <v>       0.25000000       0.66666667       0.24329243 </v>
   <v>       0.34360902       0.34447853       0.42061918 </v>
   <v>       0.14360902       0.44447853       0.52113270 </v>
   <v>       0.94360902       0.54447853       0.62164622 </v>
   <v>       0.74360902       0.64447853       0.72215973 </v>
   <v>       0.54360902       0.74447853       0.82267325 </v>
   <v>       0.67694236       0.67781186       0.42061918 </v>
   <v>       0.47694236       0.77781186       0.52113270 </v>
   <v>       0.27694236       0.87781186       0.62164622 </v>
   <v>       0.07694236       0.97781186       0.72215973 </v>
   <v>       0.87694236       0.07781186       0.82267325 </v>
   <v>       0.01027569       0.01114519       0.42061918 </v>
   <v>       0.81027569       0.11114519       0.52113270 </v>
   <v>       0.61027569       0.21114519       0.62164622 </v>
   <v>       0.41027569       0.31114519       0.72215973 </v>
   <v>       0.21027569       0.41114519       0.82267325 </v>
   <v>       0.51027569       0.01114519       0.42061918 </v>
   <v>       0.31027569       0.11114519       0.52113270 </v>
   <v>       0.11027569       0.21114519       0.62164622 </v>
   <v>       0.91027569       0.31114519       0.72215973 </v>
   <v>       0.71027569       0.41114519       0.82267325 </v>
   <v>       0.84360902       0.34447853       0.42061918 </v>
   <v>       0.64360902       0.44447853       0.52113270 </v>
   <v>       0.44360902       0.54447853       0.62164622 </v>
   <v>       0.24360902       0.64447853       0.72215973 </v>
   <v>       0.04360902       0.74447853       0.82267325 </v>
   <v>       0.17694236       0.67781186       0.42061918 </v>
   <v>       0.97694236       0.77781186       0.52113270 </v>
   <v>       0.77694236       0.87781186       0.62164622 </v>
   <v>       0.57694236       0.97781186       0.72215973 </v>
   <v>       0.37694236       0.07781186       0.82267325 </v>
   <v>       0.69360902       0.54447853       0.37036243 </v>
   <v>       0.49360902       0.64447853       0.47087594 </v>
   <v>       0.29360902       0.74447853       0.57138946 </v>
   <v>       0.09360902       0.84447853       0.67190297 </v>
   <v>       0.89360902       0.94447853       0.77241649 </v>
   <v>       0.69360902       0.04447853       0.87293001 </v>
   <v>       0.02694236       0.87781186       0.37036243 </v>
   <v>       0.82694236       0.97781186       0.47087594 </v>
   <v>       0.62694236       0.07781186       0.57138946 </v>
   <v>       0.42694236       0.17781186       0.67190297 </v>
   <v>       0.22694236       0.27781186       0.77241649 </v>
   <v>       0.02694236       0.37781186       0.87293001 </v>
   <v>       0.36027569       0.21114519       0.37036243 </v>
   <v>       0.16027569       0.31114519       0.47087594 </v>
   <v>       0.96027569       0.41114519       0.57138946 </v>
   <v>       0.76027569       0.51114519       0.67190297 </v>
   <v>       0.56027569       0.61114519       0.77241649 </v>
   <v>       0.36027569       0.71114519       0.87293001 </v>
   <v>       0.86027569       0.21114519       0.37036243 </v>
   <v>       0.66027569       0.31114519       0.47087594 </v>
   <v>       0.46027569       0.41114519       0.57138946 </v>
   <v>       0.26027569       0.51114519       0.67190297 </v>
   <v>       0.06027569       0.61114519       0.77241649 </v>
   <v>       0.86027569       0.71114519       0.87293001 </v>
   <v>       0.19360902       0.54447853       0.37036243 </v>
   <v>       0.99360902       0.64447853       0.47087594 </v>
   <v>       0.79360902       0.74447853       0.57138946 </v>
   <v>       0.59360902       0.84447853       0.67190297 </v>
   <v>       0.39360902       0.94447853       0.77241649 </v>
   <v>       0.19360902       0.04447853       0.87293001 </v>
   <v>       0.52694236       0.87781186       0.37036243 </v>
   <v>       0.32694236       0.97781186       0.47087594 </v>
   <v>       0.12694236       0.07781186       0.57138946 </v>
   <v>       0.92694236       0.17781186       0.67190297 </v>
   <v>       0.72694236       0.27781186       0.77241649 </v>
   <v>       0.52694236       0.37781186       0.87293001 </v>
  </varray>
 </structure>
</modeling>
