 vasp.6.4.3 19Mar24 (build Oct 22 2024 11:23:12) complex                        
  
 executed on             LinuxIFC date 2025.04.30  03:26:15
 running   16 mpi-ranks, on    1 nodes
 distrk:  each k-point on   16 cores,    1 groups
 distr:  one band on NCORE=  16 cores,    1 groups


--------------------------------------------------------------------------------------------------------


 INCAR:
   SYSTEM = Si001 and Ge001 interface calculation
   ISTART = 0
   ICHARG = 2
   LWAVE = .FALSE.
   LREAL = AUTO
   ENCUT = 700
   ENAUG = 900
   ADDGRID = .TRUE.
   LMAXMIX = 6
   LASPH = .TRUE.
   LMIXTAU = .TRUE.
   NCORE = 16
   NELM = 100
   NBANDS = 106
   EDIFF = 1d-7
   AMIX = 0.6
   ISMEAR = 0
   SIGMA = 0.01
   NELECT = 176
   ISPIN = 2
   NUPDOWN = 1
   LVTOT = .FALSE.
   LVHAR = .TRUE.

 POTCAR:    PAW_PBE Si 05Jan2001                  
 POTCAR:    PAW_PBE Ge 05Jan2001                  
 -----------------------------------------------------------------------------
|                                                                             |
|           W    W    AA    RRRRR   N    N  II  N    N   GGGG   !!!           |
|           W    W   A  A   R    R  NN   N  II  NN   N  G    G  !!!           |
|           W    W  A    A  R    R  N N  N  II  N N  N  G       !!!           |
|           W WW W  AAAAAA  RRRRR   N  N N  II  N  N N  G  GGG   !            |
|           WW  WW  A    A  R   R   N   NN  II  N   NN  G    G                |
|           W    W  A    A  R    R  N    N  II  N    N   GGGG   !!!           |
|                                                                             |
|     You use a magnetic or noncollinear calculation, but did not specify     |
|     the initial magnetic moment with the MAGMOM tag. Note that a            |
|     default of 0.023 will be used for all atoms. This ferromagnetic         |
|     setup may break the symmetry of the crystal, in particular it may       |
|     rule out finding an antiferromagnetic solution. Thence, we              |
|     recommend setting the initial magnetic moment manually or verifying     |
|     carefully that this magnetic setup is desired.                          |
|                                                                             |
 -----------------------------------------------------------------------------

 -----------------------------------------------------------------------------
|                                                                             |
|           W    W    AA    RRRRR   N    N  II  N    N   GGGG   !!!           |
|           W    W   A  A   R    R  NN   N  II  NN   N  G    G  !!!           |
|           W    W  A    A  R    R  N N  N  II  N N  N  G       !!!           |
|           W WW W  AAAAAA  RRRRR   N  N N  II  N  N N  G  GGG   !            |
|           WW  WW  A    A  R   R   N   NN  II  N   NN  G    G                |
|           W    W  A    A  R    R  N    N  II  N    N   GGGG   !!!           |
|                                                                             |
|     For optimal performance we recommend to set                             |
|       NCORE = 2 up to number-of-cores-per-socket                            |
|     NCORE specifies how many cores store one orbital (NPAR=cpu/NCORE).      |
|     This setting can greatly improve the performance of VASP for DFT.       |
|     The default, NCORE=1 might be grossly inefficient on modern             |
|     multi-core architectures or massively parallel machines. Do your        |
|     own testing! More info at https://www.vasp.at/wiki/index.php/NCORE      |
|     Unfortunately you need to use the default for GW and RPA                |
|     calculations (for HF NCORE is supported but not extensively tested      |
|     yet).                                                                   |
|                                                                             |
 -----------------------------------------------------------------------------

 POTCAR:    PAW_PBE Si 05Jan2001                  
   VRHFIN =Si: s2p2                                                                                 
   LEXCH  = PE                                                                                      
   EATOM  =   103.0669 eV,    7.5752 Ry                                                             
                                                                                                    
   TITEL  = PAW_PBE Si 05Jan2001                                                                    
   LULTRA =        F    use ultrasoft PP ?                                                          
   IUNSCR =        1    unscreen: 0-lin 1-nonlin 2-no                                               
   RPACOR =    1.500    partial core radius                                                         
   POMASS =   28.085; ZVAL   =    4.000    mass and valenz                                          
   RCORE  =    1.900    outmost cutoff radius                                                       
   RWIGS  =    2.480; RWIGS  =    1.312    wigner-seitz radius (au A)                               
   ENMAX  =  245.345; ENMIN  =  184.009 eV                                                          
   ICORE  =        2    local potential                                                             
   LCOR   =        T    correct aug charges                                                         
   LPAW   =        T    paw PP                                                                      
   EAUG   =  322.069                                                                                
   DEXC   =    0.000                                                                                
   RMAX   =    1.950    core radius for proj-oper                                                   
   RAUG   =    1.300    factor for augmentation sphere                                              
   RDEP   =    1.993    radius for radial grids                                                     
   RDEPT  =    1.837    core radius for aug-charge                                                  
                                                                                                    
   Atomic configuration                                                                             
    6 entries                                                                                       
     n  l   j            E        occ.                                                              
     1  0  0.50     -1785.8828   2.0000                                                             
     2  0  0.50      -139.4969   2.0000                                                             
     2  1  1.50       -95.5546   6.0000                                                             
     3  0  0.50       -10.8127   2.0000                                                             
     3  1  0.50        -4.0811   2.0000                                                             
     3  2  1.50        -4.0817   0.0000                                                             
   Description                                                                                      
     l       E           TYP  RCUT    TYP  RCUT                                                     
     0    -10.8127223     23  1.900                                                                 
     0     -7.6451159     23  1.900                                                                 
     1     -4.0811372     23  1.900                                                                 
     1      2.4879257     23  1.900                                                                 
     2     -4.0817478      7  1.900                                                                 
  local pseudopotential read in
  partial core-charges read in
  partial kinetic energy density read in
  atomic valenz-charges read in
  non local Contribution for L=           0  read in
    real space projection operators read in
  non local Contribution for L=           0  read in
    real space projection operators read in
  non local Contribution for L=           1  read in
    real space projection operators read in
  non local Contribution for L=           1  read in
    real space projection operators read in
    PAW grid and wavefunctions read in
 
   number of l-projection  operators is LMAX  =           4
   number of lm-projection operators is LMMAX =           8
 
 POTCAR:    PAW_PBE Ge 05Jan2001                  
   VRHFIN =Ge: s2p2                                                                                 
   LEXCH  = PE                                                                                      
   EATOM  =   104.9960 eV,    7.7170 Ry                                                             
                                                                                                    
   TITEL  = PAW_PBE Ge 05Jan2001                                                                    
   LULTRA =        F    use ultrasoft PP ?                                                          
   IUNSCR =        1    unscreen: 0-lin 1-nonlin 2-no                                               
   RPACOR =    2.170    partial core radius                                                         
   POMASS =   72.610; ZVAL   =    4.000    mass and valenz                                          
   RCORE  =    2.300    outmost cutoff radius                                                       
   RWIGS  =    2.300; RWIGS  =    1.217    wigner-seitz radius (au A)                               
   ENMAX  =  173.807; ENMIN  =  130.355 eV                                                          
   ICORE  =        3    local potential                                                             
   LCOR   =        T    correct aug charges                                                         
   LPAW   =        T    paw PP                                                                      
   EAUG   =  385.843                                                                                
   DEXC   =    0.000                                                                                
   RMAX   =    2.342    core radius for proj-oper                                                   
   RAUG   =    1.300    factor for augmentation sphere                                              
   RDEP   =    2.318    radius for radial grids                                                     
   RDEPT  =    2.103    core radius for aug-charge                                                  
                                                                                                    
   Atomic configuration                                                                             
   10 entries                                                                                       
     n  l   j            E        occ.                                                              
     1  0  0.50    -10959.8463   2.0000                                                             
     2  0  0.50     -1371.6056   2.0000                                                             
     2  1  1.50     -1198.4791   6.0000                                                             
     3  0  0.50      -168.4733   2.0000                                                             
     3  1  1.50      -115.6019   6.0000                                                             
     3  2  2.50       -29.3106  10.0000                                                             
     4  0  0.50       -11.7309   2.0000                                                             
     4  1  0.50        -3.8952   2.0000                                                             
     4  2  1.50        -4.0817   0.0000                                                             
     4  3  2.50        -4.0817   0.0000                                                             
   Description                                                                                      
     l       E           TYP  RCUT    TYP  RCUT                                                     
     0    -11.7309493     23  2.300                                                                 
     0     -7.4578696     23  2.300                                                                 
     1     -3.8952261     23  2.300                                                                 
     1      6.1178114     23  2.300                                                                 
     2     -4.0817478     23  2.300                                                                 
     3     -1.3605826      7  2.300                                                                 
  local pseudopotential read in
  partial core-charges read in
  partial kinetic energy density read in
  atomic valenz-charges read in
  non local Contribution for L=           0  read in
    real space projection operators read in
  non local Contribution for L=           0  read in
    real space projection operators read in
  non local Contribution for L=           1  read in
    real space projection operators read in
  non local Contribution for L=           1  read in
    real space projection operators read in
  non local Contribution for L=           2  read in
    real space projection operators read in
    PAW grid and wavefunctions read in
 
   number of l-projection  operators is LMAX  =           5
   number of lm-projection operators is LMMAX =          13
 
 Optimization of the real space projectors (new method)

 maximal supplied QI-value         = 19.84
 optimisation between [QCUT,QGAM] = [ 13.49, 26.99] = [ 50.98,203.92] Ry 
 Optimized for a Real-space Cutoff    1.07 Angstroem

   l    n(q)    QCUT    max X(q) W(low)/X(q) W(high)/X(q)  e(spline) 
   0      9    13.493   159.560    0.22E-03    0.15E-03    0.72E-07
   0      9    13.493   115.863    0.21E-03    0.15E-03    0.71E-07
   1      8    13.493    88.339    0.15E-03    0.11E-03    0.13E-06
   1      8    13.493    48.592    0.15E-03    0.10E-03    0.13E-06
 Optimization of the real space projectors (new method)

 maximal supplied QI-value         = 16.25
 optimisation between [QCUT,QGAM] = [ 13.49, 26.98] = [ 50.95,203.80] Ry 
 Optimized for a Real-space Cutoff    1.25 Angstroem

   l    n(q)    QCUT    max X(q) W(low)/X(q) W(high)/X(q)  e(spline) 
   0     10    13.489    65.336    0.91E-04    0.11E-03    0.34E-06
   0     10    13.489    52.220    0.89E-04    0.11E-03    0.34E-06
   1     10    13.489    36.409    0.22E-03    0.27E-03    0.14E-06
   1     10    13.489    21.334    0.21E-03    0.27E-03    0.14E-06
   2      9    13.489     4.673    0.11E-03    0.12E-03    0.19E-06
  PAW_PBE Si 05Jan2001                  :
 energy of atom  1       EATOM= -103.0669
 kinetic energy error for atom=    0.0003 (will be added to EATOM!!)
  PAW_PBE Ge 05Jan2001                  :
 energy of atom  2       EATOM= -104.9960
 kinetic energy error for atom=    0.0001 (will be added to EATOM!!)
 
 
 POSCAR: fcc Si+fcc Ge
  positions in direct lattice
  No initial velocities read in


 exchange-correlation table for PE
   RHO(1)=    0.500       N(1)  =     2000
   RHO(2)=  100.500       N(2)  =     4000
 


--------------------------------------------------------------------------------------------------------


 ion  position               nearest neighbor table
   1  0.250  0.000  0.046-  11 2.37  17 2.37  12 2.37  18 2.37  44 2.67
   2  0.750  0.000  0.138-  12 2.37  18 2.37  13 2.37  19 2.37
   3  0.250  0.000  0.229-  13 2.37  14 2.37  19 2.37  20 2.37
   4  0.750  0.000  0.321-  15 2.37  21 2.37  20 2.37  14 2.37
   5  0.250  0.000  0.413-  16 2.37  22 2.37  21 2.37  15 2.37
   6  0.750  0.500  0.046-  11 2.37  17 2.37  12 2.37  18 2.37  38 2.67
   7  0.250  0.500  0.138-  12 2.37  18 2.37  13 2.37  19 2.37
   8  0.750  0.500  0.229-  13 2.37  14 2.37  19 2.37  20 2.37
   9  0.250  0.500  0.321-  15 2.37  21 2.37  20 2.37  14 2.37
  10  0.750  0.500  0.413-  16 2.37  22 2.37  21 2.37  15 2.37
  11  0.000  0.250  0.000-   1 2.37   6 2.37  44 2.50  38 2.50
  12  0.500  0.250  0.092-   2 2.37   7 2.37   6 2.37   1 2.37
  13  0.000  0.250  0.184-   3 2.37   8 2.37   7 2.37   2 2.37
  14  0.500  0.250  0.275-   3 2.37   8 2.37   4 2.37   9 2.37
  15  0.000  0.250  0.367-   4 2.37   9 2.37   5 2.37  10 2.37
  16  0.500  0.250  0.459-   5 2.37  10 2.37  39 2.50  33 2.50  23 2.71
  17  0.500  0.750  0.000-   1 2.37   6 2.37  38 2.50  44 2.50
  18  0.000  0.750  0.092-   2 2.37   7 2.37   6 2.37   1 2.37
  19  0.500  0.750  0.184-   3 2.37   8 2.37   7 2.37   2 2.37
  20  0.000  0.750  0.275-   3 2.37   8 2.37   4 2.37   9 2.37
  21  0.500  0.750  0.367-   4 2.37   9 2.37   5 2.37  10 2.37
  22  0.000  0.750  0.459-   5 2.37  10 2.37  33 2.50  39 2.50  28 2.71
  23  0.657  0.407  0.540-  33 2.40  34 2.40  39 2.40  40 2.40  16 2.71
  24  0.157  0.407  0.635-  34 2.40  35 2.40  40 2.40  41 2.40
  25  0.657  0.407  0.729-  36 2.40  42 2.40  41 2.40  35 2.40
  26  0.157  0.407  0.824-  36 2.40  37 2.40  42 2.40  43 2.40
  27  0.657  0.407  0.919-  37 2.40  38 2.40  43 2.40  44 2.40
  28  0.157  0.907  0.540-  33 2.40  34 2.40  39 2.40  40 2.40  22 2.71
  29  0.657  0.907  0.635-  34 2.40  35 2.40  40 2.40  41 2.40
  30  0.157  0.907  0.729-  36 2.40  42 2.40  41 2.40  35 2.40
  31  0.657  0.907  0.824-  36 2.40  37 2.40  42 2.40  43 2.40
  32  0.157  0.907  0.919-  37 2.40  38 2.40  43 2.40  44 2.40
  33  0.407  0.657  0.492-  23 2.40  28 2.40  22 2.50  16 2.50
  34  0.907  0.657  0.587-  23 2.40  24 2.40  28 2.40  29 2.40
  35  0.407  0.657  0.682-  24 2.40  29 2.40  25 2.40  30 2.40
  36  0.907  0.657  0.777-  25 2.40  26 2.40  30 2.40  31 2.40
  37  0.407  0.657  0.872-  26 2.40  27 2.40  31 2.40  32 2.40
  38  0.907  0.657  0.966-  27 2.40  32 2.40  17 2.50  11 2.50   6 2.67
  39  0.907  0.157  0.492-  23 2.40  28 2.40  16 2.50  22 2.50
  40  0.407  0.157  0.587-  23 2.40  24 2.40  28 2.40  29 2.40
  41  0.907  0.157  0.682-  24 2.40  29 2.40  25 2.40  30 2.40
  42  0.407  0.157  0.777-  25 2.40  26 2.40  30 2.40  31 2.40
  43  0.907  0.157  0.872-  26 2.40  27 2.40  31 2.40  32 2.40
  44  0.407  0.157  0.966-  27 2.40  32 2.40  11 2.50  17 2.50   1 2.67
 
  LATTYP: Found a simple tetragonal cell.
 ALAT       =     5.4800000000
 C/A-ratio  =     5.4470802920
  
  Lattice vectors:
  
 A1 = (   5.4800000000,   0.0000000000,   0.0000000000)
 A2 = (   0.0000000000,   5.4800000000,   0.0000000000)
 A3 = (   0.0000000000,   0.0000000000,  29.8500000000)


Analysis of symmetry for initial positions (statically):
=====================================================================
 Subroutine PRICEL returns following result:
 
  LATTYP: Found a simple tetragonal cell.
 ALAT       =     3.8749451609
 C/A-ratio  =     7.7033348242
  
  Lattice vectors:
  
 A1 = (   2.7400000000,  -2.7400000000,   0.0000000000)
 A2 = (   2.7400000000,   2.7400000000,   0.0000000000)
 A3 = (   0.0000000000,   0.0000000000,  29.8500000000)
 
   2 primitive cells build up your supercell.
 

 Routine SETGRP: Setting up the symmetry group for a 
 simple tetragonal supercell.


 Subroutine GETGRP returns: Found  2 space group operations
 (whereof  1 operations were pure point group operations)
 out of a pool of 16 trial point group operations.


The static configuration has the point symmetry C_1 .
 The point group associated with its full space group is C_1h.


Analysis of symmetry for dynamics (positions and initial velocities):
=====================================================================
 Subroutine PRICEL returns following result:
 
  LATTYP: Found a simple tetragonal cell.
 ALAT       =     3.8749451609
 C/A-ratio  =     7.7033348242
  
  Lattice vectors:
  
 A1 = (   2.7400000000,  -2.7400000000,   0.0000000000)
 A2 = (   2.7400000000,   2.7400000000,   0.0000000000)
 A3 = (   0.0000000000,   0.0000000000,  29.8500000000)
 
   2 primitive cells build up your supercell.
 

 Routine SETGRP: Setting up the symmetry group for a 
 simple tetragonal supercell.


 Subroutine GETGRP returns: Found  2 space group operations
 (whereof  1 operations were pure point group operations)
 out of a pool of 16 trial point group operations.


The dynamic configuration has the point symmetry C_1 .
 The point group associated with its full space group is C_1h.


Analysis of structural, dynamic, and magnetic symmetry:
=====================================================================
 Subroutine PRICEL returns following result:
 
  LATTYP: Found a simple tetragonal cell.
 ALAT       =     3.8749451609
 C/A-ratio  =     7.7033348242
  
  Lattice vectors:
  
 A1 = (   2.7400000000,  -2.7400000000,   0.0000000000)
 A2 = (   2.7400000000,   2.7400000000,   0.0000000000)
 A3 = (   0.0000000000,   0.0000000000,  29.8500000000)
 
   2 primitive cells build up your supercell.
 

 Routine SETGRP: Setting up the symmetry group for a 
 simple tetragonal supercell.


 Subroutine GETGRP returns: Found  2 space group operations
 (whereof  1 operations were pure point group operations)
 out of a pool of 16 trial point group operations.


The overall configuration has the point symmetry C_1 .
 The point group associated with its full space group is C_1h.


 Subroutine INISYM returns: Found  2 space group operations
 (whereof  1 operations are pure point group operations),
 and found     2 'primitive' translations


----------------------------------------------------------------------------------------

                                     Primitive cell                                     

  volume of cell :     448.2037

  direct lattice vectors                    reciprocal lattice vectors
     2.740000000 -2.740000000  0.000000000     0.182481752 -0.182481752  0.000000000
     2.740000000  2.740000000  0.000000000     0.182481752  0.182481752  0.000000000
     0.000000000  0.000000000 29.850000000     0.000000000  0.000000000  0.033500838

  length of vectors
     3.874945161  3.874945161 29.850000000     0.258068168  0.258068168  0.033500838

  position of ions in fractional coordinates (direct lattice)
     0.250000000  0.250000000  0.045896147
     0.750000000  0.750000000  0.137688442
     0.250000000  0.250000000  0.229480737
     0.750000000  0.750000000  0.321273032
     0.250000000  0.250000000  0.413065327
     0.750000000  0.250000000  0.000000000
     0.250000000  0.750000000  0.091792295
     0.750000000  0.250000000  0.183584590
     0.250000000  0.750000000  0.275376884
     0.750000000  0.250000000  0.367169179
     0.250000000  0.750000000  0.458961474
     0.250000000  0.064814814  0.539865997
     0.750000000  0.564814814  0.634673367
     0.250000000  0.064814814  0.729480737
     0.750000000  0.564814814  0.824288107
     0.250000000  0.064814814  0.919095477
     0.750000000  0.064814814  0.492462312
     0.250000000  0.564814814  0.587269682
     0.750000000  0.064814814  0.682077052
     0.250000000  0.564814814  0.776884422
     0.750000000  0.064814814  0.871691792
     0.250000000  0.564814814  0.966499162

  ion indices of the primitive-cell ions
   primitive index   ion index
                 1           1
                 2           2
                 3           3
                 4           4
                 5           5
                 6          11
                 7          12
                 8          13
                 9          14
                10          15
                11          16
                12          28
                13          24
                14          30
                15          26
                16          32
                17          33
                18          40
                19          35
                20          42
                21          37
                22          44

----------------------------------------------------------------------------------------

 
 
 KPOINTS: Automatic KPOINTS generated             

Automatic generation of k-mesh.
 Grid dimensions read from file:
 generate k-points for:    6    6    1

 Generating k-lattice:

  Cartesian coordinates                     Fractional coordinates (reciprocal lattice)
     0.030413625  0.000000000  0.000000000     0.166666667  0.000000000  0.000000000
     0.000000000  0.030413625  0.000000000     0.000000000  0.166666667  0.000000000
     0.000000000  0.000000000  0.033500838     0.000000000  0.000000000  1.000000000

  Length of vectors
     0.030413625  0.030413625  0.033500838

  Shift w.r.t. Gamma in fractional coordinates (k-lattice)
     0.000000000  0.000000000  0.000000000

 
 Subroutine IBZKPT returns following result:
 ===========================================
 
 Found     13 irreducible k-points:
 
 Following reciprocal coordinates:
            Coordinates               Weight
  0.000000  0.000000  0.000000      1.000000
  0.166667  0.000000  0.000000      4.000000
  0.333333  0.000000  0.000000      4.000000
  0.500000  0.000000  0.000000      2.000000
  0.166667  0.166667  0.000000      2.000000
 -0.166667  0.166667  0.000000      2.000000
  0.333333  0.166667  0.000000      4.000000
 -0.166667  0.333333  0.000000      4.000000
  0.500000  0.166667  0.000000      4.000000
  0.333333  0.333333  0.000000      2.000000
 -0.333333  0.333333  0.000000      2.000000
  0.500000  0.333333  0.000000      4.000000
  0.500000  0.500000  0.000000      1.000000
 
 Following cartesian coordinates:
            Coordinates               Weight
  0.000000  0.000000  0.000000      1.000000
  0.030414  0.000000  0.000000      4.000000
  0.060827  0.000000  0.000000      4.000000
  0.091241  0.000000  0.000000      2.000000
  0.030414  0.030414  0.000000      2.000000
 -0.030414  0.030414  0.000000      2.000000
  0.060827  0.030414  0.000000      4.000000
 -0.030414  0.060827  0.000000      4.000000
  0.091241  0.030414  0.000000      4.000000
  0.060827  0.060827  0.000000      2.000000
 -0.060827  0.060827  0.000000      2.000000
  0.091241  0.060827  0.000000      4.000000
  0.091241  0.091241  0.000000      1.000000
 


--------------------------------------------------------------------------------------------------------




 Dimension of arrays:
   k-points           NKPTS =     13   k-points in BZ     NKDIM =     13   number of bands    NBANDS=    106
   number of dos      NEDOS =    301   number of ions     NIONS =     44
   non local maximal  LDIM  =      5   non local SUM 2l+1 LMDIM =     13
   total plane-waves  NPLWV = 254016
   max r-space proj   IRMAX =   2346   max aug-charges    IRDMAX= 123396
   dimension x,y,z NGX =    36 NGY =   36 NGZ =  196
   dimension x,y,z NGXF=    72 NGYF=   72 NGZF=  392
   support grid    NGXF=   144 NGYF=  144 NGZF=  784
   ions per type =              22  22
   NGX,Y,Z   is equivalent  to a cutoff of  10.92, 10.92, 10.92 a.u.
   NGXF,Y,Z  is equivalent  to a cutoff of  21.84, 21.84, 21.83 a.u.

 SYSTEM =  Si001 and Ge001 interface calculation   
 POSCAR =  fcc Si+fcc Ge                           

 Startparameter for this run:
   NWRITE =      2    write-flag & timer
   PREC   = normal    normal or accurate (medium, high low for compatibility)
   ISTART =      0    job   : 0-new  1-cont  2-samecut
   ICHARG =      2    charge: 1-file 2-atom 10-const
   ISPIN  =      2    spin polarized calculation?
   LNONCOLLINEAR =      F non collinear calculations
   LSORBIT =      F    spin-orbit coupling
   INIWAV =      1    electr: 0-lowe 1-rand  2-diag
   LASPH  =      T    aspherical Exc in radial PAW
 Electronic Relaxation 1
   ENCUT  =  700.0 eV  51.45 Ry    7.17 a.u.  11.82 11.82 64.39*2*pi/ulx,y,z
   ENINI  =  700.0     initial cutoff
   ENAUG  =  900.0 eV  augmentation charge cutoff
   NELM   =    100;   NELMIN=  2; NELMDL= -5     # of ELM steps 
   EDIFF  = 0.1E-06   stopping-criterion for ELM
   LREAL  =      T    real-space projection
   NLSPLINE    = F    spline interpolate recip. space projectors
   LCOMPAT=      F    compatible to vasp.4.4
   GGA_COMPAT  = T    GGA compatible to vasp.4.4-vasp.4.6
   LMAXPAW     = -100 max onsite density
   LMAXMIX     =    6 max onsite mixed and CHGCAR
   VOSKOWN=      0    Vosko Wilk Nusair interpolation
   ROPT   =   -0.00050  -0.00050
 Ionic relaxation
   EDIFFG = 0.1E-05   stopping-criterion for IOM
   NSW    =      0    number of steps for IOM
   NBLOCK =      1;   KBLOCK =      1    inner block; outer block 
   IBRION =     -1    ionic relax: 0-MD 1-quasi-New 2-CG
   NFREE  =      0    steps in history (QN), initial steepest desc. (CG)
   ISIF   =      2    stress and relaxation
   IWAVPR =     10    prediction:  0-non 1-charg 2-wave 3-comb
   ISYM   =      2    0-nonsym 1-usesym 2-fastsym
   LCORR  =      T    Harris-Foulkes like correction to forces

   POTIM  = 0.5000    time-step for ionic-motion
   TEIN   =    0.0    initial temperature
   TEBEG  =    0.0;   TEEND  =   0.0 temperature during run
   SMASS  =  -3.00    Nose mass-parameter (am)
   estimated Nose-frequenzy (Omega)   =  0.10E-29 period in steps = 0.13E+47 mass=  -0.686E-27a.u.
   SCALEE = 1.0000    scale energy and forces
   NPACO  =    256;   APACO  = 10.0  distance and # of slots for P.C.
   PSTRESS=    0.0 pullay stress

  Mass of Ions in am
   POMASS =  28.09 72.61
  Ionic Valenz
   ZVAL   =   4.00  4.00
  Atomic Wigner-Seitz radii
   RWIGS  =  -1.00 -1.00
  virtual crystal weights 
   VCA    =   1.00  1.00
   NELECT =     176.0000    total number of electrons
   NUPDOWN=       1.0000    fix difference up-down

 DOS related values:
   EMIN   =  10.00;   EMAX   =-10.00  energy-range for DOS
   EFERMI =   0.00;   METHOD = LEGACY      
   ISMEAR =     0;   SIGMA  =   0.01  broadening in eV -4-tet -1-fermi 0-gaus

 Electronic relaxation 2 (details)
   IALGO  =     38    algorithm
   LDIAG  =      T    sub-space diagonalisation (order eigenvalues)
   LSUBROT=      F    optimize rotation matrix (better conditioning)
   TURBO    =      0    0=normal 1=particle mesh
   IRESTART =      0    0=no restart 2=restart with 2 vectors
   NREBOOT  =      0    no. of reboots
   NMIN     =      0    reboot dimension
   EREF     =   0.00    reference energy to select bands
   IMIX   =      4    mixing-type and parameters
     AMIX     =   0.60;   BMIX     =  1.00
     AMIX_MAG =   2.40;   BMIX_MAG =  1.00
     AMIN     =   0.10
     WC   =   100.;   INIMIX=   1;  MIXPRE=   1;  MAXMIX= -45

 Intra band minimization:
   WEIMIN = 0.0000     energy-eigenvalue tresh-hold
   EBREAK =  0.24E-09  absolut break condition
   DEPER  =   0.30     relativ break condition  

   TIME   =   0.40     timestep for ELM

  volume/ion in A,a.u.               =      20.37       137.48
  Fermi-wavevector in a.u.,A,eV,Ry     =   0.951504  1.798082 12.318166  0.905360
  Thomas-Fermi vector in A             =   2.079980
 
 Write flags
   LWAVE        =      F    write WAVECAR
   LDOWNSAMPLE  =      F    k-point downsampling of WAVECAR
   LCHARG       =      T    write CHGCAR
   LVTOT        =      F    write LOCPOT, total local potential
   LVHAR        =      T    write LOCPOT, Hartree potential only
   WRT_POTENTIAL=  hartree ionic  ! write potential to hdf5 file
   LELF         =      F    write electronic localiz. function (ELF)
   LORBIT       =      0    0 simple, 1 ext, 2 COOP (PROOUT), +10 PAW based schemes


 Dipole corrections
   LMONO      =      F    monopole corrections only (constant potential shift)
   LDIPOL     =      F    correct potential (dipole corrections)
   IDIPOL     =      0    1-x, 2-y, 3-z, 4-all directions 
   EPSILON    =  1.0000000 bulk dielectric constant
   LVACPOTAV  =      F  vacuum potentials using an averaging scheme for the charge density
   VACPOTFLAT =  0.1000000 required flatness to determine vacuum potential
 Exchange correlation treatment:
   GGA     = PE    functional components
   XC_C    = 1    coefficients multiplying the functional components
   LIBXC   =     F    Libxc                    
   VOSKOWN =     0    Vosko Wilk Nusair interpolation
   LHFCALC =     F    Hartree Fock is set to
   LHFONE  =     F    Hartree Fock one center treatment
   AEXX    =    0.0000 exact exchange contribution

 Parameters of functionals:
   PE:
     No parameter
 
 Van der Waals corrections
   IVDW    =     0    specifies the selected vdW correction

 Linear response parameters
   LEPSILON=     F    determine dielectric tensor
   LRPA    =     F    only Hartree local field effects (RPA)
   LNABLA  =     F    use nabla operator in PAW spheres
   LVEL    =     F    velocity operator in full k-point grid
   CSHIFT  =0.1000    complex shift for real part using Kramers Kronig
   OMEGAMAX=  -1.0    maximum frequency
   DEG_THRESHOLD= 0.2000000E-02 threshold for treating states as degnerate
   RTIME   =   -0.100 relaxation time in fs
  (WPLASMAI=    0.000 imaginary part of plasma frequency in eV, 0.658/RTIME)
   DFIELD  = 0.0000000 0.0000000 0.0000000 field for delta impulse in time
 
  Optional k-point grid parameters
   LKPOINTS_OPT  =     F    use optional k-point grid
   KPOINTS_OPT_MODE=     1    mode for optional k-point grid
 
 Orbital magnetization related:
   ORBITALMAG=     F  switch on orbital magnetization
   LCHIMAG   =     F  perturbation theory with respect to B field
   DQ        =  0.001000  dq finite difference perturbation B field
   LLRAUG    =     F  two centre corrections for induced B field
   LBONE     =     F  B-component reconstruction in AE one-centre
   LVGVCALC  =     T  calculate vGv susceptibility
   LVGVAPPL  =     F  apply vGv susceptibility instead of pGv for G=0

 Random number generation:
   RANDOM_GENERATOR = DEFAULT
   PCG_SEED         = not used


--------------------------------------------------------------------------------------------------------


 Static calculation
 charge density and potential will be updated during run
 spin polarized calculation
 Variant of blocked Davidson
 Davidson routine will perform the subspace rotation
 perform sub-space diagonalisation
    after iterative eigenvector-optimisation
 modified Broyden-mixing scheme, WC =      100.0
 initial mixing is a Kerker type mixing with AMIX =  0.6000 and BMIX =      1.0000
 Hartree-type preconditioning will be used
 using additional bands           18
 real space projection scheme for non local part
 use partial core corrections
 calculate Harris-corrections to forces 
   (improved forces if not selfconsistent)
 use gradient corrections 
 use of overlap-Matrix (Vanderbilt PP)
 Gauss-broadening in eV      SIGMA  =   0.01


--------------------------------------------------------------------------------------------------------


  energy-cutoff  :      700.00
  volume of cell :      896.41
      direct lattice vectors                 reciprocal lattice vectors
     5.480000000  0.000000000  0.000000000     0.182481752  0.000000000  0.000000000
     0.000000000  5.480000000  0.000000000     0.000000000  0.182481752  0.000000000
     0.000000000  0.000000000 29.850000000     0.000000000  0.000000000  0.033500838

  length of vectors
     5.480000000  5.480000000 29.850000000     0.182481752  0.182481752  0.033500838


 
 k-points in units of 2pi/SCALE and weight: Automatic KPOINTS generated             
   0.00000000  0.00000000  0.00000000       0.028
   0.03041363  0.00000000  0.00000000       0.111
   0.06082725  0.00000000  0.00000000       0.111
   0.09124088  0.00000000  0.00000000       0.056
   0.03041363  0.03041363  0.00000000       0.056
  -0.03041363  0.03041363  0.00000000       0.056
   0.06082725  0.03041363  0.00000000       0.111
  -0.03041363  0.06082725  0.00000000       0.111
   0.09124088  0.03041363  0.00000000       0.111
   0.06082725  0.06082725  0.00000000       0.056
  -0.06082725  0.06082725  0.00000000       0.056
   0.09124088  0.06082725  0.00000000       0.111
   0.09124088  0.09124088  0.00000000       0.028
 
 k-points in reciprocal lattice and weights: Automatic KPOINTS generated             
   0.00000000  0.00000000  0.00000000       0.028
   0.16666667  0.00000000  0.00000000       0.111
   0.33333333  0.00000000  0.00000000       0.111
   0.50000000  0.00000000  0.00000000       0.056
   0.16666667  0.16666667  0.00000000       0.056
  -0.16666667  0.16666667  0.00000000       0.056
   0.33333333  0.16666667  0.00000000       0.111
  -0.16666667  0.33333333  0.00000000       0.111
   0.50000000  0.16666667  0.00000000       0.111
   0.33333333  0.33333333  0.00000000       0.056
  -0.33333333  0.33333333  0.00000000       0.056
   0.50000000  0.33333333  0.00000000       0.111
   0.50000000  0.50000000  0.00000000       0.028
 
 position of ions in fractional coordinates (direct lattice) 
   0.25000000  0.00000000  0.04589615
   0.75000000  0.00000000  0.13768844
   0.25000000  0.00000000  0.22948074
   0.75000000  0.00000000  0.32127303
   0.25000000  0.00000000  0.41306533
   0.75000000  0.50000000  0.04589615
   0.25000000  0.50000000  0.13768844
   0.75000000  0.50000000  0.22948074
   0.25000000  0.50000000  0.32127303
   0.75000000  0.50000000  0.41306533
   0.00000000  0.25000000  0.00000000
   0.50000000  0.25000000  0.09179229
   0.00000000  0.25000000  0.18358459
   0.50000000  0.25000000  0.27537688
   0.00000000  0.25000000  0.36716918
   0.50000000  0.25000000  0.45896147
   0.50000000  0.75000000  0.00000000
   0.00000000  0.75000000  0.09179229
   0.50000000  0.75000000  0.18358459
   0.00000000  0.75000000  0.27537688
   0.50000000  0.75000000  0.36716918
   0.00000000  0.75000000  0.45896147
   0.65740741  0.40740741  0.53986600
   0.15740741  0.40740741  0.63467337
   0.65740741  0.40740741  0.72948074
   0.15740741  0.40740741  0.82428811
   0.65740741  0.40740741  0.91909548
   0.15740741  0.90740741  0.53986600
   0.65740741  0.90740741  0.63467337
   0.15740741  0.90740741  0.72948074
   0.65740741  0.90740741  0.82428811
   0.15740741  0.90740741  0.91909548
   0.40740741  0.65740741  0.49246231
   0.90740741  0.65740741  0.58726968
   0.40740741  0.65740741  0.68207705
   0.90740741  0.65740741  0.77688442
   0.40740741  0.65740741  0.87169179
   0.90740741  0.65740741  0.96649916
   0.90740741  0.15740741  0.49246231
   0.40740741  0.15740741  0.58726968
   0.90740741  0.15740741  0.68207705
   0.40740741  0.15740741  0.77688442
   0.90740741  0.15740741  0.87169179
   0.40740741  0.15740741  0.96649916
 
 position of ions in cartesian coordinates  (Angst):
   1.37000000  0.00000000  1.36999999
   4.11000000  0.00000000  4.10999999
   1.37000000  0.00000000  6.85000000
   4.11000000  0.00000000  9.59000001
   1.37000000  0.00000000 12.33000001
   4.11000000  2.74000000  1.36999999
   1.37000000  2.74000000  4.10999999
   4.11000000  2.74000000  6.85000000
   1.37000000  2.74000000  9.59000001
   4.11000000  2.74000000 12.33000001
   0.00000000  1.37000000  0.00000000
   2.74000000  1.37000000  2.74000001
   0.00000000  1.37000000  5.48000001
   2.74000000  1.37000000  8.21999999
   0.00000000  1.37000000 10.95999999
   2.74000000  1.37000000 13.70000000
   2.74000000  4.11000000  0.00000000
   0.00000000  4.11000000  2.74000001
   2.74000000  4.11000000  5.48000001
   0.00000000  4.11000000  8.21999999
   2.74000000  4.11000000 10.95999999
   0.00000000  4.11000000 13.70000000
   3.60259259  2.23259259 16.11500001
   0.86259259  2.23259259 18.94500000
   3.60259259  2.23259259 21.77500000
   0.86259259  2.23259259 24.60499999
   3.60259259  2.23259259 27.43499999
   0.86259259  4.97259259 16.11500001
   3.60259259  4.97259259 18.94500000
   0.86259259  4.97259259 21.77500000
   3.60259259  4.97259259 24.60499999
   0.86259259  4.97259259 27.43499999
   2.23259259  3.60259259 14.70000001
   4.97259259  3.60259259 17.53000001
   2.23259259  3.60259259 20.36000000
   4.97259259  3.60259259 23.19000000
   2.23259259  3.60259259 26.01999999
   4.97259259  3.60259259 28.84999999
   4.97259259  0.86259259 14.70000001
   2.23259259  0.86259259 17.53000001
   4.97259259  0.86259259 20.36000000
   2.23259259  0.86259259 23.19000000
   4.97259259  0.86259259 26.01999999
   2.23259259  0.86259259 28.84999999
 


--------------------------------------------------------------------------------------------------------


 k-point     1 :   0.0000 0.0000 0.0000  plane waves:   37821
 k-point     2 :   0.1667 0.0000 0.0000  plane waves:   37697
 k-point     3 :   0.3333 0.0000 0.0000  plane waves:   37660
 k-point     4 :   0.5000 0.0000 0.0000  plane waves:   37700
 k-point     5 :   0.1667 0.1667 0.0000  plane waves:   37671
 k-point     6 :  -0.1667 0.1667 0.0000  plane waves:   37671
 k-point     7 :   0.3333 0.1667 0.0000  plane waves:   37689
 k-point     8 :  -0.1667 0.3333 0.0000  plane waves:   37689
 k-point     9 :   0.5000 0.1667 0.0000  plane waves:   37704
 k-point    10 :   0.3333 0.3333 0.0000  plane waves:   37727
 k-point    11 :  -0.3333 0.3333 0.0000  plane waves:   37727
 k-point    12 :   0.5000 0.3333 0.0000  plane waves:   37738
 k-point    13 :   0.5000 0.5000 0.0000  plane waves:   37688

 maximum and minimum number of plane-waves per node :      2405     2318

 maximum number of plane-waves:     37821
 maximum index in each direction: 
   IXMAX=   12   IYMAX=   11   IZMAX=   64
   IXMIN=  -12   IYMIN=  -12   IZMIN=  -64


 real space projection operators:
  total allocation   :       6884.06 KBytes
  max/ min on nodes  :        618.97        320.15


 parallel 3D FFT for wavefunctions:
    minimum data exchange during FFTs selected (reduces bandwidth)
 parallel 3D FFT for charge:
    minimum data exchange during FFTs selected (reduces bandwidth)


 total amount of memory used by VASP MPI-rank0   171087. kBytes
=======================================================================

   base      :      30000. kBytes
   nonlr-proj:       2454. kBytes
   fftplans  :      19459. kBytes
   grid      :      13032. kBytes
   one-center:         48. kBytes
   wavefun   :     106094. kBytes
 
     INWAV:  cpu time      0.0000: real time      0.0002
 Broyden mixing: mesh for mixing (old mesh)
   NGX = 23   NGY = 23   NGZ =129
  (NGX  = 72   NGY  = 72   NGZ  =392)
  gives a total of  68241 points

 initial charge density was supplied:
 charge density of overlapping atoms calculated
 number of electron     176.0000000 magnetization       1.0000000
 keeping initial charge density in first step


--------------------------------------------------------------------------------------------------------


 Maximum index for non-local projection operator          378
 Maximum index for augmentation-charges         7699 (set IRDMAX)


--------------------------------------------------------------------------------------------------------


 First call to EWALD:  gamma=   0.184
 Maximum number of real-space cells 4x 4x 1
 Maximum number of reciprocal cells 2x 2x 7

    FEWALD:  cpu time      0.0020: real time      0.0020


--------------------------------------- Ionic step        1  -------------------------------------------




--------------------------------------- Iteration      1(   1)  ---------------------------------------


    POTLOK:  cpu time      0.1747: real time      0.1767
    SETDIJ:  cpu time      1.5534: real time      1.5616
     EDDAV:  cpu time     13.2462: real time     13.3741
       DOS:  cpu time      0.0014: real time      0.0014
    --------------------------------------------
      LOOP:  cpu time     14.9756: real time     15.1137

 eigenvalue-minimisations  :  5512
 total energy-change (2. order) : 0.7371558E+03  (-0.7939058E+04)
 number of electron     176.0000000 magnetization       1.0000000
 augmentation part      176.0000000 magnetization       1.0000000

 Free energy of the ion-electron system (eV)
  ---------------------------------------------------
  alpha Z        PSCENC =       242.74898087
  Ewald energy   TEWEN  =     -4970.93877971
  -Hartree energ DENC   =      -285.96516954
  -exchange      EXHF   =         0.00000000
  -V(xc)+E(xc)   XCENC  =      -367.11057896
  PAW double counting   =      3877.91595220    -3172.13693009
  entropy T*S    EENTRO =        -0.00107864
  eigenvalues    EBANDS =       835.26764772
  atomic energy  EATOM  =      4577.37573764
  Solvation  Ediel_sol  =         0.00000000
  ---------------------------------------------------
  free energy    TOTEN  =       737.15578148 eV

  energy without entropy =      737.15686013  energy(sigma->0) =      737.15632081


--------------------------------------------------------------------------------------------------------




--------------------------------------- Iteration      1(   2)  ---------------------------------------


     EDDAV:  cpu time     14.9270: real time     15.0557
       DOS:  cpu time      0.0014: real time      0.0014
    --------------------------------------------
      LOOP:  cpu time     14.9284: real time     15.0572

 eigenvalue-minimisations  :  6462
 total energy-change (2. order) :-0.8675682E+03  (-0.8351999E+03)
 number of electron     176.0000000 magnetization       1.0000000
 augmentation part      176.0000000 magnetization       1.0000000

 Free energy of the ion-electron system (eV)
  ---------------------------------------------------
  alpha Z        PSCENC =       242.74898087
  Ewald energy   TEWEN  =     -4970.93877971
  -Hartree energ DENC   =      -285.96516954
  -exchange      EXHF   =         0.00000000
  -V(xc)+E(xc)   XCENC  =      -367.11057896
  PAW double counting   =      3877.91595220    -3172.13693009
  entropy T*S    EENTRO =        -0.00066255
  eigenvalues    EBANDS =       -32.30092580
  atomic energy  EATOM  =      4577.37573764
  Solvation  Ediel_sol  =         0.00000000
  ---------------------------------------------------
  free energy    TOTEN  =      -130.41237595 eV

  energy without entropy =     -130.41171339  energy(sigma->0) =     -130.41204467


--------------------------------------------------------------------------------------------------------




--------------------------------------- Iteration      1(   3)  ---------------------------------------


     EDDAV:  cpu time     15.4637: real time     15.5982
       DOS:  cpu time      0.0015: real time      0.0015
    --------------------------------------------
      LOOP:  cpu time     15.4653: real time     15.5997

 eigenvalue-minimisations  :  6752
 total energy-change (2. order) :-0.7840115E+02  (-0.7610085E+02)
 number of electron     176.0000000 magnetization       1.0000000
 augmentation part      176.0000000 magnetization       1.0000000

 Free energy of the ion-electron system (eV)
  ---------------------------------------------------
  alpha Z        PSCENC =       242.74898087
  Ewald energy   TEWEN  =     -4970.93877971
  -Hartree energ DENC   =      -285.96516954
  -exchange      EXHF   =         0.00000000
  -V(xc)+E(xc)   XCENC  =      -367.11057896
  PAW double counting   =      3877.91595220    -3172.13693009
  entropy T*S    EENTRO =        -0.00103986
  eigenvalues    EBANDS =      -110.70169640
  atomic energy  EATOM  =      4577.37573764
  Solvation  Ediel_sol  =         0.00000000
  ---------------------------------------------------
  free energy    TOTEN  =      -208.81352385 eV

  energy without entropy =     -208.81248399  energy(sigma->0) =     -208.81300392


--------------------------------------------------------------------------------------------------------




--------------------------------------- Iteration      1(   4)  ---------------------------------------


     EDDAV:  cpu time     15.2195: real time     15.3486
       DOS:  cpu time      0.0014: real time      0.0014
    --------------------------------------------
      LOOP:  cpu time     15.2209: real time     15.3500

 eigenvalue-minimisations  :  6608
 total energy-change (2. order) :-0.2532077E+01  (-0.2497541E+01)
 number of electron     176.0000000 magnetization       1.0000000
 augmentation part      176.0000000 magnetization       1.0000000

 Free energy of the ion-electron system (eV)
  ---------------------------------------------------
  alpha Z        PSCENC =       242.74898087
  Ewald energy   TEWEN  =     -4970.93877971
  -Hartree energ DENC   =      -285.96516954
  -exchange      EXHF   =         0.00000000
  -V(xc)+E(xc)   XCENC  =      -367.11057896
  PAW double counting   =      3877.91595220    -3172.13693009
  entropy T*S    EENTRO =        -0.00065568
  eigenvalues    EBANDS =      -113.23415769
  atomic energy  EATOM  =      4577.37573764
  Solvation  Ediel_sol  =         0.00000000
  ---------------------------------------------------
  free energy    TOTEN  =      -211.34560097 eV

  energy without entropy =     -211.34494529  energy(sigma->0) =     -211.34527313


--------------------------------------------------------------------------------------------------------




--------------------------------------- Iteration      1(   5)  ---------------------------------------


     EDDAV:  cpu time     15.6545: real time     15.7867
       DOS:  cpu time      0.0015: real time      0.0015
    CHARGE:  cpu time      1.0193: real time      1.0260
    MIXING:  cpu time      0.0066: real time      0.0067
    --------------------------------------------
      LOOP:  cpu time     16.6819: real time     16.8209

 eigenvalue-minimisations  :  6856
 total energy-change (2. order) :-0.7876789E-01  (-0.7850652E-01)
 number of electron     175.9999999 magnetization       1.0000000
 augmentation part      -19.6863808 magnetization      -0.0811149

 Broyden mixing:
  rms(total) = 0.18445E+01    rms(broyden)= 0.18445E+01
  rms(prec ) = 0.18852E+01
  weight for this iteration     100.00

 Free energy of the ion-electron system (eV)
  ---------------------------------------------------
  alpha Z        PSCENC =       242.74898087
  Ewald energy   TEWEN  =     -4970.93877971
  -Hartree energ DENC   =      -285.96516954
  -exchange      EXHF   =         0.00000000
  -V(xc)+E(xc)   XCENC  =      -367.11057896
  PAW double counting   =      3877.91595220    -3172.13693009
  entropy T*S    EENTRO =        -0.00062007
  eigenvalues    EBANDS =      -113.31296119
  atomic energy  EATOM  =      4577.37573764
  Solvation  Ediel_sol  =         0.00000000
  ---------------------------------------------------
  free energy    TOTEN  =      -211.42436886 eV

  energy without entropy =     -211.42374878  energy(sigma->0) =     -211.42405882


--------------------------------------------------------------------------------------------------------




--------------------------------------- Iteration      1(   6)  ---------------------------------------


    POTLOK:  cpu time      0.1731: real time      0.1747
    SETDIJ:  cpu time      1.5618: real time      1.5692
     EDDAV:  cpu time     16.5696: real time     16.7064
       DOS:  cpu time      0.0013: real time      0.0014
    CHARGE:  cpu time      1.0184: real time      1.0251
    MIXING:  cpu time      0.0060: real time      0.0060
    --------------------------------------------
      LOOP:  cpu time     19.3302: real time     19.4828

 eigenvalue-minimisations  :  7352
 total energy-change (2. order) : 0.1510786E+01  (-0.9889134E+00)
 number of electron     175.9999999 magnetization       1.0000000
 augmentation part      -19.6584775 magnetization      -0.0819852

 Broyden mixing:
  rms(total) = 0.89025E+00    rms(broyden)= 0.89025E+00
  rms(prec ) = 0.12037E+01
  weight for this iteration     100.00

 eigenvalues of (default mixing * dielectric matrix)
  average eigenvalue GAMMA=   1.6879
  1.6879

 Free energy of the ion-electron system (eV)
  ---------------------------------------------------
  alpha Z        PSCENC =       242.74898087
  Ewald energy   TEWEN  =     -4970.93877971
  -Hartree energ DENC   =      -325.34092930
  -exchange      EXHF   =         0.00000000
  -V(xc)+E(xc)   XCENC  =      -360.43411021
  PAW double counting   =      8056.16171424    -7353.85596995
  entropy T*S    EENTRO =        -0.00052891
  eigenvalues    EBANDS =       -75.62969731
  atomic energy  EATOM  =      4577.37573764
  Solvation  Ediel_sol  =         0.00000000
  ---------------------------------------------------
  free energy    TOTEN  =      -209.91358265 eV

  energy without entropy =     -209.91305373  energy(sigma->0) =     -209.91331819


--------------------------------------------------------------------------------------------------------




--------------------------------------- Iteration      1(   7)  ---------------------------------------


    POTLOK:  cpu time      0.1710: real time      0.1732
    SETDIJ:  cpu time      1.5620: real time      1.5697
     EDDAV:  cpu time     18.9903: real time     19.1437
       DOS:  cpu time      0.0014: real time      0.0014
    CHARGE:  cpu time      1.0165: real time      1.0234
    MIXING:  cpu time      0.0060: real time      0.0061
    --------------------------------------------
      LOOP:  cpu time     21.7472: real time     21.9176

 eigenvalue-minimisations  :  8688
 total energy-change (2. order) :-0.2809467E+02  (-0.7872338E+01)
 number of electron     175.9999999 magnetization       1.0000000
 augmentation part      -19.3971279 magnetization      -0.0684180

 Broyden mixing:
  rms(total) = 0.13733E+01    rms(broyden)= 0.13733E+01
  rms(prec ) = 0.47777E+01
  weight for this iteration     100.00

 eigenvalues of (default mixing * dielectric matrix)
  average eigenvalue GAMMA=   0.9697
  1.7522  0.1873

 Free energy of the ion-electron system (eV)
  ---------------------------------------------------
  alpha Z        PSCENC =       242.74898087
  Ewald energy   TEWEN  =     -4970.93877971
  -Hartree energ DENC   =      -340.72215990
  -exchange      EXHF   =         0.00000000
  -V(xc)+E(xc)   XCENC  =      -357.41163865
  PAW double counting   =     10751.71789416   -10051.02349266
  entropy T*S    EENTRO =        -0.00122848
  eigenvalues    EBANDS =       -89.75356350
  atomic energy  EATOM  =      4577.37573764
  Solvation  Ediel_sol  =         0.00000000
  ---------------------------------------------------
  free energy    TOTEN  =      -238.00825023 eV

  energy without entropy =     -238.00702175  energy(sigma->0) =     -238.00763599


--------------------------------------------------------------------------------------------------------




--------------------------------------- Iteration      1(   8)  ---------------------------------------


    POTLOK:  cpu time      0.1711: real time      0.1741
    SETDIJ:  cpu time      1.5608: real time      1.5687
     EDDAV:  cpu time     20.5969: real time     20.7659
       DOS:  cpu time      0.0015: real time      0.0015
    CHARGE:  cpu time      1.0186: real time      1.0253
    MIXING:  cpu time      0.0063: real time      0.0063
    --------------------------------------------
      LOOP:  cpu time     23.3552: real time     23.5417

 eigenvalue-minimisations  :  9560
 total energy-change (2. order) : 0.3127488E+02  (-0.9334688E+01)
 number of electron     175.9999999 magnetization       1.0000000
 augmentation part      -19.2730432 magnetization      -0.0729552

 Broyden mixing:
  rms(total) = 0.30323E+00    rms(broyden)= 0.30323E+00
  rms(prec ) = 0.44172E+00
  weight for this iteration     100.00

 eigenvalues of (default mixing * dielectric matrix)
  average eigenvalue GAMMA=   0.8443
  1.8757  0.5049  0.1523

 Free energy of the ion-electron system (eV)
  ---------------------------------------------------
  alpha Z        PSCENC =       242.74898087
  Ewald energy   TEWEN  =     -4970.93877971
  -Hartree energ DENC   =      -351.76079500
  -exchange      EXHF   =         0.00000000
  -V(xc)+E(xc)   XCENC  =      -355.35180005
  PAW double counting   =     13001.03881534   -12301.46350506
  entropy T*S    EENTRO =        -0.00096701
  eigenvalues    EBANDS =       -48.38105709
  atomic energy  EATOM  =      4577.37573764
  Solvation  Ediel_sol  =         0.00000000
  ---------------------------------------------------
  free energy    TOTEN  =      -206.73337008 eV

  energy without entropy =     -206.73240307  energy(sigma->0) =     -206.73288657


--------------------------------------------------------------------------------------------------------




--------------------------------------- Iteration      1(   9)  ---------------------------------------


    POTLOK:  cpu time      0.1718: real time      0.1746
    SETDIJ:  cpu time      1.5622: real time      1.5699
     EDDAV:  cpu time     15.9045: real time     16.0388
       DOS:  cpu time      0.0015: real time      0.0015
    CHARGE:  cpu time      1.0179: real time      1.0247
    MIXING:  cpu time      0.0062: real time      0.0062
    --------------------------------------------
      LOOP:  cpu time     18.6641: real time     18.8156

 eigenvalue-minimisations  :  6984
 total energy-change (2. order) :-0.1792933E+01  (-0.2519353E+01)
 number of electron     175.9999999 magnetization       1.0000000
 augmentation part      -19.3364945 magnetization      -0.0778001

 Broyden mixing:
  rms(total) = 0.16310E+00    rms(broyden)= 0.16310E+00
  rms(prec ) = 0.23018E+00
  weight for this iteration     100.00

 eigenvalues of (default mixing * dielectric matrix)
  average eigenvalue GAMMA=   0.7706
  1.8604  0.1501  0.6195  0.4522

 Free energy of the ion-electron system (eV)
  ---------------------------------------------------
  alpha Z        PSCENC =       242.74898087
  Ewald energy   TEWEN  =     -4970.93877971
  -Hartree energ DENC   =      -353.92135865
  -exchange      EXHF   =         0.00000000
  -V(xc)+E(xc)   XCENC  =      -354.94615507
  PAW double counting   =     13799.06292052   -13099.67530254
  entropy T*S    EENTRO =        -0.00120729
  eigenvalues    EBANDS =       -48.23113865
  atomic energy  EATOM  =      4577.37573764
  Solvation  Ediel_sol  =         0.00000000
  ---------------------------------------------------
  free energy    TOTEN  =      -208.52630288 eV

  energy without entropy =     -208.52509559  energy(sigma->0) =     -208.52569923


--------------------------------------------------------------------------------------------------------




--------------------------------------- Iteration      1(  10)  ---------------------------------------


    POTLOK:  cpu time      0.1699: real time      0.1726
    SETDIJ:  cpu time      1.5594: real time      1.5671
     EDDAV:  cpu time     15.2739: real time     15.3970
       DOS:  cpu time      0.0015: real time      0.0015
    CHARGE:  cpu time      1.0208: real time      1.0278
    MIXING:  cpu time      0.0068: real time      0.0069
    --------------------------------------------
      LOOP:  cpu time     18.0322: real time     18.1729

 eigenvalue-minimisations  :  6632
 total energy-change (2. order) :-0.8940312E-01  (-0.2489763E+00)
 number of electron     175.9999999 magnetization       1.0000000
 augmentation part      -19.4403656 magnetization      -0.0789513

 Broyden mixing:
  rms(total) = 0.12458E+00    rms(broyden)= 0.12458E+00
  rms(prec ) = 0.14826E+00
  weight for this iteration     100.00

 eigenvalues of (default mixing * dielectric matrix)
  average eigenvalue GAMMA=   0.7368
  1.8759  0.6722  0.6722  0.1519  0.3117

 Free energy of the ion-electron system (eV)
  ---------------------------------------------------
  alpha Z        PSCENC =       242.74898087
  Ewald energy   TEWEN  =     -4970.93877971
  -Hartree energ DENC   =      -351.95761405
  -exchange      EXHF   =         0.00000000
  -V(xc)+E(xc)   XCENC  =      -354.99188743
  PAW double counting   =     13841.32891984   -13141.89608633
  entropy T*S    EENTRO =        -0.00043766
  eigenvalues    EBANDS =       -50.28453916
  atomic energy  EATOM  =      4577.37573764
  Solvation  Ediel_sol  =         0.00000000
  ---------------------------------------------------
  free energy    TOTEN  =      -208.61570600 eV

  energy without entropy =     -208.61526834  energy(sigma->0) =     -208.61548717


--------------------------------------------------------------------------------------------------------




--------------------------------------- Iteration      1(  11)  ---------------------------------------


    POTLOK:  cpu time      0.1716: real time      0.1737
    SETDIJ:  cpu time      1.5523: real time      1.5598
     EDDAV:  cpu time     15.8467: real time     15.9742
       DOS:  cpu time      0.0014: real time      0.0014
    CHARGE:  cpu time      1.0268: real time      1.0337
    MIXING:  cpu time      0.0067: real time      0.0068
    --------------------------------------------
      LOOP:  cpu time     18.6054: real time     18.7495

 eigenvalue-minimisations  :  6968
 total energy-change (2. order) : 0.1288059E-01  (-0.2251192E-01)
 number of electron     175.9999999 magnetization       1.0000000
 augmentation part      -19.4590077 magnetization      -0.0790092

 Broyden mixing:
  rms(total) = 0.87678E-01    rms(broyden)= 0.87678E-01
  rms(prec ) = 0.93805E-01
  weight for this iteration     100.00

 eigenvalues of (default mixing * dielectric matrix)
  average eigenvalue GAMMA=   0.7863
  1.8048  0.8940  0.8940  0.1513  0.4870  0.4870

 Free energy of the ion-electron system (eV)
  ---------------------------------------------------
  alpha Z        PSCENC =       242.74898087
  Ewald energy   TEWEN  =     -4970.93877971
  -Hartree energ DENC   =      -351.22290247
  -exchange      EXHF   =         0.00000000
  -V(xc)+E(xc)   XCENC  =      -355.06444173
  PAW double counting   =     13977.96751677   -13278.50208354
  entropy T*S    EENTRO =        -0.00037351
  eigenvalues    EBANDS =       -50.96647971
  atomic energy  EATOM  =      4577.37573764
  Solvation  Ediel_sol  =         0.00000000
  ---------------------------------------------------
  free energy    TOTEN  =      -208.60282541 eV

  energy without entropy =     -208.60245189  energy(sigma->0) =     -208.60263865


--------------------------------------------------------------------------------------------------------




--------------------------------------- Iteration      1(  12)  ---------------------------------------


    POTLOK:  cpu time      0.1717: real time      0.1737
    SETDIJ:  cpu time      1.5538: real time      1.5612
     EDDAV:  cpu time     15.7996: real time     15.9280
       DOS:  cpu time      0.0014: real time      0.0014
    CHARGE:  cpu time      1.0278: real time      1.0345
    MIXING:  cpu time      0.0072: real time      0.0074
    --------------------------------------------
      LOOP:  cpu time     18.5616: real time     18.7062

 eigenvalue-minimisations  :  6936
 total energy-change (2. order) : 0.4910888E-02  (-0.4664057E-02)
 number of electron     175.9999999 magnetization       1.0000000
 augmentation part      -19.4410674 magnetization      -0.0791956

 Broyden mixing:
  rms(total) = 0.45208E-01    rms(broyden)= 0.45208E-01
  rms(prec ) = 0.48480E-01
  weight for this iteration     100.00

 eigenvalues of (default mixing * dielectric matrix)
  average eigenvalue GAMMA=   0.8786
  1.7770  1.2504  1.2504  0.1513  0.6493  0.6493  0.4228

 Free energy of the ion-electron system (eV)
  ---------------------------------------------------
  alpha Z        PSCENC =       242.74898087
  Ewald energy   TEWEN  =     -4970.93877971
  -Hartree energ DENC   =      -350.56381994
  -exchange      EXHF   =         0.00000000
  -V(xc)+E(xc)   XCENC  =      -355.21239069
  PAW double counting   =     13926.53721996   -13227.00580367
  entropy T*S    EENTRO =        -0.00069165
  eigenvalues    EBANDS =       -51.53836733
  atomic energy  EATOM  =      4577.37573764
  Solvation  Ediel_sol  =         0.00000000
  ---------------------------------------------------
  free energy    TOTEN  =      -208.59791452 eV

  energy without entropy =     -208.59722287  energy(sigma->0) =     -208.59756869


--------------------------------------------------------------------------------------------------------




--------------------------------------- Iteration      1(  13)  ---------------------------------------


    POTLOK:  cpu time      0.1709: real time      0.1733
    SETDIJ:  cpu time      1.5535: real time      1.5610
     EDDAV:  cpu time     15.8598: real time     15.9914
       DOS:  cpu time      0.0014: real time      0.0014
    CHARGE:  cpu time      1.0249: real time      1.0318
    MIXING:  cpu time      0.0079: real time      0.0079
    --------------------------------------------
      LOOP:  cpu time     18.6184: real time     18.7669

 eigenvalue-minimisations  :  6976
 total energy-change (2. order) : 0.1773663E-02  (-0.2972470E-02)
 number of electron     175.9999999 magnetization       1.0000000
 augmentation part      -19.4437378 magnetization      -0.0788101

 Broyden mixing:
  rms(total) = 0.24884E-01    rms(broyden)= 0.24884E-01
  rms(prec ) = 0.36291E-01
  weight for this iteration     100.00

 eigenvalues of (default mixing * dielectric matrix)
  average eigenvalue GAMMA=   0.8662
  1.8504  1.2980  1.2980  0.1513  0.6738  0.6738  0.4317  0.5525

 Free energy of the ion-electron system (eV)
  ---------------------------------------------------
  alpha Z        PSCENC =       242.74898087
  Ewald energy   TEWEN  =     -4970.93877971
  -Hartree energ DENC   =      -349.92932866
  -exchange      EXHF   =         0.00000000
  -V(xc)+E(xc)   XCENC  =      -355.25183837
  PAW double counting   =     14011.06413469   -13311.49885220
  entropy T*S    EENTRO =        -0.00029247
  eigenvalues    EBANDS =       -52.16590264
  atomic energy  EATOM  =      4577.37573764
  Solvation  Ediel_sol  =         0.00000000
  ---------------------------------------------------
  free energy    TOTEN  =      -208.59614085 eV

  energy without entropy =     -208.59584838  energy(sigma->0) =     -208.59599462


--------------------------------------------------------------------------------------------------------




--------------------------------------- Iteration      1(  14)  ---------------------------------------


    POTLOK:  cpu time      0.1704: real time      0.1731
    SETDIJ:  cpu time      1.5557: real time      1.5632
     EDDAV:  cpu time     15.8652: real time     15.9916
       DOS:  cpu time      0.0014: real time      0.0014
    CHARGE:  cpu time      1.0267: real time      1.0332
    MIXING:  cpu time      0.0075: real time      0.0076
    --------------------------------------------
      LOOP:  cpu time     18.6269: real time     18.7701

 eigenvalue-minimisations  :  6968
 total energy-change (2. order) : 0.3751763E-03  (-0.1402099E-02)
 number of electron     175.9999999 magnetization       1.0000000
 augmentation part      -19.4409056 magnetization      -0.0793307

 Broyden mixing:
  rms(total) = 0.16331E-01    rms(broyden)= 0.16331E-01
  rms(prec ) = 0.22345E-01
  weight for this iteration     100.00

 eigenvalues of (default mixing * dielectric matrix)
  average eigenvalue GAMMA=   0.8704
  1.8604  1.3673  1.3673  0.8154  0.8154  0.1513  0.5811  0.4379  0.4379

 Free energy of the ion-electron system (eV)
  ---------------------------------------------------
  alpha Z        PSCENC =       242.74898087
  Ewald energy   TEWEN  =     -4970.93877971
  -Hartree energ DENC   =      -349.94375144
  -exchange      EXHF   =         0.00000000
  -V(xc)+E(xc)   XCENC  =      -355.24309466
  PAW double counting   =     14042.67923123   -13343.11338876
  entropy T*S    EENTRO =        -0.00073305
  eigenvalues    EBANDS =       -52.15996780
  atomic energy  EATOM  =      4577.37573764
  Solvation  Ediel_sol  =         0.00000000
  ---------------------------------------------------
  free energy    TOTEN  =      -208.59576568 eV

  energy without entropy =     -208.59503263  energy(sigma->0) =     -208.59539916


--------------------------------------------------------------------------------------------------------




--------------------------------------- Iteration      1(  15)  ---------------------------------------


    POTLOK:  cpu time      0.1710: real time      0.1737
    SETDIJ:  cpu time      1.5566: real time      1.5638
     EDDAV:  cpu time     15.1882: real time     15.3088
       DOS:  cpu time      0.0014: real time      0.0015
    CHARGE:  cpu time      1.0259: real time      1.0327
    MIXING:  cpu time      0.0079: real time      0.0079
    --------------------------------------------
      LOOP:  cpu time     17.9510: real time     18.0884

 eigenvalue-minimisations  :  6600
 total energy-change (2. order) : 0.6756452E-04  (-0.3682387E-03)
 number of electron     175.9999999 magnetization       1.0000000
 augmentation part      -19.4440279 magnetization      -0.0792004

 Broyden mixing:
  rms(total) = 0.11950E-01    rms(broyden)= 0.11950E-01
  rms(prec ) = 0.12704E-01
  weight for this iteration     100.00

 eigenvalues of (default mixing * dielectric matrix)
  average eigenvalue GAMMA=   0.8604
  1.8703  1.3825  1.3825  0.9414  0.9414  0.1513  0.5195  0.5195  0.4477  0.4477

 Free energy of the ion-electron system (eV)
  ---------------------------------------------------
  alpha Z        PSCENC =       242.74898087
  Ewald energy   TEWEN  =     -4970.93877971
  -Hartree energ DENC   =      -349.98496729
  -exchange      EXHF   =         0.00000000
  -V(xc)+E(xc)   XCENC  =      -355.22680565
  PAW double counting   =     14050.82282679   -13351.25969553
  entropy T*S    EENTRO =        -0.00065652
  eigenvalues    EBANDS =       -52.13233872
  atomic energy  EATOM  =      4577.37573764
  Solvation  Ediel_sol  =         0.00000000
  ---------------------------------------------------
  free energy    TOTEN  =      -208.59569811 eV

  energy without entropy =     -208.59504160  energy(sigma->0) =     -208.59536986


--------------------------------------------------------------------------------------------------------




--------------------------------------- Iteration      1(  16)  ---------------------------------------


    POTLOK:  cpu time      0.1705: real time      0.1720
    SETDIJ:  cpu time      1.5521: real time      1.5592
     EDDAV:  cpu time     15.8865: real time     16.0168
       DOS:  cpu time      0.0014: real time      0.0015
    CHARGE:  cpu time      1.0271: real time      1.0340
    MIXING:  cpu time      0.0089: real time      0.0090
    --------------------------------------------
      LOOP:  cpu time     18.6467: real time     18.7923

 eigenvalue-minimisations  :  7000
 total energy-change (2. order) :-0.2612642E-04  (-0.5172256E-04)
 number of electron     175.9999999 magnetization       1.0000000
 augmentation part      -19.4450382 magnetization      -0.0790558

 Broyden mixing:
  rms(total) = 0.92358E-02    rms(broyden)= 0.92358E-02
  rms(prec ) = 0.95513E-02
  weight for this iteration     100.00

 eigenvalues of (default mixing * dielectric matrix)
  average eigenvalue GAMMA=   0.8854
  1.8147  1.2213  1.2213  1.3122  1.1362  0.1513  0.7002  0.7002  0.5771  0.4526
  0.4526

 Free energy of the ion-electron system (eV)
  ---------------------------------------------------
  alpha Z        PSCENC =       242.74898087
  Ewald energy   TEWEN  =     -4970.93877971
  -Hartree energ DENC   =      -349.99716388
  -exchange      EXHF   =         0.00000000
  -V(xc)+E(xc)   XCENC  =      -355.21957949
  PAW double counting   =     14054.38430807   -13354.82176660
  entropy T*S    EENTRO =        -0.00057693
  eigenvalues    EBANDS =       -52.12688420
  atomic energy  EATOM  =      4577.37573764
  Solvation  Ediel_sol  =         0.00000000
  ---------------------------------------------------
  free energy    TOTEN  =      -208.59572424 eV

  energy without entropy =     -208.59514731  energy(sigma->0) =     -208.59543578


--------------------------------------------------------------------------------------------------------




--------------------------------------- Iteration      1(  17)  ---------------------------------------


    POTLOK:  cpu time      0.1705: real time      0.1730
    SETDIJ:  cpu time      1.5508: real time      1.5581
     EDDAV:  cpu time     15.3845: real time     15.5154
       DOS:  cpu time      0.0015: real time      0.0015
    CHARGE:  cpu time      1.0280: real time      1.0347
    MIXING:  cpu time      0.0087: real time      0.0087
    --------------------------------------------
      LOOP:  cpu time     18.1439: real time     18.2914

 eigenvalue-minimisations  :  6720
 total energy-change (2. order) : 0.7161024E-05  (-0.3240655E-04)
 number of electron     175.9999999 magnetization       1.0000000
 augmentation part      -19.4445812 magnetization      -0.0789916

 Broyden mixing:
  rms(total) = 0.58800E-02    rms(broyden)= 0.58800E-02
  rms(prec ) = 0.66071E-02
  weight for this iteration     100.00

 eigenvalues of (default mixing * dielectric matrix)
  average eigenvalue GAMMA=   0.9223
  2.0382  1.8495  1.2976  1.2976  0.8560  0.8560  0.1513  0.7103  0.5922  0.4483
  0.4854  0.4854

 Free energy of the ion-electron system (eV)
  ---------------------------------------------------
  alpha Z        PSCENC =       242.74898087
  Ewald energy   TEWEN  =     -4970.93877971
  -Hartree energ DENC   =      -350.00654837
  -exchange      EXHF   =         0.00000000
  -V(xc)+E(xc)   XCENC  =      -355.21510302
  PAW double counting   =     14049.49090569   -13349.92797606
  entropy T*S    EENTRO =        -0.00063643
  eigenvalues    EBANDS =       -52.12229769
  atomic energy  EATOM  =      4577.37573764
  Solvation  Ediel_sol  =         0.00000000
  ---------------------------------------------------
  free energy    TOTEN  =      -208.59571708 eV

  energy without entropy =     -208.59508065  energy(sigma->0) =     -208.59539886


--------------------------------------------------------------------------------------------------------




--------------------------------------- Iteration      1(  18)  ---------------------------------------


    POTLOK:  cpu time      0.1702: real time      0.1730
    SETDIJ:  cpu time      1.5518: real time      1.5594
     EDDAV:  cpu time     15.2193: real time     15.3479
       DOS:  cpu time      0.0014: real time      0.0014
    CHARGE:  cpu time      1.0297: real time      1.0364
    MIXING:  cpu time      0.0089: real time      0.0090
    --------------------------------------------
      LOOP:  cpu time     17.9813: real time     18.1271

 eigenvalue-minimisations  :  6624
 total energy-change (2. order) :-0.3347695E-04  (-0.1197756E-04)
 number of electron     175.9999999 magnetization       1.0000000
 augmentation part      -19.4451740 magnetization      -0.0789692

 Broyden mixing:
  rms(total) = 0.38359E-02    rms(broyden)= 0.38359E-02
  rms(prec ) = 0.39975E-02
  weight for this iteration     100.00

 eigenvalues of (default mixing * dielectric matrix)
  average eigenvalue GAMMA=   0.9165
  2.0536  1.8269  1.1720  1.1720  1.0977  1.0977  0.1513  0.6829  0.6829  0.5458
  0.4468  0.4924  0.4924

 Free energy of the ion-electron system (eV)
  ---------------------------------------------------
  alpha Z        PSCENC =       242.74898087
  Ewald energy   TEWEN  =     -4970.93877971
  -Hartree energ DENC   =      -350.01134225
  -exchange      EXHF   =         0.00000000
  -V(xc)+E(xc)   XCENC  =      -355.21170019
  PAW double counting   =     14047.52220218   -13347.95942853
  entropy T*S    EENTRO =        -0.00058427
  eigenvalues    EBANDS =       -52.12083629
  atomic energy  EATOM  =      4577.37573764
  Solvation  Ediel_sol  =         0.00000000
  ---------------------------------------------------
  free energy    TOTEN  =      -208.59575056 eV

  energy without entropy =     -208.59516628  energy(sigma->0) =     -208.59545842


--------------------------------------------------------------------------------------------------------




--------------------------------------- Iteration      1(  19)  ---------------------------------------


    POTLOK:  cpu time      0.1701: real time      0.1728
    SETDIJ:  cpu time      1.5519: real time      1.5594
     EDDAV:  cpu time     15.0361: real time     15.1596
       DOS:  cpu time      0.0014: real time      0.0014
    CHARGE:  cpu time      1.0277: real time      1.0345
    MIXING:  cpu time      0.0101: real time      0.0102
    --------------------------------------------
      LOOP:  cpu time     17.7973: real time     17.9379

 eigenvalue-minimisations  :  6520
 total energy-change (2. order) :-0.1577062E-04  (-0.3484071E-05)
 number of electron     175.9999999 magnetization       1.0000000
 augmentation part      -19.4450835 magnetization      -0.0789102

 Broyden mixing:
  rms(total) = 0.29873E-02    rms(broyden)= 0.29873E-02
  rms(prec ) = 0.34079E-02
  weight for this iteration     100.00

 eigenvalues of (default mixing * dielectric matrix)
  average eigenvalue GAMMA=   0.9032
  1.9442  1.9442  1.2634  1.2634  1.2524  0.1513  0.8849  0.6868  0.6868  0.6296
  0.5202  0.5202  0.4487  0.4487

 Free energy of the ion-electron system (eV)
  ---------------------------------------------------
  alpha Z        PSCENC =       242.74898087
  Ewald energy   TEWEN  =     -4970.93877971
  -Hartree energ DENC   =      -350.01678173
  -exchange      EXHF   =         0.00000000
  -V(xc)+E(xc)   XCENC  =      -355.21150624
  PAW double counting   =     14044.66033274   -13345.09777337
  entropy T*S    EENTRO =        -0.00056688
  eigenvalues    EBANDS =       -52.11540965
  atomic energy  EATOM  =      4577.37573764
  Solvation  Ediel_sol  =         0.00000000
  ---------------------------------------------------
  free energy    TOTEN  =      -208.59576633 eV

  energy without entropy =     -208.59519945  energy(sigma->0) =     -208.59548289


--------------------------------------------------------------------------------------------------------




--------------------------------------- Iteration      1(  20)  ---------------------------------------


    POTLOK:  cpu time      0.1716: real time      0.1731
    SETDIJ:  cpu time      1.5482: real time      1.5562
     EDDAV:  cpu time     14.9726: real time     15.1029
       DOS:  cpu time      0.0014: real time      0.0014
    CHARGE:  cpu time      1.0289: real time      1.0362
    MIXING:  cpu time      0.0098: real time      0.0098
    --------------------------------------------
      LOOP:  cpu time     17.7325: real time     17.8796

 eigenvalue-minimisations  :  6488
 total energy-change (2. order) :-0.8215457E-05  (-0.1231213E-05)
 number of electron     175.9999999 magnetization       1.0000000
 augmentation part      -19.4449241 magnetization      -0.0788826

 Broyden mixing:
  rms(total) = 0.23863E-02    rms(broyden)= 0.23863E-02
  rms(prec ) = 0.25684E-02
  weight for this iteration     100.00

 eigenvalues of (default mixing * dielectric matrix)
  average eigenvalue GAMMA=   0.9947
  2.7786  1.8782  1.5109  1.5109  1.1175  1.1175  0.1513  0.8425  0.8425  0.7192
  0.5448  0.5448  0.4631  0.4631  0.4352

 Free energy of the ion-electron system (eV)
  ---------------------------------------------------
  alpha Z        PSCENC =       242.74898087
  Ewald energy   TEWEN  =     -4970.93877971
  -Hartree energ DENC   =      -350.02448454
  -exchange      EXHF   =         0.00000000
  -V(xc)+E(xc)   XCENC  =      -355.21130702
  PAW double counting   =     14041.73890866   -13342.17656386
  entropy T*S    EENTRO =        -0.00057160
  eigenvalues    EBANDS =       -52.10769498
  atomic energy  EATOM  =      4577.37573764
  Solvation  Ediel_sol  =         0.00000000
  ---------------------------------------------------
  free energy    TOTEN  =      -208.59577454 eV

  energy without entropy =     -208.59520294  energy(sigma->0) =     -208.59548874


--------------------------------------------------------------------------------------------------------




[...]
     26      -2.5824      1.00000
     27      -2.5243      1.00000
     28      -2.4092      1.00000
     29      -2.3334      1.00000
     30      -2.0964      1.00000
     31      -2.0159      1.00000
     32      -1.9232      1.00000
     33      -1.7655      1.00000
     34      -1.7578      1.00000
     35      -1.5645      1.00000
     36      -1.5592      1.00000
     37      -1.2979      1.00000
     38      -1.2103      1.00000
     39      -0.9211      1.00000
     40      -0.9106      1.00000
     41      -0.3900      1.00000
     42      -0.2871      1.00000
     43       0.0735      1.00000
     44       0.1104      1.00000
     45       0.6920      1.00000
     46       0.7609      1.00000
     47       1.2125      1.00000
     48       1.2318      1.00000
     49       1.3661      1.00000
     50       1.5740      1.00000
     51       1.7754      1.00000
     52       1.7960      1.00000
     53       2.2231      1.00000
     54       2.4080      1.00000
     55       2.4115      1.00000
     56       2.6083      1.00000
     57       2.6426      1.00000
     58       2.6832      1.00000
     59       2.8077      1.00000
     60       2.8206      1.00000
     61       3.0386      1.00000
     62       3.0955      1.00000
     63       3.1395      1.00000
     64       3.5501      1.00000
     65       3.5825      1.00000
     66       3.6758      1.00000
     67       3.6928      1.00000
     68       3.7323      1.00000
     69       3.7339      1.00000
     70       3.7401      1.00000
     71       3.7650      1.00000
     72       3.7824      1.00000
     73       3.7932      1.00000
     74       3.8079      1.00000
     75       3.8208      1.00000
     76       3.8558      1.00000
     77       3.8685      1.00000
     78       3.8740      1.00000
     79       3.8772      1.00000
     80       3.8988      1.00000
     81       3.9293      1.00000
     82       3.9567      1.00000
     83       3.9748      1.00000
     84       4.0351      1.00000
     85       4.4608      1.00000
     86       4.9310      1.00000
     87       4.9448      1.00000
     88       5.4711      0.00000
     89       5.8105      0.00000
     90       5.9330      0.00000
     91       6.0872      0.00000
     92       6.0980      0.00000
     93       6.2008      0.00000
     94       6.2481      0.00000
     95       6.3787      0.00000
     96       6.4605      0.00000
     97       6.5169      0.00000
     98       6.8502      0.00000
     99       6.9101      0.00000
    100       6.9774      0.00000
    101       7.0536      0.00000
    102       7.0883      0.00000
    103       7.0981      0.00000
    104       7.1235      0.00000
    105       7.2537      0.00000
    106       7.2924      0.00000


--------------------------------------------------------------------------------------------------------


 soft charge-density along one line, spin component           1
         0         1         2         3         4         5         6         7         8         9
 total charge-density along one line
 
 soft charge-density along one line, spin component           2
         0         1         2         3         4         5         6         7         8         9
 total charge-density along one line
 
 pseudopotential strength for first ion, spin component:           1
 18.536  25.861   0.001  -0.006   0.001   0.002  -0.011   0.002
 25.861  36.086   0.001  -0.009   0.001   0.002  -0.016   0.002
  0.001   0.001   4.194  -0.000  -0.001   7.816  -0.001  -0.001
 -0.006  -0.009  -0.000   4.196  -0.000  -0.001   7.819  -0.001
  0.001   0.001  -0.001  -0.000   4.194  -0.001  -0.001   7.816
  0.002   0.002   7.816  -0.001  -0.001  14.577  -0.001  -0.002
 -0.011  -0.016  -0.001   7.819  -0.001  -0.001  14.583  -0.001
  0.002   0.002  -0.001  -0.001   7.816  -0.002  -0.001  14.577
 pseudopotential strength for first ion, spin component:           2
 18.530  25.854   0.001  -0.005   0.001   0.001  -0.009   0.001
 25.854  36.077   0.001  -0.007   0.001   0.002  -0.012   0.002
  0.001   0.001   4.192  -0.000  -0.000   7.812  -0.001  -0.000
 -0.005  -0.007  -0.000   4.193  -0.000  -0.001   7.815  -0.001
  0.001   0.001  -0.000  -0.000   4.192  -0.000  -0.001   7.812
  0.001   0.002   7.812  -0.001  -0.000  14.570  -0.001  -0.001
 -0.009  -0.012  -0.001   7.815  -0.001  -0.001  14.575  -0.001
  0.001   0.002  -0.000  -0.001   7.812  -0.001  -0.001  14.570
 total augmentation occupancy for first ion, spin component:           1
  5.614  -2.188   0.079  -0.165   0.079  -0.030   0.080  -0.030
 -2.188   1.046  -0.065   0.145  -0.065   0.021  -0.066   0.021
  0.079  -0.065   2.829  -0.031   0.096  -0.636   0.020  -0.024
 -0.165   0.145  -0.031   2.875  -0.031   0.020  -0.678   0.020
  0.079  -0.065   0.096  -0.031   2.829  -0.024   0.020  -0.636
 -0.030   0.021  -0.636   0.020  -0.024   0.153  -0.008   0.005
  0.080  -0.066   0.020  -0.678   0.020  -0.008   0.173  -0.008
 -0.030   0.021  -0.024   0.020  -0.636   0.005  -0.008   0.153
 total augmentation occupancy for first ion, spin component:           2
  0.062  -0.035   0.003   0.002   0.003  -0.001   0.001  -0.001
 -0.035   0.021  -0.002  -0.012  -0.002   0.001   0.000   0.001
  0.003  -0.002   0.038   0.001  -0.022  -0.007   0.000   0.002
  0.002  -0.012   0.001   0.044   0.001   0.000  -0.008   0.000
  0.003  -0.002  -0.022   0.001   0.038   0.002   0.000  -0.007
 -0.001   0.001  -0.007   0.000   0.002   0.002  -0.000  -0.000
  0.001   0.000   0.000  -0.008   0.000  -0.000   0.002  -0.000
 -0.001   0.001   0.002   0.000  -0.007  -0.000  -0.000   0.002


------------------------ aborting loop because EDIFF is reached ----------------------------------------


    CHARGE:  cpu time      1.0171: real time      1.0237
    FORLOC:  cpu time      0.0252: real time      0.0253
    FORNL :  cpu time      4.2131: real time      4.2457
    STRESS:  cpu time     12.8871: real time     12.9850
    FORCOR:  cpu time      0.1903: real time      0.1915
    FORHAR:  cpu time      0.0390: real time      0.0392
    MIXING:  cpu time      0.0144: real time      0.0145
    OFIELD:  cpu time      0.0000: real time      0.0000

  FORCE on cell =-STRESS in cart. coord.  units (eV):
  Direction    XX          YY          ZZ          XY          YZ          ZX
  --------------------------------------------------------------------------------------
  Alpha Z   242.74898   242.74898   242.74898
  Ewald   -1657.90622 -1657.90622 -1655.15038   -51.48602    -1.25083    -1.25083
  Hartree   133.82954   133.82954    82.37809   -11.95286    -0.42235    -0.42235
  E(xc)    -585.60686  -585.60686  -585.69803     0.00434    -0.01877    -0.01877
  Local    -599.42008  -599.42008  -547.73320    58.04839     2.13337     2.13337
  n-local  1304.62370  1299.06041  1304.01652    -1.48416    -0.08661    -0.14154
  augment  -102.77333  -102.77333  -103.02469    -0.18080     0.06908     0.07332
  Kinetic  1281.31268  1314.55086  1303.85683     3.71361    -0.97298    -1.39432
  Fock        0.00000     0.00000     0.00000     0.00000     0.00000     0.00000
  -------------------------------------------------------------------------------------
  Total      30.64585    30.64585    41.39413    -3.33708    -0.78490    -0.78490
  in kB      54.77429    54.77429    73.98504    -5.96447    -1.40288    -1.40288
  external pressure =       61.18 kB  Pullay stress =        0.00 kB


 VOLUME and BASIS-vectors are now :
 -----------------------------------------------------------------------------
  energy-cutoff  :      700.00
  volume of cell :      896.41
      direct lattice vectors                 reciprocal lattice vectors
     5.480000000  0.000000000  0.000000000     0.182481752  0.000000000  0.000000000
     0.000000000  5.480000000  0.000000000     0.000000000  0.182481752  0.000000000
     0.000000000  0.000000000 29.850000000     0.000000000  0.000000000  0.033500838

  length of vectors
     5.480000000  5.480000000 29.850000000     0.182481752  0.182481752  0.033500838


 FORCES acting on ions
    electron-ion (+dipol)            ewald-force                    non-local-force                 convergence-correction
 -----------------------------------------------------------------------------------------------
   0.287E+01 0.287E+01 -.124E+02   -.307E+01 -.307E+01 0.136E+02   0.432E-01 0.432E-01 -.169E+00   -.318E-04 -.318E-04 -.433E-04
   -.772E-01 -.772E-01 -.363E+01   0.267E-01 0.267E-01 0.366E+01   0.220E-01 0.220E-01 -.211E-01   -.914E-05 -.914E-05 -.522E-03
   -.241E-01 -.241E-01 -.652E-02   0.689E-04 0.689E-04 0.684E-03   0.170E-01 0.170E-01 0.176E-01   -.205E-05 -.205E-05 -.286E-03
   0.486E-02 0.486E-02 0.369E+01   -.358E-01 -.358E-01 -.371E+01   0.919E-02 0.919E-02 0.320E-01   -.516E-05 -.516E-05 0.866E-04
   -.241E+01 -.241E+01 0.788E+01   0.222E+01 0.222E+01 -.883E+01   0.164E+00 0.164E+00 0.538E+00   0.200E-04 0.200E-04 -.486E-03
   0.287E+01 0.287E+01 -.124E+02   -.307E+01 -.307E+01 0.136E+02   0.432E-01 0.432E-01 -.169E+00   -.318E-04 -.318E-04 -.433E-04
   -.772E-01 -.772E-01 -.363E+01   0.267E-01 0.267E-01 0.366E+01   0.220E-01 0.220E-01 -.211E-01   -.914E-05 -.914E-05 -.522E-03
   -.241E-01 -.241E-01 -.652E-02   0.689E-04 0.689E-04 0.684E-03   0.170E-01 0.170E-01 0.176E-01   -.205E-05 -.205E-05 -.286E-03
   0.486E-02 0.486E-02 0.369E+01   -.358E-01 -.358E-01 -.371E+01   0.919E-02 0.919E-02 0.320E-01   -.516E-05 -.516E-05 0.866E-04
   -.241E+01 -.241E+01 0.788E+01   0.222E+01 0.222E+01 -.883E+01   0.164E+00 0.164E+00 0.538E+00   0.200E-04 0.200E-04 -.486E-03
   0.562E+01 0.562E+01 0.119E+02   -.705E+01 -.705E+01 -.121E+02   0.108E+01 0.108E+01 0.149E+00   -.508E-04 -.508E-04 0.333E-03
   0.246E+00 0.246E+00 -.618E+01   0.292E+00 0.292E+00 0.627E+01   -.621E+00 -.621E+00 0.146E+00   0.152E-04 0.152E-04 -.382E-03
   0.394E-01 0.394E-01 -.185E+01   -.294E-02 -.294E-02 0.187E+01   -.344E-01 -.344E-01 0.416E-02   0.943E-05 0.943E-05 -.486E-03
   0.137E-03 0.137E-03 0.184E+01   -.363E-02 -.363E-02 -.187E+01   0.559E-02 0.559E-02 0.295E-01   0.280E-05 0.280E-05 -.240E-04
   -.342E+00 -.342E+00 0.626E+01   0.350E+00 0.350E+00 -.622E+01   0.484E-01 0.484E-01 -.119E+00   0.712E-05 0.712E-05 -.896E-04
   0.124E+02 0.124E+02 -.893E+01   -.120E+02 -.120E+02 0.760E+01   -.898E+00 -.898E+00 0.662E+00   -.545E-04 -.545E-04 -.586E-03
   0.562E+01 0.562E+01 0.119E+02   -.705E+01 -.705E+01 -.121E+02   0.108E+01 0.108E+01 0.149E+00   -.508E-04 -.508E-04 0.333E-03
   0.246E+00 0.246E+00 -.618E+01   0.292E+00 0.292E+00 0.627E+01   -.621E+00 -.621E+00 0.146E+00   0.152E-04 0.152E-04 -.382E-03
   0.394E-01 0.394E-01 -.185E+01   -.294E-02 -.294E-02 0.187E+01   -.344E-01 -.344E-01 0.416E-02   0.943E-05 0.943E-05 -.486E-03
   0.137E-03 0.137E-03 0.184E+01   -.363E-02 -.363E-02 -.187E+01   0.559E-02 0.559E-02 0.295E-01   0.280E-05 0.280E-05 -.240E-04
   -.342E+00 -.342E+00 0.626E+01   0.350E+00 0.350E+00 -.622E+01   0.484E-01 0.484E-01 -.119E+00   0.712E-05 0.712E-05 -.896E-04
   0.124E+02 0.124E+02 -.893E+01   -.120E+02 -.120E+02 0.760E+01   -.898E+00 -.898E+00 0.662E+00   -.545E-04 -.545E-04 -.586E-03
   -.272E+01 -.272E+01 -.379E+02   0.281E+01 0.281E+01 0.386E+02   -.802E-01 -.802E-01 0.389E+00   0.936E-05 0.936E-05 0.214E-03
   0.603E-01 0.603E-01 -.165E+02   -.213E-01 -.213E-01 0.165E+02   -.363E-01 -.363E-01 0.664E-01   -.375E-05 -.375E-05 0.343E-03
   0.776E-02 0.776E-02 0.598E-02   -.522E-04 -.522E-04 0.474E-03   -.503E-02 -.503E-02 -.138E-01   -.250E-05 -.250E-05 0.299E-03
   -.245E-01 -.245E-01 0.166E+02   0.288E-01 0.288E-01 -.165E+02   0.603E-02 0.603E-02 -.107E+00   -.692E-05 -.692E-05 0.380E-04
   0.210E+01 0.210E+01 0.337E+02   -.210E+01 -.210E+01 -.342E+02   -.523E-01 -.523E-01 -.498E-01   -.179E-04 -.179E-04 0.344E-03
   -.272E+01 -.272E+01 -.379E+02   0.281E+01 0.281E+01 0.386E+02   -.802E-01 -.802E-01 0.389E+00   0.936E-05 0.936E-05 0.214E-03
   0.603E-01 0.603E-01 -.165E+02   -.213E-01 -.213E-01 0.165E+02   -.363E-01 -.363E-01 0.664E-01   -.375E-05 -.375E-05 0.343E-03
   0.776E-02 0.776E-02 0.598E-02   -.522E-04 -.522E-04 0.474E-03   -.503E-02 -.503E-02 -.138E-01   -.250E-05 -.250E-05 0.299E-03
   -.245E-01 -.245E-01 0.166E+02   0.288E-01 0.288E-01 -.165E+02   0.603E-02 0.603E-02 -.107E+00   -.692E-05 -.692E-05 0.380E-04
   0.210E+01 0.210E+01 0.337E+02   -.210E+01 -.210E+01 -.342E+02   -.523E-01 -.523E-01 -.498E-01   -.179E-04 -.179E-04 0.344E-03
   -.603E+01 -.603E+01 -.198E+02   0.689E+01 0.689E+01 0.183E+02   -.527E+00 -.527E+00 0.311E+00   -.952E-06 -.952E-06 -.328E-03
   0.696E-01 0.696E-01 -.252E+02   -.248E+00 -.248E+00 0.254E+02   0.261E+00 0.261E+00 0.259E+00   0.119E-05 0.119E-05 0.405E-03
   0.640E-03 0.640E-03 -.824E+01   0.218E-02 0.218E-02 0.826E+01   0.329E-02 0.329E-02 0.427E-01   0.483E-05 0.483E-05 0.324E-03
   0.166E-01 0.166E-01 0.832E+01   0.274E-02 0.274E-02 -.826E+01   -.236E-01 -.236E-01 -.553E-01   0.299E-05 0.299E-05 0.174E-03
   0.319E+00 0.319E+00 0.254E+02   -.302E+00 -.302E+00 -.253E+02   -.484E-01 -.484E-01 -.241E+00   0.651E-05 0.651E-05 0.993E-04
   -.122E+02 -.122E+02 0.234E+02   0.122E+02 0.122E+02 -.231E+02   0.647E+00 0.647E+00 -.899E-01   0.335E-04 0.335E-04 0.512E-03
   -.603E+01 -.603E+01 -.198E+02   0.689E+01 0.689E+01 0.183E+02   -.527E+00 -.527E+00 0.311E+00   -.952E-06 -.952E-06 -.328E-03
   0.696E-01 0.696E-01 -.252E+02   -.248E+00 -.248E+00 0.254E+02   0.261E+00 0.261E+00 0.259E+00   0.119E-05 0.119E-05 0.405E-03
   0.640E-03 0.640E-03 -.824E+01   0.218E-02 0.218E-02 0.826E+01   0.329E-02 0.329E-02 0.427E-01   0.483E-05 0.483E-05 0.324E-03
   0.166E-01 0.166E-01 0.832E+01   0.274E-02 0.274E-02 -.826E+01   -.236E-01 -.236E-01 -.553E-01   0.299E-05 0.299E-05 0.174E-03
   0.319E+00 0.319E+00 0.254E+02   -.302E+00 -.302E+00 -.253E+02   -.484E-01 -.484E-01 -.241E+00   0.651E-05 0.651E-05 0.993E-04
   -.122E+02 -.122E+02 0.234E+02   0.122E+02 0.122E+02 -.231E+02   0.647E+00 0.647E+00 -.899E-01   0.335E-04 0.335E-04 0.512E-03
 -----------------------------------------------------------------------------------------------
   -.114E+00 -.114E+00 -.344E+01   0.178E-14 -.107E-13 -.750E-12   -.293E-01 -.293E-01 0.356E+01   -.145E-03 -.145E-03 -.123E-03
 
 
 POSITION                                       TOTAL-FORCE (eV/Angst)
 -----------------------------------------------------------------------------------
      1.37000      0.00000      1.37000        -0.157026     -0.157026      1.060281
      4.11000      0.00000      4.11000        -0.025251     -0.025251      0.003352
      1.37000      0.00000      6.85000        -0.003824     -0.003824      0.008831
      4.11000      0.00000      9.59000        -0.018460     -0.018460      0.010110
      1.37000      0.00000     12.33000        -0.024960     -0.024960     -0.411808
      4.11000      2.74000      1.37000        -0.157026     -0.157026      1.060281
      1.37000      2.74000      4.11000        -0.025251     -0.025251      0.003352
      4.11000      2.74000      6.85000        -0.003824     -0.003824      0.008831
      1.37000      2.74000      9.59000        -0.018460     -0.018460      0.010110
      4.11000      2.74000     12.33000        -0.024960     -0.024960     -0.411808
      0.00000      1.37000      0.00000        -0.336621     -0.336621      0.020884
      2.74000      1.37000      2.74000        -0.079504     -0.079504      0.229629
      0.00000      1.37000      5.48000         0.005377      0.005377      0.016457
      2.74000      1.37000      8.22000         0.005351      0.005351      0.002069
      0.00000      1.37000     10.96000         0.059292      0.059292     -0.078919
      2.74000      1.37000     13.70000        -0.470268     -0.470268     -0.664289
      2.74000      4.11000      0.00000        -0.336621     -0.336621      0.020884
      0.00000      4.11000      2.74000        -0.079504     -0.079504      0.229629
      2.74000      4.11000      5.48000         0.005377      0.005377      0.016457
      0.00000      4.11000      8.22000         0.005351      0.005351      0.002069
      2.74000      4.11000     10.96000         0.059292      0.059292     -0.078919
      0.00000      4.11000     13.70000        -0.470268     -0.470268     -0.664289
      3.60259      2.23259     16.11500         0.017363      0.017363      1.077320
      0.86259      2.23259     18.94500         0.005948      0.005948     -0.004541
      3.60259      2.23259     21.77500         0.005927      0.005927     -0.009732
      0.86259      2.23259     24.60500         0.013536      0.013536     -0.010610
      3.60259      2.23259     27.43500        -0.048639     -0.048639     -0.558723
      0.86259      4.97259     16.11500         0.017363      0.017363      1.077320
      3.60259      4.97259     18.94500         0.005948      0.005948     -0.004541
      0.86259      4.97259     21.77500         0.005927      0.005927     -0.009732
      3.60259      4.97259     24.60500         0.013536      0.013536     -0.010610
      0.86259      4.97259     27.43500        -0.048639     -0.048639     -0.558723
      2.23259      3.60259     14.70000         0.334960      0.334960     -1.244250
      4.97259      3.60259     17.53000         0.085814      0.085814      0.383332
      2.23259      3.60259     20.36000         0.009375      0.009375      0.061803
      4.97259      3.60259     23.19000        -0.001000     -0.001000     -0.005837
      2.23259      3.60259     26.02000        -0.028797     -0.028797     -0.137124
      4.97259      3.60259     28.85000         0.651407      0.651407      0.251765
      4.97259      0.86259     14.70000         0.334960      0.334960     -1.244250
      2.23259      0.86259     17.53000         0.085814      0.085814      0.383332
      4.97259      0.86259     20.36000         0.009375      0.009375      0.061803
      2.23259      0.86259     23.19000        -0.001000     -0.001000     -0.005837
      4.97259      0.86259     26.02000        -0.028797     -0.028797     -0.137124
      2.23259      0.86259     28.85000         0.651407      0.651407      0.251765
 -----------------------------------------------------------------------------------
    total drift:                               -0.143254     -0.143254      0.117451


--------------------------------------------------------------------------------------------------------



  FREE ENERGIE OF THE ION-ELECTRON SYSTEM (eV)
  ---------------------------------------------------
  free  energy   TOTEN  =      -208.59582302 eV

  energy  without entropy=     -208.59525892  energy(sigma->0) =     -208.59554097
 


--------------------------------------------------------------------------------------------------------


    POTLOK:  cpu time      1.7121: real time      1.7210


--------------------------------------------------------------------------------------------------------


     LOOP+:  cpu time    518.1621: real time    522.8930
    4ORBIT:  cpu time      0.0000: real time      0.0000

 total amount of memory used by VASP MPI-rank0   171087. kBytes
=======================================================================

   base      :      30000. kBytes
   nonlr-proj:       2454. kBytes
   fftplans  :      19459. kBytes
   grid      :      13032. kBytes
   one-center:         48. kBytes
   wavefun   :     106094. kBytes
 
  
  
 General timing and accounting informations for this job:
 ========================================================
  
                  Total CPU time used (sec):      537.000
                            User time (sec):      532.656
                          System time (sec):        4.344
                         Elapsed time (sec):      543.419
  
                   Maximum memory used (kb):      390032.
                   Average memory used (kb):          N/A
  
                          Minor page faults:       156285
                          Major page faults:           37
                 Voluntary context switches:         1341
