<?xml version="1.0" encoding="ISO-8859-1"?>
<modeling>
 <generator>
  <i name="program" type="string">vasp </i>
  <i name="version" type="string">6.4.3  </i>
  <i name="subversion" type="string">19Mar24 (build Oct 22 2024 11:23:12) complex                          parallel </i>
  <i name="platform" type="string">LinuxIFC </i>
  <i name="date" type="string">2025 04 30 </i>
  <i name="time" type="string">03:26:15 </i>
 </generator>
 <incar>
  <i type="string" name="SYSTEM">Si001 and Ge001 interface calculation</i>
  <i type="int" name="ISTART">     0</i>
  <i type="logical" name="ADDGRID"> T  </i>
  <i type="int" name="ISPIN">     2</i>
  <i name="AMIX">      0.60000000</i>
  <i type="int" name="ICHARG">     2</i>
  <i type="int" name="NELM">   100</i>
  <i name="EDIFF">      0.00000010</i>
  <i name="ENCUT">    700.00000000</i>
  <i name="ENAUG">    900.00000000</i>
  <i type="int" name="NBANDS">   106</i>
  <i name="NUPDOWN">      1.00000000</i>
  <i name="NELECT">    176.00000000</i>
  <i type="string" name="LREAL">AUTO</i>
  <i type="int" name="ISMEAR">     0</i>
  <i name="SIGMA">      0.01000000</i>
  <i type="int" name="LMAXMIX">     6</i>
  <i type="logical" name="LWAVE"> F  </i>
  <i type="logical" name="LVTOT"> F  </i>
  <i type="logical" name="LVHAR"> T  </i>
  <i type="logical" name="LASPH"> T  </i>
  <i type="logical" name="LMIXTAU"> T  </i>
 </incar>
 <primitive_cell>
  <structure name="primitive_cell" >
   <crystal>
    <varray name="basis" >
     <v>       2.74000000      -2.74000000       0.00000000 </v>
     <v>       2.74000000       2.74000000       0.00000000 </v>
     <v>       0.00000000       0.00000000      29.85000000 </v>
    </varray>
    <i name="volume">    448.20372000 </i>
    <varray name="rec_basis" >
     <v>       0.18248175      -0.18248175       0.00000000 </v>
     <v>       0.18248175       0.18248175       0.00000000 </v>
     <v>       0.00000000       0.00000000       0.03350084 </v>
    </varray>
   </crystal>
   <varray name="positions" >
    <v>       0.25000000       0.25000000       0.04589615 </v>
    <v>       0.75000000       0.75000000       0.13768844 </v>
    <v>       0.25000000       0.25000000       0.22948074 </v>
    <v>       0.75000000       0.75000000       0.32127303 </v>
    <v>       0.25000000       0.25000000       0.41306533 </v>
    <v>       0.75000000       0.25000000       0.00000000 </v>
    <v>       0.25000000       0.75000000       0.09179229 </v>
    <v>       0.75000000       0.25000000       0.18358459 </v>
    <v>       0.25000000       0.75000000       0.27537688 </v>
    <v>       0.75000000       0.25000000       0.36716918 </v>
    <v>       0.25000000       0.75000000       0.45896147 </v>
    <v>       0.25000000       0.06481481       0.53986600 </v>
    <v>       0.75000000       0.56481481       0.63467337 </v>
    <v>       0.25000000       0.06481481       0.72948074 </v>
    <v>       0.75000000       0.56481481       0.82428811 </v>
    <v>       0.25000000       0.06481481       0.91909548 </v>
    <v>       0.75000000       0.06481481       0.49246231 </v>
    <v>       0.25000000       0.56481481       0.58726968 </v>
    <v>       0.75000000       0.06481481       0.68207705 </v>
    <v>       0.25000000       0.56481481       0.77688442 </v>
    <v>       0.75000000       0.06481481       0.87169179 </v>
    <v>       0.25000000       0.56481481       0.96649916 </v>
   </varray>
  </structure>
  <varray name="primitive_index" >
   <v type="int" >        1 </v>
   <v type="int" >        2 </v>
   <v type="int" >        3 </v>
   <v type="int" >        4 </v>
   <v type="int" >        5 </v>
   <v type="int" >       11 </v>
   <v type="int" >       12 </v>
   <v type="int" >       13 </v>
   <v type="int" >       14 </v>
   <v type="int" >       15 </v>
   <v type="int" >       16 </v>
   <v type="int" >       28 </v>
   <v type="int" >       24 </v>
   <v type="int" >       30 </v>
   <v type="int" >       26 </v>
   <v type="int" >       32 </v>
   <v type="int" >       33 </v>
   <v type="int" >       40 </v>
   <v type="int" >       35 </v>
   <v type="int" >       42 </v>
   <v type="int" >       37 </v>
   <v type="int" >       44 </v>
  </varray>
 </primitive_cell>
 <kpoints>
  <generation param="Gamma">
   <v type="int" name="divisions">       6        6        1 </v>
   <v name="usershift">      0.00000000       0.00000000       0.00000000 </v>
   <v name="genvec1">      0.16666667       0.00000000       0.00000000 </v>
   <v name="genvec2">      0.00000000       0.16666667       0.00000000 </v>
   <v name="genvec3">      0.00000000       0.00000000       1.00000000 </v>
   <v name="shift">      0.00000000       0.00000000       0.00000000 </v>
  </generation>
  <varray name="kpointlist" >
   <v>       0.00000000       0.00000000       0.00000000 </v>
   <v>       0.16666667       0.00000000       0.00000000 </v>
   <v>       0.33333333       0.00000000       0.00000000 </v>
   <v>       0.50000000       0.00000000       0.00000000 </v>
   <v>       0.16666667       0.16666667       0.00000000 </v>
   <v>      -0.16666667       0.16666667       0.00000000 </v>
   <v>       0.33333333       0.16666667       0.00000000 </v>
   <v>      -0.16666667       0.33333333       0.00000000 </v>
   <v>       0.50000000       0.16666667       0.00000000 </v>
   <v>       0.33333333       0.33333333       0.00000000 </v>
   <v>      -0.33333333       0.33333333       0.00000000 </v>
   <v>       0.50000000       0.33333333       0.00000000 </v>
   <v>       0.50000000       0.50000000       0.00000000 </v>
  </varray>
  <varray name="weights" >
   <v>       0.02777778 </v>
   <v>       0.11111111 </v>
   <v>       0.11111111 </v>
   <v>       0.05555556 </v>
   <v>       0.05555556 </v>
   <v>       0.05555556 </v>
   <v>       0.11111111 </v>
   <v>       0.11111111 </v>
   <v>       0.11111111 </v>
   <v>       0.05555556 </v>
   <v>       0.05555556 </v>
   <v>       0.11111111 </v>
   <v>       0.02777778 </v>
  </varray>
 </kpoints>
 <parameters>
  <separator name="general" >
   <i type="string" name="SYSTEM">Si001 and Ge001 interface calculation</i>
   <i type="logical" name="LCOMPAT"> F  </i>
  </separator>
  <separator name="electronic" >
   <i type="string" name="PREC">normal</i>
   <i name="ENMAX">    700.00000000</i>
   <i name="ENAUG">    900.00000000</i>
   <i name="EDIFF">      0.00000010</i>
   <i type="int" name="IALGO">    38</i>
   <i type="int" name="IWAVPR">    10</i>
   <i type="int" name="NBANDS">   106</i>
   <i type="int" name="NBANDSLOW">    -1</i>
   <i type="int" name="NBANDSHIGH">    -1</i>
   <i name="NELECT">    176.00000000</i>
   <i type="int" name="TURBO">     0</i>
   <i type="int" name="IRESTART">     0</i>
   <i type="int" name="NREBOOT">     0</i>
   <i type="int" name="NMIN">     0</i>
   <i name="EREF">      0.00000000</i>
   <separator name="electronic smearing" >
    <i type="int" name="ISMEAR">     0</i>
    <i name="SIGMA">      0.01000000</i>
    <i name="KSPACING">      0.50000000</i>
    <i type="logical" name="KGAMMA"> T  </i>
    <i type="logical" name="KBLOWUP"> T  </i>
   </separator>
   <separator name="electronic projectors" >
    <i type="logical" name="LREAL"> T  </i>
    <v name="ROPT">     -0.00050000     -0.00050000</v>
    <i type="int" name="LMAXPAW">  -100</i>
    <i type="int" name="LMAXMIX">     6</i>
    <i type="logical" name="NLSPLINE"> F  </i>
   </separator>
   <separator name="electronic startup" >
    <i type="int" name="ISTART">     0</i>
    <i type="int" name="ICHARG">     2</i>
    <i type="int" name="INIWAV">     1</i>
   </separator>
   <separator name="electronic spin" >
    <i type="int" name="ISPIN">     2</i>
    <i type="logical" name="LNONCOLLINEAR"> F  </i>
    <v name="MAGMOM">      0.02272727      0.02272727      0.02272727      0.02272727      0.02272727      0.02272727      0.02272727      0.02272727      0.02272727      0.02272727      0.02272727      0.02272727      0.02272727      0.02272727      0.02272727      0.02272727      0.02272727      0.02272727      0.02272727      0.02272727
      0.02272727      0.02272727      0.02272727      0.02272727      0.02272727      0.02272727      0.02272727      0.02272727      0.02272727      0.02272727      0.02272727      0.02272727      0.02272727      0.02272727      0.02272727      0.02272727      0.02272727      0.02272727      0.02272727      0.02272727
      0.02272727      0.02272727      0.02272727      0.02272727</v>
    <i name="NUPDOWN">      1.00000000</i>
    <i type="logical" name="LSORBIT"> F  </i>
    <v name="SAXIS">      0.00000000      0.00000000      1.00000000</v>
    <i type="logical" name="LSPIRAL"> F  </i>
    <v name="QSPIRAL">      0.00000000      0.00000000      0.00000000</v>
    <i type="logical" name="LZEROZ"> F  </i>
   </separator>
   <separator name="electronic exchange-correlation" >
    <i type="logical" name="LASPH"> T  </i>
   </separator>
   <separator name="electronic convergence" >
    <i type="int" name="NELM">   100</i>
    <i type="int" name="NELMDL">    -5</i>
    <i type="int" name="NELMIN">     2</i>
    <i name="ENINI">    700.00000000</i>
    <separator name="electronic convergence detail" >
     <i type="logical" name="LDIAG"> T  </i>
     <i type="logical" name="LSUBROT"> F  </i>
     <i name="WEIMIN">      0.00000000</i>
     <i name="EBREAK">      0.00000000</i>
     <i name="DEPER">      0.30000000</i>
     <i type="int" name="NRMM">     4</i>
     <i name="TIME">      0.40000000</i>
    </separator>
   </separator>
   <separator name="electronic mixer" >
    <i name="AMIX">      0.60000000</i>
    <i name="BMIX">      1.00000000</i>
    <i name="AMIN">      0.10000000</i>
    <i name="AMIX_MAG">      2.40000000</i>
    <i name="BMIX_MAG">      1.00000000</i>
    <separator name="electronic mixer details" >
     <i type="int" name="IMIX">     4</i>
     <i type="logical" name="MIXFIRST"> F  </i>
     <i type="int" name="MAXMIX">   -45</i>
     <i name="WC">    100.00000000</i>
     <i type="int" name="INIMIX">     1</i>
     <i type="int" name="MIXPRE">     1</i>
     <i type="int" name="MREMOVE">     5</i>
    </separator>
   </separator>
   <separator name="electronic dipolcorrection" >
    <i type="logical" name="LDIPOL"> F  </i>
    <i type="logical" name="LMONO"> F  </i>
    <i type="int" name="IDIPOL">     0</i>
    <i name="EPSILON">      1.00000000</i>
    <v name="DIPOL">   -100.00000000   -100.00000000   -100.00000000</v>
    <i name="EFIELD">      0.00000000</i>
    <i type="logical" name="LVACPOTAV"> F  </i>
   </separator>
  </separator>
  <separator name="grids" >
   <i type="int" name="NGX">    36</i>
   <i type="int" name="NGY">    36</i>
   <i type="int" name="NGZ">   196</i>
   <i type="int" name="NGXF">    72</i>
   <i type="int" name="NGYF">    72</i>
   <i type="int" name="NGZF">   392</i>
   <i type="logical" name="ADDGRID"> T  </i>
  </separator>
  <separator name="ionic" >
   <i type="int" name="NSW">     0</i>
   <i type="int" name="IBRION">    -1</i>
   <i type="int" name="MDALGO">     0</i>
   <i type="int" name="ISIF">     2</i>
   <i name="PSTRESS">      0.00000000</i>
   <i name="EDIFFG">      0.00000100</i>
   <i type="int" name="NFREE">     0</i>
   <i name="POTIM">      0.50000000</i>
   <i name="SMASS">     -3.00000000</i>
   <i name="SCALEE">      1.00000000</i>
  </separator>
  <separator name="ionic md" >
   <i name="TEBEG">      0.00010000</i>
   <i name="TEEND">      0.00010000</i>
   <i type="int" name="NBLOCK">     1</i>
   <i type="int" name="KBLOCK">     1</i>
   <i type="int" name="NPACO">   256</i>
   <i name="APACO">     10.00000000</i>
  </separator>
  <separator name="symmetry" >
   <i type="int" name="ISYM">     2</i>
   <i name="SYMPREC">      0.00001000</i>
  </separator>
  <separator name="dos" >
   <i type="int" name="LORBIT">     0</i>
   <v name="RWIGS">     -1.00000000     -1.00000000</v>
   <i type="int" name="NEDOS">   301</i>
   <i name="EMIN">     10.00000000</i>
   <i name="EMAX">    -10.00000000</i>
   <i name="EFERMI">      0.00000000</i>
  </separator>
  <separator name="writing" >
   <i type="int" name="NWRITE">     2</i>
   <i type="logical" name="LWAVE"> F  </i>
   <i type="logical" name="LDOWNSAMPLE"> F  </i>
   <i type="logical" name="LCHARG"> T  </i>
   <i type="logical" name="LPARD"> F  </i>
   <i type="logical" name="LVTOT"> F  </i>
   <i type="logical" name="LVHAR"> T  </i>
   <i type="logical" name="LELF"> F  </i>
   <i type="logical" name="LOPTICS"> F  </i>
   <v name="STM">      0.00000000      0.00000000      0.00000000      0.00000000      0.00000000      0.00000000      0.00000000</v>
  </separator>
  <separator name="performance" >
   <i type="int" name="NPAR">     1</i>
   <i type="int" name="NSIM">     4</i>
   <i type="int" name="NBLK">    -1</i>
   <i type="logical" name="LPLANE"> T  </i>
   <i type="logical" name="LSCALAPACK"> T  </i>
   <i type="logical" name="LSCAAWARE"> F  </i>
   <i type="logical" name="LSCALU"> F  </i>
   <i type="logical" name="LASYNC"> F  </i>
   <i type="logical" name="LORBITALREAL"> F  </i>
  </separator>
  <separator name="miscellaneous" >
   <i type="int" name="IDIOT">     3</i>
   <i type="int" name="PHON_NSTRUCT">    -1</i>
   <i type="logical" name="LMUSIC"> F  </i>
   <v name="POMASS">     28.08500000     72.61000000</v>
   <v name="DARWINR">      0.00000000      0.00000000</v>
   <v name="DARWINV">      1.00000000      1.00000000</v>
   <i type="logical" name="LCORR"> T  </i>
  </separator>
  <i type="logical" name="GGA_COMPAT"> T  </i>
  <i type="logical" name="LBERRY"> F  </i>
  <i type="int" name="ICORELEVEL">     0</i>
  <i type="logical" name="LDAU"> F  </i>
  <i type="int" name="I_CONSTRAINED_M">     0</i>
  <separator name="electronic exchange-correlation" >
   <i type="string" name="GGA    ">PE</i>
   <i type="string" name="XC_C">1</i>
   <i type="int" name="VOSKOWN">     0</i>
   <i type="logical" name="LHFCALC"> F  </i>
   <i type="string" name="PRECFOCK"></i>
   <i type="logical" name="LSYMGRAD"> F  </i>
   <i type="logical" name="LHFONE"> F  </i>
   <i type="logical" name="LRHFCALC"> F  </i>
   <i type="logical" name="LTHOMAS"> F  </i>
   <i type="logical" name="LMODELHF"> F  </i>
   <i type="logical" name="LFOCKACE"> F  </i>
   <i name="ENCUT4O">     -1.00000000</i>
   <i type="int" name="EXXOEP">     0</i>
   <i type="int" name="FOURORBIT">     0</i>
   <i name="AEXX">      0.00000000</i>
   <i name="HFALPHA">      0.00000000</i>
   <i name="MCALPHA">      0.00000000</i>
   <i name="ALDAX">      1.00000000</i>
   <i name="AGGAX">      1.00000000</i>
   <i name="AMGGAX">      1.00000000</i>
   <i name="ALDAC">      1.00000000</i>
   <i name="AGGAC">      1.00000000</i>
   <i name="AMGGAC">      1.00000000</i>
   <i type="int" name="NKREDX">     1</i>
   <i type="int" name="NKREDY">     1</i>
   <i type="int" name="NKREDZ">     1</i>
   <i type="logical" name="SHIFTRED"> F  </i>
   <i type="logical" name="ODDONLY"> F  </i>
   <i type="logical" name="EVENONLY"> F  </i>
   <i type="int" name="LMAXFOCK">     0</i>
   <i type="int" name="NMAXFOCKAE">     0</i>
   <i type="logical" name="LFOCKAEDFT"> F  </i>
   <i name="HFSCREEN">      0.00000000</i>
   <i name="HFSCREENC">      0.00000000</i>
   <i type="int" name="NBANDSGWLOW">     0</i>
  </separator>
  <separator name="vdW DFT" >
   <i type="logical" name="LUSE_VDW"> F  </i>
   <i type="int" name="IVDW_NL">    -1</i>
   <i type="logical" name="LSPIN_VDW"> F  </i>
   <i name="ZAB_VDW">     -0.84910000</i>
   <i name="GAMMA_VDW">      1.39626340</i>
   <i name="ALPHA_VDW">      0.00000000</i>
   <i name="PARAM1">      0.12340000</i>
   <i name="PARAM2">      1.00000000</i>
   <i name="BPARAM">      6.30000000</i>
   <i name="CPARAM">      0.00930000</i>
  </separator>
  <separator name="model GW" >
   <i type="int" name="MODEL_GW">     0</i>
   <i name="MODEL_EPS0">     12.22373782</i>
   <i name="MODEL_ALPHA">      1.00000000</i>
  </separator>
  <separator name="linear response parameters" >
   <i type="logical" name="LEPSILON"> F  </i>
   <i type="logical" name="LRPA"> F  </i>
   <i type="logical" name="LNABLA"> F  </i>
   <i type="logical" name="LVEL"> F  </i>
   <i name="CSHIFT">      0.10000000</i>
   <i name="OMEGAMAX">     -1.00000000</i>
   <i name="DEG_THRESHOLD">      0.00200000</i>
   <i name="RTIME">     -0.10000000</i>
   <i name="WPLASMAI">      0.00000000</i>
   <v name="DFIELD">      0.00000000      0.00000000      0.00000000</v>
   <v name="WPLASMA">      0.00000000      0.00000000      0.00000000      0.00000000      0.00000000      0.00000000      0.00000000      0.00000000      0.00000000</v>
  </separator>
  <separator name="orbital magnetization" >
   <i type="logical" name="NUCIND"> F  </i>
   <v name="MAGPOS">      0.00000000      0.00000000      0.00000000</v>
   <i type="logical" name="LNICSALL"> T  </i>
   <i type="logical" name="ORBITALMAG"> F  </i>
   <i type="logical" name="LMAGBLOCH"> F  </i>
   <i type="logical" name="LCHIMAG"> F  </i>
   <i type="logical" name="LGAUGE"> T  </i>
   <i type="int" name="MAGATOM">     0</i>
   <v name="MAGDIPOL">      0.00000000      0.00000000      0.00000000</v>
   <v name="AVECCONST">      0.00000000      0.00000000      0.00000000</v>
  </separator>
  <separator name="response functions" >
   <i type="logical" name="LALL_IN_ONE"> F  </i>
   <i type="int" name="IALL_IN_ONE">    -1</i>
   <i type="int" name="NBANDS_WAVE">    -1</i>
   <i type="logical" name="LFINITE_TEMPERATURE"> F  </i>
   <i type="logical" name="LADDER"> F  </i>
   <i type="logical" name="LRPAFORCE"> F  </i>
   <i type="logical" name="LFXC"> F  </i>
   <i type="logical" name="LHARTREE"> T  </i>
   <i type="int" name="IBSE">     0</i>
   <v type="int" name="KPOINT">    -1     0     0     0</v>
   <i type="logical" name="LTCTC"> F  </i>
   <i type="logical" name="LTCTE"> F  </i>
   <i type="logical" name="LTETE"> F  </i>
   <i type="logical" name="LTRIPLET"> F  </i>
   <i type="logical" name="LFXCEPS"> F  </i>
   <i type="logical" name="LFXHEG"> F  </i>
   <i type="int" name="NATURALO">     2</i>
   <i type="logical" name="LHOLEGF"> F  </i>
   <i type="logical" name="L2ORDER"> F  </i>
   <i type="logical" name="LDMP1"> F  </i>
   <i type="logical" name="LMP2LT"> F  </i>
   <i type="logical" name="LSMP2LT"> F  </i>
   <i type="logical" name="LGWLF"> F  </i>
   <i name="ENCUTGW">     -1.60000002</i>
   <i name="ENCUTGWSOFT">     -1.60000002</i>
   <i name="ENCUTLF">     -1.00000000</i>
   <i type="logical" name="ESF_SPLINES"> F  </i>
   <i name="ESF_CONV">      0.01000000</i>
   <i type="int" name="ESF_NINTER">    15</i>
   <i type="int" name="LMAXMP2">    -1</i>
   <i name="SCISSOR">      0.00000000</i>
   <i type="int" name="NOMEGA">     0</i>
   <i type="int" name="NOMEGAR">     0</i>
   <i type="int" name="NBANDSGW">    -1</i>
   <i type="int" name="NBANDSO">    -1</i>
   <i type="int" name="NBANDSV">    -1</i>
   <i type="int" name="NELMGW">     1</i>
   <i type="int" name="NELMHF">     1</i>
   <i type="int" name="DIM">     3</i>
   <i type="int" name="IESPILON">     4</i>
   <i type="int" name="ANTIRES">     0</i>
   <i name="OMEGAMAX">    -30.00000000</i>
   <i name="OMEGAMIN">    -30.00000000</i>
   <i name="OMEGATL">   -200.00000000</i>
   <i type="int" name="OMEGAGRID">     0</i>
   <i name="CSHIFT">     -0.10000000</i>
   <i type="logical" name="LSELFENERGY"> F  </i>
   <i type="logical" name="LSPECTRAL"> F  </i>
   <i type="logical" name="LSPECTRALGW"> F  </i>
   <i type="logical" name="LSINGLES"> F  </i>
   <i type="logical" name="LFERMIGW"> F  </i>
   <i type="logical" name="ODDONLYGW"> F  </i>
   <i type="logical" name="EVENONLYGW"> F  </i>
   <i type="int" name="NKREDLFX">     1</i>
   <i type="int" name="NKREDLFY">     1</i>
   <i type="int" name="NKREDLFZ">     1</i>
   <i type="int" name="MAXMEM">  2800</i>
   <i type="int" name="TELESCOPE">     0</i>
   <i type="int" name="NTAUPAR">    -1</i>
   <i type="int" name="NOMEGAPAR">    -1</i>
   <i name="DAMP_NEWTON">      0.80000001</i>
   <i name="LAMBDA">      1.00000000</i>
  </separator>
  <separator name="External order field" >
   <i name="OFIELD_KAPPA">      0.00000000</i>
   <v name="OFIELD_K">      0.00000000      0.00000000      0.00000000</v>
   <i name="OFIELD_Q6_NEAR">      0.00000000</i>
   <i name="OFIELD_Q6_FAR">      0.00000000</i>
   <i name="OFIELD_A">      0.00000000</i>
  </separator>
  <separator name="optional k-points parameters" >
   <i type="int" name="KPOINTS_OPT_MODE">     1</i>
   <i type="logical" name="LKPOINTS_OPT"> F  </i>
  </separator>
 </parameters>
 <atominfo>
  <atoms>      44 </atoms>
  <types>       2 </types>
  <array name="atoms" >
   <dimension dim="1">ion</dimension>
   <field type="string">element</field>
   <field type="int">atomtype</field>
   <set>
    <rc><c>Si</c><c>   1</c></rc>
    <rc><c>Si</c><c>   1</c></rc>
    <rc><c>Si</c><c>   1</c></rc>
    <rc><c>Si</c><c>   1</c></rc>
    <rc><c>Si</c><c>   1</c></rc>
    <rc><c>Si</c><c>   1</c></rc>
    <rc><c>Si</c><c>   1</c></rc>
    <rc><c>Si</c><c>   1</c></rc>
    <rc><c>Si</c><c>   1</c></rc>
    <rc><c>Si</c><c>   1</c></rc>
    <rc><c>Si</c><c>   1</c></rc>
    <rc><c>Si</c><c>   1</c></rc>
    <rc><c>Si</c><c>   1</c></rc>
    <rc><c>Si</c><c>   1</c></rc>
    <rc><c>Si</c><c>   1</c></rc>
    <rc><c>Si</c><c>   1</c></rc>
    <rc><c>Si</c><c>   1</c></rc>
    <rc><c>Si</c><c>   1</c></rc>
    <rc><c>Si</c><c>   1</c></rc>
    <rc><c>Si</c><c>   1</c></rc>
    <rc><c>Si</c><c>   1</c></rc>
    <rc><c>Si</c><c>   1</c></rc>
    <rc><c>Ge</c><c>   2</c></rc>
    <rc><c>Ge</c><c>   2</c></rc>
    <rc><c>Ge</c><c>   2</c></rc>
    <rc><c>Ge</c><c>   2</c></rc>
    <rc><c>Ge</c><c>   2</c></rc>
    <rc><c>Ge</c><c>   2</c></rc>
    <rc><c>Ge</c><c>   2</c></rc>
    <rc><c>Ge</c><c>   2</c></rc>
    <rc><c>Ge</c><c>   2</c></rc>
    <rc><c>Ge</c><c>   2</c></rc>
    <rc><c>Ge</c><c>   2</c></rc>
    <rc><c>Ge</c><c>   2</c></rc>
    <rc><c>Ge</c><c>   2</c></rc>
    <rc><c>Ge</c><c>   2</c></rc>
    <rc><c>Ge</c><c>   2</c></rc>
    <rc><c>Ge</c><c>   2</c></rc>
    <rc><c>Ge</c><c>   2</c></rc>
    <rc><c>Ge</c><c>   2</c></rc>
    <rc><c>Ge</c><c>   2</c></rc>
    <rc><c>Ge</c><c>   2</c></rc>
    <rc><c>Ge</c><c>   2</c></rc>
    <rc><c>Ge</c><c>   2</c></rc>
   </set>
  </array>
  <array name="atomtypes" >
   <dimension dim="1">type</dimension>
   <field type="int">atomspertype</field>
   <field type="string">element</field>
   <field>mass</field>
   <field>valence</field>
   <field type="string">pseudopotential</field>
   <set>
    <rc><c>  22</c><c>Si</c><c>     28.08500000</c><c>      4.00000000</c><c>  PAW_PBE Si 05Jan2001                  </c></rc>
    <rc><c>  22</c><c>Ge</c><c>     72.61000000</c><c>      4.00000000</c><c>  PAW_PBE Ge 05Jan2001                  </c></rc>
   </set>
  </array>
 </atominfo>
 <structure name="initialpos" >
  <crystal>
   <varray name="basis" >
    <v>       5.48000000       0.00000000       0.00000000 </v>
    <v>       0.00000000       5.48000000       0.00000000 </v>
    <v>       0.00000000       0.00000000      29.85000000 </v>
   </varray>
   <i name="volume">    896.40744000 </i>
   <varray name="rec_basis" >
    <v>       0.18248175       0.00000000       0.00000000 </v>
    <v>       0.00000000       0.18248175       0.00000000 </v>
    <v>       0.00000000       0.00000000       0.03350084 </v>
   </varray>
  </crystal>
  <varray name="positions" >
   <v>       0.25000000       0.00000000       0.04589615 </v>
   <v>       0.75000000       0.00000000       0.13768844 </v>
   <v>       0.25000000       0.00000000       0.22948074 </v>
   <v>       0.75000000       0.00000000       0.32127303 </v>
   <v>       0.25000000       0.00000000       0.41306533 </v>
   <v>       0.75000000       0.50000000       0.04589615 </v>
   <v>       0.25000000       0.50000000       0.13768844 </v>
   <v>       0.75000000       0.50000000       0.22948074 </v>
   <v>       0.25000000       0.50000000       0.32127303 </v>
   <v>       0.75000000       0.50000000       0.41306533 </v>
   <v>       0.00000000       0.25000000       0.00000000 </v>
   <v>       0.50000000       0.25000000       0.09179229 </v>
   <v>       0.00000000       0.25000000       0.18358459 </v>
   <v>       0.50000000       0.25000000       0.27537688 </v>
   <v>       0.00000000       0.25000000       0.36716918 </v>
   <v>       0.50000000       0.25000000       0.45896147 </v>
   <v>       0.50000000       0.75000000       0.00000000 </v>
   <v>       0.00000000       0.75000000       0.09179229 </v>
   <v>       0.50000000       0.75000000       0.18358459 </v>
   <v>       0.00000000       0.75000000       0.27537688 </v>
   <v>       0.50000000       0.75000000       0.36716918 </v>
   <v>       0.00000000       0.75000000       0.45896147 </v>
   <v>       0.65740741       0.40740741       0.53986600 </v>
   <v>       0.15740741       0.40740741       0.63467337 </v>
   <v>       0.65740741       0.40740741       0.72948074 </v>
   <v>       0.15740741       0.40740741       0.82428811 </v>
   <v>       0.65740741       0.40740741       0.91909548 </v>
   <v>       0.15740741       0.90740741       0.53986600 </v>
   <v>       0.65740741       0.90740741       0.63467337 </v>
   <v>       0.15740741       0.90740741       0.72948074 </v>
   <v>       0.65740741       0.90740741       0.82428811 </v>
   <v>       0.15740741       0.90740741       0.91909548 </v>
   <v>       0.40740741       0.65740741       0.49246231 </v>
   <v>       0.90740741       0.65740741       0.58726968 </v>
   <v>       0.40740741       0.65740741       0.68207705 </v>
   <v>       0.90740741       0.65740741       0.77688442 </v>
   <v>       0.40740741       0.65740741       0.87169179 </v>
   <v>       0.90740741       0.65740741       0.96649916 </v>
   <v>       0.90740741       0.15740741       0.49246231 </v>
   <v>       0.40740741       0.15740741       0.58726968 </v>
   <v>       0.90740741       0.15740741       0.68207705 </v>
   <v>       0.40740741       0.15740741       0.77688442 </v>
   <v>       0.90740741       0.15740741       0.87169179 </v>
   <v>       0.40740741       0.15740741       0.96649916 </v>
  </varray>
 </structure>
 <calculation>
  <scstep>
   <time name="dav">   13.25   13.37</time>
   <time name="total">   14.98   15.11</time>
   <energy>
    <i name="alphaZ">    242.74898087 </i>
    <i name="ewald">  -4970.93877971 </i>
    <i name="hartreedc">   -285.96516954 </i>
    <i name="XCdc">   -367.11057896 </i>
    <i name="pawpsdc">   3877.91595220 </i>
    <i name="pawaedc">  -3172.13693009 </i>
    <i name="eentropy">     -0.00107864 </i>
    <i name="bandstr">    835.26764772 </i>
    <i name="atom">   4577.37573764 </i>
    <i name="e_fr_energy">    737.15578148 </i>
    <i name="e_wo_entrp">    737.15686013 </i>
    <i name="e_0_energy">    737.15632081 </i>
   </energy>
  </scstep>
  <scstep>
   <time name="dav">   14.93   15.06</time>
   <time name="total">   14.93   15.06</time>
   <energy>
    <i name="e_fr_energy">   -130.41237595 </i>
    <i name="e_wo_entrp">   -130.41171339 </i>
    <i name="e_0_energy">   -130.41204467 </i>
   </energy>
  </scstep>
  <scstep>
   <time name="dav">   15.46   15.60</time>
   <time name="total">   15.47   15.60</time>
   <energy>
    <i name="e_fr_energy">   -208.81352385 </i>
    <i name="e_wo_entrp">   -208.81248399 </i>
    <i name="e_0_energy">   -208.81300392 </i>
   </energy>
  </scstep>
  <scstep>
   <time name="dav">   15.22   15.35</time>
   <time name="total">   15.22   15.35</time>
   <energy>
    <i name="e_fr_energy">   -211.34560097 </i>
    <i name="e_wo_entrp">   -211.34494529 </i>
    <i name="e_0_energy">   -211.34527313 </i>
   </energy>
  </scstep>
  <scstep>
   <time name="dav">   15.65   15.79</time>
   <time name="total">   16.68   16.82</time>
   <energy>
    <i name="e_fr_energy">   -211.42436886 </i>
    <i name="e_wo_entrp">   -211.42374878 </i>
    <i name="e_0_energy">   -211.42405882 </i>
   </energy>
  </scstep>
  <scstep>
   <time name="dav">   16.57   16.71</time>
   <time name="total">   19.33   19.48</time>
   <energy>
    <i name="e_fr_energy">   -209.91358265 </i>
    <i name="e_wo_entrp">   -209.91305373 </i>
    <i name="e_0_energy">   -209.91331819 </i>
   </energy>
  </scstep>
  <scstep>
   <time name="dav">   18.99   19.14</time>
   <time name="total">   21.75   21.92</time>
   <energy>
    <i name="e_fr_energy">   -238.00825023 </i>
    <i name="e_wo_entrp">   -238.00702175 </i>
    <i name="e_0_energy">   -238.00763599 </i>
   </energy>
  </scstep>
  <scstep>
   <time name="dav">   20.60   20.77</time>
   <time name="total">   23.36   23.54</time>
   <energy>
    <i name="e_fr_energy">   -206.73337008 </i>
    <i name="e_wo_entrp">   -206.73240307 </i>
    <i name="e_0_energy">   -206.73288657 </i>
   </energy>
  </scstep>
  <scstep>
   <time name="dav">   15.90   16.04</time>
   <time name="total">   18.66   18.82</time>
   <energy>
    <i name="e_fr_energy">   -208.52630288 </i>
    <i name="e_wo_entrp">   -208.52509559 </i>
    <i name="e_0_energy">   -208.52569923 </i>
   </energy>
  </scstep>
  <scstep>
   <time name="dav">   15.27   15.40</time>
   <time name="total">   18.03   18.17</time>
   <energy>
    <i name="e_fr_energy">   -208.61570600 </i>
    <i name="e_wo_entrp">   -208.61526834 </i>
    <i name="e_0_energy">   -208.61548717 </i>
   </energy>
  </scstep>
  <scstep>
   <time name="dav">   15.85   15.97</time>
   <time name="total">   18.61   18.75</time>
   <energy>
    <i name="e_fr_energy">   -208.60282541 </i>
    <i name="e_wo_entrp">   -208.60245189 </i>
    <i name="e_0_energy">   -208.60263865 </i>
   </energy>
  </scstep>
  <scstep>
   <time name="dav">   15.80   15.93</time>
   <time name="total">   18.56   18.71</time>
   <energy>
    <i name="e_fr_energy">   -208.59791452 </i>
    <i name="e_wo_entrp">   -208.59722287 </i>
    <i name="e_0_energy">   -208.59756869 </i>
   </energy>
  </scstep>
  <scstep>
   <time name="dav">   15.86   15.99</time>
   <time name="total">   18.62   18.77</time>
   <energy>
    <i name="e_fr_energy">   -208.59614085 </i>
    <i name="e_wo_entrp">   -208.59584838 </i>
    <i name="e_0_energy">   -208.59599462 </i>
   </energy>
  </scstep>
  <scstep>
   <time name="dav">   15.87   15.99</time>
   <time name="total">   18.63   18.77</time>
   <energy>
    <i name="e_fr_energy">   -208.59576568 </i>
    <i name="e_wo_entrp">   -208.59503263 </i>
    <i name="e_0_energy">   -208.59539916 </i>
   </energy>
  </scstep>
  <scstep>
   <time name="dav">   15.19   15.31</time>
   <time name="total">   17.95   18.09</time>
   <energy>
    <i name="e_fr_energy">   -208.59569811 </i>
    <i name="e_wo_entrp">   -208.59504160 </i>
    <i name="e_0_energy">   -208.59536986 </i>
   </energy>
  </scstep>
  <scstep>
   <time name="dav">   15.89   16.02</time>
   <time name="total">   18.65   18.79</time>
   <energy>
    <i name="e_fr_energy">   -208.59572424 </i>
    <i name="e_wo_entrp">   -208.59514731 </i>
    <i name="e_0_energy">   -208.59543578 </i>
   </energy>
  </scstep>
  <scstep>
   <time name="dav">   15.38   15.52</time>
   <time name="total">   18.14   18.29</time>
   <energy>
    <i name="e_fr_energy">   -208.59571708 </i>
    <i name="e_wo_entrp">   -208.59508065 </i>
    <i name="e_0_energy">   -208.59539886 </i>
   </energy>
  </scstep>
  <scstep>
   <time name="dav">   15.22   15.35</time>
   <time name="total">   17.98   18.13</time>
   <energy>
    <i name="e_fr_energy">   -208.59575056 </i>
    <i name="e_wo_entrp">   -208.59516628 </i>
    <i name="e_0_energy">   -208.59545842 </i>
   </energy>
  </scstep>
  <scstep>
   <time name="dav">   15.04   15.16</time>
   <time name="total">   17.80   17.94</time>
   <energy>
    <i name="e_fr_energy">   -208.59576633 </i>
    <i name="e_wo_entrp">   -208.59519945 </i>
    <i name="e_0_energy">   -208.59548289 </i>
   </energy>
  </scstep>
  <scstep>
   <time name="dav">   14.97   15.10</time>
   <time name="total">   17.73   17.88</time>
   <energy>
    <i name="e_fr_energy">   -208.59577454 </i>
    <i name="e_wo_entrp">   -208.59520294 </i>
    <i name="e_0_energy">   -208.59548874 </i>
   </energy>
  </scstep>
  <scstep>
   <time name="dav">   15.05   15.17</time>
   <time name="total">   17.80   17.94</time>
   <energy>
    <i name="e_fr_energy">   -208.59581061 </i>
    <i name="e_wo_entrp">   -208.59523703 </i>
    <i name="e_0_energy">   -208.59552382 </i>
   </energy>
  </scstep>
  <scstep>
   <time name="dav">   15.07   15.20</time>
   <time name="total">   17.83   17.97</time>
   <energy>
    <i name="e_fr_energy">   -208.59582147 </i>
    <i name="e_wo_entrp">   -208.59525183 </i>
    <i name="e_0_energy">   -208.59553665 </i>
   </energy>
  </scstep>
  <scstep>
   <time name="dav">   15.32   15.44</time>
   <time name="total">   18.07   18.21</time>
   <energy>
    <i name="e_fr_energy">   -208.59582277 </i>
    <i name="e_wo_entrp">   -208.59525833 </i>
    <i name="e_0_energy">   -208.59554055 </i>
   </energy>
  </scstep>
  <scstep>
   <time name="dav">   15.59   15.72</time>
   <time name="total">   18.34   18.49</time>
   <energy>
    <i name="e_fr_energy">   -208.59582389 </i>
    <i name="e_wo_entrp">   -208.59526355 </i>
    <i name="e_0_energy">   -208.59554372 </i>
   </energy>
  </scstep>
  <scstep>
   <time name="dav">   15.22   15.35</time>
   <time name="total">   17.97   18.12</time>
   <energy>
    <i name="e_fr_energy">   -208.59582384 </i>
    <i name="e_wo_entrp">   -208.59526324 </i>
    <i name="e_0_energy">   -208.59554354 </i>
   </energy>
  </scstep>
  <scstep>
   <time name="dav">   11.49   11.59</time>
   <time name="total">   14.26   14.37</time>
   <energy>
    <i name="e_fr_energy">   -208.59582348 </i>
    <i name="e_wo_entrp">   -208.59526207 </i>
    <i name="e_0_energy">   -208.59554277 </i>
   </energy>
  </scstep>
  <scstep>
   <time name="dav">   12.20   12.30</time>
   <time name="total">   14.96   15.08</time>
   <energy>
    <i name="e_fr_energy">   -208.59582311 </i>
    <i name="e_wo_entrp">   -208.59526041 </i>
    <i name="e_0_energy">   -208.59554176 </i>
   </energy>
  </scstep>
  <scstep>
   <time name="dav">   10.51   10.60</time>
   <time name="total">   12.25   12.34</time>
   <energy>
    <i name="alphaZ">    242.74898087 </i>
    <i name="ewald">  -4970.93877971 </i>
    <i name="hartreedc">   -350.03748183 </i>
    <i name="XCdc">   -355.21058110 </i>
    <i name="pawpsdc">  14041.24539464 </i>
    <i name="pawaedc"> -13341.68347712 </i>
    <i name="eentropy">     -0.00056410 </i>
    <i name="bandstr">    -52.09505230 </i>
    <i name="atom">   4577.37573764 </i>
    <i name="e_fr_energy">   -208.59582302 </i>
    <i name="e_wo_entrp">   -208.59525892 </i>
    <i name="e_0_energy">   -208.59554097 </i>
   </energy>
  </scstep>
  <structure>
   <crystal>
    <varray name="basis" >
     <v>       5.48000000       0.00000000       0.00000000 </v>
     <v>       0.00000000       5.48000000       0.00000000 </v>
     <v>       0.00000000       0.00000000      29.85000000 </v>
    </varray>
    <i name="volume">    896.40744000 </i>
    <varray name="rec_basis" >
     <v>       0.18248175       0.00000000       0.00000000 </v>
     <v>       0.00000000       0.18248175       0.00000000 </v>
     <v>       0.00000000       0.00000000       0.03350084 </v>
    </varray>
   </crystal>
   <varray name="positions" >
    <v>       0.25000000       0.00000000       0.04589615 </v>
    <v>       0.75000000       0.00000000       0.13768844 </v>
    <v>       0.25000000       0.00000000       0.22948074 </v>
    <v>       0.75000000       0.00000000       0.32127303 </v>
    <v>       0.25000000       0.00000000       0.41306533 </v>
    <v>       0.75000000       0.50000000       0.04589615 </v>
    <v>       0.25000000       0.50000000       0.13768844 </v>
    <v>       0.75000000       0.50000000       0.22948074 </v>
    <v>       0.25000000       0.50000000       0.32127303 </v>
    <v>       0.75000000       0.50000000       0.41306533 </v>
    <v>       0.00000000       0.25000000       0.00000000 </v>
    <v>       0.50000000       0.25000000       0.09179229 </v>
    <v>       0.00000000       0.25000000       0.18358459 </v>
    <v>       0.50000000       0.25000000       0.27537688 </v>
    <v>       0.00000000       0.25000000       0.36716918 </v>
    <v>       0.50000000       0.25000000       0.45896147 </v>
    <v>       0.50000000       0.75000000       0.00000000 </v>
    <v>       0.00000000       0.75000000       0.09179229 </v>
    <v>       0.50000000       0.75000000       0.18358459 </v>
    <v>       0.00000000       0.75000000       0.27537688 </v>
    <v>       0.50000000       0.75000000       0.36716918 </v>
    <v>       0.00000000       0.75000000       0.45896147 </v>
    <v>       0.65740741       0.40740741       0.53986600 </v>
    <v>       0.15740741       0.40740741       0.63467337 </v>
    <v>       0.65740741       0.40740741       0.72948074 </v>
    <v>       0.15740741       0.40740741       0.82428811 </v>
    <v>       0.65740741       0.40740741       0.91909548 </v>
    <v>       0.15740741       0.90740741       0.53986600 </v>
    <v>       0.65740741       0.90740741       0.63467337 </v>
    <v>       0.15740741       0.90740741       0.72948074 </v>
    <v>       0.65740741       0.90740741       0.82428811 </v>
    <v>       0.15740741       0.90740741       0.91909548 </v>
    <v>       0.40740741       0.65740741       0.49246231 </v>
    <v>       0.90740741       0.65740741       0.58726968 </v>
    <v>       0.40740741       0.65740741       0.68207705 </v>
    <v>       0.90740741       0.65740741       0.77688442 </v>
    <v>       0.40740741       0.65740741       0.87169179 </v>
    <v>       0.90740741       0.65740741       0.96649916 </v>
    <v>       0.90740741       0.15740741       0.49246231 </v>
    <v>       0.40740741       0.15740741       0.58726968 </v>
    <v>       0.90740741       0.15740741       0.68207705 </v>
    <v>       0.40740741       0.15740741       0.77688442 </v>
    <v>       0.90740741       0.15740741       0.87169179 </v>
    <v>       0.40740741       0.15740741       0.96649916 </v>
   </varray>
  </structure>
  <varray name="forces" >
   <v>      -0.15702609      -0.15702609       1.06028078 </v>
   <v>      -0.02525062      -0.02525062       0.00335240 </v>
   <v>      -0.00382437      -0.00382437       0.00883146 </v>
   <v>      -0.01845994      -0.01845994       0.01011049 </v>
   <v>      -0.02495950      -0.02495950      -0.41180827 </v>
   <v>      -0.15702609      -0.15702609       1.06028078 </v>
   <v>      -0.02525062      -0.02525062       0.00335240 </v>
   <v>      -0.00382437      -0.00382437       0.00883146 </v>
   <v>      -0.01845994      -0.01845994       0.01011049 </v>
   <v>      -0.02495950      -0.02495950      -0.41180827 </v>
   <v>      -0.33662108      -0.33662108       0.02088449 </v>
   <v>      -0.07950369      -0.07950369       0.22962901 </v>
   <v>       0.00537664       0.00537664       0.01645682 </v>
   <v>       0.00535069       0.00535069       0.00206925 </v>
   <v>       0.05929218       0.05929218      -0.07891920 </v>
   <v>      -0.47026825      -0.47026825      -0.66428914 </v>
   <v>      -0.33662108      -0.33662108       0.02088449 </v>
   <v>      -0.07950369      -0.07950369       0.22962901 </v>
   <v>       0.00537664       0.00537664       0.01645682 </v>
   <v>       0.00535069       0.00535069       0.00206925 </v>
   <v>       0.05929218       0.05929218      -0.07891920 </v>
   <v>      -0.47026825      -0.47026825      -0.66428914 </v>
   <v>       0.01736276       0.01736276       1.07731983 </v>
   <v>       0.00594816       0.00594816      -0.00454122 </v>
   <v>       0.00592732       0.00592732      -0.00973236 </v>
   <v>       0.01353571       0.01353571      -0.01061016 </v>
   <v>      -0.04863917      -0.04863917      -0.55872338 </v>
   <v>       0.01736276       0.01736276       1.07731983 </v>
   <v>       0.00594816       0.00594816      -0.00454122 </v>
   <v>       0.00592732       0.00592732      -0.00973236 </v>
   <v>       0.01353571       0.01353571      -0.01061016 </v>
   <v>      -0.04863917      -0.04863917      -0.55872338 </v>
   <v>       0.33495958       0.33495958      -1.24424966 </v>
   <v>       0.08581399       0.08581399       0.38333207 </v>
   <v>       0.00937469       0.00937469       0.06180272 </v>
   <v>      -0.00099976      -0.00099976      -0.00583719 </v>
   <v>      -0.02879658      -0.02879658      -0.13712397 </v>
   <v>       0.65140732       0.65140732       0.25176522 </v>
   <v>       0.33495958       0.33495958      -1.24424966 </v>
   <v>       0.08581399       0.08581399       0.38333207 </v>
   <v>       0.00937469       0.00937469       0.06180272 </v>
   <v>      -0.00099976      -0.00099976      -0.00583719 </v>
   <v>      -0.02879658      -0.02879658      -0.13712397 </v>
   <v>       0.65140732       0.65140732       0.25176522 </v>
  </varray>
  <varray name="stress" >
   <v>      54.77429367      -5.96446712      -1.40288123 </v>
   <v>      -5.96446712      54.77429367      -1.40288123 </v>
   <v>      -1.40288027      -1.40288027      73.98503974 </v>
  </varray>
  <energy>
   <i name="e_fr_energy">   -208.59582302 </i>
   <i name="e_wo_entrp">   -208.59525892 </i>
   <i name="e_0_energy">   -208.59554097 </i>
  </energy>
  <time name="totalsc">  518.16  522.89</time>
  <eigenvalues>
   <array>
    <dimension dim="1">band</dimension>
    <dimension dim="2">kpoint</dimension>
    <dimension dim="3">spin</dimension>
    <field>eigene</field>
    <field>occ</field>
    <set>
     <set comment="spin 1">
      <set comment="kpoint 1">
       <r>   -8.0410    1.0000 </r>
       <r>   -7.9160    1.0000 </r>
       <r>   -7.5577    1.0000 </r>
       <r>   -6.9864    1.0000 </r>
       <r>   -6.6584    1.0000 </r>
       <r>   -6.1812    1.0000 </r>
       <r>   -6.1148    1.0000 </r>
       <r>   -5.1890    1.0000 </r>
       <r>   -5.1732    1.0000 </r>
       <r>   -4.7879    1.0000 </r>
       <r>   -4.7445    1.0000 </r>
       <r>   -3.9562    1.0000 </r>
       <r>   -3.9222    1.0000 </r>
       <r>   -3.8108    1.0000 </r>
       <r>   -3.7970    1.0000 </r>
       <r>   -3.7748    1.0000 </r>
       <r>   -3.7661    1.0000 </r>
       <r>   -3.7485    1.0000 </r>
       <r>   -3.7351    1.0000 </r>
       <r>   -3.7199    1.0000 </r>
       <r>   -3.7003    1.0000 </r>
       <r>   -3.6976    1.0000 </r>
       <r>   -2.8442    1.0000 </r>
       <r>   -2.8161    1.0000 </r>
       <r>   -2.7285    1.0000 </r>
       <r>   -2.6995    1.0000 </r>
       <r>   -2.6859    1.0000 </r>
       <r>   -2.6648    1.0000 </r>
       <r>   -2.6455    1.0000 </r>
       <r>   -2.6222    1.0000 </r>
       <r>   -2.6106    1.0000 </r>
       <r>   -2.5006    1.0000 </r>
       <r>   -2.4485    1.0000 </r>
       <r>   -2.3695    1.0000 </r>
       <r>   -2.3478    1.0000 </r>
       <r>   -0.9080    1.0000 </r>
       <r>   -0.8124    1.0000 </r>
       <r>    0.3857    1.0000 </r>
       <r>    0.4347    1.0000 </r>
       <r>    0.6989    1.0000 </r>
       <r>    0.8686    1.0000 </r>
       <r>    0.9900    1.0000 </r>
       <r>    1.0423    1.0000 </r>
       <r>    1.0931    1.0000 </r>
       <r>    1.1526    1.0000 </r>
       <r>    1.1746    1.0000 </r>
       <r>    1.2428    1.0000 </r>
       <r>    1.3634    1.0000 </r>
       <r>    1.4057    1.0000 </r>
       <r>    1.4662    1.0000 </r>
       <r>    1.5211    1.0000 </r>
       <r>    1.6576    1.0000 </r>
       <r>    1.6766    1.0000 </r>
       <r>    1.6794    1.0000 </r>
       <r>    1.6846    1.0000 </r>
       <r>    1.7068    1.0000 </r>
       <r>    1.7644    1.0000 </r>
       <r>    1.8651    1.0000 </r>
       <r>    2.0085    1.0000 </r>
       <r>    2.0899    1.0000 </r>
       <r>    2.1127    1.0000 </r>
       <r>    2.2016    1.0000 </r>
       <r>    2.3046    1.0000 </r>
       <r>    2.3139    1.0000 </r>
       <r>    2.3710    1.0000 </r>
       <r>    2.3768    1.0000 </r>
       <r>    2.4708    1.0000 </r>
       <r>    2.4761    1.0000 </r>
       <r>    2.6453    1.0000 </r>
       <r>    2.7364    1.0000 </r>
       <r>    2.7755    1.0000 </r>
       <r>    3.0085    1.0000 </r>
       <r>    3.1428    1.0000 </r>
       <r>    3.3443    1.0000 </r>
       <r>    3.3918    1.0000 </r>
       <r>    3.4132    1.0000 </r>
       <r>    3.4757    1.0000 </r>
       <r>    3.5682    1.0000 </r>
       <r>    3.6846    1.0000 </r>
       <r>    4.0073    1.0000 </r>
       <r>    4.0272    1.0000 </r>
       <r>    4.0972    1.0000 </r>
       <r>    4.1588    1.0000 </r>
       <r>    4.3286    1.0000 </r>
       <r>    4.3983    1.0000 </r>
       <r>    4.5261    1.0000 </r>
       <r>    4.6554    1.0000 </r>
       <r>    4.8474    1.0000 </r>
       <r>    4.9545    1.0000 </r>
       <r>    5.2634    0.0000 </r>
       <r>    5.3260    0.0000 </r>
       <r>    5.3427    0.0000 </r>
       <r>    5.8117    0.0000 </r>
       <r>    5.8204    0.0000 </r>
       <r>    5.8844    0.0000 </r>
       <r>    5.9274    0.0000 </r>
       <r>    6.1197    0.0000 </r>
       <r>    6.1405    0.0000 </r>
       <r>    6.1960    0.0000 </r>
       <r>    6.2017    0.0000 </r>
       <r>    6.2359    0.0000 </r>
       <r>    6.3136    0.0000 </r>
       <r>    6.3591    0.0000 </r>
       <r>    6.4452    0.0000 </r>
       <r>    6.4770    0.0000 </r>
       <r>    6.6887    0.0000 </r>
      </set>
      <set comment="kpoint 2">
       <r>   -7.9222    1.0000 </r>
       <r>   -7.7982    1.0000 </r>
       <r>   -7.4421    1.0000 </r>
       <r>   -6.8744    1.0000 </r>
       <r>   -6.5421    1.0000 </r>
       <r>   -6.0757    1.0000 </r>
       <r>   -6.0058    1.0000 </r>
       <r>   -5.3572    1.0000 </r>
       <r>   -5.2499    1.0000 </r>
       <r>   -5.0960    1.0000 </r>
       <r>   -5.0819    1.0000 </r>
       <r>   -4.8747    1.0000 </r>
       <r>   -4.5520    1.0000 </r>
       <r>   -4.2225    1.0000 </r>
       <r>   -3.9315    1.0000 </r>
       <r>   -3.8932    1.0000 </r>
       <r>   -3.8589    1.0000 </r>
       <r>   -3.8274    1.0000 </r>
       <r>   -3.6342    1.0000 </r>
       <r>   -3.5634    1.0000 </r>
       <r>   -3.3709    1.0000 </r>
       <r>   -3.2390    1.0000 </r>
       <r>   -3.1810    1.0000 </r>
       <r>   -2.9534    1.0000 </r>
       <r>   -2.8545    1.0000 </r>
       <r>   -2.6803    1.0000 </r>
       <r>   -2.5956    1.0000 </r>
       <r>   -2.4971    1.0000 </r>
       <r>   -2.4929    1.0000 </r>
       <r>   -2.4441    1.0000 </r>
       <r>   -2.4006    1.0000 </r>
       <r>   -2.1381    1.0000 </r>
       <r>   -1.8745    1.0000 </r>
       <r>   -1.6414    1.0000 </r>
       <r>   -1.4744    1.0000 </r>
       <r>   -1.0349    1.0000 </r>
       <r>   -0.9392    1.0000 </r>
       <r>    0.2499    1.0000 </r>
       <r>    0.3120    1.0000 </r>
       <r>    0.3467    1.0000 </r>
       <r>    0.4385    1.0000 </r>
       <r>    0.7708    1.0000 </r>
       <r>    0.8578    1.0000 </r>
       <r>    0.9775    1.0000 </r>
       <r>    1.0143    1.0000 </r>
       <r>    1.0900    1.0000 </r>
       <r>    1.1950    1.0000 </r>
       <r>    1.2403    1.0000 </r>
       <r>    1.3487    1.0000 </r>
       <r>    1.4375    1.0000 </r>
       <r>    1.5777    1.0000 </r>
       <r>    1.6357    1.0000 </r>
       <r>    1.6608    1.0000 </r>
       <r>    1.7471    1.0000 </r>
       <r>    1.7689    1.0000 </r>
       <r>    1.8676    1.0000 </r>
       <r>    1.8803    1.0000 </r>
       <r>    1.9169    1.0000 </r>
       <r>    1.9550    1.0000 </r>
       <r>    1.9562    1.0000 </r>
       <r>    2.0492    1.0000 </r>
       <r>    2.0949    1.0000 </r>
       <r>    2.1422    1.0000 </r>
       <r>    2.1601    1.0000 </r>
       <r>    2.1839    1.0000 </r>
       <r>    2.2559    1.0000 </r>
       <r>    2.3510    1.0000 </r>
       <r>    2.4666    1.0000 </r>
       <r>    2.4892    1.0000 </r>
       <r>    2.5208    1.0000 </r>
       <r>    2.5603    1.0000 </r>
       <r>    2.7904    1.0000 </r>
       <r>    2.9590    1.0000 </r>
       <r>    3.1246    1.0000 </r>
       <r>    3.2582    1.0000 </r>
       <r>    3.4000    1.0000 </r>
       <r>    3.5205    1.0000 </r>
       <r>    3.5402    1.0000 </r>
       <r>    3.6069    1.0000 </r>
       <r>    3.8953    1.0000 </r>
       <r>    3.9732    1.0000 </r>
       <r>    4.0645    1.0000 </r>
       <r>    4.2072    1.0000 </r>
       <r>    4.2391    1.0000 </r>
       <r>    4.2451    1.0000 </r>
       <r>    4.5221    1.0000 </r>
       <r>    4.7001    1.0000 </r>
       <r>    4.9122    1.0000 </r>
       <r>    4.9850    1.0000 </r>
       <r>    5.2330    0.0000 </r>
       <r>    5.8250    0.0000 </r>
       <r>    5.8991    0.0000 </r>
       <r>    6.0343    0.0000 </r>
       <r>    6.0646    0.0000 </r>
       <r>    6.1227    0.0000 </r>
       <r>    6.2015    0.0000 </r>
       <r>    6.2454    0.0000 </r>
       <r>    6.4055    0.0000 </r>
       <r>    6.4098    0.0000 </r>
       <r>    6.4492    0.0000 </r>
       <r>    6.5050    0.0000 </r>
       <r>    6.5695    0.0000 </r>
       <r>    6.7521    0.0000 </r>
       <r>    6.8147    0.0000 </r>
       <r>    6.8902    0.0000 </r>
       <r>    6.9066    0.0000 </r>
      </set>
      <set comment="kpoint 3">
       <r>   -7.5691    1.0000 </r>
       <r>   -7.4482    1.0000 </r>
       <r>   -7.0991    1.0000 </r>
       <r>   -6.5439    1.0000 </r>
       <r>   -6.2271    1.0000 </r>
       <r>   -6.1962    1.0000 </r>
       <r>   -6.1129    1.0000 </r>
       <r>   -5.7925    1.0000 </r>
       <r>   -5.7668    1.0000 </r>
       <r>   -5.6840    1.0000 </r>
       <r>   -5.3257    1.0000 </r>
       <r>   -4.8880    1.0000 </r>
       <r>   -4.8288    1.0000 </r>
       <r>   -4.8206    1.0000 </r>
       <r>   -4.6642    1.0000 </r>
       <r>   -4.4923    1.0000 </r>
       <r>   -4.0449    1.0000 </r>
       <r>   -3.9266    1.0000 </r>
       <r>   -3.7270    1.0000 </r>
       <r>   -3.6935    1.0000 </r>
       <r>   -3.4387    1.0000 </r>
       <r>   -3.2946    1.0000 </r>
       <r>   -2.9471    1.0000 </r>
       <r>   -2.7164    1.0000 </r>
       <r>   -2.5299    1.0000 </r>
       <r>   -2.5231    1.0000 </r>
       <r>   -2.4704    1.0000 </r>
       <r>   -2.2198    1.0000 </r>
       <r>   -2.0682    1.0000 </r>
       <r>   -1.8225    1.0000 </r>
       <r>   -1.5409    1.0000 </r>
       <r>   -1.4069    1.0000 </r>
       <r>   -1.3414    1.0000 </r>
       <r>   -1.3180    1.0000 </r>
       <r>   -1.0371    1.0000 </r>
       <r>   -0.7062    1.0000 </r>
       <r>   -0.5480    1.0000 </r>
       <r>   -0.4050    1.0000 </r>
       <r>   -0.2334    1.0000 </r>
       <r>    0.1705    1.0000 </r>
       <r>    0.3100    1.0000 </r>
       <r>    0.3602    1.0000 </r>
       <r>    0.4095    1.0000 </r>
       <r>    0.6498    1.0000 </r>
       <r>    0.8716    1.0000 </r>
       <r>    0.8945    1.0000 </r>
       <r>    0.9170    1.0000 </r>
       <r>    1.0013    1.0000 </r>
       <r>    1.0734    1.0000 </r>
       <r>    1.1970    1.0000 </r>
       <r>    1.2587    1.0000 </r>
       <r>    1.2877    1.0000 </r>
       <r>    1.4214    1.0000 </r>
       <r>    1.4636    1.0000 </r>
       <r>    1.4759    1.0000 </r>
       <r>    1.6225    1.0000 </r>
       <r>    1.6895    1.0000 </r>
       <r>    1.7295    1.0000 </r>
       <r>    1.7628    1.0000 </r>
       <r>    1.8351    1.0000 </r>
       <r>    1.9134    1.0000 </r>
       <r>    2.0777    1.0000 </r>
       <r>    2.0807    1.0000 </r>
       <r>    2.1373    1.0000 </r>
       <r>    2.2297    1.0000 </r>
       <r>    2.2962    1.0000 </r>
       <r>    2.5141    1.0000 </r>
       <r>    2.5491    1.0000 </r>
       <r>    2.6059    1.0000 </r>
       <r>    2.6254    1.0000 </r>
       <r>    2.6530    1.0000 </r>
       <r>    2.7030    1.0000 </r>
       <r>    2.8008    1.0000 </r>
       <r>    2.9341    1.0000 </r>
       <r>    2.9872    1.0000 </r>
       <r>    3.0438    1.0000 </r>
       <r>    3.2412    1.0000 </r>
       <r>    3.3617    1.0000 </r>
       <r>    3.4559    1.0000 </r>
       <r>    3.6431    1.0000 </r>
       <r>    3.9460    1.0000 </r>
       <r>    4.1015    1.0000 </r>
       <r>    4.1259    1.0000 </r>
       <r>    4.1422    1.0000 </r>
       <r>    4.3388    1.0000 </r>
       <r>    4.6712    1.0000 </r>
       <r>    4.6804    1.0000 </r>
       <r>    4.7813    1.0000 </r>
       <r>    4.9951    1.0000 </r>
       <r>    5.2107    0.0006 </r>
       <r>    6.0451    0.0000 </r>
       <r>    6.2337    0.0000 </r>
       <r>    6.2844    0.0000 </r>
       <r>    6.5819    0.0000 </r>
       <r>    6.7193    0.0000 </r>
       <r>    6.7761    0.0000 </r>
       <r>    6.9120    0.0000 </r>
       <r>    6.9458    0.0000 </r>
       <r>    7.0319    0.0000 </r>
       <r>    7.1471    0.0000 </r>
       <r>    7.2672    0.0000 </r>
       <r>    7.3632    0.0000 </r>
       <r>    7.4727    0.0000 </r>
       <r>    7.5355    0.0000 </r>
       <r>    7.5572    0.0000 </r>
       <r>    7.6818    0.0000 </r>
      </set>
      <set comment="kpoint 4">
       <r>   -6.9938    1.0000 </r>
       <r>   -6.9938    1.0000 </r>
       <r>   -6.8773    1.0000 </r>
       <r>   -6.8773    1.0000 </r>
       <r>   -6.5414    1.0000 </r>
       <r>   -6.5414    1.0000 </r>
       <r>   -6.0138    1.0000 </r>
       <r>   -6.0138    1.0000 </r>
       <r>   -5.6316    1.0000 </r>
       <r>   -5.6316    1.0000 </r>
       <r>   -5.2810    1.0000 </r>
       <r>   -5.2810    1.0000 </r>
       <r>   -5.1662    1.0000 </r>
       <r>   -5.1662    1.0000 </r>
       <r>   -4.4437    1.0000 </r>
       <r>   -4.4437    1.0000 </r>
       <r>   -4.4158    1.0000 </r>
       <r>   -4.4158    1.0000 </r>
       <r>   -3.5319    1.0000 </r>
       <r>   -3.5319    1.0000 </r>
       <r>   -3.4929    1.0000 </r>
       <r>   -3.4929    1.0000 </r>
       <r>   -2.6631    1.0000 </r>
       <r>   -2.6631    1.0000 </r>
       <r>   -2.5801    1.0000 </r>
       <r>   -2.5801    1.0000 </r>
       <r>   -1.9549    1.0000 </r>
       <r>   -1.9549    1.0000 </r>
       <r>   -1.8063    1.0000 </r>
       <r>   -1.8063    1.0000 </r>
       <r>   -1.3233    1.0000 </r>
       <r>   -1.3233    1.0000 </r>
       <r>   -1.1958    1.0000 </r>
       <r>   -1.1958    1.0000 </r>
       <r>   -0.6235    1.0000 </r>
       <r>   -0.6235    1.0000 </r>
       <r>   -0.5800    1.0000 </r>
       <r>   -0.5800    1.0000 </r>
       <r>    0.1445    1.0000 </r>
       <r>    0.1445    1.0000 </r>
       <r>    0.1907    1.0000 </r>
       <r>    0.1907    1.0000 </r>
       <r>    0.5927    1.0000 </r>
       <r>    0.5927    1.0000 </r>
       <r>    0.6713    1.0000 </r>
       <r>    0.6713    1.0000 </r>
       <r>    0.8167    1.0000 </r>
       <r>    0.8167    1.0000 </r>
       <r>    0.9464    1.0000 </r>
       <r>    0.9464    1.0000 </r>
       <r>    1.0916    1.0000 </r>
       <r>    1.0916    1.0000 </r>
       <r>    1.1532    1.0000 </r>
       <r>    1.1532    1.0000 </r>
       <r>    1.3860    1.0000 </r>
       <r>    1.3860    1.0000 </r>
       <r>    1.4467    1.0000 </r>
       <r>    1.4467    1.0000 </r>
       <r>    1.5226    1.0000 </r>
       <r>    1.5226    1.0000 </r>
       <r>    1.8186    1.0000 </r>
       <r>    1.8186    1.0000 </r>
       <r>    2.2155    1.0000 </r>
       <r>    2.2155    1.0000 </r>
       <r>    2.3122    1.0000 </r>
       <r>    2.3122    1.0000 </r>
       <r>    2.4604    1.0000 </r>
       <r>    2.4604    1.0000 </r>
       <r>    2.5837    1.0000 </r>
       <r>    2.5837    1.0000 </r>
       <r>    2.8231    1.0000 </r>
       <r>    2.8231    1.0000 </r>
       <r>    3.0573    1.0000 </r>
       <r>    3.0573    1.0000 </r>
       <r>    3.2565    1.0000 </r>
       <r>    3.2565    1.0000 </r>
       <r>    3.4469    1.0000 </r>
       <r>    3.4469    1.0000 </r>
       <r>    3.6407    1.0000 </r>
       <r>    3.6407    1.0000 </r>
       <r>    3.7047    1.0000 </r>
       <r>    3.7047    1.0000 </r>
       <r>    3.7391    1.0000 </r>
       <r>    3.7391    1.0000 </r>
       <r>    4.4787    1.0000 </r>
       <r>    4.4787    1.0000 </r>
       <r>    4.7227    1.0000 </r>
       <r>    4.7227    1.0000 </r>
       <r>    5.5800    0.0000 </r>
       <r>    5.5800    0.0000 </r>
       <r>    5.6286    0.0000 </r>
       <r>    5.6286    0.0000 </r>
       <r>    6.6966    0.0000 </r>
       <r>    6.6966    0.0000 </r>
       <r>    7.1305    0.0000 </r>
       <r>    7.1305    0.0000 </r>
       <r>    7.4258    0.0000 </r>
       <r>    7.4258    0.0000 </r>
       <r>    7.4860    0.0000 </r>
       <r>    7.4860    0.0000 </r>
       <r>    7.6545    0.0000 </r>
       <r>    7.6545    0.0000 </r>
       <r>    7.7699    0.0000 </r>
       <r>    7.7699    0.0000 </r>
       <r>    7.9025    0.0000 </r>
       <r>    7.9035    0.0000 </r>
      </set>
      <set comment="kpoint 5">
       <r>   -7.8145    1.0000 </r>
       <r>   -7.6867    1.0000 </r>
       <r>   -7.3356    1.0000 </r>
       <r>   -6.7738    1.0000 </r>
       <r>   -6.4276    1.0000 </r>
       <r>   -5.9856    1.0000 </r>
       <r>   -5.9001    1.0000 </r>
       <r>   -5.4488    1.0000 </r>
       <r>   -5.4460    1.0000 </r>
       <r>   -5.0291    1.0000 </r>
       <r>   -5.0055    1.0000 </r>
       <r>   -4.9183    1.0000 </r>
       <r>   -4.8732    1.0000 </r>
       <r>   -4.8091    1.0000 </r>
       <r>   -4.0500    1.0000 </r>
       <r>   -4.0251    1.0000 </r>
       <r>   -3.9424    1.0000 </r>
       <r>   -3.8734    1.0000 </r>
       <r>   -3.7648    1.0000 </r>
       <r>   -3.7130    1.0000 </r>
       <r>   -3.7054    1.0000 </r>
       <r>   -3.6155    1.0000 </r>
       <r>   -3.1473    1.0000 </r>
       <r>   -2.8532    1.0000 </r>
       <r>   -2.7489    1.0000 </r>
       <r>   -2.6423    1.0000 </r>
       <r>   -2.5936    1.0000 </r>
       <r>   -2.5818    1.0000 </r>
       <r>   -2.4699    1.0000 </r>
       <r>   -2.4115    1.0000 </r>
       <r>   -1.6803    1.0000 </r>
       <r>   -1.6200    1.0000 </r>
       <r>   -1.5222    1.0000 </r>
       <r>   -1.3758    1.0000 </r>
       <r>   -1.2976    1.0000 </r>
       <r>   -1.2121    1.0000 </r>
       <r>   -1.1492    1.0000 </r>
       <r>   -0.1032    1.0000 </r>
       <r>    0.0427    1.0000 </r>
       <r>    0.5425    1.0000 </r>
       <r>    0.5889    1.0000 </r>
       <r>    0.6678    1.0000 </r>
       <r>    0.8369    1.0000 </r>
       <r>    0.9093    1.0000 </r>
       <r>    0.9283    1.0000 </r>
       <r>    0.9587    1.0000 </r>
       <r>    1.1188    1.0000 </r>
       <r>    1.1840    1.0000 </r>
       <r>    1.2179    1.0000 </r>
       <r>    1.4179    1.0000 </r>
       <r>    1.4304    1.0000 </r>
       <r>    1.5488    1.0000 </r>
       <r>    1.5504    1.0000 </r>
       <r>    1.6167    1.0000 </r>
       <r>    1.8187    1.0000 </r>
       <r>    1.8258    1.0000 </r>
       <r>    1.8330    1.0000 </r>
       <r>    1.8550    1.0000 </r>
       <r>    1.8615    1.0000 </r>
       <r>    1.9355    1.0000 </r>
       <r>    1.9556    1.0000 </r>
       <r>    2.1236    1.0000 </r>
       <r>    2.1800    1.0000 </r>
       <r>    2.2201    1.0000 </r>
       <r>    2.2835    1.0000 </r>
       <r>    2.4440    1.0000 </r>
       <r>    2.5122    1.0000 </r>
       <r>    2.5609    1.0000 </r>
       <r>    2.6088    1.0000 </r>
       <r>    2.6499    1.0000 </r>
       <r>    2.6845    1.0000 </r>
       <r>    2.6958    1.0000 </r>
       <r>    2.9125    1.0000 </r>
       <r>    2.9512    1.0000 </r>
       <r>    3.2599    1.0000 </r>
       <r>    3.2787    1.0000 </r>
       <r>    3.5484    1.0000 </r>
       <r>    3.6744    1.0000 </r>
       <r>    3.7686    1.0000 </r>
       <r>    3.8026    1.0000 </r>
       <r>    4.0627    1.0000 </r>
       <r>    4.0703    1.0000 </r>
       <r>    4.2470    1.0000 </r>
       <r>    4.3705    1.0000 </r>
       <r>    4.4148    1.0000 </r>
       <r>    4.4657    1.0000 </r>
       <r>    4.5176    1.0000 </r>
       <r>    4.6606    1.0000 </r>
       <r>    4.7900    1.0000 </r>
       <r>    4.9611    1.0000 </r>
       <r>    5.8952    0.0000 </r>
       <r>    6.0823    0.0000 </r>
       <r>    6.1175    0.0000 </r>
       <r>    6.2447    0.0000 </r>
       <r>    6.2489    0.0000 </r>
       <r>    6.3938    0.0000 </r>
       <r>    6.4584    0.0000 </r>
       <r>    6.5360    0.0000 </r>
       <r>    6.5555    0.0000 </r>
       <r>    6.6329    0.0000 </r>
       <r>    6.6721    0.0000 </r>
       <r>    6.7025    0.0000 </r>
       <r>    6.7369    0.0000 </r>
       <r>    6.8848    0.0000 </r>
       <r>    6.9092    0.0000 </r>
       <r>    7.0184    0.0000 </r>
      </set>
      <set comment="kpoint 6">
       <r>   -7.7973    1.0000 </r>
       <r>   -7.6785    1.0000 </r>
       <r>   -7.3226    1.0000 </r>
       <r>   -6.7584    1.0000 </r>
       <r>   -6.4277    1.0000 </r>
       <r>   -5.9671    1.0000 </r>
       <r>   -5.9010    1.0000 </r>
       <r>   -5.6796    1.0000 </r>
       <r>   -5.4359    1.0000 </r>
       <r>   -5.0169    1.0000 </r>
       <r>   -4.9865    1.0000 </r>
       <r>   -4.9245    1.0000 </r>
       <r>   -4.8921    1.0000 </r>
       <r>   -4.8219    1.0000 </r>
       <r>   -4.6742    1.0000 </r>
       <r>   -3.9158    1.0000 </r>
       <r>   -3.8346    1.0000 </r>
       <r>   -3.7983    1.0000 </r>
       <r>   -3.7331    1.0000 </r>
       <r>   -3.7033    1.0000 </r>
       <r>   -3.6771    1.0000 </r>
       <r>   -2.9660    1.0000 </r>
       <r>   -2.8765    1.0000 </r>
       <r>   -2.6735    1.0000 </r>
       <r>   -2.6386    1.0000 </r>
       <r>   -2.6303    1.0000 </r>
       <r>   -2.5332    1.0000 </r>
       <r>   -2.5221    1.0000 </r>
       <r>   -2.3563    1.0000 </r>
       <r>   -2.3135    1.0000 </r>
       <r>   -1.8512    1.0000 </r>
       <r>   -1.7394    1.0000 </r>
       <r>   -1.6683    1.0000 </r>
       <r>   -1.5634    1.0000 </r>
       <r>   -1.5214    1.0000 </r>
       <r>   -1.3109    1.0000 </r>
       <r>   -1.1076    1.0000 </r>
       <r>   -0.4456    1.0000 </r>
       <r>   -0.1685    1.0000 </r>
       <r>    0.3858    1.0000 </r>
       <r>    0.4159    1.0000 </r>
       <r>    0.4280    1.0000 </r>
       <r>    0.7614    1.0000 </r>
       <r>    0.7959    1.0000 </r>
       <r>    0.8625    1.0000 </r>
       <r>    1.0250    1.0000 </r>
       <r>    1.1135    1.0000 </r>
       <r>    1.1355    1.0000 </r>
       <r>    1.2304    1.0000 </r>
       <r>    1.3960    1.0000 </r>
       <r>    1.5217    1.0000 </r>
       <r>    1.5600    1.0000 </r>
       <r>    1.5872    1.0000 </r>
       <r>    1.6025    1.0000 </r>
       <r>    1.6437    1.0000 </r>
       <r>    1.8383    1.0000 </r>
       <r>    1.9151    1.0000 </r>
       <r>    1.9211    1.0000 </r>
       <r>    2.0329    1.0000 </r>
       <r>    2.1090    1.0000 </r>
       <r>    2.1698    1.0000 </r>
       <r>    2.2249    1.0000 </r>
       <r>    2.2707    1.0000 </r>
       <r>    2.3845    1.0000 </r>
       <r>    2.4122    1.0000 </r>
       <r>    2.4390    1.0000 </r>
       <r>    2.4477    1.0000 </r>
       <r>    2.5750    1.0000 </r>
       <r>    2.6063    1.0000 </r>
       <r>    2.6480    1.0000 </r>
       <r>    2.6521    1.0000 </r>
       <r>    2.6601    1.0000 </r>
       <r>    2.9309    1.0000 </r>
       <r>    2.9869    1.0000 </r>
       <r>    3.1687    1.0000 </r>
       <r>    3.3482    1.0000 </r>
       <r>    3.6078    1.0000 </r>
       <r>    3.6580    1.0000 </r>
       <r>    3.8135    1.0000 </r>
       <r>    3.8747    1.0000 </r>
       <r>    3.9748    1.0000 </r>
       <r>    4.1722    1.0000 </r>
       <r>    4.2682    1.0000 </r>
       <r>    4.2750    1.0000 </r>
       <r>    4.3287    1.0000 </r>
       <r>    4.4528    1.0000 </r>
       <r>    4.6037    1.0000 </r>
       <r>    4.6419    1.0000 </r>
       <r>    5.0016    1.0000 </r>
       <r>    5.2197    0.0000 </r>
       <r>    5.8469    0.0000 </r>
       <r>    6.0653    0.0000 </r>
       <r>    6.0995    0.0000 </r>
       <r>    6.2283    0.0000 </r>
       <r>    6.3525    0.0000 </r>
       <r>    6.3553    0.0000 </r>
       <r>    6.3812    0.0000 </r>
       <r>    6.4655    0.0000 </r>
       <r>    6.6719    0.0000 </r>
       <r>    6.7060    0.0000 </r>
       <r>    6.7151    0.0000 </r>
       <r>    6.7505    0.0000 </r>
       <r>    6.7765    0.0000 </r>
       <r>    6.8535    0.0000 </r>
       <r>    7.0058    0.0000 </r>
       <r>    7.1077    0.0000 </r>
      </set>
      <set comment="kpoint 7">
       <r>   -7.4824    1.0000 </r>
       <r>   -7.3478    1.0000 </r>
       <r>   -7.0092    1.0000 </r>
       <r>   -6.4668    1.0000 </r>
       <r>   -6.1222    1.0000 </r>
       <r>   -6.0890    1.0000 </r>
       <r>   -6.0748    1.0000 </r>
       <r>   -5.7364    1.0000 </r>
       <r>   -5.7140    1.0000 </r>
       <r>   -5.5909    1.0000 </r>
       <r>   -5.3299    1.0000 </r>
       <r>   -4.9528    1.0000 </r>
       <r>   -4.8643    1.0000 </r>
       <r>   -4.7705    1.0000 </r>
       <r>   -4.7378    1.0000 </r>
       <r>   -4.5753    1.0000 </r>
       <r>   -4.3179    1.0000 </r>
       <r>   -4.0074    1.0000 </r>
       <r>   -3.9136    1.0000 </r>
       <r>   -3.7934    1.0000 </r>
       <r>   -3.7287    1.0000 </r>
       <r>   -3.4517    1.0000 </r>
       <r>   -3.1823    1.0000 </r>
       <r>   -2.8030    1.0000 </r>
       <r>   -2.7641    1.0000 </r>
       <r>   -2.7045    1.0000 </r>
       <r>   -2.4433    1.0000 </r>
       <r>   -2.4416    1.0000 </r>
       <r>   -2.0096    1.0000 </r>
       <r>   -1.6571    1.0000 </r>
       <r>   -1.6362    1.0000 </r>
       <r>   -1.5655    1.0000 </r>
       <r>   -1.4482    1.0000 </r>
       <r>   -1.3371    1.0000 </r>
       <r>   -0.9573    1.0000 </r>
       <r>   -0.7716    1.0000 </r>
       <r>   -0.7513    1.0000 </r>
       <r>   -0.7028    1.0000 </r>
       <r>   -0.4129    1.0000 </r>
       <r>   -0.0793    1.0000 </r>
       <r>    0.0759    1.0000 </r>
       <r>    0.5262    1.0000 </r>
       <r>    0.7206    1.0000 </r>
       <r>    0.7673    1.0000 </r>
       <r>    0.8055    1.0000 </r>
       <r>    1.0035    1.0000 </r>
       <r>    1.0464    1.0000 </r>
       <r>    1.1328    1.0000 </r>
       <r>    1.1862    1.0000 </r>
       <r>    1.2364    1.0000 </r>
       <r>    1.2896    1.0000 </r>
       <r>    1.3171    1.0000 </r>
       <r>    1.4202    1.0000 </r>
       <r>    1.5141    1.0000 </r>
       <r>    1.5700    1.0000 </r>
       <r>    1.6313    1.0000 </r>
       <r>    1.7604    1.0000 </r>
       <r>    1.8491    1.0000 </r>
       <r>    1.8659    1.0000 </r>
       <r>    2.0269    1.0000 </r>
       <r>    2.1491    1.0000 </r>
       <r>    2.2891    1.0000 </r>
       <r>    2.3326    1.0000 </r>
       <r>    2.3731    1.0000 </r>
       <r>    2.4329    1.0000 </r>
       <r>    2.4893    1.0000 </r>
       <r>    2.6071    1.0000 </r>
       <r>    2.6308    1.0000 </r>
       <r>    2.7116    1.0000 </r>
       <r>    2.8510    1.0000 </r>
       <r>    2.8567    1.0000 </r>
       <r>    2.8937    1.0000 </r>
       <r>    3.0457    1.0000 </r>
       <r>    3.0678    1.0000 </r>
       <r>    3.1126    1.0000 </r>
       <r>    3.1420    1.0000 </r>
       <r>    3.2771    1.0000 </r>
       <r>    3.4371    1.0000 </r>
       <r>    3.6780    1.0000 </r>
       <r>    3.8442    1.0000 </r>
       <r>    3.9588    1.0000 </r>
       <r>    4.0261    1.0000 </r>
       <r>    4.2179    1.0000 </r>
       <r>    4.2425    1.0000 </r>
       <r>    4.2736    1.0000 </r>
       <r>    4.5473    1.0000 </r>
       <r>    4.9376    1.0000 </r>
       <r>    5.0007    1.0000 </r>
       <r>    5.0064    1.0000 </r>
       <r>    5.1240    1.0000 </r>
       <r>    5.8824    0.0000 </r>
       <r>    6.0936    0.0000 </r>
       <r>    6.2611    0.0000 </r>
       <r>    6.4455    0.0000 </r>
       <r>    6.5471    0.0000 </r>
       <r>    6.7296    0.0000 </r>
       <r>    6.8052    0.0000 </r>
       <r>    6.9344    0.0000 </r>
       <r>    6.9992    0.0000 </r>
       <r>    7.1374    0.0000 </r>
       <r>    7.1404    0.0000 </r>
       <r>    7.2242    0.0000 </r>
       <r>    7.2922    0.0000 </r>
       <r>    7.3045    0.0000 </r>
       <r>    7.3719    0.0000 </r>
       <r>    7.4596    0.0000 </r>
      </set>
      <set comment="kpoint 8">
       <r>   -7.4413    1.0000 </r>
       <r>   -7.3325    1.0000 </r>
       <r>   -6.9822    1.0000 </r>
       <r>   -6.4323    1.0000 </r>
       <r>   -6.2925    1.0000 </r>
       <r>   -6.0881    1.0000 </r>
       <r>   -6.0821    1.0000 </r>
       <r>   -5.7773    1.0000 </r>
       <r>   -5.6683    1.0000 </r>
       <r>   -5.5944    1.0000 </r>
       <r>   -5.4013    1.0000 </r>
       <r>   -5.0496    1.0000 </r>
       <r>   -4.8265    1.0000 </r>
       <r>   -4.8170    1.0000 </r>
       <r>   -4.7373    1.0000 </r>
       <r>   -4.6973    1.0000 </r>
       <r>   -4.3983    1.0000 </r>
       <r>   -4.0316    1.0000 </r>
       <r>   -3.9052    1.0000 </r>
       <r>   -3.7338    1.0000 </r>
       <r>   -3.4891    1.0000 </r>
       <r>   -3.1015    1.0000 </r>
       <r>   -3.0126    1.0000 </r>
       <r>   -2.8659    1.0000 </r>
       <r>   -2.6656    1.0000 </r>
       <r>   -2.4908    1.0000 </r>
       <r>   -2.4727    1.0000 </r>
       <r>   -2.1330    1.0000 </r>
       <r>   -1.8249    1.0000 </r>
       <r>   -1.8059    1.0000 </r>
       <r>   -1.6667    1.0000 </r>
       <r>   -1.6529    1.0000 </r>
       <r>   -1.4501    1.0000 </r>
       <r>   -1.3421    1.0000 </r>
       <r>   -1.1889    1.0000 </r>
       <r>   -1.0147    1.0000 </r>
       <r>   -0.9383    1.0000 </r>
       <r>   -0.9048    1.0000 </r>
       <r>   -0.4647    1.0000 </r>
       <r>   -0.2419    1.0000 </r>
       <r>   -0.0317    1.0000 </r>
       <r>    0.4138    1.0000 </r>
       <r>    0.4308    1.0000 </r>
       <r>    0.4460    1.0000 </r>
       <r>    0.8372    1.0000 </r>
       <r>    1.0118    1.0000 </r>
       <r>    1.0359    1.0000 </r>
       <r>    1.1801    1.0000 </r>
       <r>    1.2059    1.0000 </r>
       <r>    1.2205    1.0000 </r>
       <r>    1.2701    1.0000 </r>
       <r>    1.3377    1.0000 </r>
       <r>    1.3750    1.0000 </r>
       <r>    1.6139    1.0000 </r>
       <r>    1.7032    1.0000 </r>
       <r>    1.7662    1.0000 </r>
       <r>    1.8083    1.0000 </r>
       <r>    1.9389    1.0000 </r>
       <r>    2.0550    1.0000 </r>
       <r>    2.1807    1.0000 </r>
       <r>    2.1962    1.0000 </r>
       <r>    2.2851    1.0000 </r>
       <r>    2.3511    1.0000 </r>
       <r>    2.3927    1.0000 </r>
       <r>    2.4680    1.0000 </r>
       <r>    2.4761    1.0000 </r>
       <r>    2.6261    1.0000 </r>
       <r>    2.6428    1.0000 </r>
       <r>    2.7149    1.0000 </r>
       <r>    2.8192    1.0000 </r>
       <r>    2.8973    1.0000 </r>
       <r>    2.9678    1.0000 </r>
       <r>    3.0192    1.0000 </r>
       <r>    3.0515    1.0000 </r>
       <r>    3.0788    1.0000 </r>
       <r>    3.2451    1.0000 </r>
       <r>    3.2924    1.0000 </r>
       <r>    3.3965    1.0000 </r>
       <r>    3.5996    1.0000 </r>
       <r>    3.8538    1.0000 </r>
       <r>    3.9039    1.0000 </r>
       <r>    4.0688    1.0000 </r>
       <r>    4.1481    1.0000 </r>
       <r>    4.3326    1.0000 </r>
       <r>    4.3745    1.0000 </r>
       <r>    4.4569    1.0000 </r>
       <r>    4.7139    1.0000 </r>
       <r>    4.8471    1.0000 </r>
       <r>    5.1460    1.0000 </r>
       <r>    5.2421    0.0000 </r>
       <r>    6.0244    0.0000 </r>
       <r>    6.2797    0.0000 </r>
       <r>    6.5558    0.0000 </r>
       <r>    6.6441    0.0000 </r>
       <r>    6.7894    0.0000 </r>
       <r>    6.8127    0.0000 </r>
       <r>    6.9586    0.0000 </r>
       <r>    7.0057    0.0000 </r>
       <r>    7.0559    0.0000 </r>
       <r>    7.0828    0.0000 </r>
       <r>    7.2001    0.0000 </r>
       <r>    7.2497    0.0000 </r>
       <r>    7.3158    0.0000 </r>
       <r>    7.3832    0.0000 </r>
       <r>    7.4887    0.0000 </r>
       <r>    7.5421    0.0000 </r>
      </set>
      <set comment="kpoint 9">
       <r>   -6.9519    1.0000 </r>
       <r>   -6.8676    1.0000 </r>
       <r>   -6.7965    1.0000 </r>
       <r>   -6.7789    1.0000 </r>
       <r>   -6.4804    1.0000 </r>
       <r>   -6.4398    1.0000 </r>
       <r>   -5.9855    1.0000 </r>
       <r>   -5.9257    1.0000 </r>
       <r>   -5.5524    1.0000 </r>
       <r>   -5.5396    1.0000 </r>
       <r>   -5.3093    1.0000 </r>
       <r>   -5.2237    1.0000 </r>
       <r>   -5.1215    1.0000 </r>
       <r>   -5.1122    1.0000 </r>
       <r>   -4.7259    1.0000 </r>
       <r>   -4.6090    1.0000 </r>
       <r>   -4.4268    1.0000 </r>
       <r>   -4.3846    1.0000 </r>
       <r>   -3.8371    1.0000 </r>
       <r>   -3.8099    1.0000 </r>
       <r>   -3.4216    1.0000 </r>
       <r>   -3.1846    1.0000 </r>
       <r>   -3.0633    1.0000 </r>
       <r>   -3.0244    1.0000 </r>
       <r>   -2.8003    1.0000 </r>
       <r>   -2.6189    1.0000 </r>
       <r>   -2.4202    1.0000 </r>
       <r>   -2.1590    1.0000 </r>
       <r>   -2.0233    1.0000 </r>
       <r>   -1.8501    1.0000 </r>
       <r>   -1.4837    1.0000 </r>
       <r>   -1.4520    1.0000 </r>
       <r>   -1.3829    1.0000 </r>
       <r>   -1.3084    1.0000 </r>
       <r>   -0.7893    1.0000 </r>
       <r>   -0.7660    1.0000 </r>
       <r>   -0.7326    1.0000 </r>
       <r>   -0.6379    1.0000 </r>
       <r>   -0.2351    1.0000 </r>
       <r>   -0.2110    1.0000 </r>
       <r>   -0.1531    1.0000 </r>
       <r>   -0.1440    1.0000 </r>
       <r>    0.4687    1.0000 </r>
       <r>    0.5082    1.0000 </r>
       <r>    0.5339    1.0000 </r>
       <r>    0.7086    1.0000 </r>
       <r>    0.7729    1.0000 </r>
       <r>    1.0477    1.0000 </r>
       <r>    1.0933    1.0000 </r>
       <r>    1.1512    1.0000 </r>
       <r>    1.4642    1.0000 </r>
       <r>    1.4817    1.0000 </r>
       <r>    1.5651    1.0000 </r>
       <r>    1.6718    1.0000 </r>
       <r>    1.7802    1.0000 </r>
       <r>    1.7809    1.0000 </r>
       <r>    1.8411    1.0000 </r>
       <r>    1.8918    1.0000 </r>
       <r>    2.0238    1.0000 </r>
       <r>    2.0575    1.0000 </r>
       <r>    2.1379    1.0000 </r>
       <r>    2.1512    1.0000 </r>
       <r>    2.2709    1.0000 </r>
       <r>    2.3237    1.0000 </r>
       <r>    2.5094    1.0000 </r>
       <r>    2.5824    1.0000 </r>
       <r>    2.6024    1.0000 </r>
       <r>    2.7302    1.0000 </r>
       <r>    2.7851    1.0000 </r>
       <r>    2.8157    1.0000 </r>
       <r>    2.9352    1.0000 </r>
       <r>    2.9682    1.0000 </r>
       <r>    3.0170    1.0000 </r>
       <r>    3.0638    1.0000 </r>
       <r>    3.1547    1.0000 </r>
       <r>    3.1550    1.0000 </r>
       <r>    3.4465    1.0000 </r>
       <r>    3.4761    1.0000 </r>
       <r>    3.5836    1.0000 </r>
       <r>    3.6019    1.0000 </r>
       <r>    3.6397    1.0000 </r>
       <r>    3.7697    1.0000 </r>
       <r>    3.8076    1.0000 </r>
       <r>    3.8815    1.0000 </r>
       <r>    4.8777    1.0000 </r>
       <r>    4.9091    1.0000 </r>
       <r>    4.9290    1.0000 </r>
       <r>    4.9784    1.0000 </r>
       <r>    5.5068    0.0000 </r>
       <r>    5.5785    0.0000 </r>
       <r>    5.6916    0.0000 </r>
       <r>    5.7849    0.0000 </r>
       <r>    6.7949    0.0000 </r>
       <r>    6.8465    0.0000 </r>
       <r>    7.0522    0.0000 </r>
       <r>    7.0770    0.0000 </r>
       <r>    7.2475    0.0000 </r>
       <r>    7.2996    0.0000 </r>
       <r>    7.3130    0.0000 </r>
       <r>    7.4341    0.0000 </r>
       <r>    7.5081    0.0000 </r>
       <r>    7.5368    0.0000 </r>
       <r>    7.5766    0.0000 </r>
       <r>    7.6960    0.0000 </r>
       <r>    7.7160    0.0000 </r>
       <r>    7.8979    0.0000 </r>
      </set>
      <set comment="kpoint 10">
       <r>   -7.2039    1.0000 </r>
       <r>   -7.0383    1.0000 </r>
       <r>   -6.7226    1.0000 </r>
       <r>   -6.2236    1.0000 </r>
       <r>   -6.1395    1.0000 </r>
       <r>   -6.1194    1.0000 </r>
       <r>   -5.7875    1.0000 </r>
       <r>   -5.6575    1.0000 </r>
       <r>   -5.6068    1.0000 </r>
       <r>   -5.5453    1.0000 </r>
       <r>   -5.5383    1.0000 </r>
       <r>   -5.3405    1.0000 </r>
       <r>   -4.9743    1.0000 </r>
       <r>   -4.7152    1.0000 </r>
       <r>   -4.6463    1.0000 </r>
       <r>   -4.5560    1.0000 </r>
       <r>   -4.5298    1.0000 </r>
       <r>   -4.4220    1.0000 </r>
       <r>   -4.3896    1.0000 </r>
       <r>   -4.1675    1.0000 </r>
       <r>   -4.0266    1.0000 </r>
       <r>   -3.5275    1.0000 </r>
       <r>   -3.2672    1.0000 </r>
       <r>   -3.1796    1.0000 </r>
       <r>   -2.7184    1.0000 </r>
       <r>   -2.6150    1.0000 </r>
       <r>   -2.5638    1.0000 </r>
       <r>   -2.3213    1.0000 </r>
       <r>   -2.2012    1.0000 </r>
       <r>   -2.0556    1.0000 </r>
       <r>   -1.8580    1.0000 </r>
       <r>   -1.8395    1.0000 </r>
       <r>   -1.5059    1.0000 </r>
       <r>   -1.3741    1.0000 </r>
       <r>   -1.3311    1.0000 </r>
       <r>   -1.2979    1.0000 </r>
       <r>   -0.9682    1.0000 </r>
       <r>   -0.5899    1.0000 </r>
       <r>   -0.5565    1.0000 </r>
       <r>   -0.4990    1.0000 </r>
       <r>   -0.2480    1.0000 </r>
       <r>   -0.1932    1.0000 </r>
       <r>    0.0194    1.0000 </r>
       <r>    0.5732    1.0000 </r>
       <r>    0.8399    1.0000 </r>
       <r>    0.9123    1.0000 </r>
       <r>    1.1160    1.0000 </r>
       <r>    1.2296    1.0000 </r>
       <r>    1.3574    1.0000 </r>
       <r>    1.5562    1.0000 </r>
       <r>    1.7378    1.0000 </r>
       <r>    1.7789    1.0000 </r>
       <r>    1.8582    1.0000 </r>
       <r>    2.0854    1.0000 </r>
       <r>    2.1198    1.0000 </r>
       <r>    2.1229    1.0000 </r>
       <r>    2.2047    1.0000 </r>
       <r>    2.2665    1.0000 </r>
       <r>    2.3058    1.0000 </r>
       <r>    2.3247    1.0000 </r>
       <r>    2.3581    1.0000 </r>
       <r>    2.3954    1.0000 </r>
       <r>    2.5342    1.0000 </r>
       <r>    2.6874    1.0000 </r>
       <r>    2.8368    1.0000 </r>
       <r>    2.8455    1.0000 </r>
       <r>    2.9298    1.0000 </r>
       <r>    3.0079    1.0000 </r>
       <r>    3.0544    1.0000 </r>
       <r>    3.1320    1.0000 </r>
       <r>    3.1402    1.0000 </r>
       <r>    3.1480    1.0000 </r>
       <r>    3.1848    1.0000 </r>
       <r>    3.3421    1.0000 </r>
       <r>    3.3689    1.0000 </r>
       <r>    3.4205    1.0000 </r>
       <r>    3.4439    1.0000 </r>
       <r>    3.5967    1.0000 </r>
       <r>    3.8054    1.0000 </r>
       <r>    3.8215    1.0000 </r>
       <r>    4.0960    1.0000 </r>
       <r>    4.1581    1.0000 </r>
       <r>    4.2646    1.0000 </r>
       <r>    4.4339    1.0000 </r>
       <r>    4.5049    1.0000 </r>
       <r>    4.7322    1.0000 </r>
       <r>    4.7828    1.0000 </r>
       <r>    4.8323    1.0000 </r>
       <r>    5.3595    0.0000 </r>
       <r>    5.4220    0.0000 </r>
       <r>    5.7642    0.0000 </r>
       <r>    6.2002    0.0000 </r>
       <r>    6.3275    0.0000 </r>
       <r>    6.4869    0.0000 </r>
[...]
       <r>     6.7362    26.7729   192.9690 </r>
       <r>     6.7948    22.1184   194.2643 </r>
       <r>     6.8533    27.2372   195.8591 </r>
       <r>     6.9119    16.9780   196.8533 </r>
       <r>     6.9704    17.4029   197.8726 </r>
       <r>     7.0290    19.1541   198.9942 </r>
       <r>     7.0875    27.5012   200.6047 </r>
       <r>     7.1461    21.8142   201.8821 </r>
       <r>     7.2047    10.5993   202.5027 </r>
       <r>     7.2632    21.5712   203.7659 </r>
       <r>     7.3218    27.5848   205.3811 </r>
       <r>     7.3803    16.7510   206.3622 </r>
       <r>     7.4389    12.7196   207.1070 </r>
       <r>     7.4974    19.2365   208.2333 </r>
       <r>     7.5560    22.3787   209.5438 </r>
       <r>     7.6145    14.4397   210.3893 </r>
       <r>     7.6731     5.1370   210.6901 </r>
       <r>     7.7316    10.9339   211.3303 </r>
       <r>     7.7902     3.8382   211.5551 </r>
       <r>     7.8488     0.0079   211.5556 </r>
       <r>     7.9073     6.2133   211.9194 </r>
       <r>     7.9659     1.3769   212.0000 </r>
       <r>     8.0244     0.0000   212.0000 </r>
       <r>     8.0830     0.0000   212.0000 </r>
       <r>     8.1415     0.0000   212.0000 </r>
       <r>     8.2001     0.0000   212.0000 </r>
       <r>     8.2586     0.0000   212.0000 </r>
       <r>     8.3172     0.0000   212.0000 </r>
       <r>     8.3758     0.0000   212.0000 </r>
       <r>     8.4343     0.0000   212.0000 </r>
       <r>     8.4929     0.0000   212.0000 </r>
       <r>     8.5514     0.0000   212.0000 </r>
       <r>     8.6100     0.0000   212.0000 </r>
       <r>     8.6685     0.0000   212.0000 </r>
       <r>     8.7271     0.0000   212.0000 </r>
      </set>
      <set comment="spin 2">
       <r>    -8.8395     0.0000     0.0000 </r>
       <r>    -8.7809     0.0000     0.0000 </r>
       <r>    -8.7224     0.0000     0.0000 </r>
       <r>    -8.6638     0.0000     0.0000 </r>
       <r>    -8.6052     0.0000     0.0000 </r>
       <r>    -8.5467     0.0000     0.0000 </r>
       <r>    -8.4881     0.0000     0.0000 </r>
       <r>    -8.4296     0.0000     0.0000 </r>
       <r>    -8.3710     0.0000     0.0000 </r>
       <r>    -8.3125     0.0000     0.0000 </r>
       <r>    -8.2539     0.0000     0.0000 </r>
       <r>    -8.1954     0.0000     0.0000 </r>
       <r>    -8.1368     0.0000     0.0000 </r>
       <r>    -8.0783     0.0000     0.0000 </r>
       <r>    -8.0197     0.3849     0.0225 </r>
       <r>    -7.9611     0.5638     0.0556 </r>
       <r>    -7.9026     1.1739     0.1243 </r>
       <r>    -7.8440     3.5700     0.3333 </r>
       <r>    -7.7855     1.5700     0.4253 </r>
       <r>    -7.7269     6.0202     0.7778 </r>
       <r>    -7.6684     0.0218     0.7791 </r>
       <r>    -7.6098     3.7733     1.0000 </r>
       <r>    -7.5513     0.7804     1.0457 </r>
       <r>    -7.4927     3.9635     1.2778 </r>
       <r>    -7.4341     3.8849     1.5053 </r>
       <r>    -7.3756    11.2932     2.1667 </r>
       <r>    -7.3170     1.4793     2.2533 </r>
       <r>    -7.2585     9.9059     2.8333 </r>
       <r>    -7.1999     0.0006     2.8334 </r>
       <r>    -7.1414     1.8969     2.9444 </r>
       <r>    -7.0828     1.0169     3.0040 </r>
       <r>    -7.0243     4.6773     3.2779 </r>
       <r>    -6.9657    11.1142     3.9287 </r>
       <r>    -6.9071     8.7762     4.4426 </r>
       <r>    -6.8486     4.2328     4.6904 </r>
       <r>    -6.7900     7.2095     5.1126 </r>
       <r>    -6.7315    14.5355     5.9637 </r>
       <r>    -6.6729     3.2271     6.1527 </r>
       <r>    -6.6144     3.0855     6.3333 </r>
       <r>    -6.5558     2.8606     6.5008 </r>
       <r>    -6.4973    19.7828     7.6592 </r>
       <r>    -6.4387     6.9304     8.0654 </r>
       <r>    -6.3801    14.0639     8.8889 </r>
       <r>    -6.3216     2.6505     9.0441 </r>
       <r>    -6.2630     1.7567     9.1470 </r>
       <r>    -6.2045     7.9780     9.6141 </r>
       <r>    -6.1459    12.2964    10.3341 </r>
       <r>    -6.0874    10.8988    10.9723 </r>
       <r>    -6.0288    23.6270    12.3558 </r>
       <r>    -5.9703     9.3709    12.9045 </r>
       <r>    -5.9117     7.3703    13.3363 </r>
       <r>    -5.8532    13.4283    14.1226 </r>
       <r>    -5.7946     1.3647    14.2025 </r>
       <r>    -5.7360    20.1221    15.3807 </r>
       <r>    -5.6775     8.0498    15.8522 </r>
       <r>    -5.6189    15.9144    16.7840 </r>
       <r>    -5.5604    13.0999    17.5511 </r>
       <r>    -5.5018    17.0748    18.5510 </r>
       <r>    -5.4433     0.1627    18.5606 </r>
       <r>    -5.3847    11.8481    19.2543 </r>
       <r>    -5.3262     9.6877    19.8217 </r>
       <r>    -5.2676    19.1311    20.9419 </r>
       <r>    -5.2090     7.1233    21.3591 </r>
       <r>    -5.1505    13.7680    22.1653 </r>
       <r>    -5.0919     9.5284    22.7232 </r>
       <r>    -5.0334    10.0969    23.3144 </r>
       <r>    -4.9748    11.8425    24.0079 </r>
       <r>    -4.9163     9.2791    24.5512 </r>
       <r>    -4.8577    13.6049    25.3479 </r>
       <r>    -4.7992    24.5997    26.7884 </r>
       <r>    -4.7406    14.4135    27.6324 </r>
       <r>    -4.6820    19.3379    28.7647 </r>
       <r>    -4.6235     9.6155    29.3278 </r>
       <r>    -4.5649     8.2877    29.8131 </r>
       <r>    -4.5064    12.0156    30.5167 </r>
       <r>    -4.4478    11.1001    31.1667 </r>
       <r>    -4.3893    17.7758    32.2077 </r>
       <r>    -4.3307    12.6018    32.9456 </r>
       <r>    -4.2722     4.7219    33.2221 </r>
       <r>    -4.2136     0.4970    33.2513 </r>
       <r>    -4.1551    11.0154    33.8963 </r>
       <r>    -4.0965     1.7704    34.0000 </r>
       <r>    -4.0379     4.1039    34.2403 </r>
       <r>    -3.9794    18.1219    35.3015 </r>
       <r>    -3.9208     3.7080    35.5186 </r>
       <r>    -3.8623    21.3529    36.7689 </r>
       <r>    -3.8037    15.7108    37.6889 </r>
       <r>    -3.7452    14.4597    38.5356 </r>
       <r>    -3.6866    21.6023    39.8006 </r>
       <r>    -3.6281     8.3152    40.2876 </r>
       <r>    -3.5695     6.6158    40.6750 </r>
       <r>    -3.5109     8.2263    41.1567 </r>
       <r>    -3.4524     9.8573    41.7339 </r>
       <r>    -3.3938    16.5534    42.7032 </r>
       <r>    -3.3353     8.7499    43.2156 </r>
       <r>    -3.2767     7.9843    43.6832 </r>
       <r>    -3.2182     8.0105    44.1522 </r>
       <r>    -3.1596     5.2474    44.4595 </r>
       <r>    -3.1011    10.6864    45.0852 </r>
       <r>    -3.0425     6.1413    45.4448 </r>
       <r>    -2.9839     9.6848    46.0119 </r>
       <r>    -2.9254     8.2746    46.4965 </r>
       <r>    -2.8668     2.9285    46.6679 </r>
       <r>    -2.8083    12.2907    47.3876 </r>
       <r>    -2.7497    11.1938    48.0431 </r>
       <r>    -2.6912    15.4686    48.9489 </r>
       <r>    -2.6326    21.9819    50.2361 </r>
       <r>    -2.5741    16.6986    51.2139 </r>
       <r>    -2.5155    16.9210    52.2048 </r>
       <r>    -2.4570    25.5348    53.7000 </r>
       <r>    -2.3984    31.5681    55.5485 </r>
       <r>    -2.3398    15.4598    56.4539 </r>
       <r>    -2.2813     6.6008    56.8404 </r>
       <r>    -2.2227     0.8280    56.8889 </r>
       <r>    -2.1642     5.6372    57.2190 </r>
       <r>    -2.1056    14.0055    58.0391 </r>
       <r>    -2.0471     5.5991    58.3670 </r>
       <r>    -1.9885    12.3741    59.0916 </r>
       <r>    -1.9300    10.3679    59.6987 </r>
       <r>    -1.8714     2.3016    59.8335 </r>
       <r>    -1.8128    16.1468    60.7790 </r>
       <r>    -1.7543    19.5518    61.9239 </r>
       <r>    -1.6957     0.7768    61.9694 </r>
       <r>    -1.6372     9.2019    62.5082 </r>
       <r>    -1.5786    16.9613    63.5014 </r>
       <r>    -1.5201    10.2306    64.1005 </r>
       <r>    -1.4615    21.9145    65.3838 </r>
       <r>    -1.4030    17.1100    66.3857 </r>
       <r>    -1.3444    10.3778    66.9934 </r>
       <r>    -1.2858    26.8076    68.5631 </r>
       <r>    -1.2273    10.8650    69.1993 </r>
       <r>    -1.1687    12.2259    69.9152 </r>
       <r>    -1.1102    11.8766    70.6108 </r>
       <r>    -1.0516     1.9028    70.7222 </r>
       <r>    -0.9931     9.3023    71.2669 </r>
       <r>    -0.9345     8.2327    71.7490 </r>
       <r>    -0.8760    11.8280    72.4417 </r>
       <r>    -0.8174     3.8431    72.6667 </r>
       <r>    -0.7589     4.6617    72.9397 </r>
       <r>    -0.7003    15.3361    73.8377 </r>
       <r>    -0.6417    11.3092    74.5000 </r>
       <r>    -0.5832     7.5434    74.9417 </r>
       <r>    -0.5246     9.7873    75.5148 </r>
       <r>    -0.4661     9.7456    76.0856 </r>
       <r>    -0.4075    12.3697    76.8099 </r>
       <r>    -0.3490     8.9404    77.3334 </r>
       <r>    -0.2904     4.0952    77.5732 </r>
       <r>    -0.2319     2.9315    77.7449 </r>
       <r>    -0.1733    18.5605    78.8317 </r>
       <r>    -0.1147    10.0302    79.4190 </r>
       <r>    -0.0562     3.5028    79.6241 </r>
       <r>     0.0024    10.9544    80.2656 </r>
       <r>     0.0609     8.3631    80.7553 </r>
       <r>     0.1195     6.8051    81.1538 </r>
       <r>     0.1780     3.7721    81.3746 </r>
       <r>     0.2366     7.8333    81.8333 </r>
       <r>     0.2951     3.7394    82.0523 </r>
       <r>     0.3537     7.4794    82.4903 </r>
       <r>     0.4123     8.2766    82.9749 </r>
       <r>     0.4708    21.2087    84.2168 </r>
       <r>     0.5294    10.5982    84.8374 </r>
       <r>     0.5879    13.6753    85.6382 </r>
       <r>     0.6465     7.1439    86.0565 </r>
       <r>     0.7050     7.8325    86.5152 </r>
       <r>     0.7636    11.6690    87.1985 </r>
       <r>     0.8221    16.0199    88.1365 </r>
       <r>     0.8807    23.1516    89.4922 </r>
       <r>     0.9392    12.9378    90.2498 </r>
       <r>     0.9978    23.7986    91.6434 </r>
       <r>     1.0564    21.5461    92.9051 </r>
       <r>     1.1149    24.9231    94.3645 </r>
       <r>     1.1735    23.3006    95.7289 </r>
       <r>     1.2320    31.9119    97.5975 </r>
       <r>     1.2906    25.8815    99.1130 </r>
       <r>     1.3491    14.0156    99.9338 </r>
       <r>     1.4077    18.4319   101.0131 </r>
       <r>     1.4662    24.3249   102.4374 </r>
       <r>     1.5248    18.2684   103.5071 </r>
       <r>     1.5834    24.4395   104.9384 </r>
       <r>     1.6419    20.4245   106.1343 </r>
       <r>     1.7005    22.2077   107.4347 </r>
       <r>     1.7590    22.4954   108.7519 </r>
       <r>     1.8176    33.6799   110.7241 </r>
       <r>     1.8761    31.0573   112.5427 </r>
       <r>     1.9347    25.8339   114.0557 </r>
       <r>     1.9932    29.3450   115.7743 </r>
       <r>     2.0518     9.2331   116.3151 </r>
       <r>     2.1104    26.0220   117.8388 </r>
       <r>     2.1689    29.6286   119.5737 </r>
       <r>     2.2275    29.4956   121.3008 </r>
       <r>     2.2860    25.0642   122.7685 </r>
       <r>     2.3446    33.7250   124.7432 </r>
       <r>     2.4031    29.6539   126.4796 </r>
       <r>     2.4617    15.4263   127.3830 </r>
       <r>     2.5202    32.4450   129.2828 </r>
       <r>     2.5788    23.2962   130.6469 </r>
       <r>     2.6373    29.8552   132.3951 </r>
       <r>     2.6959    34.6267   134.4227 </r>
       <r>     2.7545    20.3032   135.6118 </r>
       <r>     2.8130    14.6612   136.4703 </r>
       <r>     2.8716    24.3859   137.8983 </r>
       <r>     2.9301    17.9946   138.9520 </r>
       <r>     2.9887    28.0491   140.5944 </r>
       <r>     3.0472    28.7153   142.2758 </r>
       <r>     3.1058    34.4960   144.2958 </r>
       <r>     3.1643    29.4416   146.0197 </r>
       <r>     3.2229    26.1871   147.5532 </r>
       <r>     3.2815    15.5743   148.4653 </r>
       <r>     3.3400    17.4484   149.4870 </r>
       <r>     3.3986    21.1051   150.7229 </r>
       <r>     3.4571    21.9625   152.0092 </r>
       <r>     3.5157    23.2858   153.3727 </r>
       <r>     3.5742    15.1737   154.2613 </r>
       <r>     3.6328    20.4863   155.4609 </r>
       <r>     3.6913    24.3732   156.8881 </r>
       <r>     3.7499    21.9171   158.1716 </r>
       <r>     3.8085    19.8380   159.3334 </r>
       <r>     3.8670    23.8259   160.7286 </r>
       <r>     3.9256    19.4590   161.8681 </r>
       <r>     3.9841    11.9035   162.5652 </r>
       <r>     4.0427    18.6769   163.6588 </r>
       <r>     4.1012    14.9486   164.5341 </r>
       <r>     4.1598     9.7984   165.1079 </r>
       <r>     4.2183    14.2586   165.9428 </r>
       <r>     4.2769    14.7832   166.8085 </r>
       <r>     4.3354    13.7791   167.6154 </r>
       <r>     4.3940    15.6965   168.5345 </r>
       <r>     4.4526     5.8807   168.8789 </r>
       <r>     4.5111    12.6554   169.6200 </r>
       <r>     4.5697    11.6481   170.3021 </r>
       <r>     4.6282     5.9513   170.6506 </r>
       <r>     4.6868     3.2765   170.8425 </r>
       <r>     4.7453    10.2341   171.4417 </r>
       <r>     4.8039    12.7537   172.1885 </r>
       <r>     4.8624     6.8320   172.5889 </r>
       <r>     4.9210     7.8234   173.0470 </r>
       <r>     4.9796    19.2979   174.1770 </r>
       <r>     5.0381    19.3272   175.3087 </r>
       <r>     5.0967    15.5937   176.2218 </r>
       <r>     5.1552     0.0075   176.2222 </r>
       <r>     5.2138     1.8116   176.3283 </r>
       <r>     5.2723    16.6193   177.3015 </r>
       <r>     5.3309    12.5949   178.0389 </r>
       <r>     5.3894     5.4315   178.3570 </r>
       <r>     5.4480     6.2213   178.7213 </r>
       <r>     5.5066     2.8623   178.8889 </r>
       <r>     5.5651     3.4627   179.0916 </r>
       <r>     5.6237     0.3418   179.1117 </r>
       <r>     5.6822     8.6640   179.6190 </r>
       <r>     5.7408    10.3569   180.2255 </r>
       <r>     5.7993     4.4436   180.4857 </r>
       <r>     5.8579    12.2449   181.2027 </r>
       <r>     5.9164    12.2543   181.9205 </r>
       <r>     5.9750    10.8452   182.5556 </r>
       <r>     6.0335     0.0361   182.5577 </r>
       <r>     6.0921    16.0752   183.4990 </r>
       <r>     6.1507    15.3814   184.3998 </r>
       <r>     6.2092     6.4728   184.7788 </r>
       <r>     6.2678    16.5211   185.7462 </r>
       <r>     6.3263    10.1539   186.3407 </r>
       <r>     6.3849    18.1314   187.4024 </r>
       <r>     6.4434    13.4174   188.1881 </r>
       <r>     6.5020    14.8596   189.0583 </r>
       <r>     6.5605    14.0988   189.8838 </r>
       <r>     6.6191    17.1500   190.8880 </r>
       <r>     6.6777     6.1146   191.2461 </r>
       <r>     6.7362    19.8095   192.4060 </r>
       <r>     6.7948    19.2382   193.5328 </r>
       <r>     6.8533    32.7498   195.4505 </r>
       <r>     6.9119    17.8936   196.4985 </r>
       <r>     6.9704    18.3366   197.5722 </r>
       <r>     7.0290    17.9380   198.6225 </r>
       <r>     7.0875    20.6399   199.8312 </r>
       <r>     7.1461    23.0499   201.1809 </r>
       <r>     7.2047    16.8816   202.1696 </r>
       <r>     7.2632    15.8487   203.0976 </r>
       <r>     7.3218    29.2261   204.8090 </r>
       <r>     7.3803    18.0331   205.8651 </r>
       <r>     7.4389    12.4575   206.5945 </r>
       <r>     7.4974    18.5877   207.6829 </r>
       <r>     7.5560    23.9348   209.0845 </r>
       <r>     7.6145    22.3125   210.3911 </r>
       <r>     7.6731     1.5093   210.4795 </r>
       <r>     7.7316    11.5267   211.1545 </r>
       <r>     7.7902     6.2853   211.5225 </r>
       <r>     7.8488     0.5644   211.5556 </r>
       <r>     7.9073     0.0349   211.5576 </r>
       <r>     7.9659     7.5553   212.0000 </r>
       <r>     8.0244     0.0000   212.0000 </r>
       <r>     8.0830     0.0000   212.0000 </r>
       <r>     8.1415     0.0000   212.0000 </r>
       <r>     8.2001     0.0000   212.0000 </r>
       <r>     8.2586     0.0000   212.0000 </r>
       <r>     8.3172     0.0000   212.0000 </r>
       <r>     8.3758     0.0000   212.0000 </r>
       <r>     8.4343     0.0000   212.0000 </r>
       <r>     8.4929     0.0000   212.0000 </r>
       <r>     8.5514     0.0000   212.0000 </r>
       <r>     8.6100     0.0000   212.0000 </r>
       <r>     8.6685     0.0000   212.0000 </r>
       <r>     8.7271     0.0000   212.0000 </r>
      </set>
     </set>
    </array>
   </total>
  </dos>
 </calculation>
 <structure name="finalpos" >
  <crystal>
   <varray name="basis" >
    <v>       5.48000000       0.00000000       0.00000000 </v>
    <v>       0.00000000       5.48000000       0.00000000 </v>
    <v>       0.00000000       0.00000000      29.85000000 </v>
   </varray>
   <i name="volume">    896.40744000 </i>
   <varray name="rec_basis" >
    <v>       0.18248175       0.00000000       0.00000000 </v>
    <v>       0.00000000       0.18248175       0.00000000 </v>
    <v>       0.00000000       0.00000000       0.03350084 </v>
   </varray>
  </crystal>
  <varray name="positions" >
   <v>       0.25000000       0.00000000       0.04589615 </v>
   <v>       0.75000000       0.00000000       0.13768844 </v>
   <v>       0.25000000       0.00000000       0.22948074 </v>
   <v>       0.75000000       0.00000000       0.32127303 </v>
   <v>       0.25000000       0.00000000       0.41306533 </v>
   <v>       0.75000000       0.50000000       0.04589615 </v>
   <v>       0.25000000       0.50000000       0.13768844 </v>
   <v>       0.75000000       0.50000000       0.22948074 </v>
   <v>       0.25000000       0.50000000       0.32127303 </v>
   <v>       0.75000000       0.50000000       0.41306533 </v>
   <v>       0.00000000       0.25000000       0.00000000 </v>
   <v>       0.50000000       0.25000000       0.09179229 </v>
   <v>       0.00000000       0.25000000       0.18358459 </v>
   <v>       0.50000000       0.25000000       0.27537688 </v>
   <v>       0.00000000       0.25000000       0.36716918 </v>
   <v>       0.50000000       0.25000000       0.45896147 </v>
   <v>       0.50000000       0.75000000       0.00000000 </v>
   <v>       0.00000000       0.75000000       0.09179229 </v>
   <v>       0.50000000       0.75000000       0.18358459 </v>
   <v>       0.00000000       0.75000000       0.27537688 </v>
   <v>       0.50000000       0.75000000       0.36716918 </v>
   <v>       0.00000000       0.75000000       0.45896147 </v>
   <v>       0.65740741       0.40740741       0.53986600 </v>
   <v>       0.15740741       0.40740741       0.63467337 </v>
   <v>       0.65740741       0.40740741       0.72948074 </v>
   <v>       0.15740741       0.40740741       0.82428811 </v>
   <v>       0.65740741       0.40740741       0.91909548 </v>
   <v>       0.15740741       0.90740741       0.53986600 </v>
   <v>       0.65740741       0.90740741       0.63467337 </v>
   <v>       0.15740741       0.90740741       0.72948074 </v>
   <v>       0.65740741       0.90740741       0.82428811 </v>
   <v>       0.15740741       0.90740741       0.91909548 </v>
   <v>       0.40740741       0.65740741       0.49246231 </v>
   <v>       0.90740741       0.65740741       0.58726968 </v>
   <v>       0.40740741       0.65740741       0.68207705 </v>
   <v>       0.90740741       0.65740741       0.77688442 </v>
   <v>       0.40740741       0.65740741       0.87169179 </v>
   <v>       0.90740741       0.65740741       0.96649916 </v>
   <v>       0.90740741       0.15740741       0.49246231 </v>
   <v>       0.40740741       0.15740741       0.58726968 </v>
   <v>       0.90740741       0.15740741       0.68207705 </v>
   <v>       0.40740741       0.15740741       0.77688442 </v>
   <v>       0.90740741       0.15740741       0.87169179 </v>
   <v>       0.40740741       0.15740741       0.96649916 </v>
  </varray>
 </structure>
</modeling>
