 264 264   0   0
  0.2774202E+02  0.1958175E-08  0.1958175E-08  0.1910025E-08  0.5000000E-15
  1.000000000000000E-004
  CAR 
 Si and Ge interface calculation         
      6.63656608     -9.18602253  301      4.04417440      1.00000000
     -9.186  0.0000E+00  0.0000E+00  0.0000E+00  0.0000E+00
     -9.133  0.0000E+00  0.0000E+00  0.0000E+00  0.0000E+00
     -9.081  0.0000E+00  0.0000E+00  0.0000E+00  0.0000E+00
     -9.028  0.0000E+00  0.0000E+00  0.0000E+00  0.0000E+00
     -8.975  0.0000E+00  0.0000E+00  0.0000E+00  0.0000E+00
     -8.922  0.0000E+00  0.0000E+00  0.0000E+00  0.0000E+00
     -8.870  0.0000E+00  0.0000E+00  0.0000E+00  0.0000E+00
     -8.817  0.0000E+00  0.0000E+00  0.0000E+00  0.0000E+00
     -8.764  0.0000E+00  0.0000E+00  0.0000E+00  0.0000E+00
     -8.711  0.0000E+00  0.0000E+00  0.0000E+00  0.0000E+00
     -8.659  0.0000E+00  0.0000E+00  0.0000E+00  0.0000E+00
     -8.606  0.0000E+00  0.0000E+00  0.0000E+00  0.0000E+00
     -8.553  0.0000E+00  0.0000E+00  0.0000E+00  0.0000E+00
     -8.500  0.9721E-05  0.3243E-05  0.5127E-06  0.1710E-06
     -8.448  0.3338E+02  0.3194E+02  0.1760E+01  0.1685E+01
     -8.395  0.4545E+01  0.5980E+01  0.2000E+01  0.2000E+01
     -8.342  0.0000E+00  0.0000E+00  0.2000E+01  0.2000E+01
     -8.289  0.0000E+00  0.0000E+00  0.2000E+01  0.2000E+01
     -8.237  0.1842E-14  0.2631E-15  0.2000E+01  0.2000E+01
     -8.184  0.2646E+01  0.1879E+01  0.2140E+01  0.2099E+01
     -8.131  0.2583E+02  0.2658E+02  0.3502E+01  0.3501E+01
     -8.078  0.9457E+01  0.9466E+01  0.4001E+01  0.4000E+01
     -8.026  0.1892E+02  0.1874E+02  0.4999E+01  0.4989E+01
     -7.973  0.3179E+02  0.3115E+02  0.6675E+01  0.6632E+01
     -7.920  0.6165E+01  0.6990E+01  0.7001E+01  0.7000E+01
     -7.867  0.2931E+02  0.2864E+02  0.8547E+01  0.8511E+01
     -7.815  0.9049E+01  0.9543E+01  0.9024E+01  0.9014E+01
     -7.762  0.9098E+01  0.9253E+01  0.9504E+01  0.9502E+01
     -7.709  0.2769E+02  0.2520E+02  0.1096E+02  0.1083E+02
     -7.657  0.1016E+02  0.1268E+02  0.1150E+02  0.1150E+02
     -7.604  0.1708E+02  0.1536E+02  0.1240E+02  0.1231E+02
     -7.551  0.2092E+02  0.2260E+02  0.1350E+02  0.1350E+02
     -7.498  0.3135E+02  0.3061E+02  0.1516E+02  0.1512E+02
     -7.446  0.2517E+02  0.2574E+02  0.1649E+02  0.1647E+02
     -7.393  0.3832E+01  0.3153E+01  0.1669E+02  0.1664E+02
     -7.340  0.5201E+02  0.5102E+02  0.1943E+02  0.1933E+02
     -7.287  0.2027E+02  0.2215E+02  0.2050E+02  0.2050E+02
     -7.235  0.9505E+01  0.9476E+01  0.2100E+02  0.2100E+02
     -7.182  0.4291E+02  0.4115E+02  0.2326E+02  0.2317E+02
     -7.129  0.2472E+02  0.2541E+02  0.2457E+02  0.2451E+02
     -7.076  0.2735E+02  0.2833E+02  0.2601E+02  0.2600E+02
     -7.024  0.4452E+02  0.4284E+02  0.2836E+02  0.2826E+02
     -6.971  0.3442E+02  0.3523E+02  0.3017E+02  0.3012E+02
     -6.918  0.3385E+02  0.3403E+02  0.3196E+02  0.3192E+02
     -6.865  0.3886E+02  0.3918E+02  0.3401E+02  0.3398E+02
     -6.813  0.2517E+02  0.2290E+02  0.3534E+02  0.3519E+02
     -6.760  0.5055E+02  0.5187E+02  0.3800E+02  0.3793E+02
     -6.707  0.4801E+02  0.4785E+02  0.4053E+02  0.4045E+02
     -6.654  0.4217E+02  0.4104E+02  0.4276E+02  0.4262E+02
     -6.602  0.2613E+02  0.2624E+02  0.4414E+02  0.4400E+02
     -6.549  0.4261E+02  0.4362E+02  0.4638E+02  0.4630E+02
     -6.496  0.4207E+02  0.4226E+02  0.4860E+02  0.4853E+02
     -6.443  0.3827E+02  0.3662E+02  0.5062E+02  0.5046E+02
     -6.391  0.3880E+02  0.4027E+02  0.5267E+02  0.5258E+02
     -6.338  0.4331E+02  0.4289E+02  0.5495E+02  0.5485E+02
     -6.285  0.3988E+02  0.3830E+02  0.5706E+02  0.5687E+02
     -6.232  0.6296E+02  0.6370E+02  0.6038E+02  0.6023E+02
     -6.180  0.5209E+02  0.5181E+02  0.6312E+02  0.6296E+02
     -6.127  0.5748E+02  0.5732E+02  0.6615E+02  0.6598E+02
     -6.074  0.8996E+02  0.8910E+02  0.7090E+02  0.7068E+02
     -6.022  0.7923E+02  0.8076E+02  0.7508E+02  0.7494E+02
     -5.969  0.7048E+02  0.7073E+02  0.7880E+02  0.7867E+02
     -5.916  0.7146E+02  0.7188E+02  0.8256E+02  0.8246E+02
     -5.863  0.5817E+02  0.5851E+02  0.8563E+02  0.8555E+02
     -5.811  0.6995E+02  0.6952E+02  0.8932E+02  0.8921E+02
     -5.758  0.5316E+02  0.5167E+02  0.9213E+02  0.9194E+02
     -5.705  0.1032E+03  0.1019E+03  0.9757E+02  0.9732E+02
     -5.652  0.8214E+02  0.8396E+02  0.1019E+03  0.1017E+03
     -5.600  0.7663E+02  0.7605E+02  0.1059E+03  0.1058E+03
     -5.547  0.5279E+02  0.5417E+02  0.1087E+03  0.1086E+03
     -5.494  0.6615E+02  0.6415E+02  0.1122E+03  0.1120E+03
     -5.441  0.7250E+02  0.7105E+02  0.1160E+03  0.1157E+03
     -5.389  0.9481E+02  0.9559E+02  0.1210E+03  0.1208E+03
     -5.336  0.9141E+02  0.9313E+02  0.1259E+03  0.1257E+03
     -5.283  0.8454E+02  0.8415E+02  0.1303E+03  0.1301E+03
     -5.230  0.6267E+02  0.6229E+02  0.1336E+03  0.1334E+03
     -5.178  0.8692E+02  0.8639E+02  0.1382E+03  0.1380E+03
     -5.125  0.7688E+02  0.7712E+02  0.1423E+03  0.1420E+03
     -5.072  0.7179E+02  0.7399E+02  0.1461E+03  0.1459E+03
     -5.019  0.6527E+02  0.6374E+02  0.1495E+03  0.1493E+03
     -4.967  0.5327E+02  0.5377E+02  0.1523E+03  0.1521E+03
     -4.914  0.8199E+02  0.8092E+02  0.1566E+03  0.1564E+03
     -4.861  0.8409E+02  0.8322E+02  0.1611E+03  0.1608E+03
     -4.808  0.1094E+03  0.1101E+03  0.1668E+03  0.1666E+03
     -4.756  0.1133E+03  0.1116E+03  0.1728E+03  0.1725E+03
     -4.703  0.1027E+03  0.1046E+03  0.1782E+03  0.1780E+03
     -4.650  0.9394E+02  0.9303E+02  0.1832E+03  0.1829E+03
     -4.597  0.1009E+03  0.9848E+02  0.1885E+03  0.1881E+03
     -4.545  0.1029E+03  0.1034E+03  0.1939E+03  0.1936E+03
     -4.492  0.1006E+03  0.9757E+02  0.1992E+03  0.1987E+03
     -4.439  0.8065E+02  0.8374E+02  0.2035E+03  0.2031E+03
     -4.387  0.1087E+03  0.1101E+03  0.2092E+03  0.2089E+03
     -4.334  0.9032E+02  0.8886E+02  0.2140E+03  0.2136E+03
     -4.281  0.7713E+02  0.7926E+02  0.2181E+03  0.2178E+03
     -4.228  0.7285E+02  0.7264E+02  0.2219E+03  0.2216E+03
     -4.176  0.8739E+02  0.8631E+02  0.2265E+03  0.2262E+03
     -4.123  0.8848E+02  0.9098E+02  0.2312E+03  0.2310E+03
     -4.070  0.7628E+02  0.7540E+02  0.2352E+03  0.2350E+03
     -4.017  0.5843E+02  0.6057E+02  0.2383E+03  0.2382E+03
     -3.965  0.5232E+02  0.5194E+02  0.2410E+03  0.2409E+03
     -3.912  0.3374E+02  0.3370E+02  0.2428E+03  0.2427E+03
     -3.859  0.6051E+02  0.5933E+02  0.2460E+03  0.2458E+03
     -3.806  0.5667E+02  0.5842E+02  0.2490E+03  0.2489E+03
     -3.754  0.7198E+02  0.6868E+02  0.2528E+03  0.2525E+03
     -3.701  0.5394E+02  0.5536E+02  0.2556E+03  0.2554E+03
     -3.648  0.7911E+02  0.7729E+02  0.2598E+03  0.2595E+03
     -3.595  0.7286E+02  0.7339E+02  0.2637E+03  0.2634E+03
     -3.543  0.4199E+02  0.4407E+02  0.2659E+03  0.2657E+03
     -3.490  0.7280E+02  0.7179E+02  0.2697E+03  0.2695E+03
     -3.437  0.8601E+02  0.8549E+02  0.2742E+03  0.2740E+03
     -3.384  0.7519E+02  0.7516E+02  0.2782E+03  0.2780E+03
     -3.332  0.8468E+02  0.8578E+02  0.2827E+03  0.2825E+03
     -3.279  0.7182E+02  0.6997E+02  0.2865E+03  0.2862E+03
     -3.226  0.8226E+02  0.8358E+02  0.2908E+03  0.2906E+03
     -3.173  0.6081E+02  0.6025E+02  0.2940E+03  0.2938E+03
     -3.121  0.7942E+02  0.7976E+02  0.2982E+03  0.2980E+03
     -3.068  0.7404E+02  0.6988E+02  0.3021E+03  0.3016E+03
     -3.015  0.6663E+02  0.6947E+02  0.3056E+03  0.3053E+03
     -2.962  0.6933E+02  0.7124E+02  0.3093E+03  0.3091E+03
     -2.910  0.1140E+03  0.1111E+03  0.3153E+03  0.3149E+03
     -2.857  0.8522E+02  0.8542E+02  0.3198E+03  0.3194E+03
     -2.804  0.9031E+02  0.9064E+02  0.3245E+03  0.3242E+03
     -2.752  0.1196E+03  0.1183E+03  0.3308E+03  0.3305E+03
     -2.699  0.7824E+02  0.8025E+02  0.3350E+03  0.3347E+03
     -2.646  0.8515E+02  0.8590E+02  0.3395E+03  0.3392E+03
     -2.593  0.1222E+03  0.1206E+03  0.3459E+03  0.3456E+03
     -2.541  0.1361E+03  0.1347E+03  0.3531E+03  0.3527E+03
     -2.488  0.1094E+03  0.1120E+03  0.3589E+03  0.3586E+03
     -2.435  0.8969E+02  0.9038E+02  0.3636E+03  0.3634E+03
     -2.382  0.8129E+02  0.7952E+02  0.3679E+03  0.3675E+03
     -2.330  0.9682E+02  0.9970E+02  0.3730E+03  0.3728E+03
     -2.277  0.1070E+03  0.1022E+03  0.3786E+03  0.3782E+03
     -2.224  0.8534E+02  0.9060E+02  0.3831E+03  0.3830E+03
     -2.171  0.2876E+02  0.2999E+02  0.3846E+03  0.3846E+03
     -2.119  0.4356E+02  0.3962E+02  0.3869E+03  0.3866E+03
     -2.066  0.7834E+02  0.8076E+02  0.3911E+03  0.3909E+03
     -2.013  0.7144E+02  0.6848E+02  0.3948E+03  0.3945E+03
     -1.960  0.9282E+02  0.9268E+02  0.3997E+03  0.3994E+03
     -1.908  0.1215E+03  0.1214E+03  0.4061E+03  0.4058E+03
     -1.855  0.6359E+02  0.6644E+02  0.4095E+03  0.4093E+03
     -1.802  0.6390E+02  0.6363E+02  0.4129E+03  0.4127E+03
     -1.749  0.1213E+03  0.1193E+03  0.4193E+03  0.4190E+03
     -1.697  0.1033E+03  0.1018E+03  0.4247E+03  0.4243E+03
     -1.644  0.6855E+02  0.7285E+02  0.4283E+03  0.4282E+03
     -1.591  0.8751E+02  0.8395E+02  0.4329E+03  0.4326E+03
     -1.538  0.7931E+02  0.8398E+02  0.4371E+03  0.4370E+03
     -1.486  0.5365E+02  0.5175E+02  0.4400E+03  0.4398E+03
     -1.433  0.4675E+02  0.4787E+02  0.4424E+03  0.4423E+03
     -1.380  0.6725E+02  0.6514E+02  0.4460E+03  0.4457E+03
     -1.327  0.7323E+02  0.7553E+02  0.4498E+03  0.4497E+03
     -1.275  0.3253E+02  0.3170E+02  0.4515E+03  0.4514E+03
     -1.222  0.6573E+02  0.6563E+02  0.4550E+03  0.4548E+03
     -1.169  0.5617E+02  0.5800E+02  0.4580E+03  0.4579E+03
     -1.117  0.5534E+02  0.5589E+02  0.4609E+03  0.4608E+03
     -1.064  0.3911E+02  0.3653E+02  0.4630E+03  0.4628E+03
     -1.011  0.5510E+02  0.5603E+02  0.4659E+03  0.4657E+03
     -0.958  0.3628E+02  0.3683E+02  0.4678E+03  0.4677E+03
     -0.906  0.3252E+02  0.2995E+02  0.4695E+03  0.4692E+03
     -0.853  0.9741E+02  0.9622E+02  0.4746E+03  0.4743E+03
     -0.800  0.5122E+02  0.5327E+02  0.4773E+03  0.4771E+03
     -0.747  0.4529E+02  0.4598E+02  0.4797E+03  0.4796E+03
     -0.695  0.6599E+02  0.6479E+02  0.4832E+03  0.4830E+03
     -0.642  0.6264E+02  0.6401E+02  0.4865E+03  0.4864E+03
     -0.589  0.3773E+02  0.3970E+02  0.4885E+03  0.4884E+03
     -0.536  0.1512E+02  0.1560E+02  0.4893E+03  0.4893E+03
     -0.484  0.3087E+02  0.3006E+02  0.4909E+03  0.4909E+03
     -0.431  0.2813E+02  0.2753E+02  0.4924E+03  0.4923E+03
     -0.378  0.4021E+02  0.4058E+02  0.4945E+03  0.4944E+03
     -0.325  0.5909E+02  0.5653E+02  0.4976E+03  0.4974E+03
     -0.273  0.6250E+02  0.6410E+02  0.5009E+03  0.5008E+03
     -0.220  0.8040E+02  0.7977E+02  0.5052E+03  0.5050E+03
     -0.167  0.1088E+03  0.1073E+03  0.5109E+03  0.5107E+03
     -0.114  0.9460E+02  0.9470E+02  0.5159E+03  0.5157E+03
     -0.062  0.1296E+03  0.1304E+03  0.5227E+03  0.5225E+03
     -0.009  0.1045E+03  0.1019E+03  0.5283E+03  0.5279E+03
      0.044  0.1232E+03  0.1213E+03  0.5348E+03  0.5343E+03
      0.097  0.1444E+03  0.1474E+03  0.5424E+03  0.5421E+03
      0.149  0.1206E+03  0.1211E+03  0.5487E+03  0.5485E+03
      0.202  0.7836E+02  0.7975E+02  0.5529E+03  0.5527E+03
      0.255  0.7920E+02  0.7842E+02  0.5570E+03  0.5568E+03
      0.308  0.1052E+03  0.1070E+03  0.5626E+03  0.5625E+03
      0.360  0.6594E+02  0.6394E+02  0.5661E+03  0.5658E+03
      0.413  0.1088E+03  0.1067E+03  0.5718E+03  0.5715E+03
      0.466  0.9425E+02  0.9549E+02  0.5768E+03  0.5765E+03
      0.518  0.8127E+02  0.8018E+02  0.5811E+03  0.5807E+03
      0.571  0.1276E+03  0.1277E+03  0.5878E+03  0.5875E+03
      0.624  0.1250E+03  0.1251E+03  0.5944E+03  0.5941E+03
      0.677  0.1253E+03  0.1232E+03  0.6010E+03  0.6006E+03
      0.729  0.1596E+03  0.1616E+03  0.6094E+03  0.6091E+03
      0.782  0.1253E+03  0.1242E+03  0.6160E+03  0.6156E+03
      0.835  0.1060E+03  0.1079E+03  0.6216E+03  0.6213E+03
      0.888  0.1166E+03  0.1161E+03  0.6278E+03  0.6274E+03
      0.940  0.9187E+02  0.9276E+02  0.6326E+03  0.6323E+03
      0.993  0.1308E+03  0.1299E+03  0.6395E+03  0.6392E+03
      1.046  0.1309E+03  0.1294E+03  0.6464E+03  0.6460E+03
      1.099  0.1885E+03  0.1871E+03  0.6564E+03  0.6559E+03
      1.151  0.1600E+03  0.1604E+03  0.6648E+03  0.6643E+03
      1.204  0.1813E+03  0.1809E+03  0.6744E+03  0.6739E+03
      1.257  0.1711E+03  0.1738E+03  0.6834E+03  0.6830E+03
      1.310  0.1921E+03  0.1882E+03  0.6935E+03  0.6930E+03
      1.362  0.1856E+03  0.1885E+03  0.7033E+03  0.7029E+03
      1.415  0.1341E+03  0.1332E+03  0.7104E+03  0.7099E+03
      1.468  0.1546E+03  0.1515E+03  0.7185E+03  0.7179E+03
      1.521  0.2180E+03  0.2179E+03  0.7300E+03  0.7294E+03
      1.573  0.1709E+03  0.1696E+03  0.7390E+03  0.7384E+03
      1.626  0.1893E+03  0.1917E+03  0.7490E+03  0.7485E+03
      1.679  0.1922E+03  0.1922E+03  0.7592E+03  0.7586E+03
      1.732  0.1816E+03  0.1801E+03  0.7687E+03  0.7681E+03
      1.784  0.1762E+03  0.1788E+03  0.7780E+03  0.7776E+03
      1.837  0.1764E+03  0.1765E+03  0.7873E+03  0.7869E+03
      1.890  0.1430E+03  0.1412E+03  0.7949E+03  0.7943E+03
      1.943  0.2161E+03  0.2127E+03  0.8063E+03  0.8055E+03
      1.995  0.1760E+03  0.1819E+03  0.8156E+03  0.8151E+03
      2.048  0.1557E+03  0.1523E+03  0.8238E+03  0.8232E+03
      2.101  0.1862E+03  0.1831E+03  0.8336E+03  0.8328E+03
      2.153  0.2031E+03  0.2073E+03  0.8443E+03  0.8438E+03
      2.206  0.1396E+03  0.1405E+03  0.8517E+03  0.8512E+03
      2.259  0.1653E+03  0.1614E+03  0.8604E+03  0.8597E+03
      2.312  0.1564E+03  0.1629E+03  0.8686E+03  0.8683E+03
      2.364  0.1662E+03  0.1584E+03  0.8774E+03  0.8766E+03
      2.417  0.2005E+03  0.2041E+03  0.8880E+03  0.8874E+03
      2.470  0.1438E+03  0.1477E+03  0.8956E+03  0.8952E+03
      2.523  0.1344E+03  0.1326E+03  0.9027E+03  0.9022E+03
      2.575  0.1301E+03  0.1302E+03  0.9095E+03  0.9090E+03
      2.628  0.1402E+03  0.1382E+03  0.9169E+03  0.9163E+03
      2.681  0.1155E+03  0.1217E+03  0.9230E+03  0.9227E+03
      2.734  0.1517E+03  0.1428E+03  0.9310E+03  0.9303E+03
      2.786  0.1527E+03  0.1585E+03  0.9391E+03  0.9386E+03
      2.839  0.1295E+03  0.1233E+03  0.9459E+03  0.9451E+03
      2.892  0.1714E+03  0.1740E+03  0.9549E+03  0.9543E+03
      2.945  0.1028E+03  0.1037E+03  0.9603E+03  0.9598E+03
      2.997  0.1214E+03  0.1173E+03  0.9667E+03  0.9660E+03
      3.050  0.1342E+03  0.1347E+03  0.9738E+03  0.9731E+03
      3.103  0.1122E+03  0.1165E+03  0.9797E+03  0.9792E+03
      3.156  0.1108E+03  0.1098E+03  0.9856E+03  0.9850E+03
      3.208  0.1123E+03  0.1097E+03  0.9915E+03  0.9908E+03
      3.261  0.1002E+03  0.9878E+02  0.9968E+03  0.9960E+03
      3.314  0.1213E+03  0.1247E+03  0.1003E+04  0.1003E+04
      3.367  0.9402E+02  0.9819E+02  0.1008E+04  0.1008E+04
      3.419  0.5887E+02  0.6181E+02  0.1011E+04  0.1011E+04
      3.472  0.9472E+02  0.8769E+02  0.1016E+04  0.1016E+04
      3.525  0.1017E+03  0.1021E+03  0.1022E+04  0.1021E+04
      3.578  0.8310E+02  0.8152E+02  0.1026E+04  0.1025E+04
      3.630  0.9013E+02  0.9447E+02  0.1031E+04  0.1030E+04
      3.683  0.7988E+02  0.7552E+02  0.1035E+04  0.1034E+04
      3.736  0.4559E+02  0.5170E+02  0.1037E+04  0.1037E+04
      3.789  0.5321E+02  0.4787E+02  0.1040E+04  0.1040E+04
      3.841  0.4876E+02  0.4953E+02  0.1043E+04  0.1042E+04
      3.894  0.3411E+02  0.3980E+02  0.1045E+04  0.1044E+04
      3.947  0.6872E+02  0.6527E+02  0.1048E+04  0.1048E+04
      3.999  0.6847E+02  0.6139E+02  0.1052E+04  0.1051E+04
      4.052  0.1019E+03  0.9481E+02  0.1057E+04  0.1056E+04
      4.105  0.1164E+03  0.1234E+03  0.1063E+04  0.1062E+04
      4.158  0.7467E+02  0.7579E+02  0.1067E+04  0.1066E+04
      4.210  0.1017E+03  0.9371E+02  0.1073E+04  0.1071E+04
      4.263  0.1138E+03  0.1192E+03  0.1079E+04  0.1078E+04
      4.316  0.1075E+03  0.1028E+03  0.1084E+04  0.1083E+04
      4.369  0.1140E+03  0.1154E+03  0.1090E+04  0.1089E+04
      4.421  0.1234E+03  0.1228E+03  0.1097E+04  0.1096E+04
      4.474  0.1229E+03  0.1315E+03  0.1103E+04  0.1103E+04
      4.527  0.9784E+02  0.9718E+02  0.1108E+04  0.1108E+04
      4.580  0.1054E+03  0.1068E+03  0.1114E+04  0.1113E+04
      4.632  0.1265E+03  0.1210E+03  0.1121E+04  0.1120E+04
      4.685  0.1259E+03  0.1276E+03  0.1127E+04  0.1126E+04
      4.738  0.1110E+03  0.1109E+03  0.1133E+04  0.1132E+04
      4.791  0.1346E+03  0.1359E+03  0.1140E+04  0.1139E+04
      4.843  0.1130E+03  0.1172E+03  0.1146E+04  0.1146E+04
      4.896  0.1208E+03  0.1169E+03  0.1153E+04  0.1152E+04
      4.949  0.9788E+02  0.1004E+03  0.1158E+04  0.1157E+04
      5.002  0.1229E+03  0.1186E+03  0.1164E+04  0.1163E+04
      5.054  0.1483E+03  0.1526E+03  0.1172E+04  0.1171E+04
      5.107  0.7980E+02  0.8118E+02  0.1176E+04  0.1176E+04
      5.160  0.1118E+03  0.1122E+03  0.1182E+04  0.1182E+04
      5.213  0.7985E+02  0.7948E+02  0.1186E+04  0.1186E+04
      5.265  0.9741E+02  0.9536E+02  0.1192E+04  0.1191E+04
      5.318  0.1194E+03  0.1197E+03  0.1198E+04  0.1197E+04
      5.371  0.1195E+03  0.1196E+03  0.1204E+04  0.1203E+04
      5.424  0.1262E+03  0.1262E+03  0.1211E+04  0.1210E+04
      5.476  0.1519E+03  0.1505E+03  0.1219E+04  0.1218E+04
      5.529  0.1587E+03  0.1590E+03  0.1227E+04  0.1226E+04
      5.582  0.1493E+03  0.1500E+03  0.1235E+04  0.1234E+04
      5.634  0.1349E+03  0.1365E+03  0.1242E+04  0.1242E+04
      5.687  0.1058E+03  0.1075E+03  0.1248E+04  0.1247E+04
      5.740  0.1054E+03  0.1069E+03  0.1253E+04  0.1253E+04
      5.793  0.1136E+03  0.1132E+03  0.1259E+04  0.1259E+04
      5.845  0.1315E+03  0.1349E+03  0.1266E+04  0.1266E+04
      5.898  0.1014E+03  0.1031E+03  0.1272E+04  0.1271E+04
      5.951  0.8718E+01  0.1171E+02  0.1272E+04  0.1272E+04
      6.004  0.0000E+00  0.0000E+00  0.1272E+04  0.1272E+04
      6.056  0.0000E+00  0.0000E+00  0.1272E+04  0.1272E+04
      6.109  0.0000E+00  0.0000E+00  0.1272E+04  0.1272E+04
      6.162  0.0000E+00  0.0000E+00  0.1272E+04  0.1272E+04
      6.215  0.0000E+00  0.0000E+00  0.1272E+04  0.1272E+04
      6.267  0.0000E+00  0.0000E+00  0.1272E+04  0.1272E+04
      6.320  0.0000E+00  0.0000E+00  0.1272E+04  0.1272E+04
      6.373  0.0000E+00  0.0000E+00  0.1272E+04  0.1272E+04
      6.426  0.0000E+00  0.0000E+00  0.1272E+04  0.1272E+04
      6.478  0.0000E+00  0.0000E+00  0.1272E+04  0.1272E+04
      6.531  0.0000E+00  0.0000E+00  0.1272E+04  0.1272E+04
      6.584  0.0000E+00  0.0000E+00  0.1272E+04  0.1272E+04
      6.637  0.0000E+00  0.0000E+00  0.1272E+04  0.1272E+04
