       N       E                     dE             d eps       ncg     rms          rms(c)
DAV:   1     0.127409901723E+04    0.12741E+04   -0.12582E+05  8448   0.168E+03
DAV:   2    -0.169467956771E+03   -0.14436E+04   -0.13919E+04  9840   0.206E+02
DAV:   3    -0.309525742371E+03   -0.14006E+03   -0.13472E+03 10432   0.588E+01
DAV:   4    -0.314861776842E+03   -0.53360E+01   -0.52167E+01 10056   0.117E+01
DAV:   5    -0.315060757702E+03   -0.19898E+00   -0.19788E+00 11280   0.216E+00    0.211E+01
DAV:   6    -0.309697796638E+03    0.53630E+01   -0.16702E+01 10152   0.884E+00    0.960E+00
DAV:   7    -0.309992326417E+03   -0.29453E+00   -0.12886E+01 10480   0.854E+00    0.645E+00
DAV:   8    -0.309005660978E+03    0.98667E+00   -0.51557E+00 10464   0.536E+00    0.251E+00
DAV:   9    -0.308893481786E+03    0.11218E+00   -0.11506E+00 10080   0.230E+00    0.114E+00
DAV:  10    -0.308882544329E+03    0.10937E-01   -0.22506E-01  9832   0.101E+00    0.695E-01
DAV:  11    -0.308879195382E+03    0.33489E-02   -0.63420E-02  9856   0.514E-01    0.319E-01
DAV:  12    -0.308879353047E+03   -0.15767E-03   -0.12769E-02  9904   0.243E-01    0.180E-01
DAV:  13    -0.308879261667E+03    0.91380E-04   -0.26680E-03  9968   0.124E-01    0.103E-01
DAV:  14    -0.308879278885E+03   -0.17218E-04   -0.82434E-04  9936   0.690E-02    0.480E-02
DAV:  15    -0.308879309501E+03   -0.30616E-04   -0.22843E-04  9696   0.324E-02    0.202E-02
DAV:  16    -0.308879321176E+03   -0.11675E-04   -0.52828E-05 10080   0.146E-02    0.129E-02
DAV:  17    -0.308879326404E+03   -0.52283E-05   -0.12196E-05  9768   0.778E-03    0.859E-03
DAV:  18    -0.308879329154E+03   -0.27498E-05   -0.32426E-06 10120   0.417E-03    0.497E-03
DAV:  19    -0.308879330425E+03   -0.12716E-05   -0.96868E-07 10224   0.221E-03    0.288E-03
DAV:  20    -0.308879331152E+03   -0.72616E-06   -0.55910E-07  8560   0.164E-03    0.190E-03
DAV:  21    -0.308879331535E+03   -0.38358E-06   -0.30249E-07  6816   0.122E-03    0.102E-03
DAV:  22    -0.308879331616E+03   -0.81214E-07   -0.91641E-08  5080   0.688E-04
   1 F= -.30887933E+03 E0= -.30887886E+03  d E =-.935990E-03  mag=     1.0000
