 264 264   0   0
  0.2774202E+02  0.1958175E-08  0.1958175E-08  0.1910025E-08  0.5000000E-15
  1.000000000000000E-004
  CAR 
 Si and Ge interface calculation         
      6.63879883     -9.12982855  301      4.03828229      1.00000000
     -9.130  0.0000E+00  0.0000E+00  0.0000E+00  0.0000E+00
     -9.077  0.0000E+00  0.0000E+00  0.0000E+00  0.0000E+00
     -9.025  0.0000E+00  0.0000E+00  0.0000E+00  0.0000E+00
     -8.972  0.0000E+00  0.0000E+00  0.0000E+00  0.0000E+00
     -8.920  0.0000E+00  0.0000E+00  0.0000E+00  0.0000E+00
     -8.867  0.0000E+00  0.0000E+00  0.0000E+00  0.0000E+00
     -8.814  0.0000E+00  0.0000E+00  0.0000E+00  0.0000E+00
     -8.762  0.0000E+00  0.0000E+00  0.0000E+00  0.0000E+00
     -8.709  0.0000E+00  0.0000E+00  0.0000E+00  0.0000E+00
     -8.657  0.0000E+00  0.0000E+00  0.0000E+00  0.0000E+00
     -8.604  0.0000E+00  0.0000E+00  0.0000E+00  0.0000E+00
     -8.552  0.0000E+00  0.0000E+00  0.0000E+00  0.0000E+00
     -8.499  0.0000E+00  0.0000E+00  0.0000E+00  0.0000E+00
     -8.447  0.1057E-04  0.3944E-05  0.5557E-06  0.2073E-06
     -8.394  0.1419E+02  0.1339E+02  0.7460E+00  0.7036E+00
     -8.341  0.2385E+02  0.2466E+02  0.2000E+01  0.2000E+01
     -8.289  0.6119E-02  0.8672E-02  0.2000E+01  0.2000E+01
     -8.236  0.1430E+02  0.1363E+02  0.2752E+01  0.2716E+01
     -8.184  0.1424E+02  0.1491E+02  0.3500E+01  0.3500E+01
     -8.131  0.6710E+01  0.6071E+01  0.3853E+01  0.3819E+01
     -8.079  0.4082E+02  0.4144E+02  0.5998E+01  0.5997E+01
     -8.026  0.3053E+01  0.2324E+01  0.6159E+01  0.6119E+01
     -7.973  0.3326E+02  0.3334E+02  0.7907E+01  0.7872E+01
     -7.921  0.1288E+02  0.1294E+02  0.8584E+01  0.8552E+01
     -7.868  0.2156E+02  0.2146E+02  0.9717E+01  0.9680E+01
     -7.816  0.9833E+01  0.9754E+01  0.1023E+02  0.1019E+02
     -7.763  0.2268E+02  0.2290E+02  0.1143E+02  0.1140E+02
     -7.711  0.9071E+01  0.9209E+01  0.1190E+02  0.1188E+02
     -7.658  0.1927E+01  0.2315E+01  0.1200E+02  0.1200E+02
     -7.606  0.3040E+02  0.2972E+02  0.1360E+02  0.1356E+02
     -7.553  0.2658E+02  0.2730E+02  0.1500E+02  0.1500E+02
     -7.500  0.2254E+02  0.2160E+02  0.1618E+02  0.1613E+02
     -7.448  0.1816E+02  0.1854E+02  0.1714E+02  0.1711E+02
     -7.395  0.1637E+02  0.1694E+02  0.1800E+02  0.1800E+02
     -7.343  0.8837E+01  0.8548E+01  0.1846E+02  0.1845E+02
     -7.290  0.8800E+01  0.8222E+01  0.1893E+02  0.1888E+02
     -7.238  0.3924E+02  0.3774E+02  0.2099E+02  0.2086E+02
     -7.185  0.2335E+02  0.2488E+02  0.2222E+02  0.2217E+02
     -7.132  0.2436E+02  0.2516E+02  0.2350E+02  0.2350E+02
     -7.080  0.1195E+02  0.8835E+01  0.2413E+02  0.2396E+02
     -7.027  0.6667E+02  0.6918E+02  0.2763E+02  0.2760E+02
     -6.975  0.2473E+02  0.2410E+02  0.2893E+02  0.2886E+02
     -6.922  0.3418E+02  0.3376E+02  0.3073E+02  0.3064E+02
     -6.870  0.2918E+02  0.2948E+02  0.3226E+02  0.3219E+02
     -6.817  0.3500E+02  0.3490E+02  0.3410E+02  0.3402E+02
     -6.765  0.8054E+02  0.8007E+02  0.3833E+02  0.3823E+02
     -6.712  0.4603E+02  0.4548E+02  0.4075E+02  0.4062E+02
     -6.659  0.3332E+02  0.3558E+02  0.4250E+02  0.4249E+02
     -6.607  0.3170E+02  0.3056E+02  0.4417E+02  0.4410E+02
     -6.554  0.2148E+02  0.2113E+02  0.4530E+02  0.4521E+02
     -6.502  0.6668E+02  0.6661E+02  0.4880E+02  0.4871E+02
     -6.449  0.3927E+02  0.3985E+02  0.5087E+02  0.5080E+02
     -6.397  0.4737E+02  0.4646E+02  0.5336E+02  0.5324E+02
     -6.344  0.3904E+02  0.4036E+02  0.5541E+02  0.5537E+02
     -6.291  0.2781E+02  0.2711E+02  0.5687E+02  0.5679E+02
     -6.239  0.4738E+02  0.4737E+02  0.5936E+02  0.5928E+02
     -6.186  0.6916E+02  0.6675E+02  0.6300E+02  0.6279E+02
     -6.134  0.6380E+02  0.6576E+02  0.6635E+02  0.6625E+02
     -6.081  0.8217E+02  0.8185E+02  0.7067E+02  0.7055E+02
     -6.029  0.5815E+02  0.5887E+02  0.7373E+02  0.7364E+02
     -5.976  0.6322E+02  0.6234E+02  0.7705E+02  0.7692E+02
     -5.924  0.6612E+02  0.6631E+02  0.8052E+02  0.8040E+02
     -5.871  0.8893E+02  0.8861E+02  0.8520E+02  0.8506E+02
     -5.818  0.5533E+02  0.5214E+02  0.8811E+02  0.8780E+02
     -5.766  0.7522E+02  0.7747E+02  0.9206E+02  0.9187E+02
     -5.713  0.9633E+02  0.9558E+02  0.9712E+02  0.9690E+02
     -5.661  0.8401E+02  0.8483E+02  0.1015E+03  0.1014E+03
     -5.608  0.8613E+02  0.8697E+02  0.1061E+03  0.1059E+03
     -5.556  0.7372E+02  0.7422E+02  0.1099E+03  0.1098E+03
     -5.503  0.5124E+02  0.4691E+02  0.1126E+03  0.1123E+03
     -5.450  0.9053E+02  0.9311E+02  0.1174E+03  0.1172E+03
     -5.398  0.6670E+02  0.6670E+02  0.1209E+03  0.1207E+03
     -5.345  0.8057E+02  0.8002E+02  0.1251E+03  0.1249E+03
     -5.293  0.8470E+02  0.8350E+02  0.1296E+03  0.1293E+03
     -5.240  0.8216E+02  0.8453E+02  0.1339E+03  0.1337E+03
     -5.188  0.6319E+02  0.6381E+02  0.1372E+03  0.1371E+03
     -5.135  0.5764E+02  0.5647E+02  0.1403E+03  0.1401E+03
     -5.083  0.8925E+02  0.8979E+02  0.1449E+03  0.1448E+03
     -5.030  0.8392E+02  0.8335E+02  0.1494E+03  0.1492E+03
     -4.977  0.5201E+02  0.5318E+02  0.1521E+03  0.1520E+03
     -4.925  0.8345E+02  0.8216E+02  0.1565E+03  0.1563E+03
     -4.872  0.6250E+02  0.6284E+02  0.1598E+03  0.1596E+03
     -4.820  0.9585E+02  0.9596E+02  0.1648E+03  0.1646E+03
     -4.767  0.1088E+03  0.1081E+03  0.1705E+03  0.1703E+03
     -4.715  0.1185E+03  0.1176E+03  0.1768E+03  0.1765E+03
     -4.662  0.7930E+02  0.7980E+02  0.1809E+03  0.1807E+03
     -4.609  0.1142E+03  0.1139E+03  0.1869E+03  0.1867E+03
     -4.557  0.8957E+02  0.8817E+02  0.1916E+03  0.1913E+03
     -4.504  0.1096E+03  0.1066E+03  0.1974E+03  0.1969E+03
     -4.452  0.1059E+03  0.1064E+03  0.2030E+03  0.2025E+03
     -4.399  0.1042E+03  0.1046E+03  0.2084E+03  0.2080E+03
     -4.347  0.7639E+02  0.7687E+02  0.2124E+03  0.2120E+03
     -4.294  0.8966E+02  0.9240E+02  0.2172E+03  0.2169E+03
     -4.242  0.6208E+02  0.6257E+02  0.2204E+03  0.2202E+03
     -4.189  0.1014E+03  0.1010E+03  0.2258E+03  0.2255E+03
     -4.136  0.8017E+02  0.8274E+02  0.2300E+03  0.2298E+03
     -4.084  0.6860E+02  0.6729E+02  0.2336E+03  0.2334E+03
     -4.031  0.7462E+02  0.7527E+02  0.2375E+03  0.2373E+03
     -3.979  0.5134E+02  0.5084E+02  0.2402E+03  0.2400E+03
     -3.926  0.3506E+02  0.3547E+02  0.2420E+03  0.2419E+03
     -3.874  0.5534E+02  0.5352E+02  0.2449E+03  0.2447E+03
     -3.821  0.5536E+02  0.5768E+02  0.2479E+03  0.2477E+03
     -3.768  0.5799E+02  0.5671E+02  0.2509E+03  0.2507E+03
     -3.716  0.6177E+02  0.6200E+02  0.2542E+03  0.2539E+03
     -3.663  0.7176E+02  0.7226E+02  0.2579E+03  0.2577E+03
     -3.611  0.7237E+02  0.6714E+02  0.2617E+03  0.2613E+03
     -3.558  0.7183E+02  0.7649E+02  0.2655E+03  0.2653E+03
     -3.506  0.7453E+02  0.7216E+02  0.2694E+03  0.2691E+03
     -3.453  0.7701E+02  0.7740E+02  0.2735E+03  0.2732E+03
     -3.401  0.7650E+02  0.7489E+02  0.2775E+03  0.2771E+03
     -3.348  0.8387E+02  0.8859E+02  0.2819E+03  0.2817E+03
     -3.295  0.6521E+02  0.6349E+02  0.2853E+03  0.2851E+03
     -3.243  0.7227E+02  0.7228E+02  0.2891E+03  0.2889E+03
     -3.190  0.7168E+02  0.7263E+02  0.2929E+03  0.2927E+03
     -3.138  0.7683E+02  0.7379E+02  0.2969E+03  0.2966E+03
     -3.085  0.6629E+02  0.6674E+02  0.3004E+03  0.3001E+03
     -3.033  0.7962E+02  0.8110E+02  0.3046E+03  0.3043E+03
     -2.980  0.6143E+02  0.6227E+02  0.3078E+03  0.3076E+03
     -2.928  0.9225E+02  0.9024E+02  0.3127E+03  0.3124E+03
     -2.875  0.8227E+02  0.8184E+02  0.3170E+03  0.3167E+03
     -2.822  0.1103E+03  0.1113E+03  0.3228E+03  0.3225E+03
     -2.770  0.8459E+02  0.8533E+02  0.3272E+03  0.3270E+03
     -2.717  0.1140E+03  0.1134E+03  0.3332E+03  0.3330E+03
     -2.665  0.9172E+02  0.9000E+02  0.3381E+03  0.3377E+03
     -2.612  0.1006E+03  0.1006E+03  0.3433E+03  0.3430E+03
     -2.560  0.1328E+03  0.1324E+03  0.3503E+03  0.3499E+03
     -2.507  0.1168E+03  0.1192E+03  0.3565E+03  0.3562E+03
     -2.454  0.9807E+02  0.9814E+02  0.3616E+03  0.3614E+03
     -2.402  0.7698E+02  0.7625E+02  0.3657E+03  0.3654E+03
     -2.349  0.1029E+03  0.1040E+03  0.3711E+03  0.3708E+03
     -2.297  0.1050E+03  0.1016E+03  0.3766E+03  0.3762E+03
     -2.244  0.9709E+02  0.1028E+03  0.3817E+03  0.3816E+03
     -2.192  0.5011E+02  0.5069E+02  0.3843E+03  0.3843E+03
     -2.139  0.2602E+02  0.2534E+02  0.3857E+03  0.3856E+03
     -2.087  0.7378E+02  0.6934E+02  0.3896E+03  0.3892E+03
     -2.034  0.8836E+02  0.9016E+02  0.3942E+03  0.3940E+03
     -1.981  0.8574E+02  0.8554E+02  0.3987E+03  0.3985E+03
     -1.929  0.9672E+02  0.9755E+02  0.4038E+03  0.4036E+03
     -1.876  0.8993E+02  0.9097E+02  0.4085E+03  0.4084E+03
     -1.824  0.6308E+02  0.6102E+02  0.4119E+03  0.4116E+03
     -1.771  0.9928E+02  0.9859E+02  0.4171E+03  0.4168E+03
     -1.719  0.1037E+03  0.1017E+03  0.4225E+03  0.4221E+03
     -1.666  0.8850E+02  0.9057E+02  0.4272E+03  0.4269E+03
     -1.613  0.7824E+02  0.7929E+02  0.4313E+03  0.4310E+03
     -1.561  0.9140E+02  0.9250E+02  0.4361E+03  0.4359E+03
     -1.508  0.6324E+02  0.6228E+02  0.4394E+03  0.4392E+03
     -1.456  0.4286E+02  0.4410E+02  0.4417E+03  0.4415E+03
     -1.403  0.6807E+02  0.6822E+02  0.4452E+03  0.4451E+03
     -1.351  0.6869E+02  0.6733E+02  0.4489E+03  0.4486E+03
     -1.298  0.3461E+02  0.3663E+02  0.4507E+03  0.4505E+03
     -1.246  0.6409E+02  0.6172E+02  0.4540E+03  0.4538E+03
     -1.193  0.5186E+02  0.5216E+02  0.4568E+03  0.4565E+03
     -1.140  0.5644E+02  0.5794E+02  0.4597E+03  0.4596E+03
     -1.088  0.5289E+02  0.5096E+02  0.4625E+03  0.4622E+03
     -1.035  0.4593E+02  0.4656E+02  0.4649E+03  0.4647E+03
     -0.983  0.4660E+02  0.4901E+02  0.4674E+03  0.4673E+03
     -0.930  0.2829E+02  0.2654E+02  0.4689E+03  0.4687E+03
     -0.878  0.6835E+02  0.6655E+02  0.4725E+03  0.4722E+03
     -0.825  0.7983E+02  0.8165E+02  0.4767E+03  0.4765E+03
     -0.772  0.3796E+02  0.3956E+02  0.4786E+03  0.4785E+03
     -0.720  0.5962E+02  0.5645E+02  0.4818E+03  0.4815E+03
     -0.667  0.7894E+02  0.8058E+02  0.4859E+03  0.4857E+03
     -0.615  0.4092E+02  0.4080E+02  0.4881E+03  0.4879E+03
     -0.562  0.2392E+02  0.2643E+02  0.4893E+03  0.4893E+03
     -0.510  0.1912E+02  0.1942E+02  0.4903E+03  0.4903E+03
     -0.457  0.3326E+02  0.3196E+02  0.4921E+03  0.4920E+03
     -0.405  0.2718E+02  0.2848E+02  0.4935E+03  0.4935E+03
     -0.352  0.4790E+02  0.4545E+02  0.4960E+03  0.4959E+03
     -0.299  0.7385E+02  0.7383E+02  0.4999E+03  0.4997E+03
     -0.247  0.7527E+02  0.7391E+02  0.5039E+03  0.5036E+03
     -0.194  0.8355E+02  0.8389E+02  0.5083E+03  0.5080E+03
     -0.142  0.1015E+03  0.1029E+03  0.5136E+03  0.5134E+03
     -0.089  0.1243E+03  0.1212E+03  0.5201E+03  0.5198E+03
     -0.037  0.1190E+03  0.1219E+03  0.5264E+03  0.5262E+03
      0.016  0.1163E+03  0.1123E+03  0.5325E+03  0.5321E+03
      0.069  0.1413E+03  0.1432E+03  0.5399E+03  0.5397E+03
      0.121  0.1121E+03  0.1133E+03  0.5458E+03  0.5456E+03
      0.174  0.8522E+02  0.8592E+02  0.5503E+03  0.5501E+03
      0.226  0.7731E+02  0.7755E+02  0.5544E+03  0.5542E+03
      0.279  0.9190E+02  0.8873E+02  0.5592E+03  0.5589E+03
      0.331  0.1028E+03  0.1049E+03  0.5646E+03  0.5644E+03
      0.384  0.7433E+02  0.7299E+02  0.5685E+03  0.5682E+03
      0.436  0.1160E+03  0.1190E+03  0.5746E+03  0.5745E+03
      0.489  0.7644E+02  0.7611E+02  0.5786E+03  0.5785E+03
      0.542  0.1060E+03  0.1014E+03  0.5842E+03  0.5838E+03
      0.594  0.1288E+03  0.1311E+03  0.5910E+03  0.5907E+03
      0.647  0.1092E+03  0.1081E+03  0.5967E+03  0.5964E+03
      0.699  0.1654E+03  0.1647E+03  0.6054E+03  0.6050E+03
      0.752  0.1329E+03  0.1330E+03  0.6124E+03  0.6120E+03
      0.804  0.1270E+03  0.1304E+03  0.6191E+03  0.6189E+03
      0.857  0.8938E+02  0.8923E+02  0.6238E+03  0.6236E+03
      0.910  0.1200E+03  0.1175E+03  0.6301E+03  0.6297E+03
      0.962  0.1061E+03  0.1049E+03  0.6356E+03  0.6353E+03
      1.015  0.1209E+03  0.1202E+03  0.6420E+03  0.6416E+03
      1.067  0.1619E+03  0.1601E+03  0.6505E+03  0.6500E+03
      1.120  0.1721E+03  0.1755E+03  0.6595E+03  0.6592E+03
      1.172  0.1585E+03  0.1556E+03  0.6679E+03  0.6674E+03
      1.225  0.1994E+03  0.2001E+03  0.6784E+03  0.6779E+03
      1.277  0.1609E+03  0.1602E+03  0.6868E+03  0.6863E+03
      1.330  0.2016E+03  0.2016E+03  0.6974E+03  0.6969E+03
      1.383  0.1516E+03  0.1530E+03  0.7054E+03  0.7050E+03
      1.435  0.1550E+03  0.1572E+03  0.7135E+03  0.7132E+03
      1.488  0.1704E+03  0.1607E+03  0.7225E+03  0.7217E+03
      1.540  0.1900E+03  0.1951E+03  0.7325E+03  0.7319E+03
      1.593  0.1935E+03  0.1939E+03  0.7426E+03  0.7421E+03
      1.645  0.1764E+03  0.1782E+03  0.7519E+03  0.7515E+03
      1.698  0.2053E+03  0.2052E+03  0.7627E+03  0.7623E+03
      1.751  0.1865E+03  0.1849E+03  0.7725E+03  0.7720E+03
      1.803  0.1699E+03  0.1699E+03  0.7814E+03  0.7809E+03
      1.856  0.1535E+03  0.1571E+03  0.7895E+03  0.7892E+03
      1.908  0.1780E+03  0.1738E+03  0.7989E+03  0.7983E+03
      1.961  0.2050E+03  0.2038E+03  0.8096E+03  0.8090E+03
      2.013  0.1606E+03  0.1639E+03  0.8181E+03  0.8176E+03
      2.066  0.1854E+03  0.1823E+03  0.8278E+03  0.8272E+03
      2.118  0.1949E+03  0.1968E+03  0.8381E+03  0.8376E+03
      2.171  0.1846E+03  0.1845E+03  0.8478E+03  0.8473E+03
      2.224  0.1384E+03  0.1360E+03  0.8550E+03  0.8544E+03
      2.276  0.1755E+03  0.1788E+03  0.8643E+03  0.8638E+03
      2.329  0.1475E+03  0.1460E+03  0.8720E+03  0.8715E+03
      2.381  0.2005E+03  0.1970E+03  0.8826E+03  0.8819E+03
      2.434  0.1603E+03  0.1634E+03  0.8910E+03  0.8904E+03
      2.486  0.1380E+03  0.1375E+03  0.8982E+03  0.8977E+03
      2.539  0.1146E+03  0.1176E+03  0.9043E+03  0.9038E+03
      2.592  0.1542E+03  0.1510E+03  0.9124E+03  0.9118E+03
      2.644  0.1436E+03  0.1442E+03  0.9199E+03  0.9194E+03
      2.697  0.1088E+03  0.1086E+03  0.9256E+03  0.9251E+03
      2.749  0.1861E+03  0.1785E+03  0.9354E+03  0.9344E+03
      2.802  0.1304E+03  0.1367E+03  0.9423E+03  0.9416E+03
      2.854  0.1388E+03  0.1356E+03  0.9496E+03  0.9488E+03
      2.907  0.1440E+03  0.1492E+03  0.9571E+03  0.9566E+03
      2.959  0.9444E+02  0.9344E+02  0.9621E+03  0.9615E+03
      3.012  0.1332E+03  0.1312E+03  0.9691E+03  0.9684E+03
      3.065  0.1302E+03  0.1333E+03  0.9759E+03  0.9754E+03
      3.117  0.1073E+03  0.1071E+03  0.9816E+03  0.9810E+03
      3.170  0.1086E+03  0.1088E+03  0.9873E+03  0.9868E+03
      3.222  0.1184E+03  0.1185E+03  0.9935E+03  0.9930E+03
      3.275  0.1098E+03  0.1051E+03  0.9993E+03  0.9985E+03
      3.327  0.1069E+03  0.1153E+03  0.1005E+04  0.1005E+04
      3.380  0.8430E+02  0.8119E+02  0.1009E+04  0.1009E+04
      3.433  0.7035E+02  0.7157E+02  0.1013E+04  0.1013E+04
      3.485  0.9818E+02  0.9830E+02  0.1018E+04  0.1018E+04
      3.538  0.8909E+02  0.9077E+02  0.1023E+04  0.1023E+04
      3.590  0.9935E+02  0.9069E+02  0.1028E+04  0.1027E+04
      3.643  0.8233E+02  0.8732E+02  0.1032E+04  0.1032E+04
      3.695  0.6764E+02  0.6306E+02  0.1036E+04  0.1035E+04
      3.748  0.4394E+02  0.5173E+02  0.1038E+04  0.1038E+04
      3.800  0.5012E+02  0.4624E+02  0.1041E+04  0.1040E+04
      3.853  0.4675E+02  0.5020E+02  0.1043E+04  0.1043E+04
      3.906  0.3854E+02  0.3403E+02  0.1045E+04  0.1045E+04
      3.958  0.7170E+02  0.7115E+02  0.1049E+04  0.1049E+04
      4.011  0.7588E+02  0.6808E+02  0.1053E+04  0.1052E+04
      4.063  0.1207E+03  0.1176E+03  0.1060E+04  0.1058E+04
      4.116  0.9908E+02  0.1126E+03  0.1065E+04  0.1064E+04
      4.168  0.8085E+02  0.6908E+02  0.1069E+04  0.1068E+04
      4.221  0.1125E+03  0.1106E+03  0.1075E+04  0.1074E+04
      4.274  0.7759E+02  0.8847E+02  0.1079E+04  0.1078E+04
      4.326  0.1134E+03  0.1015E+03  0.1085E+04  0.1084E+04
      4.379  0.1101E+03  0.1163E+03  0.1091E+04  0.1090E+04
      4.431  0.1220E+03  0.1187E+03  0.1097E+04  0.1096E+04
      4.484  0.1352E+03  0.1332E+03  0.1104E+04  0.1103E+04
      4.536  0.8768E+02  0.1004E+03  0.1109E+04  0.1108E+04
      4.589  0.1040E+03  0.9948E+02  0.1114E+04  0.1113E+04
      4.641  0.1183E+03  0.1155E+03  0.1121E+04  0.1120E+04
      4.694  0.1166E+03  0.1186E+03  0.1127E+04  0.1126E+04
      4.747  0.1217E+03  0.1161E+03  0.1133E+04  0.1132E+04
      4.799  0.1181E+03  0.1239E+03  0.1139E+04  0.1138E+04
      4.852  0.1207E+03  0.1230E+03  0.1146E+04  0.1145E+04
      4.904  0.1224E+03  0.1210E+03  0.1152E+04  0.1151E+04
      4.957  0.9576E+02  0.9856E+02  0.1157E+04  0.1156E+04
      5.009  0.1112E+03  0.1079E+03  0.1163E+04  0.1162E+04
      5.062  0.1384E+03  0.1384E+03  0.1170E+04  0.1169E+04
      5.114  0.1264E+03  0.1293E+03  0.1177E+04  0.1176E+04
      5.167  0.9269E+02  0.9393E+02  0.1182E+04  0.1181E+04
      5.220  0.9236E+02  0.9434E+02  0.1187E+04  0.1186E+04
      5.272  0.9485E+02  0.9377E+02  0.1192E+04  0.1191E+04
      5.325  0.1088E+03  0.1086E+03  0.1197E+04  0.1197E+04
      5.377  0.1347E+03  0.1296E+03  0.1204E+04  0.1204E+04
      5.430  0.1327E+03  0.1361E+03  0.1211E+04  0.1211E+04
      5.482  0.1506E+03  0.1508E+03  0.1219E+04  0.1219E+04
      5.535  0.1351E+03  0.1354E+03  0.1226E+04  0.1226E+04
      5.588  0.1724E+03  0.1728E+03  0.1235E+04  0.1235E+04
      5.640  0.1121E+03  0.1143E+03  0.1241E+04  0.1241E+04
      5.693  0.1105E+03  0.1138E+03  0.1247E+04  0.1247E+04
      5.745  0.1185E+03  0.1153E+03  0.1253E+04  0.1253E+04
      5.798  0.1206E+03  0.1202E+03  0.1260E+04  0.1259E+04
      5.850  0.1185E+03  0.1252E+03  0.1266E+04  0.1266E+04
      5.903  0.9250E+02  0.9823E+02  0.1271E+04  0.1271E+04
      5.955  0.2395E+02  0.2109E+02  0.1272E+04  0.1272E+04
      6.008  0.0000E+00  0.0000E+00  0.1272E+04  0.1272E+04
      6.061  0.0000E+00  0.0000E+00  0.1272E+04  0.1272E+04
      6.113  0.0000E+00  0.0000E+00  0.1272E+04  0.1272E+04
      6.166  0.0000E+00  0.0000E+00  0.1272E+04  0.1272E+04
      6.218  0.0000E+00  0.0000E+00  0.1272E+04  0.1272E+04
      6.271  0.0000E+00  0.0000E+00  0.1272E+04  0.1272E+04
      6.323  0.0000E+00  0.0000E+00  0.1272E+04  0.1272E+04
      6.376  0.0000E+00  0.0000E+00  0.1272E+04  0.1272E+04
      6.429  0.0000E+00  0.0000E+00  0.1272E+04  0.1272E+04
      6.481  0.0000E+00  0.0000E+00  0.1272E+04  0.1272E+04
      6.534  0.0000E+00  0.0000E+00  0.1272E+04  0.1272E+04
      6.586  0.0000E+00  0.0000E+00  0.1272E+04  0.1272E+04
      6.639  0.0000E+00  0.0000E+00  0.1272E+04  0.1272E+04
