Si and Ge interface calculation         
           1
    13.303180    0.000000    0.000000
     6.651589   14.873406    0.000000
     0.000000    0.000000    7.994750
   Si   C 
    36    84
Direct configuration=     1
   0.28324950  0.64162475  0.00000005
   0.81658280  0.40829128  0.15190087
   0.34991598  0.17495777  0.30380175
   0.61658275  0.30829138  0.00000006
   0.14991605  0.07495793  0.15190087
   0.68324923  0.84162444  0.30380171
   0.94991612  0.97495806  0.00000004
   0.48324949  0.74162459  0.15190087
   0.01658267  0.50829112  0.30380171
   0.79991627  0.77495801  0.07595031
   0.33324951  0.54162455  0.22785117
   0.86658275  0.30829108  0.37975204
   0.13324969  0.44162476  0.07595033
   0.66658294  0.20829128  0.22785117
   0.19991624  0.97495776  0.37975204
   0.46658289  0.10829154  0.07595033
   0.99991614  0.87495804  0.22785117
   0.53324938  0.64162457  0.37975204
   0.78324956  0.64162475  0.00000000
   0.31658283  0.40829128  0.15190086
   0.84991604  0.17495778  0.30380175
   0.11658280  0.30829140  0.00000006
   0.64991605  0.07495795  0.15190090
   0.18324930  0.84162450  0.30380175
   0.44991612  0.97495806  0.00000006
   0.98324943  0.74162459  0.15190090
   0.51658267  0.50829112  0.30380175
   0.29991618  0.77495813  0.07595033
   0.83324945  0.54162467  0.22785120
   0.36658269  0.30829120  0.37975201
   0.63324940  0.44162473  0.07595035
   0.16658264  0.20829126  0.22785120
   0.69991595  0.97495782  0.37975198
   0.96658272  0.10829155  0.07595033
   0.49991596  0.87495804  0.22785120
   0.03324926  0.64162463  0.37975204
   0.02738368  0.14501810  0.56517535
   0.99881208  0.41644672  0.66493601
   0.97024047  0.68787533  0.76469654
   0.17024078  0.28787524  0.56517535
   0.14166921  0.55930388  0.66493601
   0.11309769  0.83073252  0.76469654
   0.31309792  0.43073240  0.56517535
   0.28452635  0.70216101  0.66493601
   0.25595483  0.97358972  0.76469660
   0.45595506  0.57358956  0.56517535
   0.42738351  0.84501821  0.66493601
   0.39881197  0.11644685  0.76469660
   0.59881222  0.71644670  0.56517535
   0.57024062  0.98787528  0.66493601
   0.54166901  0.25930393  0.76469660
   0.74166930  0.85930377  0.56517535
   0.71309781  0.13073242  0.66493601
   0.68452620  0.40216100  0.76469654
   0.88452649  0.00216103  0.56517535
   0.85595500  0.27358961  0.66493601
   0.82738328  0.54501820  0.76469660
   0.12024082  0.88787508  0.61505556
   0.09166928  0.15930367  0.71481621
   0.06309778  0.43073237  0.81457681
   0.26309791  0.03073239  0.61505556
   0.23452637  0.30216098  0.71481615
   0.20595480  0.57358968  0.81457681
   0.40595508  0.17358947  0.61505556
   0.37738350  0.44501817  0.71481615
   0.34881189  0.71644676  0.81457681
   0.54881215  0.31644654  0.61505556
   0.52024066  0.58787519  0.71481621
   0.49166903  0.85930371  0.81457681
   0.69166935  0.45930383  0.61505556
   0.66309774  0.73073244  0.71481621
   0.63452625  0.00216115  0.81457681
   0.83452642  0.60216093  0.61505556
   0.80595493  0.87358957  0.71481621
   0.77738345  0.14501822  0.81457681
   0.97738361  0.74501806  0.61505556
   0.94881213  0.01644671  0.71481621
   0.92024052  0.28787518  0.81457681
   0.09881217  0.71644664  0.56517535
   0.07024065  0.98787528  0.66493601
   0.04166907  0.25930393  0.76469654
   0.24166931  0.85930377  0.56517535
   0.21309778  0.13073242  0.66493601
   0.18452629  0.40216112  0.76469660
   0.38452652  0.00216091  0.56517535
   0.35595500  0.27358961  0.66493601
   0.32738337  0.54501820  0.76469654
   0.52738368  0.14501810  0.56517535
   0.49881205  0.41644672  0.66493601
   0.47024053  0.68787533  0.76469660
   0.67024076  0.28787518  0.56517535
   0.64166927  0.55930382  0.66493601
   0.61309767  0.83073246  0.76469660
   0.81309795  0.43073240  0.56517535
   0.78452635  0.70216101  0.66493601
   0.75595486  0.97358966  0.76469660
   0.95595515  0.57358950  0.56517535
   0.92738354  0.84501815  0.66493601
   0.89881194  0.11644673  0.76469660
   0.04881220  0.31644657  0.61505556
   0.02024066  0.58787519  0.71481615
   0.99166906  0.85930383  0.81457681
   0.19166936  0.45930362  0.61505556
   0.16309781  0.73073226  0.71481621
   0.13452628  0.00216091  0.81457681
   0.33452648  0.60216093  0.61505556
   0.30595493  0.87358952  0.71481621
   0.27738336  0.14501810  0.81457681
   0.47738364  0.74501800  0.61505556
   0.44881207  0.01644659  0.71481615
   0.42024055  0.28787518  0.81457681
   0.62024069  0.88787502  0.61505556
   0.59166920  0.15930367  0.71481615
   0.56309771  0.43073237  0.81457681
   0.76309788  0.03073227  0.61505556
   0.73452628  0.30216098  0.71481621
   0.70595479  0.57358944  0.81457681
   0.90595508  0.17358935  0.61505556
   0.87738347  0.44501793  0.71481615
   0.84881187  0.71644652  0.81457681
