 120 120   0   0
  0.1155272E+02  0.1330318E-08  0.1629300E-08  0.7006475E-09  0.5000000E-15
  1.000000000000000E-004
  CAR 
 Si and Ge interface calculation         
      9.53793634    -14.24450533  301      5.66793729      1.00000000
    -14.245  0.0000E+00  0.0000E+00  0.0000E+00  0.0000E+00
    -14.165  0.0000E+00  0.0000E+00  0.0000E+00  0.0000E+00
    -14.086  0.0000E+00  0.0000E+00  0.0000E+00  0.0000E+00
    -14.007  0.0000E+00  0.0000E+00  0.0000E+00  0.0000E+00
    -13.927  0.0000E+00  0.0000E+00  0.0000E+00  0.0000E+00
    -13.848  0.0000E+00  0.0000E+00  0.0000E+00  0.0000E+00
    -13.769  0.0000E+00  0.0000E+00  0.0000E+00  0.0000E+00
    -13.690  0.0000E+00  0.0000E+00  0.0000E+00  0.0000E+00
    -13.610  0.0000E+00  0.0000E+00  0.0000E+00  0.0000E+00
    -13.531  0.0000E+00  0.0000E+00  0.0000E+00  0.0000E+00
    -13.452  0.0000E+00  0.0000E+00  0.0000E+00  0.0000E+00
    -13.372  0.0000E+00  0.0000E+00  0.0000E+00  0.0000E+00
    -13.293  0.0000E+00  0.0000E+00  0.0000E+00  0.0000E+00
    -13.214  0.5297E-12  0.0000E+00  0.4199E-13  0.0000E+00
    -13.135  0.4203E+01  0.4129E+01  0.3332E+00  0.3273E+00
    -13.055  0.1464E+02  0.9883E+01  0.1494E+01  0.1117E+01
    -12.976  0.8912E+01  0.1534E+02  0.2333E+01  0.2333E+01
    -12.897  0.1913E+02  0.1532E+02  0.3850E+01  0.3548E+01
    -12.818  0.6508E+01  0.8133E+01  0.4380E+01  0.4335E+01
    -12.738  0.2427E+02  0.2226E+02  0.6304E+01  0.6100E+01
    -12.659  0.1674E+02  0.1639E+02  0.7661E+01  0.7580E+01
    -12.580  0.8409E+01  0.8409E+01  0.8333E+01  0.8333E+01
    -12.500  0.9071E+01  0.8482E+01  0.9052E+01  0.9006E+01
    -12.421  0.1608E+02  0.1575E+02  0.1033E+02  0.1025E+02
    -12.342  0.1690E+02  0.1682E+02  0.1167E+02  0.1167E+02
    -12.263  0.8329E+01  0.8406E+01  0.1233E+02  0.1233E+02
    -12.183  0.6038E-09  0.4108E-12  0.1233E+02  0.1233E+02
    -12.104  0.1164E+02  0.6004E+01  0.1326E+02  0.1281E+02
    -12.025  0.1801E+02  0.2382E+02  0.1486E+02  0.1470E+02
    -11.946  0.5996E+01  0.8017E+01  0.1533E+02  0.1533E+02
    -11.866  0.1233E+02  0.9602E+01  0.1631E+02  0.1609E+02
    -11.787  0.2076E+02  0.2199E+02  0.1800E+02  0.1800E+02
    -11.708  0.1271E+02  0.1258E+02  0.1901E+02  0.1900E+02
    -11.628  0.2090E+02  0.2061E+02  0.2066E+02  0.2063E+02
    -11.549  0.1261E+02  0.1259E+02  0.2167E+02  0.2167E+02
    -11.470  0.1257E+02  0.1205E+02  0.2266E+02  0.2262E+02
    -11.391  0.8616E+01  0.8423E+01  0.2335E+02  0.2333E+02
    -11.311  0.1661E+02  0.1675E+02  0.2467E+02  0.2466E+02
    -11.232  0.1676E+02  0.1602E+02  0.2600E+02  0.2594E+02
    -11.153  0.1224E+02  0.1085E+02  0.2697E+02  0.2686E+02
    -11.074  0.4204E+01  0.4205E+01  0.2733E+02  0.2733E+02
    -10.994  0.7779E+01  0.5912E+01  0.2795E+02  0.2780E+02
    -10.915  0.0000E+00  0.2498E+01  0.2800E+02  0.2800E+02
    -10.836  0.2961E-05  0.1209E-08  0.2800E+02  0.2800E+02
    -10.756  0.5127E+01  0.4282E+01  0.2841E+02  0.2834E+02
    -10.677  0.3283E+01  0.4128E+01  0.2867E+02  0.2867E+02
    -10.598  0.4205E+01  0.4196E+01  0.2900E+02  0.2900E+02
    -10.519  0.8406E+01  0.8221E+01  0.2967E+02  0.2965E+02
    -10.439  0.1059E+02  0.8617E+01  0.3051E+02  0.3035E+02
    -10.360  0.2366E+02  0.2210E+02  0.3238E+02  0.3210E+02
    -10.281  0.7116E+01  0.1077E+02  0.3300E+02  0.3300E+02
    -10.201  0.2520E+02  0.1698E+02  0.3500E+02  0.3435E+02
    -10.122  0.2669E+02  0.2995E+02  0.3720E+02  0.3685E+02
    -10.043  0.1213E+02  0.1277E+02  0.3829E+02  0.3805E+02
     -9.964  0.1817E+02  0.1592E+02  0.3977E+02  0.3949E+02
     -9.884  0.4345E+01  0.1062E+02  0.4034E+02  0.4033E+02
     -9.805  0.8269E+01  0.8401E+01  0.4100E+02  0.4100E+02
     -9.726  0.8433E+01  0.8409E+01  0.4167E+02  0.4167E+02
     -9.647  0.4182E+01  0.4204E+01  0.4200E+02  0.4200E+02
     -9.567  0.1963E+02  0.1745E+02  0.4356E+02  0.4338E+02
     -9.488  0.2486E+02  0.2713E+02  0.4566E+02  0.4553E+02
     -9.409  0.0000E+00  0.0000E+00  0.4567E+02  0.4567E+02
     -9.329  0.1102E+02  0.5606E+01  0.4654E+02  0.4611E+02
     -9.250  0.8470E+01  0.1350E+02  0.4733E+02  0.4733E+02
     -9.171  0.1159E+02  0.8327E+01  0.4825E+02  0.4799E+02
     -9.092  0.8409E+01  0.1204E+02  0.4900E+02  0.4899E+02
     -9.012  0.5790E+00  0.1392E-01  0.4905E+02  0.4900E+02
     -8.933  0.1719E+02  0.1401E+02  0.5041E+02  0.5011E+02
     -8.854  0.2294E+02  0.2092E+02  0.5228E+02  0.5186E+02
     -8.775  0.8410E+01  0.1300E+02  0.5300E+02  0.5300E+02
     -8.695  0.2997E+01  0.2034E+01  0.5324E+02  0.5316E+02
     -8.616  0.2964E+02  0.2756E+02  0.5559E+02  0.5536E+02
     -8.537  0.1601E+02  0.1966E+02  0.5693E+02  0.5692E+02
     -8.457  0.2342E+02  0.1929E+02  0.5879E+02  0.5845E+02
     -8.378  0.2815E+02  0.2143E+02  0.6106E+02  0.6020E+02
     -8.299  0.2229E+02  0.3483E+02  0.6301E+02  0.6300E+02
     -8.220  0.8053E+01  0.5464E+01  0.6365E+02  0.6343E+02
     -8.140  0.2679E+02  0.2420E+02  0.6580E+02  0.6538E+02
     -8.061  0.1380E+02  0.1808E+02  0.6701E+02  0.6693E+02
     -7.982  0.2285E+02  0.1826E+02  0.6883E+02  0.6845E+02
     -7.903  0.2235E+02  0.2567E+02  0.7072E+02  0.7052E+02
     -7.823  0.1956E+02  0.1908E+02  0.7231E+02  0.7204E+02
     -7.744  0.1695E+02  0.1961E+02  0.7367E+02  0.7364E+02
     -7.665  0.1107E+02  0.4945E+01  0.7454E+02  0.7406E+02
     -7.585  0.1681E+02  0.2308E+02  0.7600E+02  0.7595E+02
     -7.506  0.1180E+02  0.1009E+02  0.7694E+02  0.7675E+02
     -7.427  0.9110E+01  0.1075E+02  0.7766E+02  0.7760E+02
     -7.348  0.9279E+01  0.4834E+01  0.7840E+02  0.7801E+02
     -7.268  0.1062E+02  0.1633E+02  0.7933E+02  0.7933E+02
     -7.189  0.7531E+01  0.3612E+01  0.7993E+02  0.7962E+02
     -7.110  0.1633E+02  0.1693E+02  0.8130E+02  0.8098E+02
     -7.030  0.8410E+01  0.1151E+02  0.8200E+02  0.8200E+02
     -6.951  0.1575E-05  0.4598E-10  0.8200E+02  0.8200E+02
     -6.872  0.6436E+01  0.4245E+01  0.8251E+02  0.8234E+02
     -6.793  0.2195E+01  0.4227E+01  0.8272E+02  0.8267E+02
     -6.713  0.4707E+01  0.4182E+01  0.8313E+02  0.8301E+02
     -6.634  0.1103E+02  0.1254E+02  0.8400E+02  0.8400E+02
     -6.555  0.8406E+01  0.8070E+01  0.8467E+02  0.8464E+02
     -6.476  0.7649E+01  0.4838E+01  0.8527E+02  0.8505E+02
     -6.396  0.8334E+01  0.1070E+02  0.8599E+02  0.8596E+02
     -6.317  0.8127E-01  0.3233E-02  0.8601E+02  0.8600E+02
     -6.238  0.1863E+02  0.1704E+02  0.8748E+02  0.8735E+02
     -6.158  0.8620E+01  0.1023E+02  0.8823E+02  0.8816E+02
     -6.079  0.7395E+01  0.6777E+01  0.8882E+02  0.8871E+02
     -6.000  0.2078E+02  0.2037E+02  0.9047E+02  0.9033E+02
     -5.921  0.2930E+02  0.2738E+02  0.9280E+02  0.9259E+02
     -5.841  0.2059E+02  0.1957E+02  0.9447E+02  0.9424E+02
     -5.762  0.2192E+02  0.2425E+02  0.9626E+02  0.9616E+02
     -5.683  0.2491E+02  0.2130E+02  0.9824E+02  0.9786E+02
     -5.604  0.2199E+02  0.2314E+02  0.1001E+03  0.9974E+02
     -5.524  0.1495E+02  0.1666E+02  0.1013E+03  0.1011E+03
     -5.445  0.2082E+02  0.2159E+02  0.1030E+03  0.1028E+03
     -5.366  0.1476E+02  0.1571E+02  0.1043E+03  0.1041E+03
     -5.286  0.1728E+02  0.1822E+02  0.1057E+03  0.1055E+03
     -5.207  0.2907E+02  0.2527E+02  0.1080E+03  0.1077E+03
     -5.128  0.1171E+02  0.1362E+02  0.1090E+03  0.1089E+03
     -5.049  0.1187E+02  0.9917E+01  0.1099E+03  0.1098E+03
     -4.969  0.1250E+02  0.1165E+02  0.1110E+03  0.1108E+03
     -4.890  0.3586E+02  0.3550E+02  0.1139E+03  0.1136E+03
     -4.811  0.1093E+02  0.9262E+01  0.1149E+03  0.1145E+03
     -4.732  0.6320E+01  0.1155E+02  0.1154E+03  0.1154E+03
     -4.652  0.3352E+02  0.2899E+02  0.1181E+03  0.1177E+03
     -4.573  0.2563E+02  0.2885E+02  0.1202E+03  0.1200E+03
     -4.494  0.3138E+02  0.2699E+02  0.1227E+03  0.1223E+03
     -4.414  0.3951E+02  0.3898E+02  0.1260E+03  0.1255E+03
     -4.335  0.2741E+02  0.2998E+02  0.1283E+03  0.1280E+03
     -4.256  0.2035E+02  0.1972E+02  0.1299E+03  0.1296E+03
     -4.177  0.3286E+02  0.3117E+02  0.1326E+03  0.1322E+03
     -4.097  0.2416E+02  0.2648E+02  0.1346E+03  0.1343E+03
     -4.018  0.1886E+02  0.2026E+02  0.1362E+03  0.1360E+03
     -3.939  0.2957E+02  0.2903E+02  0.1385E+03  0.1383E+03
     -3.860  0.1210E+02  0.9124E+01  0.1395E+03  0.1392E+03
     -3.780  0.3502E+02  0.3641E+02  0.1424E+03  0.1421E+03
     -3.701  0.2962E+02  0.2979E+02  0.1449E+03  0.1445E+03
     -3.622  0.2738E+02  0.2955E+02  0.1472E+03  0.1469E+03
     -3.542  0.2605E+02  0.2563E+02  0.1494E+03  0.1490E+03
     -3.463  0.1180E+02  0.1607E+02  0.1504E+03  0.1504E+03
     -3.384  0.1961E+02  0.1815E+02  0.1520E+03  0.1519E+03
     -3.305  0.3119E+02  0.2803E+02  0.1545E+03  0.1541E+03
     -3.225  0.3557E+02  0.3753E+02  0.1574E+03  0.1571E+03
     -3.146  0.2261E+02  0.2178E+02  0.1593E+03  0.1589E+03
     -3.067  0.3973E+02  0.4229E+02  0.1626E+03  0.1624E+03
     -2.987  0.3045E+02  0.3077E+02  0.1651E+03  0.1649E+03
     -2.908  0.2833E+02  0.2934E+02  0.1674E+03  0.1673E+03
     -2.829  0.2895E+02  0.2612E+02  0.1698E+03  0.1693E+03
     -2.750  0.2161E+02  0.2609E+02  0.1716E+03  0.1715E+03
     -2.670  0.3328E+02  0.3022E+02  0.1743E+03  0.1740E+03
     -2.591  0.2307E+02  0.2449E+02  0.1761E+03  0.1760E+03
     -2.512  0.2718E+02  0.2410E+02  0.1783E+03  0.1779E+03
     -2.433  0.2997E+02  0.3206E+02  0.1808E+03  0.1805E+03
     -2.353  0.3251E+02  0.3206E+02  0.1834E+03  0.1832E+03
     -2.274  0.1787E+02  0.1486E+02  0.1849E+03  0.1846E+03
     -2.195  0.2173E+02  0.2403E+02  0.1867E+03  0.1865E+03
     -2.115  0.2724E+02  0.2611E+02  0.1889E+03  0.1886E+03
     -2.036  0.2835E+02  0.2918E+02  0.1912E+03  0.1910E+03
     -1.957  0.3272E+02  0.3439E+02  0.1939E+03  0.1938E+03
     -1.878  0.2589E+02  0.2283E+02  0.1960E+03  0.1957E+03
     -1.798  0.3464E+02  0.3579E+02  0.1988E+03  0.1985E+03
     -1.719  0.3228E+02  0.3045E+02  0.2015E+03  0.2011E+03
     -1.640  0.2688E+02  0.3080E+02  0.2038E+03  0.2035E+03
     -1.561  0.2198E+02  0.2330E+02  0.2056E+03  0.2054E+03
     -1.481  0.3127E+02  0.3170E+02  0.2081E+03  0.2080E+03
     -1.402  0.3449E+02  0.3224E+02  0.2108E+03  0.2106E+03
     -1.323  0.2930E+02  0.2761E+02  0.2131E+03  0.2129E+03
     -1.243  0.2619E+02  0.2523E+02  0.2153E+03  0.2150E+03
     -1.164  0.2093E+02  0.2003E+02  0.2170E+03  0.2167E+03
     -1.085  0.2968E+02  0.3089E+02  0.2194E+03  0.2192E+03
     -1.006  0.2443E+02  0.2443E+02  0.2214E+03  0.2212E+03
     -0.926  0.4135E+02  0.3795E+02  0.2247E+03  0.2243E+03
     -0.847  0.4149E+02  0.4278E+02  0.2281E+03  0.2278E+03
     -0.768  0.3353E+02  0.3132E+02  0.2309E+03  0.2303E+03
     -0.689  0.2946E+02  0.3362E+02  0.2334E+03  0.2331E+03
     -0.609  0.3188E+02  0.3008E+02  0.2360E+03  0.2356E+03
     -0.530  0.3091E+02  0.3204E+02  0.2385E+03  0.2382E+03
     -0.451  0.3387E+02  0.3460E+02  0.2413E+03  0.2410E+03
     -0.371  0.3375E+02  0.2969E+02  0.2440E+03  0.2435E+03
     -0.292  0.3557E+02  0.3764E+02  0.2470E+03  0.2466E+03
     -0.213  0.3976E+02  0.3856E+02  0.2503E+03  0.2498E+03
     -0.134  0.3599E+02  0.3755E+02  0.2532E+03  0.2530E+03
     -0.054  0.4212E+02  0.3857E+02  0.2566E+03  0.2561E+03
      0.025  0.3355E+02  0.3580E+02  0.2594E+03  0.2590E+03
      0.104  0.2988E+02  0.3277E+02  0.2619E+03  0.2617E+03
      0.184  0.3496E+02  0.3239E+02  0.2647E+03  0.2643E+03
      0.263  0.4018E+02  0.4059E+02  0.2680E+03  0.2676E+03
      0.342  0.3179E+02  0.2994E+02  0.2705E+03  0.2701E+03
      0.421  0.3964E+02  0.3682E+02  0.2738E+03  0.2731E+03
      0.501  0.2923E+02  0.3536E+02  0.2763E+03  0.2761E+03
      0.580  0.3496E+02  0.3336E+02  0.2791E+03  0.2789E+03
      0.659  0.4180E+02  0.4060E+02  0.2826E+03  0.2821E+03
      0.738  0.3795E+02  0.4136E+02  0.2858E+03  0.2855E+03
      0.818  0.4478E+02  0.4137E+02  0.2894E+03  0.2889E+03
      0.897  0.4725E+02  0.4423E+02  0.2932E+03  0.2925E+03
      0.976  0.4418E+02  0.4715E+02  0.2968E+03  0.2964E+03
      1.056  0.3220E+02  0.3200E+02  0.2995E+03  0.2991E+03
      1.135  0.3700E+02  0.3619E+02  0.3025E+03  0.3021E+03
      1.214  0.3370E+02  0.3278E+02  0.3052E+03  0.3049E+03
      1.293  0.4026E+02  0.3523E+02  0.3084E+03  0.3078E+03
      1.373  0.3851E+02  0.3664E+02  0.3115E+03  0.3109E+03
      1.452  0.3746E+02  0.3835E+02  0.3147E+03  0.3140E+03
      1.531  0.3850E+02  0.4426E+02  0.3180E+03  0.3176E+03
      1.610  0.3497E+02  0.3680E+02  0.3209E+03  0.3205E+03
      1.690  0.3590E+02  0.3431E+02  0.3238E+03  0.3234E+03
      1.769  0.3741E+02  0.3633E+02  0.3268E+03  0.3264E+03
      1.848  0.3331E+02  0.3290E+02  0.3296E+03  0.3291E+03
      1.928  0.2631E+02  0.3015E+02  0.3318E+03  0.3315E+03
      2.007  0.4426E+02  0.4178E+02  0.3353E+03  0.3349E+03
      2.086  0.3160E+02  0.3215E+02  0.3379E+03  0.3375E+03
      2.165  0.3743E+02  0.3755E+02  0.3410E+03  0.3406E+03
      2.245  0.3716E+02  0.3955E+02  0.3440E+03  0.3437E+03
      2.324  0.3657E+02  0.3279E+02  0.3470E+03  0.3465E+03
      2.403  0.3895E+02  0.4133E+02  0.3502E+03  0.3499E+03
      2.482  0.4039E+02  0.4118E+02  0.3535E+03  0.3532E+03
      2.562  0.3286E+02  0.3113E+02  0.3561E+03  0.3557E+03
      2.641  0.3975E+02  0.3869E+02  0.3593E+03  0.3589E+03
      2.720  0.2967E+02  0.2651E+02  0.3617E+03  0.3612E+03
      2.800  0.3807E+02  0.3641E+02  0.3648E+03  0.3642E+03
      2.879  0.2942E+02  0.3442E+02  0.3672E+03  0.3670E+03
      2.958  0.4210E+02  0.3524E+02  0.3706E+03  0.3699E+03
      3.037  0.4535E+02  0.4727E+02  0.3742E+03  0.3739E+03
      3.117  0.2890E+02  0.3023E+02  0.3766E+03  0.3763E+03
      3.196  0.4621E+02  0.4155E+02  0.3803E+03  0.3798E+03
      3.275  0.3924E+02  0.3808E+02  0.3835E+03  0.3829E+03
      3.355  0.3514E+02  0.3643E+02  0.3863E+03  0.3858E+03
      3.434  0.4264E+02  0.3981E+02  0.3898E+03  0.3891E+03
      3.513  0.3542E+02  0.3774E+02  0.3928E+03  0.3922E+03
      3.592  0.3656E+02  0.3905E+02  0.3958E+03  0.3954E+03
      3.672  0.3834E+02  0.3700E+02  0.3989E+03  0.3984E+03
      3.751  0.4270E+02  0.4464E+02  0.4024E+03  0.4020E+03
      3.830  0.4164E+02  0.3741E+02  0.4057E+03  0.4050E+03
      3.909  0.4254E+02  0.4618E+02  0.4092E+03  0.4087E+03
      3.989  0.3869E+02  0.3729E+02  0.4123E+03  0.4118E+03
      4.068  0.3719E+02  0.3809E+02  0.4154E+03  0.4149E+03
      4.147  0.4147E+02  0.3765E+02  0.4187E+03  0.4180E+03
      4.227  0.3443E+02  0.3901E+02  0.4216E+03  0.4211E+03
      4.306  0.4277E+02  0.4235E+02  0.4251E+03  0.4246E+03
      4.385  0.4036E+02  0.3517E+02  0.4283E+03  0.4276E+03
      4.464  0.3874E+02  0.3795E+02  0.4315E+03  0.4307E+03
      4.544  0.4246E+02  0.4224E+02  0.4351E+03  0.4341E+03
      4.623  0.3378E+02  0.3757E+02  0.4380E+03  0.4373E+03
      4.702  0.3329E+02  0.3771E+02  0.4407E+03  0.4404E+03
      4.781  0.3560E+02  0.3447E+02  0.4436E+03  0.4432E+03
      4.861  0.4438E+02  0.4074E+02  0.4471E+03  0.4465E+03
      4.940  0.4851E+02  0.4393E+02  0.4511E+03  0.4501E+03
      5.019  0.2826E+02  0.3092E+02  0.4534E+03  0.4526E+03
      5.099  0.3828E+02  0.3538E+02  0.4565E+03  0.4555E+03
      5.178  0.3983E+02  0.4788E+02  0.4598E+03  0.4594E+03
      5.257  0.3980E+02  0.3591E+02  0.4629E+03  0.4622E+03
      5.336  0.5375E+02  0.4407E+02  0.4672E+03  0.4658E+03
      5.416  0.2938E+02  0.4424E+02  0.4698E+03  0.4694E+03
      5.495  0.4426E+02  0.2687E+02  0.4733E+03  0.4716E+03
      5.574  0.4315E+02  0.4270E+02  0.4768E+03  0.4751E+03
      5.653  0.3164E+02  0.4030E+02  0.4794E+03  0.4784E+03
      5.733  0.3954E+02  0.4172E+02  0.4827E+03  0.4818E+03
      5.812  0.5119E+02  0.4011E+02  0.4869E+03  0.4851E+03
      5.891  0.3296E+02  0.4537E+02  0.4896E+03  0.4888E+03
      5.971  0.4092E+02  0.3871E+02  0.4929E+03  0.4919E+03
      6.050  0.3936E+02  0.3968E+02  0.4960E+03  0.4952E+03
      6.129  0.4494E+02  0.3941E+02  0.4997E+03  0.4984E+03
      6.208  0.3635E+02  0.4386E+02  0.5028E+03  0.5020E+03
      6.288  0.3610E+02  0.3420E+02  0.5057E+03  0.5047E+03
      6.367  0.3438E+02  0.3330E+02  0.5085E+03  0.5074E+03
      6.446  0.3700E+02  0.4248E+02  0.5114E+03  0.5109E+03
      6.525  0.3800E+02  0.2943E+02  0.5145E+03  0.5133E+03
      6.605  0.3010E+02  0.3896E+02  0.5171E+03  0.5164E+03
      6.684  0.2629E+02  0.2881E+02  0.5193E+03  0.5188E+03
      6.763  0.3503E+02  0.3344E+02  0.5222E+03  0.5215E+03
      6.843  0.2910E+02  0.3085E+02  0.5245E+03  0.5240E+03
      6.922  0.3799E+02  0.2967E+02  0.5276E+03  0.5264E+03
      7.001  0.2777E+02  0.3634E+02  0.5299E+03  0.5294E+03
      7.080  0.3594E+02  0.3455E+02  0.5328E+03  0.5323E+03
      7.160  0.2591E+02  0.2359E+02  0.5348E+03  0.5342E+03
      7.239  0.3637E+02  0.3638E+02  0.5378E+03  0.5372E+03
      7.318  0.4225E+02  0.4186E+02  0.5412E+03  0.5405E+03
      7.398  0.3792E+02  0.3882E+02  0.5443E+03  0.5436E+03
      7.477  0.4502E+02  0.3958E+02  0.5479E+03  0.5469E+03
      7.556  0.3876E+02  0.4495E+02  0.5511E+03  0.5505E+03
      7.635  0.2995E+02  0.2951E+02  0.5535E+03  0.5530E+03
      7.715  0.3787E+02  0.3224E+02  0.5565E+03  0.5556E+03
      7.794  0.2617E+02  0.3108E+02  0.5586E+03  0.5583E+03
      7.873  0.3403E+02  0.2881E+02  0.5614E+03  0.5606E+03
      7.952  0.3897E+02  0.3457E+02  0.5646E+03  0.5635E+03
      8.032  0.4335E+02  0.4728E+02  0.5683E+03  0.5673E+03
      8.111  0.2531E+02  0.3062E+02  0.5704E+03  0.5699E+03
      8.190  0.3545E+02  0.3773E+02  0.5733E+03  0.5730E+03
      8.270  0.1284E+02  0.1519E+02  0.5744E+03  0.5742E+03
      8.349  0.1146E+02  0.1043E+02  0.5753E+03  0.5752E+03
      8.428  0.6300E+01  0.7379E+01  0.5758E+03  0.5758E+03
      8.507  0.1974E+01  0.3132E+01  0.5760E+03  0.5760E+03
      8.587  0.0000E+00  0.0000E+00  0.5760E+03  0.5760E+03
      8.666  0.0000E+00  0.0000E+00  0.5760E+03  0.5760E+03
      8.745  0.0000E+00  0.0000E+00  0.5760E+03  0.5760E+03
      8.824  0.0000E+00  0.0000E+00  0.5760E+03  0.5760E+03
      8.904  0.0000E+00  0.0000E+00  0.5760E+03  0.5760E+03
      8.983  0.0000E+00  0.0000E+00  0.5760E+03  0.5760E+03
      9.062  0.0000E+00  0.0000E+00  0.5760E+03  0.5760E+03
      9.142  0.0000E+00  0.0000E+00  0.5760E+03  0.5760E+03
      9.221  0.0000E+00  0.0000E+00  0.5760E+03  0.5760E+03
      9.300  0.0000E+00  0.0000E+00  0.5760E+03  0.5760E+03
      9.379  0.0000E+00  0.0000E+00  0.5760E+03  0.5760E+03
      9.459  0.0000E+00  0.0000E+00  0.5760E+03  0.5760E+03
      9.538  0.0000E+00  0.0000E+00  0.5760E+03  0.5760E+03
