 264 264   0   0
  0.2774202E+02  0.1958175E-08  0.1958175E-08  0.1910025E-08  0.5000000E-15
  1.000000000000000E-004
  CAR 
 Si and Ge interface calculation         
      6.63836678     -9.27757858  301      4.04099082      1.00000000
     -9.278  0.0000E+00  0.0000E+00  0.0000E+00  0.0000E+00
     -9.225  0.0000E+00  0.0000E+00  0.0000E+00  0.0000E+00
     -9.171  0.0000E+00  0.0000E+00  0.0000E+00  0.0000E+00
     -9.118  0.0000E+00  0.0000E+00  0.0000E+00  0.0000E+00
     -9.065  0.0000E+00  0.0000E+00  0.0000E+00  0.0000E+00
     -9.012  0.0000E+00  0.0000E+00  0.0000E+00  0.0000E+00
     -8.959  0.0000E+00  0.0000E+00  0.0000E+00  0.0000E+00
     -8.906  0.0000E+00  0.0000E+00  0.0000E+00  0.0000E+00
     -8.853  0.0000E+00  0.0000E+00  0.0000E+00  0.0000E+00
     -8.800  0.0000E+00  0.0000E+00  0.0000E+00  0.0000E+00
     -8.747  0.0000E+00  0.0000E+00  0.0000E+00  0.0000E+00
     -8.694  0.0000E+00  0.0000E+00  0.0000E+00  0.0000E+00
     -8.641  0.0000E+00  0.0000E+00  0.0000E+00  0.0000E+00
     -8.588  0.8459E-05  0.2960E-05  0.4488E-06  0.1570E-06
     -8.535  0.1880E+02  0.1825E+02  0.9975E+00  0.9682E+00
     -8.482  0.1890E+02  0.1945E+02  0.2000E+01  0.2000E+01
     -8.429  0.1043E+00  0.6134E-01  0.2006E+01  0.2003E+01
     -8.376  0.1874E+02  0.1877E+02  0.3000E+01  0.2999E+01
     -8.323  0.1708E+02  0.1643E+02  0.3906E+01  0.3871E+01
     -8.270  0.1778E+01  0.2437E+01  0.4000E+01  0.4000E+01
     -8.217  0.1603E+00  0.9377E-01  0.4009E+01  0.4005E+01
     -8.163  0.2169E+02  0.2106E+02  0.5159E+01  0.5123E+01
     -8.110  0.2406E+02  0.2419E+02  0.6436E+01  0.6406E+01
     -8.057  0.2036E+02  0.2081E+02  0.7516E+01  0.7510E+01
     -8.004  0.9123E+01  0.9234E+01  0.8000E+01  0.8000E+01
     -7.951  0.1285E+02  0.1202E+02  0.8682E+01  0.8638E+01
     -7.898  0.1542E+02  0.1625E+02  0.9500E+01  0.9500E+01
     -7.845  0.2025E+02  0.1903E+02  0.1057E+02  0.1051E+02
     -7.792  0.2404E+02  0.2450E+02  0.1185E+02  0.1181E+02
     -7.739  0.2826E+01  0.3594E+01  0.1200E+02  0.1200E+02
     -7.686  0.1939E+02  0.1915E+02  0.1303E+02  0.1302E+02
     -7.633  0.1593E+02  0.1560E+02  0.1387E+02  0.1384E+02
     -7.580  0.2224E+02  0.2181E+02  0.1505E+02  0.1500E+02
     -7.527  0.2257E+02  0.2282E+02  0.1625E+02  0.1621E+02
     -7.474  0.4697E+01  0.5455E+01  0.1650E+02  0.1650E+02
     -7.421  0.9917E+01  0.9751E+01  0.1703E+02  0.1702E+02
     -7.368  0.1516E+02  0.1463E+02  0.1783E+02  0.1779E+02
     -7.315  0.3145E+02  0.3216E+02  0.1950E+02  0.1950E+02
     -7.262  0.1992E+02  0.1958E+02  0.2056E+02  0.2054E+02
     -7.209  0.3667E+02  0.3697E+02  0.2250E+02  0.2250E+02
     -7.155  0.2699E+02  0.2603E+02  0.2393E+02  0.2388E+02
     -7.102  0.3895E+02  0.3992E+02  0.2600E+02  0.2600E+02
     -7.049  0.9485E+01  0.9472E+01  0.2650E+02  0.2650E+02
     -6.996  0.2226E+02  0.1989E+02  0.2769E+02  0.2756E+02
     -6.943  0.5080E+02  0.5054E+02  0.3038E+02  0.3024E+02
     -6.890  0.4850E+02  0.4970E+02  0.3295E+02  0.3287E+02
     -6.837  0.4432E+02  0.4421E+02  0.3530E+02  0.3522E+02
     -6.784  0.3453E+02  0.3346E+02  0.3714E+02  0.3700E+02
     -6.731  0.4366E+02  0.4498E+02  0.3945E+02  0.3938E+02
     -6.678  0.6044E+02  0.5938E+02  0.4266E+02  0.4253E+02
     -6.625  0.2762E+02  0.2839E+02  0.4412E+02  0.4404E+02
     -6.572  0.2759E+02  0.2822E+02  0.4559E+02  0.4554E+02
     -6.519  0.4541E+02  0.4635E+02  0.4800E+02  0.4800E+02
     -6.466  0.2534E+02  0.2413E+02  0.4934E+02  0.4928E+02
     -6.413  0.5383E+02  0.5412E+02  0.5220E+02  0.5215E+02
     -6.360  0.4737E+02  0.4734E+02  0.5471E+02  0.5466E+02
     -6.307  0.5769E+02  0.5685E+02  0.5777E+02  0.5767E+02
     -6.254  0.3943E+02  0.3891E+02  0.5986E+02  0.5974E+02
     -6.200  0.8360E+02  0.8439E+02  0.6430E+02  0.6422E+02
     -6.147  0.3937E+02  0.3987E+02  0.6639E+02  0.6633E+02
     -6.094  0.6577E+02  0.6477E+02  0.6988E+02  0.6977E+02
     -6.041  0.7834E+02  0.7639E+02  0.7403E+02  0.7382E+02
     -5.988  0.7247E+02  0.7432E+02  0.7788E+02  0.7776E+02
     -5.935  0.5293E+02  0.5351E+02  0.8069E+02  0.8060E+02
     -5.882  0.8422E+02  0.8391E+02  0.8515E+02  0.8505E+02
     -5.829  0.5709E+02  0.5674E+02  0.8818E+02  0.8806E+02
     -5.776  0.6221E+02  0.6202E+02  0.9148E+02  0.9135E+02
     -5.723  0.9408E+02  0.9352E+02  0.9647E+02  0.9632E+02
     -5.670  0.8872E+02  0.8885E+02  0.1012E+03  0.1010E+03
     -5.617  0.7068E+02  0.7149E+02  0.1049E+03  0.1048E+03
     -5.564  0.6786E+02  0.6618E+02  0.1085E+03  0.1083E+03
     -5.511  0.8768E+02  0.8866E+02  0.1132E+03  0.1130E+03
     -5.458  0.7482E+02  0.7320E+02  0.1172E+03  0.1169E+03
     -5.405  0.6030E+02  0.6095E+02  0.1204E+03  0.1202E+03
     -5.352  0.7981E+02  0.7995E+02  0.1246E+03  0.1244E+03
     -5.299  0.8535E+02  0.8444E+02  0.1291E+03  0.1289E+03
     -5.246  0.8375E+02  0.8471E+02  0.1336E+03  0.1334E+03
     -5.192  0.5682E+02  0.5729E+02  0.1366E+03  0.1364E+03
     -5.139  0.6350E+02  0.6159E+02  0.1399E+03  0.1397E+03
     -5.086  0.9461E+02  0.9628E+02  0.1450E+03  0.1448E+03
     -5.033  0.7345E+02  0.7332E+02  0.1489E+03  0.1487E+03
     -4.980  0.6758E+02  0.6747E+02  0.1524E+03  0.1523E+03
     -4.927  0.6185E+02  0.6207E+02  0.1557E+03  0.1555E+03
     -4.874  0.7416E+02  0.7422E+02  0.1597E+03  0.1595E+03
     -4.821  0.9543E+02  0.9272E+02  0.1647E+03  0.1644E+03
     -4.768  0.1145E+03  0.1154E+03  0.1708E+03  0.1705E+03
     -4.715  0.1110E+03  0.1113E+03  0.1767E+03  0.1764E+03
     -4.662  0.7930E+02  0.8089E+02  0.1809E+03  0.1807E+03
     -4.609  0.1034E+03  0.1007E+03  0.1864E+03  0.1861E+03
     -4.556  0.1038E+03  0.1032E+03  0.1919E+03  0.1915E+03
     -4.503  0.9463E+02  0.9259E+02  0.1969E+03  0.1965E+03
     -4.450  0.8931E+02  0.8935E+02  0.2016E+03  0.2012E+03
     -4.397  0.1060E+03  0.1077E+03  0.2073E+03  0.2069E+03
     -4.344  0.9286E+02  0.9396E+02  0.2122E+03  0.2119E+03
     -4.291  0.7949E+02  0.7826E+02  0.2164E+03  0.2160E+03
     -4.238  0.6572E+02  0.6799E+02  0.2199E+03  0.2197E+03
     -4.184  0.1048E+03  0.1002E+03  0.2255E+03  0.2250E+03
     -4.131  0.8127E+02  0.8636E+02  0.2298E+03  0.2295E+03
     -4.078  0.7615E+02  0.7550E+02  0.2338E+03  0.2336E+03
     -4.025  0.5812E+02  0.5701E+02  0.2369E+03  0.2366E+03
     -3.972  0.6626E+02  0.7049E+02  0.2404E+03  0.2403E+03
     -3.919  0.3180E+02  0.2830E+02  0.2421E+03  0.2418E+03
     -3.866  0.6223E+02  0.6388E+02  0.2454E+03  0.2452E+03
     -3.813  0.5656E+02  0.5542E+02  0.2484E+03  0.2481E+03
     -3.760  0.4757E+02  0.4885E+02  0.2509E+03  0.2507E+03
     -3.707  0.6972E+02  0.6859E+02  0.2546E+03  0.2544E+03
     -3.654  0.6343E+02  0.6379E+02  0.2580E+03  0.2578E+03
     -3.601  0.8386E+02  0.8025E+02  0.2624E+03  0.2620E+03
     -3.548  0.6205E+02  0.6674E+02  0.2657E+03  0.2656E+03
     -3.495  0.8481E+02  0.8279E+02  0.2702E+03  0.2700E+03
     -3.442  0.7466E+02  0.7577E+02  0.2742E+03  0.2740E+03
     -3.389  0.8576E+02  0.8336E+02  0.2787E+03  0.2784E+03
     -3.336  0.6688E+02  0.6854E+02  0.2823E+03  0.2820E+03
     -3.283  0.7094E+02  0.6943E+02  0.2860E+03  0.2857E+03
     -3.230  0.7206E+02  0.7262E+02  0.2899E+03  0.2896E+03
     -3.176  0.6621E+02  0.6839E+02  0.2934E+03  0.2932E+03
     -3.123  0.8172E+02  0.7966E+02  0.2977E+03  0.2974E+03
     -3.070  0.7138E+02  0.7046E+02  0.3015E+03  0.3012E+03
     -3.017  0.6102E+02  0.6256E+02  0.3047E+03  0.3045E+03
     -2.964  0.8639E+02  0.8507E+02  0.3093E+03  0.3090E+03
     -2.911  0.8537E+02  0.8515E+02  0.3139E+03  0.3135E+03
     -2.858  0.8812E+02  0.8936E+02  0.3185E+03  0.3183E+03
     -2.805  0.9609E+02  0.9431E+02  0.3236E+03  0.3233E+03
     -2.752  0.1053E+03  0.1079E+03  0.3292E+03  0.3290E+03
     -2.699  0.1003E+03  0.9913E+02  0.3345E+03  0.3342E+03
     -2.646  0.1012E+03  0.1018E+03  0.3399E+03  0.3396E+03
     -2.593  0.1196E+03  0.1174E+03  0.3463E+03  0.3459E+03
     -2.540  0.1152E+03  0.1149E+03  0.3524E+03  0.3520E+03
     -2.487  0.1083E+03  0.1080E+03  0.3581E+03  0.3577E+03
     -2.434  0.9642E+02  0.9952E+02  0.3632E+03  0.3630E+03
     -2.381  0.1053E+03  0.1062E+03  0.3688E+03  0.3686E+03
     -2.328  0.1035E+03  0.1000E+03  0.3743E+03  0.3739E+03
     -2.275  0.8469E+02  0.8521E+02  0.3788E+03  0.3784E+03
     -2.222  0.8502E+02  0.8596E+02  0.3833E+03  0.3830E+03
     -2.168  0.3668E+02  0.4142E+02  0.3853E+03  0.3852E+03
     -2.115  0.4591E+02  0.4323E+02  0.3877E+03  0.3875E+03
     -2.062  0.8479E+02  0.8475E+02  0.3922E+03  0.3920E+03
     -2.009  0.8497E+02  0.8391E+02  0.3967E+03  0.3964E+03
     -1.956  0.9538E+02  0.9575E+02  0.4018E+03  0.4015E+03
     -1.903  0.7711E+02  0.7719E+02  0.4058E+03  0.4056E+03
     -1.850  0.7926E+02  0.8104E+02  0.4100E+03  0.4099E+03
     -1.797  0.7578E+02  0.7120E+02  0.4141E+03  0.4137E+03
     -1.744  0.1062E+03  0.1030E+03  0.4197E+03  0.4191E+03
     -1.691  0.8954E+02  0.9479E+02  0.4245E+03  0.4242E+03
     -1.638  0.9252E+02  0.9305E+02  0.4294E+03  0.4291E+03
     -1.585  0.9161E+02  0.9034E+02  0.4342E+03  0.4339E+03
     -1.532  0.7129E+02  0.7445E+02  0.4380E+03  0.4379E+03
     -1.479  0.5738E+02  0.5611E+02  0.4410E+03  0.4408E+03
     -1.426  0.5512E+02  0.5369E+02  0.4440E+03  0.4437E+03
     -1.373  0.5976E+02  0.5911E+02  0.4471E+03  0.4468E+03
     -1.320  0.5958E+02  0.6373E+02  0.4503E+03  0.4502E+03
     -1.267  0.3683E+02  0.3527E+02  0.4523E+03  0.4521E+03
     -1.213  0.6527E+02  0.6382E+02  0.4557E+03  0.4555E+03
     -1.160  0.5884E+02  0.5948E+02  0.4588E+03  0.4586E+03
     -1.107  0.4845E+02  0.5080E+02  0.4614E+03  0.4613E+03
     -1.054  0.5614E+02  0.5496E+02  0.4644E+03  0.4642E+03
     -1.001  0.4720E+02  0.4881E+02  0.4669E+03  0.4668E+03
     -0.948  0.3649E+02  0.3675E+02  0.4688E+03  0.4688E+03
     -0.895  0.6061E+02  0.5573E+02  0.4720E+03  0.4717E+03
     -0.842  0.7193E+02  0.7202E+02  0.4759E+03  0.4755E+03
     -0.789  0.4791E+02  0.5226E+02  0.4784E+03  0.4783E+03
     -0.736  0.5576E+02  0.5251E+02  0.4814E+03  0.4811E+03
     -0.683  0.7566E+02  0.7698E+02  0.4854E+03  0.4852E+03
     -0.630  0.4600E+02  0.4764E+02  0.4878E+03  0.4877E+03
     -0.577  0.2562E+02  0.2606E+02  0.4892E+03  0.4891E+03
     -0.524  0.2039E+02  0.2198E+02  0.4903E+03  0.4903E+03
     -0.471  0.3455E+02  0.3235E+02  0.4921E+03  0.4920E+03
     -0.418  0.2709E+02  0.2681E+02  0.4935E+03  0.4934E+03
     -0.365  0.4222E+02  0.4139E+02  0.4958E+03  0.4956E+03
     -0.312  0.7477E+02  0.7326E+02  0.4997E+03  0.4995E+03
     -0.259  0.8444E+02  0.8395E+02  0.5042E+03  0.5039E+03
     -0.205  0.8714E+02  0.8867E+02  0.5088E+03  0.5086E+03
     -0.152  0.1022E+03  0.1016E+03  0.5143E+03  0.5140E+03
     -0.099  0.1279E+03  0.1284E+03  0.5210E+03  0.5208E+03
     -0.046  0.1162E+03  0.1163E+03  0.5272E+03  0.5270E+03
      0.007  0.9780E+02  0.9784E+02  0.5324E+03  0.5322E+03
      0.060  0.1337E+03  0.1339E+03  0.5395E+03  0.5393E+03
      0.113  0.1171E+03  0.1164E+03  0.5457E+03  0.5455E+03
      0.166  0.8280E+02  0.8439E+02  0.5501E+03  0.5500E+03
      0.219  0.8807E+02  0.8706E+02  0.5548E+03  0.5546E+03
      0.272  0.7059E+02  0.7019E+02  0.5585E+03  0.5583E+03
      0.325  0.8942E+02  0.8664E+02  0.5633E+03  0.5629E+03
      0.378  0.9832E+02  0.9926E+02  0.5685E+03  0.5682E+03
      0.431  0.1191E+03  0.1223E+03  0.5748E+03  0.5746E+03
      0.484  0.7768E+02  0.7805E+02  0.5789E+03  0.5788E+03
      0.537  0.1006E+03  0.9670E+02  0.5843E+03  0.5839E+03
      0.590  0.1311E+03  0.1334E+03  0.5912E+03  0.5910E+03
      0.643  0.1019E+03  0.1007E+03  0.5966E+03  0.5963E+03
      0.696  0.1503E+03  0.1485E+03  0.6046E+03  0.6042E+03
      0.749  0.1423E+03  0.1419E+03  0.6121E+03  0.6117E+03
      0.803  0.1246E+03  0.1261E+03  0.6188E+03  0.6184E+03
      0.856  0.9584E+02  0.9769E+02  0.6238E+03  0.6236E+03
      0.909  0.1190E+03  0.1178E+03  0.6301E+03  0.6299E+03
      0.962  0.1083E+03  0.1074E+03  0.6359E+03  0.6356E+03
      1.015  0.1135E+03  0.1121E+03  0.6419E+03  0.6415E+03
      1.068  0.1542E+03  0.1543E+03  0.6501E+03  0.6497E+03
      1.121  0.1651E+03  0.1644E+03  0.6589E+03  0.6584E+03
      1.174  0.1726E+03  0.1726E+03  0.6680E+03  0.6676E+03
      1.227  0.1859E+03  0.1858E+03  0.6779E+03  0.6774E+03
      1.280  0.1493E+03  0.1504E+03  0.6858E+03  0.6854E+03
      1.333  0.2156E+03  0.2151E+03  0.6972E+03  0.6968E+03
      1.386  0.1596E+03  0.1582E+03  0.7057E+03  0.7052E+03
      1.439  0.1429E+03  0.1432E+03  0.7133E+03  0.7128E+03
      1.492  0.1826E+03  0.1779E+03  0.7230E+03  0.7223E+03
      1.545  0.1923E+03  0.1947E+03  0.7332E+03  0.7326E+03
      1.598  0.1912E+03  0.1906E+03  0.7433E+03  0.7427E+03
      1.651  0.1869E+03  0.1887E+03  0.7532E+03  0.7527E+03
      1.704  0.1891E+03  0.1888E+03  0.7633E+03  0.7627E+03
      1.757  0.1948E+03  0.1959E+03  0.7736E+03  0.7731E+03
      1.811  0.1604E+03  0.1596E+03  0.7821E+03  0.7816E+03
      1.864  0.1542E+03  0.1558E+03  0.7903E+03  0.7899E+03
      1.917  0.1901E+03  0.1894E+03  0.8004E+03  0.7999E+03
      1.970  0.1994E+03  0.1983E+03  0.8109E+03  0.8104E+03
      2.023  0.1563E+03  0.1574E+03  0.8192E+03  0.8188E+03
      2.076  0.2052E+03  0.2015E+03  0.8301E+03  0.8295E+03
      2.129  0.1938E+03  0.1953E+03  0.8404E+03  0.8398E+03
      2.182  0.1709E+03  0.1744E+03  0.8495E+03  0.8491E+03
      2.235  0.1468E+03  0.1430E+03  0.8573E+03  0.8567E+03
      2.288  0.1681E+03  0.1699E+03  0.8662E+03  0.8657E+03
      2.341  0.1641E+03  0.1596E+03  0.8749E+03  0.8741E+03
      2.394  0.1725E+03  0.1752E+03  0.8840E+03  0.8834E+03
      2.447  0.1479E+03  0.1524E+03  0.8919E+03  0.8915E+03
      2.500  0.1525E+03  0.1516E+03  0.9000E+03  0.8996E+03
      2.553  0.1179E+03  0.1180E+03  0.9062E+03  0.9058E+03
      2.606  0.1449E+03  0.1429E+03  0.9139E+03  0.9134E+03
      2.659  0.1403E+03  0.1400E+03  0.9214E+03  0.9208E+03
      2.712  0.1366E+03  0.1296E+03  0.9286E+03  0.9277E+03
      2.765  0.1674E+03  0.1677E+03  0.9375E+03  0.9366E+03
      2.819  0.1113E+03  0.1153E+03  0.9434E+03  0.9427E+03
      2.872  0.1494E+03  0.1518E+03  0.9513E+03  0.9508E+03
      2.925  0.1259E+03  0.1276E+03  0.9580E+03  0.9575E+03
      2.978  0.9551E+02  0.9366E+02  0.9631E+03  0.9625E+03
      3.031  0.1418E+03  0.1389E+03  0.9706E+03  0.9699E+03
      3.084  0.1229E+03  0.1243E+03  0.9771E+03  0.9765E+03
      3.137  0.1081E+03  0.1064E+03  0.9828E+03  0.9821E+03
      3.190  0.1251E+03  0.1229E+03  0.9895E+03  0.9886E+03
      3.243  0.1082E+03  0.1124E+03  0.9952E+03  0.9946E+03
      3.296  0.9824E+02  0.9673E+02  0.1000E+04  0.9997E+03
      3.349  0.1063E+03  0.1129E+03  0.1006E+04  0.1006E+04
      3.402  0.8505E+02  0.8474E+02  0.1011E+04  0.1010E+04
      3.455  0.9108E+02  0.8536E+02  0.1015E+04  0.1015E+04
      3.508  0.8449E+02  0.9231E+02  0.1020E+04  0.1020E+04
      3.561  0.8958E+02  0.8229E+02  0.1025E+04  0.1024E+04
      3.614  0.1123E+03  0.1123E+03  0.1031E+04  0.1030E+04
      3.667  0.6401E+02  0.6722E+02  0.1034E+04  0.1034E+04
      3.720  0.5795E+02  0.6028E+02  0.1037E+04  0.1037E+04
      3.773  0.4098E+02  0.3949E+02  0.1039E+04  0.1039E+04
      3.827  0.5678E+02  0.6101E+02  0.1042E+04  0.1042E+04
      3.880  0.3121E+02  0.3168E+02  0.1044E+04  0.1044E+04
      3.933  0.5404E+02  0.3945E+02  0.1047E+04  0.1046E+04
      3.986  0.7132E+02  0.7610E+02  0.1051E+04  0.1050E+04
      4.039  0.1077E+03  0.9008E+02  0.1056E+04  0.1055E+04
      4.092  0.1144E+03  0.1189E+03  0.1062E+04  0.1061E+04
      4.145  0.7252E+02  0.8991E+02  0.1066E+04  0.1066E+04
      4.198  0.9148E+02  0.8692E+02  0.1071E+04  0.1070E+04
      4.251  0.9425E+02  0.9406E+02  0.1076E+04  0.1075E+04
      4.304  0.9905E+02  0.9786E+02  0.1081E+04  0.1081E+04
      4.357  0.1301E+03  0.1255E+03  0.1088E+04  0.1087E+04
      4.410  0.1194E+03  0.1192E+03  0.1095E+04  0.1094E+04
      4.463  0.1146E+03  0.1203E+03  0.1101E+04  0.1100E+04
      4.516  0.1050E+03  0.1044E+03  0.1106E+04  0.1105E+04
      4.569  0.1011E+03  0.1027E+03  0.1112E+04  0.1111E+04
      4.622  0.1035E+03  0.1042E+03  0.1117E+04  0.1116E+04
      4.675  0.1237E+03  0.1217E+03  0.1124E+04  0.1123E+04
      4.728  0.1077E+03  0.1103E+03  0.1129E+04  0.1129E+04
      4.782  0.1129E+03  0.1125E+03  0.1135E+04  0.1135E+04
      4.835  0.1174E+03  0.1204E+03  0.1142E+04  0.1141E+04
      4.888  0.1241E+03  0.1130E+03  0.1148E+04  0.1147E+04
      4.941  0.1288E+03  0.1335E+03  0.1155E+04  0.1154E+04
      4.994  0.1210E+03  0.1188E+03  0.1161E+04  0.1160E+04
      5.047  0.1171E+03  0.1196E+03  0.1168E+04  0.1167E+04
      5.100  0.1251E+03  0.1331E+03  0.1174E+04  0.1174E+04
      5.153  0.9131E+02  0.8955E+02  0.1179E+04  0.1179E+04
      5.206  0.9763E+02  0.9818E+02  0.1184E+04  0.1184E+04
      5.259  0.1151E+03  0.1136E+03  0.1190E+04  0.1190E+04
      5.312  0.1099E+03  0.1086E+03  0.1196E+04  0.1196E+04
      5.365  0.1196E+03  0.1207E+03  0.1203E+04  0.1202E+04
      5.418  0.1384E+03  0.1342E+03  0.1210E+04  0.1209E+04
      5.471  0.1574E+03  0.1609E+03  0.1218E+04  0.1218E+04
      5.524  0.1361E+03  0.1349E+03  0.1225E+04  0.1225E+04
      5.577  0.1439E+03  0.1464E+03  0.1233E+04  0.1233E+04
      5.630  0.1347E+03  0.1365E+03  0.1240E+04  0.1240E+04
      5.683  0.1126E+03  0.1138E+03  0.1246E+04  0.1246E+04
      5.736  0.1304E+03  0.1257E+03  0.1253E+04  0.1253E+04
      5.790  0.1189E+03  0.1211E+03  0.1259E+04  0.1259E+04
      5.843  0.1192E+03  0.1184E+03  0.1266E+04  0.1265E+04
      5.896  0.9573E+02  0.9950E+02  0.1271E+04  0.1271E+04
      5.949  0.2189E+02  0.2781E+02  0.1272E+04  0.1272E+04
      6.002  0.0000E+00  0.0000E+00  0.1272E+04  0.1272E+04
      6.055  0.0000E+00  0.0000E+00  0.1272E+04  0.1272E+04
      6.108  0.0000E+00  0.0000E+00  0.1272E+04  0.1272E+04
      6.161  0.0000E+00  0.0000E+00  0.1272E+04  0.1272E+04
      6.214  0.0000E+00  0.0000E+00  0.1272E+04  0.1272E+04
      6.267  0.0000E+00  0.0000E+00  0.1272E+04  0.1272E+04
      6.320  0.0000E+00  0.0000E+00  0.1272E+04  0.1272E+04
      6.373  0.0000E+00  0.0000E+00  0.1272E+04  0.1272E+04
      6.426  0.0000E+00  0.0000E+00  0.1272E+04  0.1272E+04
      6.479  0.0000E+00  0.0000E+00  0.1272E+04  0.1272E+04
      6.532  0.0000E+00  0.0000E+00  0.1272E+04  0.1272E+04
      6.585  0.0000E+00  0.0000E+00  0.1272E+04  0.1272E+04
      6.638  0.0000E+00  0.0000E+00  0.1272E+04  0.1272E+04
