 120 120   0   0
  0.2648796E+02  0.9406768E-09  0.1330318E-08  0.2540001E-08  0.5000000E-15
  1.000000000000000E-004
  CAR 
 Si and Ge interface calculation         
      7.19257588     -8.42708001  301      4.32507080      1.00000000
     -8.427  0.0000E+00  0.0000E+00  0.0000E+00  0.0000E+00
     -8.375  0.0000E+00  0.0000E+00  0.0000E+00  0.0000E+00
     -8.323  0.0000E+00  0.0000E+00  0.0000E+00  0.0000E+00
     -8.271  0.0000E+00  0.0000E+00  0.0000E+00  0.0000E+00
     -8.219  0.0000E+00  0.0000E+00  0.0000E+00  0.0000E+00
     -8.167  0.0000E+00  0.0000E+00  0.0000E+00  0.0000E+00
     -8.115  0.0000E+00  0.0000E+00  0.0000E+00  0.0000E+00
     -8.063  0.0000E+00  0.0000E+00  0.0000E+00  0.0000E+00
     -8.011  0.0000E+00  0.0000E+00  0.0000E+00  0.0000E+00
     -7.958  0.0000E+00  0.0000E+00  0.0000E+00  0.0000E+00
     -7.906  0.0000E+00  0.0000E+00  0.0000E+00  0.0000E+00
     -7.854  0.0000E+00  0.0000E+00  0.0000E+00  0.0000E+00
     -7.802  0.0000E+00  0.0000E+00  0.0000E+00  0.0000E+00
     -7.750  0.8933E-05  0.1422E-07  0.4651E-06  0.7405E-09
     -7.698  0.6378E+01  0.5971E+01  0.3321E+00  0.3109E+00
     -7.646  0.2374E-01  0.4307E+00  0.3333E+00  0.3333E+00
     -7.594  0.2463E+01  0.1356E+00  0.4615E+00  0.3404E+00
     -7.542  0.2315E+02  0.2546E+02  0.1667E+01  0.1666E+01
     -7.490  0.2332E+00  0.1242E-01  0.1679E+01  0.1667E+01
     -7.438  0.3172E+02  0.2983E+02  0.3330E+01  0.3220E+01
     -7.386  0.1667E+00  0.2185E+01  0.3339E+01  0.3333E+01
     -7.334  0.3124E+02  0.2434E+02  0.4966E+01  0.4601E+01
     -7.282  0.1346E+02  0.2047E+02  0.5667E+01  0.5667E+01
     -7.230  0.2224E+02  0.1631E+02  0.6824E+01  0.6516E+01
     -7.178  0.3371E+01  0.9304E+01  0.7000E+01  0.7000E+01
     -7.125  0.2312E+01  0.8214E+00  0.7120E+01  0.7043E+01
     -7.073  0.1523E+02  0.1338E+02  0.7913E+01  0.7739E+01
     -7.021  0.2051E+02  0.2180E+02  0.8981E+01  0.8875E+01
     -6.969  0.1212E+02  0.9989E+01  0.9612E+01  0.9395E+01
     -6.917  0.2666E+02  0.3081E+02  0.1100E+02  0.1100E+02
     -6.865  0.1049E-02  0.2542E-01  0.1100E+02  0.1100E+02
     -6.813  0.1268E+02  0.1182E+02  0.1166E+02  0.1162E+02
     -6.761  0.7150E+01  0.7523E+01  0.1203E+02  0.1201E+02
     -6.709  0.1830E+02  0.1774E+02  0.1298E+02  0.1293E+02
     -6.657  0.3435E+02  0.3053E+02  0.1477E+02  0.1452E+02
     -6.605  0.1654E+02  0.1991E+02  0.1563E+02  0.1556E+02
     -6.553  0.1340E+02  0.1458E+02  0.1633E+02  0.1632E+02
     -6.501  0.2902E-01  0.3402E+00  0.1633E+02  0.1633E+02
     -6.449  0.1280E+02  0.1279E+02  0.1700E+02  0.1700E+02
     -6.397  0.1497E+01  0.2201E+00  0.1708E+02  0.1701E+02
     -6.344  0.2197E+02  0.2061E+02  0.1822E+02  0.1808E+02
     -6.292  0.1406E+02  0.1529E+02  0.1895E+02  0.1888E+02
     -6.240  0.1391E+02  0.1482E+02  0.1968E+02  0.1965E+02
     -6.188  0.1259E+02  0.1310E+02  0.2033E+02  0.2033E+02
     -6.136  0.3430E+02  0.2661E+02  0.2212E+02  0.2172E+02
     -6.084  0.3024E+02  0.3350E+02  0.2369E+02  0.2346E+02
     -6.032  0.3157E+02  0.3589E+02  0.2534E+02  0.2533E+02
     -5.980  0.4105E+02  0.3903E+02  0.2747E+02  0.2736E+02
     -5.928  0.1629E+02  0.1591E+02  0.2832E+02  0.2819E+02
     -5.876  0.1938E+02  0.1855E+02  0.2933E+02  0.2916E+02
     -5.824  0.1925E+02  0.2257E+02  0.3033E+02  0.3033E+02
     -5.772  0.3158E+02  0.2589E+02  0.3198E+02  0.3168E+02
     -5.720  0.2278E+02  0.2641E+02  0.3316E+02  0.3306E+02
     -5.668  0.9650E+01  0.1171E+02  0.3367E+02  0.3367E+02
     -5.616  0.2492E+02  0.1983E+02  0.3496E+02  0.3470E+02
     -5.563  0.4570E+02  0.4610E+02  0.3734E+02  0.3710E+02
     -5.511  0.4051E+02  0.4312E+02  0.3945E+02  0.3934E+02
     -5.459  0.3352E+02  0.2570E+02  0.4120E+02  0.4068E+02
     -5.407  0.7290E+02  0.8220E+02  0.4499E+02  0.4496E+02
     -5.355  0.1465E+01  0.1047E+01  0.4507E+02  0.4502E+02
     -5.303  0.3986E+02  0.3853E+02  0.4715E+02  0.4702E+02
     -5.251  0.4608E+02  0.4417E+02  0.4954E+02  0.4932E+02
     -5.199  0.2778E+02  0.3015E+02  0.5099E+02  0.5089E+02
     -5.147  0.3922E+02  0.2999E+02  0.5303E+02  0.5245E+02
     -5.095  0.3310E+02  0.4302E+02  0.5476E+02  0.5469E+02
     -5.043  0.2793E+02  0.2466E+02  0.5621E+02  0.5598E+02
     -4.991  0.5209E+02  0.4780E+02  0.5892E+02  0.5847E+02
     -4.939  0.3585E+02  0.3250E+02  0.6079E+02  0.6016E+02
     -4.887  0.4515E+02  0.5160E+02  0.6314E+02  0.6284E+02
     -4.835  0.4456E+02  0.4598E+02  0.6546E+02  0.6524E+02
     -4.782  0.3715E+02  0.3391E+02  0.6739E+02  0.6700E+02
     -4.730  0.5791E+02  0.5633E+02  0.7041E+02  0.6994E+02
     -4.678  0.4739E+02  0.4653E+02  0.7288E+02  0.7236E+02
     -4.626  0.4432E+02  0.4878E+02  0.7518E+02  0.7490E+02
     -4.574  0.2394E+02  0.2284E+02  0.7643E+02  0.7609E+02
     -4.522  0.3780E+02  0.3756E+02  0.7840E+02  0.7804E+02
     -4.470  0.4085E+02  0.4171E+02  0.8052E+02  0.8022E+02
     -4.418  0.1925E+02  0.2021E+02  0.8153E+02  0.8127E+02
     -4.366  0.4089E+02  0.3354E+02  0.8366E+02  0.8301E+02
     -4.314  0.3842E+02  0.4874E+02  0.8566E+02  0.8555E+02
     -4.262  0.4379E+02  0.4149E+02  0.8794E+02  0.8771E+02
     -4.210  0.5021E+02  0.4945E+02  0.9055E+02  0.9029E+02
     -4.158  0.4043E+02  0.4368E+02  0.9266E+02  0.9256E+02
     -4.106  0.3730E+02  0.3180E+02  0.9460E+02  0.9422E+02
     -4.054  0.3226E+02  0.3401E+02  0.9628E+02  0.9599E+02
     -4.002  0.5202E+02  0.5023E+02  0.9899E+02  0.9860E+02
     -3.949  0.3236E+02  0.3965E+02  0.1007E+03  0.1007E+03
     -3.897  0.4476E+02  0.4383E+02  0.1030E+03  0.1029E+03
     -3.845  0.3305E+02  0.2672E+02  0.1047E+03  0.1043E+03
     -3.793  0.3104E+02  0.3795E+02  0.1063E+03  0.1063E+03
     -3.741  0.3236E+02  0.2212E+02  0.1080E+03  0.1075E+03
     -3.689  0.3045E+02  0.3254E+02  0.1096E+03  0.1092E+03
     -3.637  0.3898E+02  0.4423E+02  0.1116E+03  0.1115E+03
     -3.585  0.1826E+02  0.1664E+02  0.1126E+03  0.1123E+03
     -3.533  0.1210E+02  0.1394E+02  0.1132E+03  0.1131E+03
     -3.481  0.3608E+02  0.3379E+02  0.1151E+03  0.1148E+03
     -3.429  0.3402E+02  0.3673E+02  0.1169E+03  0.1167E+03
     -3.377  0.7907E+01  0.6416E+01  0.1173E+03  0.1171E+03
     -3.325  0.4519E+02  0.4557E+02  0.1196E+03  0.1194E+03
     -3.273  0.2699E+02  0.2319E+02  0.1210E+03  0.1206E+03
     -3.221  0.3634E+02  0.3896E+02  0.1229E+03  0.1227E+03
     -3.168  0.1432E+02  0.1891E+02  0.1237E+03  0.1237E+03
     -3.116  0.1948E+02  0.1838E+02  0.1247E+03  0.1246E+03
     -3.064  0.1235E+02  0.1384E+02  0.1253E+03  0.1253E+03
     -3.012  0.2612E+02  0.2145E+02  0.1267E+03  0.1265E+03
     -2.960  0.1809E+02  0.1302E+02  0.1276E+03  0.1271E+03
     -2.908  0.5825E+02  0.6721E+02  0.1307E+03  0.1306E+03
     -2.856  0.2707E+02  0.2604E+02  0.1321E+03  0.1320E+03
     -2.804  0.1537E+02  0.1371E+02  0.1329E+03  0.1327E+03
     -2.752  0.6322E+02  0.5919E+02  0.1362E+03  0.1358E+03
     -2.700  0.2876E+02  0.3615E+02  0.1377E+03  0.1377E+03
     -2.648  0.3832E+02  0.3699E+02  0.1397E+03  0.1396E+03
     -2.596  0.2765E+02  0.2076E+02  0.1411E+03  0.1407E+03
     -2.544  0.4567E+02  0.4955E+02  0.1435E+03  0.1432E+03
     -2.492  0.3636E+02  0.3456E+02  0.1454E+03  0.1450E+03
     -2.440  0.7552E+02  0.7685E+02  0.1493E+03  0.1490E+03
     -2.387  0.3572E+02  0.3290E+02  0.1512E+03  0.1508E+03
     -2.335  0.6715E+02  0.6779E+02  0.1547E+03  0.1543E+03
     -2.283  0.5130E+02  0.5770E+02  0.1573E+03  0.1573E+03
     -2.231  0.2439E+02  0.2071E+02  0.1586E+03  0.1584E+03
     -2.179  0.2824E+02  0.3049E+02  0.1601E+03  0.1600E+03
     -2.127  0.4143E+02  0.3728E+02  0.1622E+03  0.1619E+03
     -2.075  0.3592E+02  0.3162E+02  0.1641E+03  0.1635E+03
     -2.023  0.6261E+02  0.6250E+02  0.1674E+03  0.1668E+03
     -1.971  0.3073E+02  0.3265E+02  0.1690E+03  0.1685E+03
     -1.919  0.5200E+02  0.6049E+02  0.1717E+03  0.1717E+03
     -1.867  0.4543E+02  0.3455E+02  0.1740E+03  0.1735E+03
     -1.815  0.4746E+02  0.4525E+02  0.1765E+03  0.1758E+03
     -1.763  0.4671E+02  0.5460E+02  0.1789E+03  0.1786E+03
     -1.711  0.3850E+02  0.4044E+02  0.1809E+03  0.1808E+03
     -1.659  0.3695E+02  0.3755E+02  0.1829E+03  0.1827E+03
     -1.606  0.4527E+02  0.3543E+02  0.1852E+03  0.1846E+03
     -1.554  0.5312E+02  0.5856E+02  0.1880E+03  0.1876E+03
     -1.502  0.2582E+02  0.3230E+02  0.1893E+03  0.1893E+03
     -1.450  0.1833E+02  0.1518E+02  0.1903E+03  0.1901E+03
     -1.398  0.1683E+02  0.1815E+02  0.1912E+03  0.1910E+03
     -1.346  0.5403E+02  0.5349E+02  0.1940E+03  0.1938E+03
     -1.294  0.1276E+02  0.1188E+02  0.1946E+03  0.1944E+03
     -1.242  0.4238E+02  0.3834E+02  0.1968E+03  0.1964E+03
     -1.190  0.3412E+02  0.3770E+02  0.1986E+03  0.1984E+03
     -1.138  0.4041E+02  0.4261E+02  0.2007E+03  0.2006E+03
     -1.086  0.1337E+02  0.1378E+02  0.2014E+03  0.2013E+03
     -1.034  0.4189E+02  0.3686E+02  0.2036E+03  0.2032E+03
     -0.982  0.3995E+02  0.4627E+02  0.2057E+03  0.2056E+03
     -0.930  0.3097E+02  0.2938E+02  0.2073E+03  0.2072E+03
     -0.878  0.1144E+02  0.9124E+01  0.2079E+03  0.2077E+03
     -0.826  0.3087E+02  0.3121E+02  0.2095E+03  0.2093E+03
     -0.773  0.3236E+01  0.7485E+01  0.2097E+03  0.2097E+03
     -0.721  0.5084E+02  0.4740E+02  0.2123E+03  0.2121E+03
     -0.669  0.1409E+02  0.1364E+02  0.2130E+03  0.2128E+03
     -0.617  0.2353E+02  0.2353E+02  0.2143E+03  0.2141E+03
     -0.565  0.4073E+02  0.3758E+02  0.2164E+03  0.2160E+03
     -0.513  0.1165E+02  0.1870E+02  0.2170E+03  0.2170E+03
     -0.461  0.4124E+02  0.2588E+02  0.2191E+03  0.2183E+03
     -0.409  0.9980E+01  0.2534E+02  0.2197E+03  0.2197E+03
     -0.357  0.9232E+01  0.6754E+01  0.2201E+03  0.2200E+03
     -0.305  0.9972E+01  0.1245E+02  0.2207E+03  0.2207E+03
     -0.253  0.9958E+01  0.5646E+01  0.2212E+03  0.2210E+03
     -0.201  0.9043E+01  0.8462E+01  0.2217E+03  0.2214E+03
     -0.149  0.4474E+02  0.4850E+02  0.2240E+03  0.2239E+03
     -0.097  0.6777E+01  0.3625E+01  0.2243E+03  0.2241E+03
     -0.045  0.1190E+02  0.1159E+02  0.2250E+03  0.2247E+03
      0.008  0.2699E+02  0.3108E+02  0.2264E+03  0.2263E+03
      0.060  0.4010E+02  0.3212E+02  0.2285E+03  0.2280E+03
      0.112  0.3574E+02  0.4313E+02  0.2303E+03  0.2303E+03
      0.164  0.2055E+02  0.2079E+02  0.2314E+03  0.2313E+03
      0.216  0.3257E+02  0.3044E+02  0.2331E+03  0.2329E+03
      0.268  0.5874E+02  0.5504E+02  0.2361E+03  0.2358E+03
      0.320  0.6119E+02  0.6477E+02  0.2393E+03  0.2392E+03
      0.372  0.5514E+02  0.5390E+02  0.2422E+03  0.2420E+03
      0.424  0.4056E+02  0.3571E+02  0.2443E+03  0.2438E+03
      0.476  0.4995E+02  0.5476E+02  0.2469E+03  0.2467E+03
      0.528  0.4640E+02  0.4695E+02  0.2493E+03  0.2491E+03
      0.580  0.6420E+02  0.6515E+02  0.2527E+03  0.2525E+03
      0.632  0.6495E+02  0.5933E+02  0.2560E+03  0.2556E+03
      0.684  0.6528E+02  0.6724E+02  0.2594E+03  0.2591E+03
      0.736  0.4833E+02  0.4977E+02  0.2620E+03  0.2617E+03
      0.789  0.3682E+02  0.3450E+02  0.2639E+03  0.2635E+03
      0.841  0.6853E+02  0.6628E+02  0.2674E+03  0.2669E+03
      0.893  0.4041E+02  0.3790E+02  0.2695E+03  0.2689E+03
      0.945  0.4939E+02  0.5436E+02  0.2721E+03  0.2717E+03
      0.997  0.3618E+02  0.3834E+02  0.2740E+03  0.2737E+03
      1.049  0.5076E+02  0.4867E+02  0.2766E+03  0.2763E+03
      1.101  0.5975E+02  0.6411E+02  0.2798E+03  0.2796E+03
      1.153  0.6001E+02  0.5426E+02  0.2829E+03  0.2824E+03
      1.205  0.6386E+02  0.6187E+02  0.2862E+03  0.2857E+03
      1.257  0.8051E+02  0.7661E+02  0.2904E+03  0.2896E+03
      1.309  0.8407E+02  0.9148E+02  0.2948E+03  0.2944E+03
      1.361  0.4973E+02  0.4227E+02  0.2974E+03  0.2966E+03
      1.413  0.4847E+02  0.5422E+02  0.2999E+03  0.2994E+03
      1.465  0.1216E+03  0.1115E+03  0.3062E+03  0.3052E+03
      1.517  0.8132E+02  0.9205E+02  0.3105E+03  0.3100E+03
      1.569  0.8536E+02  0.8552E+02  0.3149E+03  0.3145E+03
      1.622  0.7076E+02  0.6625E+02  0.3186E+03  0.3179E+03
      1.674  0.1160E+03  0.1135E+03  0.3246E+03  0.3239E+03
      1.726  0.8031E+02  0.8691E+02  0.3288E+03  0.3284E+03
      1.778  0.8395E+02  0.8863E+02  0.3332E+03  0.3330E+03
      1.830  0.8689E+02  0.7345E+02  0.3377E+03  0.3368E+03
      1.882  0.9692E+02  0.1050E+03  0.3428E+03  0.3423E+03
      1.934  0.7394E+02  0.6671E+02  0.3466E+03  0.3458E+03
      1.986  0.8865E+02  0.9109E+02  0.3512E+03  0.3505E+03
      2.038  0.7181E+02  0.7744E+02  0.3550E+03  0.3545E+03
      2.090  0.1034E+03  0.9503E+02  0.3603E+03  0.3595E+03
      2.142  0.7796E+02  0.8502E+02  0.3644E+03  0.3639E+03
      2.194  0.8005E+02  0.8312E+02  0.3686E+03  0.3682E+03
      2.246  0.8698E+02  0.8057E+02  0.3731E+03  0.3724E+03
      2.298  0.8155E+02  0.8654E+02  0.3773E+03  0.3769E+03
      2.350  0.6543E+02  0.7000E+02  0.3807E+03  0.3806E+03
      2.403  0.1017E+03  0.9016E+02  0.3860E+03  0.3853E+03
      2.455  0.5886E+02  0.6848E+02  0.3891E+03  0.3888E+03
      2.507  0.7499E+02  0.7070E+02  0.3930E+03  0.3925E+03
      2.559  0.8407E+02  0.7962E+02  0.3974E+03  0.3967E+03
      2.611  0.5860E+02  0.6421E+02  0.4004E+03  0.4000E+03
      2.663  0.6536E+02  0.6580E+02  0.4038E+03  0.4034E+03
      2.715  0.5980E+02  0.6281E+02  0.4070E+03  0.4067E+03
      2.767  0.9516E+02  0.8728E+02  0.4119E+03  0.4112E+03
      2.819  0.8431E+02  0.8620E+02  0.4163E+03  0.4157E+03
      2.871  0.6279E+02  0.5997E+02  0.4196E+03  0.4189E+03
      2.923  0.7633E+02  0.8208E+02  0.4235E+03  0.4231E+03
      2.975  0.4852E+02  0.4521E+02  0.4261E+03  0.4255E+03
      3.027  0.7272E+02  0.7955E+02  0.4299E+03  0.4296E+03
      3.079  0.5359E+02  0.5546E+02  0.4326E+03  0.4325E+03
      3.131  0.3699E+02  0.3477E+02  0.4346E+03  0.4343E+03
      3.184  0.5332E+02  0.5107E+02  0.4373E+03  0.4370E+03
      3.236  0.7652E+02  0.8315E+02  0.4413E+03  0.4413E+03
      3.288  0.2492E+02  0.2312E+02  0.4426E+03  0.4425E+03
      3.340  0.3537E+02  0.3036E+02  0.4445E+03  0.4441E+03
      3.392  0.2660E+02  0.3087E+02  0.4459E+03  0.4457E+03
      3.444  0.9977E+01  0.5957E+01  0.4464E+03  0.4460E+03
      3.496  0.4398E+02  0.5002E+02  0.4487E+03  0.4486E+03
      3.548  0.3309E+02  0.2248E+02  0.4504E+03  0.4498E+03
      3.600  0.4603E+02  0.4699E+02  0.4528E+03  0.4522E+03
      3.652  0.4210E+02  0.4866E+02  0.4550E+03  0.4548E+03
      3.704  0.4618E+02  0.3924E+02  0.4574E+03  0.4568E+03
      3.756  0.2710E+02  0.3563E+02  0.4588E+03  0.4587E+03
      3.808  0.6189E+02  0.5274E+02  0.4620E+03  0.4614E+03
      3.860  0.3897E+02  0.4306E+02  0.4640E+03  0.4637E+03
      3.912  0.3934E+02  0.3466E+02  0.4661E+03  0.4655E+03
      3.965  0.3005E+02  0.3708E+02  0.4677E+03  0.4674E+03
      4.017  0.2655E+02  0.2754E+02  0.4690E+03  0.4688E+03
      4.069  0.2325E+02  0.2268E+02  0.4702E+03  0.4700E+03
      4.121  0.4632E+02  0.2969E+02  0.4727E+03  0.4716E+03
      4.173  0.3841E+02  0.5527E+02  0.4747E+03  0.4744E+03
      4.225  0.2579E+02  0.8731E+01  0.4760E+03  0.4749E+03
      4.277  0.3244E+02  0.5272E+02  0.4777E+03  0.4776E+03
      4.329  0.3784E+02  0.3179E+02  0.4797E+03  0.4793E+03
      4.381  0.1428E+02  0.1976E+02  0.4804E+03  0.4803E+03
      4.433  0.1140E+02  0.1314E+02  0.4810E+03  0.4810E+03
      4.485  0.2636E+02  0.2300E+02  0.4824E+03  0.4822E+03
      4.537  0.1708E+02  0.1567E+02  0.4833E+03  0.4830E+03
      4.589  0.5902E+02  0.6026E+02  0.4863E+03  0.4861E+03
      4.641  0.5565E+02  0.3830E+02  0.4892E+03  0.4881E+03
      4.693  0.3671E+01  0.2288E+02  0.4894E+03  0.4893E+03
      4.745  0.6266E+02  0.4833E+02  0.4927E+03  0.4918E+03
      4.798  0.2684E+02  0.3127E+02  0.4941E+03  0.4935E+03
      4.850  0.1714E+02  0.2463E+02  0.4950E+03  0.4948E+03
      4.902  0.3543E+02  0.1576E+02  0.4968E+03  0.4956E+03
      4.954  0.3797E+02  0.5591E+02  0.4988E+03  0.4985E+03
      5.006  0.2266E+02  0.2302E+02  0.5000E+03  0.4997E+03
      5.058  0.4527E+02  0.5032E+02  0.5023E+03  0.5023E+03
      5.110  0.3556E+02  0.2757E+02  0.5042E+03  0.5037E+03
      5.162  0.3277E+02  0.3747E+02  0.5059E+03  0.5057E+03
      5.214  0.2128E+02  0.2503E+02  0.5070E+03  0.5070E+03
      5.266  0.1300E+02  0.1165E+02  0.5077E+03  0.5076E+03
      5.318  0.2335E+02  0.2246E+02  0.5089E+03  0.5088E+03
      5.370  0.5068E+02  0.4821E+02  0.5115E+03  0.5113E+03
      5.422  0.2955E+02  0.3244E+02  0.5131E+03  0.5130E+03
      5.474  0.5767E+02  0.5069E+02  0.5161E+03  0.5156E+03
      5.526  0.4719E+02  0.5045E+02  0.5185E+03  0.5182E+03
      5.579  0.4378E+02  0.3901E+02  0.5208E+03  0.5203E+03
      5.631  0.5841E+02  0.6327E+02  0.5239E+03  0.5236E+03
      5.683  0.6792E+02  0.6165E+02  0.5274E+03  0.5268E+03
      5.735  0.4843E+02  0.5593E+02  0.5299E+03  0.5297E+03
      5.787  0.5015E+02  0.4452E+02  0.5325E+03  0.5320E+03
      5.839  0.7209E+02  0.6695E+02  0.5363E+03  0.5355E+03
      5.891  0.5830E+02  0.6461E+02  0.5393E+03  0.5389E+03
      5.943  0.8068E+02  0.7606E+02  0.5435E+03  0.5428E+03
      5.995  0.4424E+02  0.4925E+02  0.5458E+03  0.5454E+03
      6.047  0.6439E+02  0.5778E+02  0.5492E+03  0.5484E+03
      6.099  0.7524E+02  0.8864E+02  0.5531E+03  0.5530E+03
      6.151  0.7475E+02  0.7354E+02  0.5570E+03  0.5568E+03
      6.203  0.5276E+02  0.5130E+02  0.5597E+03  0.5595E+03
      6.255  0.6282E+02  0.6369E+02  0.5630E+03  0.5628E+03
      6.307  0.4927E+02  0.4082E+02  0.5656E+03  0.5649E+03
      6.360  0.7282E+02  0.8057E+02  0.5693E+03  0.5691E+03
      6.412  0.5019E+02  0.4522E+02  0.5720E+03  0.5715E+03
      6.464  0.5263E+02  0.5756E+02  0.5747E+03  0.5745E+03
      6.516  0.2494E+02  0.2900E+02  0.5760E+03  0.5760E+03
      6.568  0.0000E+00  0.0000E+00  0.5760E+03  0.5760E+03
      6.620  0.0000E+00  0.0000E+00  0.5760E+03  0.5760E+03
      6.672  0.0000E+00  0.0000E+00  0.5760E+03  0.5760E+03
      6.724  0.0000E+00  0.0000E+00  0.5760E+03  0.5760E+03
      6.776  0.0000E+00  0.0000E+00  0.5760E+03  0.5760E+03
      6.828  0.0000E+00  0.0000E+00  0.5760E+03  0.5760E+03
      6.880  0.0000E+00  0.0000E+00  0.5760E+03  0.5760E+03
      6.932  0.0000E+00  0.0000E+00  0.5760E+03  0.5760E+03
      6.984  0.0000E+00  0.0000E+00  0.5760E+03  0.5760E+03
      7.036  0.0000E+00  0.0000E+00  0.5760E+03  0.5760E+03
      7.088  0.0000E+00  0.0000E+00  0.5760E+03  0.5760E+03
      7.141  0.0000E+00  0.0000E+00  0.5760E+03  0.5760E+03
      7.193  0.0000E+00  0.0000E+00  0.5760E+03  0.5760E+03
