Si and Ge interface calculation         
           1
     9.406768    0.000000    0.000000
     0.000000   13.303180    0.000000
     0.000000    0.000000   25.400009
   Si   Sn
    72    48
Direct configuration=     1
   0.66666669  0.64518398  0.00000000
   0.66666663  0.39518389  0.07559638
   0.66666663  0.14518382  0.15119275
   0.66666657  0.89518374  0.22678915
   0.66666657  0.64518368  0.30238551
   0.66666651  0.39518350  0.37798196
   0.33333331  0.31185061  0.00000000
   0.33333331  0.06185054  0.07559638
   0.33333328  0.81185049  0.15119275
   0.33333325  0.56185043  0.22678915
   0.33333319  0.31185031  0.30238551
   0.33333316  0.06185019  0.37798196
   0.00000000  0.97851729  0.00000000
   0.99999994  0.72851718  0.07559638
   0.99999994  0.47851712  0.15119275
   0.99999988  0.22851706  0.22678915
   0.99999982  0.97851694  0.30238551
   0.99999982  0.72851682  0.37798196
   0.66666669  0.14518392  0.00000000
   0.66666669  0.89518386  0.07559638
   0.66666663  0.64518380  0.15119275
   0.66666657  0.39518374  0.22678912
   0.66666651  0.14518362  0.30238551
   0.66666651  0.89518356  0.37798193
   0.33333337  0.81185067  0.00000000
   0.33333334  0.56185061  0.07559638
   0.33333331  0.31185058  0.15119275
   0.33333328  0.06185051  0.22678915
   0.33333319  0.81185043  0.30238551
   0.33333316  0.56185031  0.37798193
   0.00000000  0.47851729  0.00000000
   0.99999994  0.22851721  0.07559638
   0.99999994  0.97851712  0.15119275
   0.99999988  0.72851706  0.22678912
   0.99999982  0.47851694  0.30238551
   0.99999982  0.22851688  0.37798196
   0.91666675  0.64518392  0.00000000
   0.91666675  0.39518380  0.07559638
   0.91666675  0.14518379  0.15119275
   0.91666669  0.89518368  0.22678915
   0.91666663  0.64518356  0.30238551
   0.91666663  0.39518344  0.37798196
   0.58333337  0.31185064  0.00000000
   0.58333331  0.06185056  0.07559637
   0.58333331  0.81185049  0.15119275
   0.58333325  0.56185043  0.22678912
   0.58333325  0.31185031  0.30238551
   0.58333319  0.06185025  0.37798193
   0.25000000  0.97851729  0.00000000
   0.24999997  0.72851718  0.07559638
   0.24999992  0.47851718  0.15119275
   0.24999991  0.22851712  0.22678912
   0.24999982  0.97851694  0.30238551
   0.24999979  0.72851682  0.37798193
   0.91666675  0.14518394  0.00000001
   0.91666669  0.89518386  0.07559638
   0.91666663  0.64518380  0.15119275
   0.91666657  0.39518374  0.22678912
   0.91666651  0.14518362  0.30238551
   0.91666651  0.89518344  0.37798193
   0.58333331  0.81185055  0.00000000
   0.58333325  0.56185049  0.07559638
   0.58333325  0.31185043  0.15119275
   0.58333319  0.06185036  0.22678912
   0.58333319  0.81185025  0.30238551
   0.58333313  0.56185013  0.37798193
   0.24999999  0.47851726  0.00000000
   0.24999995  0.22851721  0.07559638
   0.24999992  0.97851712  0.15119275
   0.24999987  0.72851706  0.22678912
   0.24999985  0.47851694  0.30238551
   0.24999982  0.22851682  0.37798196
   0.59492374  0.27747500  0.46317616
   0.34492374  0.02747500  0.55350208
   0.09492374  0.77747500  0.64382803
   0.84492367  0.52747500  0.73415393
   0.59492361  0.27747488  0.82447982
   0.34492361  0.02747488  0.91480571
   0.59492374  0.77747500  0.46317616
   0.34492374  0.52747500  0.55350208
   0.09492374  0.27747500  0.64382803
   0.84492367  0.02747488  0.73415393
   0.59492361  0.77747488  0.82447982
   0.34492361  0.52747488  0.91480571
   0.09492374  0.27747500  0.46317616
   0.84492374  0.02747500  0.55350208
   0.59492374  0.77747500  0.64382803
   0.34492361  0.52747500  0.73415393
   0.09492361  0.27747488  0.82447982
   0.84492356  0.02747488  0.91480571
   0.09492374  0.77747500  0.46317616
   0.84492374  0.52747500  0.55350208
   0.59492374  0.27747500  0.64382803
   0.34492361  0.02747488  0.73415393
   0.09492361  0.77747488  0.82447982
   0.84492356  0.52747488  0.91480571
   0.34492374  0.65247500  0.46317616
   0.09492374  0.40247500  0.55350208
   0.84492361  0.15247488  0.64382803
   0.59492350  0.90247488  0.73415393
   0.34492350  0.65247488  0.82447982
   0.09492350  0.40247485  0.91480571
   0.34492374  0.15247500  0.46317616
   0.09492374  0.90247500  0.55350208
   0.84492361  0.65247488  0.64382803
   0.59492350  0.40247488  0.73415393
   0.34492350  0.15247488  0.82447982
   0.09492350  0.90247476  0.91480571
   0.84492374  0.65247500  0.46317616
   0.59492374  0.40247500  0.55350208
   0.34492361  0.15247488  0.64382803
   0.09492350  0.90247488  0.73415393
   0.84492361  0.65247488  0.82447982
   0.59492361  0.40247485  0.91480571
   0.84492374  0.15247500  0.46317616
   0.59492374  0.90247500  0.55350208
   0.34492361  0.65247488  0.64382803
   0.09492350  0.40247488  0.73415393
   0.84492361  0.15247488  0.82447982
   0.59492361  0.90247476  0.91480571
