  20  20   0   0
  0.1998726E+02  0.6789986E-09  0.3920200E-09  0.1839297E-08  0.5000000E-15
  1.000000000000000E-004
  CAR 
 Si and Ge interface calculation         
      7.79401933     -8.92880370  301      4.28698314      1.00000000
     -8.929  0.0000E+00  0.0000E+00
     -8.873  0.0000E+00  0.0000E+00
     -8.817  0.0000E+00  0.0000E+00
     -8.762  0.0000E+00  0.0000E+00
     -8.706  0.0000E+00  0.0000E+00
     -8.650  0.0000E+00  0.0000E+00
     -8.594  0.0000E+00  0.0000E+00
     -8.539  0.0000E+00  0.0000E+00
     -8.483  0.0000E+00  0.0000E+00
     -8.427  0.3937E-14  0.2194E-15
     -8.371  0.1527E-09  0.8511E-11
     -8.316  0.5525E-06  0.3080E-07
     -8.260  0.2012E-03  0.1124E-04
     -8.204  0.8343E-02  0.4763E-03
     -8.148  0.4777E-01  0.3139E-02
     -8.093  0.5044E-01  0.5951E-02
     -8.037  0.3215E-01  0.7743E-02
     -7.981  0.9073E-01  0.1280E-01
     -7.925  0.1464E+00  0.2096E-01
     -7.870  0.1001E+00  0.2654E-01
     -7.814  0.1031E+00  0.3229E-01
     -7.758  0.7866E-01  0.3668E-01
     -7.702  0.6424E-01  0.4026E-01
     -7.647  0.1457E+00  0.4838E-01
     -7.591  0.2474E+00  0.6217E-01
     -7.535  0.1993E+00  0.7328E-01
     -7.479  0.2535E+00  0.8741E-01
     -7.424  0.3391E+00  0.1063E+00
     -7.368  0.2325E+00  0.1193E+00
     -7.312  0.2666E+00  0.1341E+00
     -7.257  0.2140E+00  0.1461E+00
     -7.201  0.1562E+00  0.1548E+00
     -7.145  0.2756E+00  0.1701E+00
     -7.089  0.3488E+00  0.1896E+00
     -7.034  0.3030E+00  0.2065E+00
     -6.978  0.3169E+00  0.2241E+00
     -6.922  0.1585E+00  0.2330E+00
     -6.866  0.1076E+00  0.2390E+00
     -6.811  0.1794E+00  0.2490E+00
     -6.755  0.1698E+00  0.2584E+00
     -6.699  0.2692E+00  0.2734E+00
     -6.643  0.3504E+00  0.2930E+00
     -6.588  0.2581E+00  0.3074E+00
     -6.532  0.2307E+00  0.3202E+00
     -6.476  0.2357E+00  0.3334E+00
     -6.420  0.1146E+00  0.3397E+00
     -6.365  0.1669E+00  0.3491E+00
     -6.309  0.1440E+00  0.3571E+00
     -6.253  0.2551E+00  0.3713E+00
     -6.197  0.4661E+00  0.3973E+00
     -6.142  0.5793E+00  0.4296E+00
     -6.086  0.6630E+00  0.4665E+00
     -6.030  0.5244E+00  0.4958E+00
     -5.974  0.3626E+00  0.5160E+00
     -5.919  0.2527E+00  0.5301E+00
     -5.863  0.2736E+00  0.5453E+00
     -5.807  0.4492E+00  0.5704E+00
     -5.751  0.5561E+00  0.6014E+00
     -5.696  0.5386E+00  0.6314E+00
     -5.640  0.4277E+00  0.6552E+00
     -5.584  0.2124E+00  0.6671E+00
     -5.528  0.1784E+00  0.6770E+00
     -5.473  0.2731E+00  0.6922E+00
     -5.417  0.4286E+00  0.7161E+00
     -5.361  0.2396E+00  0.7295E+00
     -5.306  0.1143E+00  0.7358E+00
     -5.250  0.1271E+00  0.7429E+00
     -5.194  0.1928E+00  0.7537E+00
     -5.138  0.1288E+00  0.7609E+00
     -5.083  0.5900E-01  0.7641E+00
     -5.027  0.1301E+00  0.7714E+00
     -4.971  0.3524E+00  0.7910E+00
     -4.915  0.3978E+00  0.8132E+00
     -4.860  0.3134E+00  0.8307E+00
     -4.804  0.2142E+00  0.8426E+00
     -4.748  0.8382E-01  0.8473E+00
     -4.692  0.1579E+00  0.8561E+00
     -4.637  0.3888E+00  0.8778E+00
     -4.581  0.3265E+00  0.8960E+00
     -4.525  0.5143E+00  0.9246E+00
     -4.469  0.5144E+00  0.9533E+00
     -4.414  0.2699E+00  0.9684E+00
     -4.358  0.2864E+00  0.9843E+00
     -4.302  0.2336E+00  0.9974E+00
     -4.246  0.9846E-01  0.1003E+01
     -4.191  0.1037E+00  0.1009E+01
     -4.135  0.2126E+00  0.1020E+01
     -4.079  0.3363E+00  0.1039E+01
     -4.023  0.3168E+00  0.1057E+01
     -3.968  0.1294E+00  0.1064E+01
     -3.912  0.1044E+00  0.1070E+01
     -3.856  0.6114E-01  0.1073E+01
     -3.800  0.3156E-01  0.1075E+01
     -3.745  0.6599E-01  0.1079E+01
     -3.689  0.1720E+00  0.1088E+01
     -3.633  0.2370E+00  0.1102E+01
     -3.578  0.3402E+00  0.1121E+01
     -3.522  0.3895E+00  0.1142E+01
     -3.466  0.5189E+00  0.1171E+01
     -3.410  0.4954E+00  0.1199E+01
     -3.355  0.4362E+00  0.1223E+01
     -3.299  0.2830E+00  0.1239E+01
     -3.243  0.2445E+00  0.1252E+01
     -3.187  0.3326E+00  0.1271E+01
     -3.132  0.4208E+00  0.1294E+01
     -3.076  0.4533E+00  0.1320E+01
     -3.020  0.3720E+00  0.1340E+01
     -2.964  0.1716E+00  0.1350E+01
     -2.909  0.2330E+00  0.1363E+01
     -2.853  0.3358E+00  0.1382E+01
     -2.797  0.3260E+00  0.1400E+01
     -2.741  0.2530E+00  0.1414E+01
     -2.686  0.2007E+00  0.1425E+01
     -2.630  0.2258E+00  0.1438E+01
     -2.574  0.2294E+00  0.1451E+01
     -2.518  0.3035E+00  0.1468E+01
     -2.463  0.4747E+00  0.1494E+01
     -2.407  0.6088E+00  0.1528E+01
     -2.351  0.3067E+00  0.1545E+01
     -2.295  0.2190E+00  0.1557E+01
     -2.240  0.3518E+00  0.1577E+01
     -2.184  0.4631E+00  0.1603E+01
     -2.128  0.3850E+00  0.1624E+01
     -2.072  0.3040E+00  0.1641E+01
     -2.017  0.2255E+00  0.1654E+01
     -1.961  0.2325E+00  0.1667E+01
     -1.905  0.1777E+00  0.1676E+01
     -1.849  0.1222E+00  0.1683E+01
     -1.794  0.1210E+00  0.1690E+01
     -1.738  0.2882E+00  0.1706E+01
     -1.682  0.3515E+00  0.1726E+01
     -1.627  0.1597E+00  0.1735E+01
     -1.571  0.8608E-01  0.1739E+01
     -1.515  0.3854E-01  0.1742E+01
     -1.459  0.1143E+00  0.1748E+01
     -1.404  0.2422E+00  0.1761E+01
     -1.348  0.2625E+00  0.1776E+01
     -1.292  0.1531E+00  0.1785E+01
     -1.236  0.4216E-01  0.1787E+01
     -1.181  0.8379E-01  0.1792E+01
     -1.125  0.2793E+00  0.1807E+01
     -1.069  0.1863E+00  0.1818E+01
     -1.013  0.1097E+00  0.1824E+01
     -0.958  0.8454E-01  0.1828E+01
     -0.902  0.2598E-01  0.1830E+01
     -0.846  0.4613E-01  0.1832E+01
     -0.790  0.8522E-01  0.1837E+01
     -0.735  0.3594E-01  0.1839E+01
     -0.679  0.2908E-01  0.1841E+01
     -0.623  0.9399E-01  0.1846E+01
     -0.567  0.1441E+00  0.1854E+01
     -0.512  0.2905E+00  0.1870E+01
     -0.456  0.4730E+00  0.1897E+01
     -0.400  0.3069E+00  0.1914E+01
     -0.344  0.2621E+00  0.1928E+01
     -0.289  0.3276E+00  0.1947E+01
     -0.233  0.4882E+00  0.1974E+01
     -0.177  0.6205E+00  0.2008E+01
     -0.121  0.3357E+00  0.2027E+01
     -0.066  0.2511E+00  0.2041E+01
     -0.010  0.3653E+00  0.2061E+01
      0.046  0.4593E+00  0.2087E+01
      0.102  0.6900E+00  0.2126E+01
      0.157  0.7052E+00  0.2165E+01
      0.213  0.6740E+00  0.2202E+01
      0.269  0.6830E+00  0.2241E+01
      0.324  0.5027E+00  0.2269E+01
      0.380  0.3213E+00  0.2286E+01
      0.436  0.2304E+00  0.2299E+01
      0.492  0.3278E+00  0.2318E+01
      0.547  0.5022E+00  0.2346E+01
      0.603  0.4899E+00  0.2373E+01
      0.659  0.6066E+00  0.2407E+01
      0.715  0.6659E+00  0.2444E+01
      0.770  0.5486E+00  0.2474E+01
      0.826  0.6180E+00  0.2509E+01
      0.882  0.6519E+00  0.2545E+01
      0.938  0.5317E+00  0.2575E+01
      0.993  0.7571E+00  0.2617E+01
      1.049  0.9461E+00  0.2670E+01
      1.105  0.6570E+00  0.2706E+01
      1.161  0.4598E+00  0.2732E+01
      1.216  0.4837E+00  0.2759E+01
      1.272  0.6122E+00  0.2793E+01
      1.328  0.5542E+00  0.2824E+01
      1.384  0.5532E+00  0.2855E+01
      1.439  0.5698E+00  0.2887E+01
      1.495  0.8107E+00  0.2932E+01
      1.551  0.8837E+00  0.2981E+01
      1.607  0.5683E+00  0.3013E+01
      1.662  0.5115E+00  0.3041E+01
      1.718  0.4386E+00  0.3066E+01
      1.774  0.4315E+00  0.3090E+01
      1.830  0.5050E+00  0.3118E+01
      1.885  0.6633E+00  0.3155E+01
      1.941  0.7867E+00  0.3199E+01
      1.997  0.5915E+00  0.3232E+01
      2.053  0.4252E+00  0.3255E+01
      2.108  0.6503E+00  0.3292E+01
      2.164  0.6718E+00  0.3329E+01
      2.220  0.4049E+00  0.3352E+01
      2.275  0.3584E+00  0.3372E+01
      2.331  0.6386E+00  0.3407E+01
      2.387  0.8007E+00  0.3452E+01
      2.443  0.6906E+00  0.3490E+01
      2.498  0.5848E+00  0.3523E+01
      2.554  0.4389E+00  0.3547E+01
      2.610  0.3244E+00  0.3565E+01
      2.666  0.4057E+00  0.3588E+01
      2.721  0.5696E+00  0.3620E+01
      2.777  0.5081E+00  0.3648E+01
      2.833  0.4751E+00  0.3675E+01
      2.889  0.5075E+00  0.3703E+01
      2.944  0.5636E+00  0.3734E+01
      3.000  0.5608E+00  0.3766E+01
      3.056  0.3955E+00  0.3788E+01
      3.112  0.3389E+00  0.3807E+01
      3.167  0.3023E+00  0.3823E+01
      3.223  0.2784E+00  0.3839E+01
      3.279  0.3846E+00  0.3860E+01
      3.335  0.3046E+00  0.3877E+01
      3.390  0.4201E+00  0.3901E+01
      3.446  0.4231E+00  0.3924E+01
      3.502  0.2896E+00  0.3940E+01
      3.558  0.8594E-01  0.3945E+01
      3.613  0.4903E-01  0.3948E+01
      3.669  0.8525E-01  0.3953E+01
      3.725  0.9236E-01  0.3958E+01
      3.781  0.1686E+00  0.3967E+01
      3.836  0.1055E+00  0.3973E+01
      3.892  0.7225E-01  0.3977E+01
      3.948  0.1567E+00  0.3986E+01
      4.004  0.1119E+00  0.3992E+01
      4.059  0.3597E-01  0.3994E+01
      4.115  0.1708E-01  0.3995E+01
      4.171  0.1389E-01  0.3996E+01
      4.226  0.3310E-01  0.3998E+01
      4.282  0.3552E-01  0.4000E+01
      4.338  0.7422E-01  0.4004E+01
      4.394  0.7474E-01  0.4008E+01
      4.449  0.1503E+00  0.4016E+01
      4.505  0.3202E+00  0.4034E+01
      4.561  0.2575E+00  0.4049E+01
      4.617  0.2575E+00  0.4063E+01
      4.672  0.2737E+00  0.4078E+01
      4.728  0.3562E+00  0.4098E+01
      4.784  0.4727E+00  0.4124E+01
      4.840  0.4056E+00  0.4147E+01
      4.895  0.2762E+00  0.4162E+01
      4.951  0.3216E+00  0.4180E+01
      5.007  0.5595E+00  0.4212E+01
      5.063  0.5535E+00  0.4242E+01
      5.118  0.4561E+00  0.4268E+01
      5.174  0.4442E+00  0.4293E+01
      5.230  0.4283E+00  0.4316E+01
      5.286  0.3207E+00  0.4334E+01
      5.341  0.4422E+00  0.4359E+01
      5.397  0.7249E+00  0.4399E+01
      5.453  0.6855E+00  0.4438E+01
      5.509  0.7209E+00  0.4478E+01
      5.564  0.5571E+00  0.4509E+01
      5.620  0.5763E+00  0.4541E+01
      5.676  0.6612E+00  0.4578E+01
      5.732  0.4154E+00  0.4601E+01
      5.787  0.4173E+00  0.4624E+01
      5.843  0.6955E+00  0.4663E+01
      5.899  0.5818E+00  0.4695E+01
      5.955  0.4856E+00  0.4723E+01
      6.010  0.6019E+00  0.4756E+01
      6.066  0.5539E+00  0.4787E+01
      6.122  0.3686E+00  0.4807E+01
      6.177  0.3864E+00  0.4829E+01
      6.233  0.6023E+00  0.4863E+01
      6.289  0.5550E+00  0.4894E+01
      6.345  0.4327E+00  0.4918E+01
      6.400  0.5410E+00  0.4948E+01
      6.456  0.5199E+00  0.4977E+01
      6.512  0.3942E+00  0.4999E+01
      6.568  0.3126E+00  0.5016E+01
      6.623  0.2205E+00  0.5028E+01
      6.679  0.1910E+00  0.5039E+01
      6.735  0.2008E+00  0.5050E+01
      6.791  0.1847E+00  0.5061E+01
      6.846  0.1594E+00  0.5070E+01
      6.902  0.2373E+00  0.5083E+01
      6.958  0.2209E+00  0.5095E+01
      7.014  0.6529E-01  0.5099E+01
      7.069  0.1914E-01  0.5100E+01
      7.125  0.4315E-02  0.5100E+01
      7.181  0.1381E-03  0.5100E+01
      7.237  0.4526E-06  0.5100E+01
      7.292  0.1381E-09  0.5100E+01
      7.348  0.3747E-14  0.5100E+01
      7.404  0.0000E+00  0.5100E+01
      7.460  0.0000E+00  0.5100E+01
      7.515  0.0000E+00  0.5100E+01
      7.571  0.0000E+00  0.5100E+01
      7.627  0.0000E+00  0.5100E+01
      7.683  0.0000E+00  0.5100E+01
      7.738  0.0000E+00  0.5100E+01
      7.794  0.0000E+00  0.5100E+01
