<?xml version="1.0" encoding="ISO-8859-1"?>
<modeling>
 <generator>
  <i name="program" type="string">vasp </i>
  <i name="version" type="string">6.4.3  </i>
  <i name="subversion" type="string">19Mar24 (build Oct 22 2024 11:23:12) complex                          parallel </i>
  <i name="platform" type="string">LinuxIFC </i>
  <i name="date" type="string">2025 03 27 </i>
  <i name="time" type="string">22:57:32 </i>
 </generator>
 <incar>
  <i type="string" name="SYSTEM">Si and Ge interface calculation</i>
  <i type="int" name="ISTART">     0</i>
  <i type="string" name="ALGO">VeryFast</i>
  <i type="int" name="ICHARG">     2</i>
  <i type="int" name="NELM">    60</i>
  <i type="int" name="IBRION">     2</i>
  <i name="EDIFF">      0.00000100</i>
  <i name="EDIFFG">     -0.01000000</i>
  <i type="int" name="NSW">    20</i>
  <i type="int" name="ISIF">     3</i>
  <i name="ENCUT">    600.00000000</i>
  <i name="POTIM">      0.50000000</i>
  <i type="string" name="LREAL">A</i>
  <i type="int" name="ISMEAR">     0</i>
  <i name="SIGMA">      0.05000000</i>
 </incar>
 <primitive_cell>
  <structure name="primitive_cell" >
   <crystal>
    <varray name="basis" >
     <v>       6.78998557       0.00000000       0.00000000 </v>
     <v>       2.26332852       3.20082989       0.00000000 </v>
     <v>       0.00000000       0.00000000      18.39296920 </v>
    </varray>
    <i name="volume">    399.74522888 </i>
    <varray name="rec_basis" >
     <v>       0.14727572      -0.10413966       0.00000000 </v>
     <v>       0.00000000       0.31241898       0.00000000 </v>
     <v>       0.00000000       0.00000000       0.05436860 </v>
    </varray>
   </crystal>
   <varray name="positions" >
    <v>       0.12500266       0.99999637       0.99666965 </v>
    <v>       0.37500266       0.24999637       0.99666965 </v>
    <v>       0.62500266       0.99999637       0.10104621 </v>
    <v>       0.87500266       0.24999637       0.10104621 </v>
    <v>       0.12500266       0.99999637       0.20542278 </v>
    <v>       0.37500266       0.24999637       0.20542278 </v>
    <v>       0.62500266       0.99999637       0.30979934 </v>
    <v>       0.87500266       0.24999637       0.30979934 </v>
    <v>       0.12500266       0.99999637       0.41417590 </v>
    <v>       0.37500266       0.24999637       0.41417590 </v>
    <v>       0.12499923       0.37500391       0.48789797 </v>
    <v>       0.37499923       0.62500391       0.48789797 </v>
    <v>       0.62499923       0.37500391       0.59665720 </v>
    <v>       0.87499923       0.62500391       0.59665720 </v>
    <v>       0.12499923       0.37500391       0.70541642 </v>
    <v>       0.37499923       0.62500391       0.70541642 </v>
    <v>       0.62499923       0.37500391       0.81417565 </v>
    <v>       0.87499923       0.62500391       0.81417565 </v>
    <v>       0.12499923       0.37500391       0.92293487 </v>
    <v>       0.37499923       0.62500391       0.92293487 </v>
   </varray>
  </structure>
  <varray name="primitive_index" >
   <v type="int" >        1 </v>
   <v type="int" >        2 </v>
   <v type="int" >        3 </v>
   <v type="int" >        4 </v>
   <v type="int" >        5 </v>
   <v type="int" >        6 </v>
   <v type="int" >        7 </v>
   <v type="int" >        8 </v>
   <v type="int" >        9 </v>
   <v type="int" >       10 </v>
   <v type="int" >       11 </v>
   <v type="int" >       12 </v>
   <v type="int" >       13 </v>
   <v type="int" >       14 </v>
   <v type="int" >       15 </v>
   <v type="int" >       16 </v>
   <v type="int" >       17 </v>
   <v type="int" >       18 </v>
   <v type="int" >       19 </v>
   <v type="int" >       20 </v>
  </varray>
 </primitive_cell>
 <kpoints>
  <generation param="Gamma">
   <v type="int" name="divisions">       4        4        4 </v>
   <v name="usershift">      0.00000000       0.00000000       0.00000000 </v>
   <v name="genvec1">      0.25000000       0.00000000       0.00000000 </v>
   <v name="genvec2">      0.00000000       0.25000000       0.00000000 </v>
   <v name="genvec3">      0.00000000       0.00000000       0.25000000 </v>
   <v name="shift">      0.00000000       0.00000000       0.00000000 </v>
  </generation>
  <varray name="kpointlist" >
   <v>       0.00000000       0.00000000       0.00000000 </v>
   <v>       0.25000000      -0.00000000       0.00000000 </v>
   <v>       0.50000000      -0.00000000       0.00000000 </v>
   <v>       0.00000000       0.25000000       0.00000000 </v>
   <v>       0.25000000       0.25000000       0.00000000 </v>
   <v>      -0.25000000       0.25000000       0.00000000 </v>
   <v>       0.00000000       0.50000000       0.00000000 </v>
   <v>       0.25000000       0.50000000       0.00000000 </v>
   <v>       0.50000000       0.50000000       0.00000000 </v>
   <v>       0.00000000       0.00000000       0.25000000 </v>
   <v>       0.25000000      -0.00000000       0.25000000 </v>
   <v>       0.50000000      -0.00000000       0.25000000 </v>
   <v>       0.00000000       0.25000000       0.25000000 </v>
   <v>       0.50000000       0.25000000      -0.25000000 </v>
   <v>       0.25000000       0.25000000       0.25000000 </v>
   <v>       0.25000000       0.25000000      -0.25000000 </v>
   <v>      -0.25000000       0.25000000       0.25000000 </v>
   <v>      -0.25000000       0.25000000      -0.25000000 </v>
   <v>       0.00000000       0.50000000       0.25000000 </v>
   <v>       0.25000000       0.50000000       0.25000000 </v>
   <v>       0.50000000       0.50000000       0.25000000 </v>
   <v>       0.00000000       0.00000000       0.50000000 </v>
   <v>       0.25000000      -0.00000000       0.50000000 </v>
   <v>       0.50000000      -0.00000000       0.50000000 </v>
   <v>       0.00000000       0.25000000       0.50000000 </v>
   <v>       0.25000000       0.25000000       0.50000000 </v>
   <v>      -0.25000000       0.25000000       0.50000000 </v>
   <v>       0.00000000       0.50000000       0.50000000 </v>
   <v>       0.25000000       0.50000000       0.50000000 </v>
   <v>       0.50000000       0.50000000       0.50000000 </v>
  </varray>
  <varray name="weights" >
   <v>       0.01562500 </v>
   <v>       0.03125000 </v>
   <v>       0.01562500 </v>
   <v>       0.06250000 </v>
   <v>       0.03125000 </v>
   <v>       0.03125000 </v>
   <v>       0.01562500 </v>
   <v>       0.03125000 </v>
   <v>       0.01562500 </v>
   <v>       0.03125000 </v>
   <v>       0.06250000 </v>
   <v>       0.03125000 </v>
   <v>       0.06250000 </v>
   <v>       0.06250000 </v>
   <v>       0.03125000 </v>
   <v>       0.03125000 </v>
   <v>       0.03125000 </v>
   <v>       0.03125000 </v>
   <v>       0.03125000 </v>
   <v>       0.06250000 </v>
   <v>       0.03125000 </v>
   <v>       0.01562500 </v>
   <v>       0.03125000 </v>
   <v>       0.01562500 </v>
   <v>       0.06250000 </v>
   <v>       0.03125000 </v>
   <v>       0.03125000 </v>
   <v>       0.01562500 </v>
   <v>       0.03125000 </v>
   <v>       0.01562500 </v>
  </varray>
 </kpoints>
 <parameters>
  <separator name="general" >
   <i type="string" name="SYSTEM">Si and Ge interface calculation</i>
   <i type="logical" name="LCOMPAT"> F  </i>
  </separator>
  <separator name="electronic" >
   <i type="string" name="PREC">normal</i>
   <i name="ENMAX">    600.00000000</i>
   <i name="ENAUG">    385.84300000</i>
   <i name="EDIFF">      0.00000100</i>
   <i type="int" name="IALGO">    48</i>
   <i type="int" name="IWAVPR">    11</i>
   <i type="int" name="NBANDS">    51</i>
   <i type="int" name="NBANDSLOW">    -1</i>
   <i type="int" name="NBANDSHIGH">    -1</i>
   <i name="NELECT">     80.00000000</i>
   <i type="int" name="TURBO">     0</i>
   <i type="int" name="IRESTART">     0</i>
   <i type="int" name="NREBOOT">     0</i>
   <i type="int" name="NMIN">     0</i>
   <i name="EREF">      0.00000000</i>
   <separator name="electronic smearing" >
    <i type="int" name="ISMEAR">     0</i>
    <i name="SIGMA">      0.05000000</i>
    <i name="KSPACING">      0.50000000</i>
    <i type="logical" name="KGAMMA"> T  </i>
    <i type="logical" name="KBLOWUP"> T  </i>
   </separator>
   <separator name="electronic projectors" >
    <i type="logical" name="LREAL"> T  </i>
    <v name="ROPT">     -0.00050000     -0.00050000</v>
    <i type="int" name="LMAXPAW">  -100</i>
    <i type="int" name="LMAXMIX">     2</i>
    <i type="logical" name="NLSPLINE"> F  </i>
   </separator>
   <separator name="electronic startup" >
    <i type="int" name="ISTART">     0</i>
    <i type="int" name="ICHARG">     2</i>
    <i type="int" name="INIWAV">     1</i>
   </separator>
   <separator name="electronic spin" >
    <i type="int" name="ISPIN">     1</i>
    <i type="logical" name="LNONCOLLINEAR"> F  </i>
    <v name="MAGMOM">      1.00000000      1.00000000      1.00000000      1.00000000      1.00000000      1.00000000      1.00000000      1.00000000      1.00000000      1.00000000      1.00000000      1.00000000      1.00000000      1.00000000      1.00000000      1.00000000      1.00000000      1.00000000      1.00000000      1.00000000
</v>
    <i name="NUPDOWN">     -1.00000000</i>
    <i type="logical" name="LSORBIT"> F  </i>
    <v name="SAXIS">      0.00000000      0.00000000      1.00000000</v>
    <i type="logical" name="LSPIRAL"> F  </i>
    <v name="QSPIRAL">      0.00000000      0.00000000      0.00000000</v>
    <i type="logical" name="LZEROZ"> F  </i>
   </separator>
   <separator name="electronic exchange-correlation" >
    <i type="logical" name="LASPH"> F  </i>
   </separator>
   <separator name="electronic convergence" >
    <i type="int" name="NELM">    60</i>
    <i type="int" name="NELMDL">   -12</i>
    <i type="int" name="NELMIN">     2</i>
    <i name="ENINI">    600.00000000</i>
    <separator name="electronic convergence detail" >
     <i type="logical" name="LDIAG"> T  </i>
     <i type="logical" name="LSUBROT"> F  </i>
     <i name="WEIMIN">      0.00100000</i>
     <i name="EBREAK">      0.00000000</i>
     <i name="DEPER">      0.30000000</i>
     <i type="int" name="NRMM">     4</i>
     <i name="TIME">      0.40000000</i>
    </separator>
   </separator>
   <separator name="electronic mixer" >
    <i name="AMIX">      0.40000000</i>
    <i name="BMIX">      1.00000000</i>
    <i name="AMIN">      0.10000000</i>
    <i name="AMIX_MAG">      1.60000000</i>
    <i name="BMIX_MAG">      1.00000000</i>
    <separator name="electronic mixer details" >
     <i type="int" name="IMIX">     4</i>
     <i type="logical" name="MIXFIRST"> F  </i>
     <i type="int" name="MAXMIX">   -45</i>
     <i name="WC">    100.00000000</i>
     <i type="int" name="INIMIX">     1</i>
     <i type="int" name="MIXPRE">     1</i>
     <i type="int" name="MREMOVE">     5</i>
    </separator>
   </separator>
   <separator name="electronic dipolcorrection" >
    <i type="logical" name="LDIPOL"> F  </i>
    <i type="logical" name="LMONO"> F  </i>
    <i type="int" name="IDIPOL">     0</i>
    <i name="EPSILON">      1.00000000</i>
    <v name="DIPOL">   -100.00000000   -100.00000000   -100.00000000</v>
    <i name="EFIELD">      0.00000000</i>
    <i type="logical" name="LVACPOTAV"> F  </i>
   </separator>
  </separator>
  <separator name="grids" >
   <i type="int" name="NGX">    42</i>
   <i type="int" name="NGY">    24</i>
   <i type="int" name="NGZ">   112</i>
   <i type="int" name="NGXF">    84</i>
   <i type="int" name="NGYF">    48</i>
   <i type="int" name="NGZF">   224</i>
   <i type="logical" name="ADDGRID"> F  </i>
  </separator>
  <separator name="ionic" >
   <i type="int" name="NSW">    20</i>
   <i type="int" name="IBRION">     2</i>
   <i type="int" name="MDALGO">     0</i>
   <i type="int" name="ISIF">     3</i>
   <i name="PSTRESS">      0.00000000</i>
   <i name="EDIFFG">     -0.01000000</i>
   <i type="int" name="NFREE">     1</i>
   <i name="POTIM">      0.50000000</i>
   <i name="SMASS">     -3.00000000</i>
   <i name="SCALEE">      1.00000000</i>
  </separator>
  <separator name="ionic md" >
   <i name="TEBEG">      0.00010000</i>
   <i name="TEEND">      0.00010000</i>
   <i type="int" name="NBLOCK">     1</i>
   <i type="int" name="KBLOCK">    20</i>
   <i type="int" name="NPACO">   256</i>
   <i name="APACO">     10.00000000</i>
  </separator>
  <separator name="symmetry" >
   <i type="int" name="ISYM">     2</i>
   <i name="SYMPREC">      0.00001000</i>
  </separator>
  <separator name="dos" >
   <i type="int" name="LORBIT">     0</i>
   <v name="RWIGS">     -1.00000000     -1.00000000</v>
   <i type="int" name="NEDOS">   301</i>
   <i name="EMIN">     10.00000000</i>
   <i name="EMAX">    -10.00000000</i>
   <i name="EFERMI">      0.00000000</i>
  </separator>
  <separator name="writing" >
   <i type="int" name="NWRITE">     2</i>
   <i type="logical" name="LWAVE"> T  </i>
   <i type="logical" name="LDOWNSAMPLE"> F  </i>
   <i type="logical" name="LCHARG"> T  </i>
   <i type="logical" name="LPARD"> F  </i>
   <i type="logical" name="LVTOT"> F  </i>
   <i type="logical" name="LVHAR"> F  </i>
   <i type="logical" name="LELF"> F  </i>
   <i type="logical" name="LOPTICS"> F  </i>
   <v name="STM">      0.00000000      0.00000000      0.00000000      0.00000000      0.00000000      0.00000000      0.00000000</v>
  </separator>
  <separator name="performance" >
   <i type="int" name="NPAR">     1</i>
   <i type="int" name="NSIM">     4</i>
   <i type="int" name="NBLK">    -1</i>
   <i type="logical" name="LPLANE"> T  </i>
   <i type="logical" name="LSCALAPACK"> T  </i>
   <i type="logical" name="LSCAAWARE"> F  </i>
   <i type="logical" name="LSCALU"> F  </i>
   <i type="logical" name="LASYNC"> F  </i>
   <i type="logical" name="LORBITALREAL"> F  </i>
  </separator>
  <separator name="miscellaneous" >
   <i type="int" name="IDIOT">     3</i>
   <i type="int" name="PHON_NSTRUCT">    -1</i>
   <i type="logical" name="LMUSIC"> F  </i>
   <v name="POMASS">     28.08500000     72.61000000</v>
   <v name="DARWINR">      0.00000000      0.00000000</v>
   <v name="DARWINV">      1.00000000      1.00000000</v>
   <i type="logical" name="LCORR"> T  </i>
  </separator>
  <i type="logical" name="GGA_COMPAT"> T  </i>
  <i type="logical" name="LBERRY"> F  </i>
  <i type="int" name="ICORELEVEL">     0</i>
  <i type="logical" name="LDAU"> F  </i>
  <i type="int" name="I_CONSTRAINED_M">     0</i>
  <separator name="electronic exchange-correlation" >
   <i type="string" name="GGA    ">PE</i>
   <i type="string" name="XC_C">1</i>
   <i type="int" name="VOSKOWN">     0</i>
   <i type="logical" name="LHFCALC"> F  </i>
   <i type="string" name="PRECFOCK"></i>
   <i type="logical" name="LSYMGRAD"> F  </i>
   <i type="logical" name="LHFONE"> F  </i>
   <i type="logical" name="LRHFCALC"> F  </i>
   <i type="logical" name="LTHOMAS"> F  </i>
   <i type="logical" name="LMODELHF"> F  </i>
   <i type="logical" name="LFOCKACE"> F  </i>
   <i name="ENCUT4O">     -1.00000000</i>
   <i type="int" name="EXXOEP">     0</i>
   <i type="int" name="FOURORBIT">     0</i>
   <i name="AEXX">      0.00000000</i>
   <i name="HFALPHA">      0.00000000</i>
   <i name="MCALPHA">      0.00000000</i>
   <i name="ALDAX">      1.00000000</i>
   <i name="AGGAX">      1.00000000</i>
   <i name="AMGGAX">      1.00000000</i>
   <i name="ALDAC">      1.00000000</i>
   <i name="AGGAC">      1.00000000</i>
   <i name="AMGGAC">      1.00000000</i>
   <i type="int" name="NKREDX">     1</i>
   <i type="int" name="NKREDY">     1</i>
   <i type="int" name="NKREDZ">     1</i>
   <i type="logical" name="SHIFTRED"> F  </i>
   <i type="logical" name="ODDONLY"> F  </i>
   <i type="logical" name="EVENONLY"> F  </i>
   <i type="int" name="LMAXFOCK">     0</i>
   <i type="int" name="NMAXFOCKAE">     0</i>
   <i type="logical" name="LFOCKAEDFT"> F  </i>
   <i name="HFSCREEN">      0.00000000</i>
   <i name="HFSCREENC">      0.00000000</i>
   <i type="int" name="NBANDSGWLOW">     0</i>
  </separator>
  <separator name="vdW DFT" >
   <i type="logical" name="LUSE_VDW"> F  </i>
   <i type="int" name="IVDW_NL">    -1</i>
   <i type="logical" name="LSPIN_VDW"> F  </i>
   <i name="ZAB_VDW">     -0.84910000</i>
   <i name="GAMMA_VDW">      1.39626340</i>
   <i name="ALPHA_VDW">      0.00000000</i>
   <i name="PARAM1">      0.12340000</i>
   <i name="PARAM2">      1.00000000</i>
   <i name="BPARAM">      6.30000000</i>
   <i name="CPARAM">      0.00930000</i>
  </separator>
  <separator name="model GW" >
   <i type="int" name="MODEL_GW">     0</i>
   <i name="MODEL_EPS0">     11.99235687</i>
   <i name="MODEL_ALPHA">      1.00000000</i>
  </separator>
  <separator name="linear response parameters" >
   <i type="logical" name="LEPSILON"> F  </i>
   <i type="logical" name="LRPA"> F  </i>
   <i type="logical" name="LNABLA"> F  </i>
   <i type="logical" name="LVEL"> F  </i>
   <i name="CSHIFT">      0.10000000</i>
   <i name="OMEGAMAX">     -1.00000000</i>
   <i name="DEG_THRESHOLD">      0.00200000</i>
   <i name="RTIME">     -0.10000000</i>
   <i name="WPLASMAI">      0.00000000</i>
   <v name="DFIELD">      0.00000000      0.00000000      0.00000000</v>
   <v name="WPLASMA">      0.00000000      0.00000000      0.00000000      0.00000000      0.00000000      0.00000000      0.00000000      0.00000000      0.00000000</v>
  </separator>
  <separator name="orbital magnetization" >
   <i type="logical" name="NUCIND"> F  </i>
   <v name="MAGPOS">      0.00000000      0.00000000      0.00000000</v>
   <i type="logical" name="LNICSALL"> T  </i>
   <i type="logical" name="ORBITALMAG"> F  </i>
   <i type="logical" name="LMAGBLOCH"> F  </i>
   <i type="logical" name="LCHIMAG"> F  </i>
   <i type="logical" name="LGAUGE"> T  </i>
   <i type="int" name="MAGATOM">     0</i>
   <v name="MAGDIPOL">      0.00000000      0.00000000      0.00000000</v>
   <v name="AVECCONST">      0.00000000      0.00000000      0.00000000</v>
  </separator>
  <separator name="response functions" >
   <i type="logical" name="LALL_IN_ONE"> F  </i>
   <i type="int" name="IALL_IN_ONE">    -1</i>
   <i type="int" name="NBANDS_WAVE">    -1</i>
   <i type="logical" name="LFINITE_TEMPERATURE"> F  </i>
   <i type="logical" name="LADDER"> F  </i>
   <i type="logical" name="LRPAFORCE"> F  </i>
   <i type="logical" name="LFXC"> F  </i>
   <i type="logical" name="LHARTREE"> T  </i>
   <i type="int" name="IBSE">     0</i>
   <v type="int" name="KPOINT">    -1     0     0     0</v>
   <i type="logical" name="LTCTC"> F  </i>
   <i type="logical" name="LTCTE"> F  </i>
   <i type="logical" name="LTETE"> F  </i>
   <i type="logical" name="LTRIPLET"> F  </i>
   <i type="logical" name="LFXCEPS"> F  </i>
   <i type="logical" name="LFXHEG"> F  </i>
   <i type="int" name="NATURALO">     2</i>
   <i type="logical" name="LHOLEGF"> F  </i>
   <i type="logical" name="L2ORDER"> F  </i>
   <i type="logical" name="LDMP1"> F  </i>
   <i type="logical" name="LMP2LT"> F  </i>
   <i type="logical" name="LSMP2LT"> F  </i>
   <i type="logical" name="LGWLF"> F  </i>
   <i name="ENCUTGW">     -1.60000002</i>
   <i name="ENCUTGWSOFT">     -1.60000002</i>
   <i name="ENCUTLF">     -1.00000000</i>
   <i type="logical" name="ESF_SPLINES"> F  </i>
   <i name="ESF_CONV">      0.01000000</i>
   <i type="int" name="ESF_NINTER">    15</i>
   <i type="int" name="LMAXMP2">    -1</i>
   <i name="SCISSOR">      0.00000000</i>
   <i type="int" name="NOMEGA">     0</i>
   <i type="int" name="NOMEGAR">     0</i>
   <i type="int" name="NBANDSGW">    -1</i>
   <i type="int" name="NBANDSO">    -1</i>
   <i type="int" name="NBANDSV">    -1</i>
   <i type="int" name="NELMGW">     1</i>
   <i type="int" name="NELMHF">     1</i>
   <i type="int" name="DIM">     3</i>
   <i type="int" name="IESPILON">     4</i>
   <i type="int" name="ANTIRES">     0</i>
   <i name="OMEGAMAX">    -30.00000000</i>
   <i name="OMEGAMIN">    -30.00000000</i>
   <i name="OMEGATL">   -200.00000000</i>
   <i type="int" name="OMEGAGRID">     0</i>
   <i name="CSHIFT">     -0.10000000</i>
   <i type="logical" name="LSELFENERGY"> F  </i>
   <i type="logical" name="LSPECTRAL"> F  </i>
   <i type="logical" name="LSPECTRALGW"> F  </i>
   <i type="logical" name="LSINGLES"> F  </i>
   <i type="logical" name="LFERMIGW"> F  </i>
   <i type="logical" name="ODDONLYGW"> F  </i>
   <i type="logical" name="EVENONLYGW"> F  </i>
   <i type="int" name="NKREDLFX">     1</i>
   <i type="int" name="NKREDLFY">     1</i>
   <i type="int" name="NKREDLFZ">     1</i>
   <i type="int" name="MAXMEM">  2800</i>
   <i type="int" name="TELESCOPE">     0</i>
   <i type="int" name="NTAUPAR">    -1</i>
   <i type="int" name="NOMEGAPAR">    -1</i>
   <i name="DAMP_NEWTON">      0.80000001</i>
   <i name="LAMBDA">      1.00000000</i>
  </separator>
  <separator name="External order field" >
   <i name="OFIELD_KAPPA">      0.00000000</i>
   <v name="OFIELD_K">      0.00000000      0.00000000      0.00000000</v>
   <i name="OFIELD_Q6_NEAR">      0.00000000</i>
   <i name="OFIELD_Q6_FAR">      0.00000000</i>
   <i name="OFIELD_A">      0.00000000</i>
  </separator>
  <separator name="optional k-points parameters" >
   <i type="int" name="KPOINTS_OPT_MODE">     1</i>
   <i type="logical" name="LKPOINTS_OPT"> F  </i>
  </separator>
 </parameters>
 <atominfo>
  <atoms>      20 </atoms>
  <types>       2 </types>
  <array name="atoms" >
   <dimension dim="1">ion</dimension>
   <field type="string">element</field>
   <field type="int">atomtype</field>
   <set>
    <rc><c>Si</c><c>   1</c></rc>
    <rc><c>Si</c><c>   1</c></rc>
    <rc><c>Si</c><c>   1</c></rc>
    <rc><c>Si</c><c>   1</c></rc>
    <rc><c>Si</c><c>   1</c></rc>
    <rc><c>Si</c><c>   1</c></rc>
    <rc><c>Si</c><c>   1</c></rc>
    <rc><c>Si</c><c>   1</c></rc>
    <rc><c>Si</c><c>   1</c></rc>
    <rc><c>Si</c><c>   1</c></rc>
    <rc><c>Ge</c><c>   2</c></rc>
    <rc><c>Ge</c><c>   2</c></rc>
    <rc><c>Ge</c><c>   2</c></rc>
    <rc><c>Ge</c><c>   2</c></rc>
    <rc><c>Ge</c><c>   2</c></rc>
    <rc><c>Ge</c><c>   2</c></rc>
    <rc><c>Ge</c><c>   2</c></rc>
    <rc><c>Ge</c><c>   2</c></rc>
    <rc><c>Ge</c><c>   2</c></rc>
    <rc><c>Ge</c><c>   2</c></rc>
   </set>
  </array>
  <array name="atomtypes" >
   <dimension dim="1">type</dimension>
   <field type="int">atomspertype</field>
   <field type="string">element</field>
   <field>mass</field>
   <field>valence</field>
   <field type="string">pseudopotential</field>
   <set>
    <rc><c>  10</c><c>Si</c><c>     28.08500000</c><c>      4.00000000</c><c>  PAW_PBE Si 05Jan2001                  </c></rc>
    <rc><c>  10</c><c>Ge</c><c>     72.61000000</c><c>      4.00000000</c><c>  PAW_PBE Ge 05Jan2001                  </c></rc>
   </set>
  </array>
 </atominfo>
 <structure name="initialpos" >
  <crystal>
   <varray name="basis" >
    <v>       6.78998557       0.00000000       0.00000000 </v>
    <v>       2.26332852       3.20082989       0.00000000 </v>
    <v>       0.00000000       0.00000000      18.39296920 </v>
   </varray>
   <i name="volume">    399.74522888 </i>
   <varray name="rec_basis" >
    <v>       0.14727572      -0.10413966       0.00000000 </v>
    <v>       0.00000000       0.31241898       0.00000000 </v>
    <v>       0.00000000       0.00000000       0.05436860 </v>
   </varray>
  </crystal>
  <varray name="positions" >
   <v>       0.12500266       0.99999637       0.99666965 </v>
   <v>       0.37500266       0.24999637       0.99666965 </v>
   <v>       0.62500266       0.99999637       0.10104621 </v>
   <v>       0.87500266       0.24999637       0.10104621 </v>
   <v>       0.12500266       0.99999637       0.20542278 </v>
   <v>       0.37500266       0.24999637       0.20542278 </v>
   <v>       0.62500266       0.99999637       0.30979934 </v>
   <v>       0.87500266       0.24999637       0.30979934 </v>
   <v>       0.12500266       0.99999637       0.41417590 </v>
   <v>       0.37500266       0.24999637       0.41417590 </v>
   <v>       0.12499923       0.37500391       0.48789797 </v>
   <v>       0.37499923       0.62500391       0.48789797 </v>
   <v>       0.62499923       0.37500391       0.59665720 </v>
   <v>       0.87499923       0.62500391       0.59665720 </v>
   <v>       0.12499923       0.37500391       0.70541642 </v>
   <v>       0.37499923       0.62500391       0.70541642 </v>
   <v>       0.62499923       0.37500391       0.81417565 </v>
   <v>       0.87499923       0.62500391       0.81417565 </v>
   <v>       0.12499923       0.37500391       0.92293487 </v>
   <v>       0.37499923       0.62500391       0.92293487 </v>
  </varray>
 </structure>
 <calculation>
  <scstep>
   <time name="diag">    3.42    3.44</time>
   <time name="diis">    7.14    7.17</time>
   <time name="orth">    0.31    0.31</time>
   <time name="total">   11.21   11.27</time>
   <energy>
    <i name="alphaZ">    112.46935826 </i>
    <i name="ewald">  -2143.03675875 </i>
    <i name="hartreedc">   -205.13480344 </i>
    <i name="XCdc">   -164.28265173 </i>
    <i name="pawpsdc">   1762.68994814 </i>
    <i name="pawaedc">  -1441.88142837 </i>
    <i name="eentropy">     -0.00051443 </i>
    <i name="bandstr">    648.68271465 </i>
    <i name="atom">   2080.62436032 </i>
    <i name="e_fr_energy">    650.13022466 </i>
    <i name="e_wo_entrp">    650.13073909 </i>
    <i name="e_0_energy">    650.13048187 </i>
   </energy>
  </scstep>
  <scstep>
   <time name="diag">    3.40    3.42</time>
   <time name="diis">    7.13    7.16</time>
   <time name="orth">    0.31    0.31</time>
   <time name="total">   10.84   10.89</time>
   <energy>
    <i name="e_fr_energy">    121.47157870 </i>
    <i name="e_wo_entrp">    121.47436164 </i>
    <i name="e_0_energy">    121.47297017 </i>
   </energy>
  </scstep>
  <scstep>
   <time name="diag">    3.41    3.42</time>
   <time name="diis">    7.12    7.15</time>
   <time name="orth">    0.31    0.31</time>
   <time name="total">   10.84   10.89</time>
   <energy>
    <i name="e_fr_energy">    -14.97351023 </i>
    <i name="e_wo_entrp">    -14.96159777 </i>
    <i name="e_0_energy">    -14.96755400 </i>
   </energy>
  </scstep>
  <scstep>
   <time name="diag">    3.40    3.42</time>
   <time name="diis">    7.13    7.16</time>
   <time name="orth">    0.31    0.31</time>
   <time name="total">   10.84   10.89</time>
   <energy>
    <i name="e_fr_energy">    -53.24947634 </i>
    <i name="e_wo_entrp">    -53.24525883 </i>
    <i name="e_0_energy">    -53.24736759 </i>
   </energy>
  </scstep>
  <scstep>
   <time name="diag">    3.40    3.42</time>
   <time name="diis">    7.12    7.16</time>
   <time name="orth">    0.31    0.31</time>
   <time name="total">   10.83   10.88</time>
   <energy>
    <i name="e_fr_energy">    -69.75260952 </i>
    <i name="e_wo_entrp">    -69.74653901 </i>
    <i name="e_0_energy">    -69.74957427 </i>
   </energy>
  </scstep>
  <scstep>
   <time name="diag">    3.41    3.42</time>
   <time name="diis">    7.12    7.16</time>
   <time name="orth">    0.31    0.31</time>
   <time name="total">   10.84   10.89</time>
   <energy>
    <i name="e_fr_energy">    -76.67472007 </i>
    <i name="e_wo_entrp">    -76.66655620 </i>
    <i name="e_0_energy">    -76.67063813 </i>
   </energy>
  </scstep>
  <scstep>
   <time name="diag">    3.40    3.42</time>
   <time name="diis">    7.13    7.16</time>
   <time name="orth">    0.31    0.31</time>
   <time name="total">   10.84   10.89</time>
   <energy>
    <i name="e_fr_energy">    -79.91446973 </i>
    <i name="e_wo_entrp">    -79.90899301 </i>
    <i name="e_0_energy">    -79.91173137 </i>
   </energy>
  </scstep>
  <scstep>
   <time name="diag">    3.40    3.42</time>
   <time name="diis">    7.14    7.17</time>
   <time name="orth">    0.31    0.31</time>
   <time name="total">   10.85   10.90</time>
   <energy>
    <i name="e_fr_energy">    -81.45928335 </i>
    <i name="e_wo_entrp">    -81.45437672 </i>
    <i name="e_0_energy">    -81.45683004 </i>
   </energy>
  </scstep>
  <scstep>
   <time name="diag">    3.41    3.42</time>
   <time name="diis">   13.94   14.00</time>
   <time name="orth">    0.31    0.31</time>
   <time name="total">   17.65   17.73</time>
   <energy>
    <i name="e_fr_energy">    -82.88971778 </i>
    <i name="e_wo_entrp">    -82.88524189 </i>
    <i name="e_0_energy">    -82.88747983 </i>
   </energy>
  </scstep>
  <scstep>
   <time name="diag">    3.40    3.42</time>
   <time name="diis">   13.79   13.85</time>
   <time name="orth">    0.31    0.31</time>
   <time name="total">   17.50   17.58</time>
   <energy>
    <i name="e_fr_energy">    -83.07029088 </i>
    <i name="e_wo_entrp">    -83.06528824 </i>
    <i name="e_0_energy">    -83.06778956 </i>
   </energy>
  </scstep>
  <scstep>
   <time name="diag">    3.40    3.41</time>
   <time name="diis">   14.54   14.60</time>
   <time name="orth">    0.31    0.31</time>
   <time name="total">   18.25   18.33</time>
   <energy>
    <i name="e_fr_energy">    -83.11239408 </i>
    <i name="e_wo_entrp">    -83.10703681 </i>
    <i name="e_0_energy">    -83.10971545 </i>
   </energy>
  </scstep>
  <scstep>
   <time name="diag">    3.41    3.42</time>
   <time name="diis">   14.17   14.24</time>
   <time name="orth">    0.31    0.31</time>
   <time name="total">   19.29   19.38</time>
   <energy>
    <i name="e_fr_energy">    -83.11944107 </i>
    <i name="e_wo_entrp">    -83.11400001 </i>
    <i name="e_0_energy">    -83.11672054 </i>
   </energy>
  </scstep>
  <scstep>
   <time name="diag">    3.40    3.42</time>
   <time name="diis">   21.53   21.63</time>
   <time name="orth">    0.31    0.31</time>
   <time name="total">   26.97   27.10</time>
   <energy>
    <i name="e_fr_energy">    -79.61060596 </i>
    <i name="e_wo_entrp">    -79.60661907 </i>
    <i name="e_0_energy">    -79.60861252 </i>
   </energy>
  </scstep>
  <scstep>
   <time name="diag">    3.40    3.41</time>
   <time name="diis">   18.34   18.42</time>
   <time name="orth">    0.31    0.31</time>
   <time name="total">   23.77   23.88</time>
   <energy>
    <i name="e_fr_energy">    -78.97705554 </i>
    <i name="e_wo_entrp">    -78.97481447 </i>
    <i name="e_0_energy">    -78.97593501 </i>
   </energy>
  </scstep>
  <scstep>
   <time name="diag">    3.40    3.41</time>
   <time name="diis">   13.34   13.40</time>
   <time name="orth">    0.31    0.31</time>
   <time name="total">   18.77   18.85</time>
   <energy>
    <i name="e_fr_energy">    -78.94717828 </i>
    <i name="e_wo_entrp">    -78.94432133 </i>
    <i name="e_0_energy">    -78.94574980 </i>
   </energy>
  </scstep>
  <scstep>
   <time name="diag">    3.40    3.42</time>
   <time name="diis">   12.43   12.48</time>
   <time name="orth">    0.31    0.31</time>
   <time name="total">   17.86   17.94</time>
   <energy>
    <i name="e_fr_energy">    -78.94316737 </i>
    <i name="e_wo_entrp">    -78.94047079 </i>
    <i name="e_0_energy">    -78.94181908 </i>
   </energy>
  </scstep>
  <scstep>
   <time name="diag">    3.40    3.41</time>
   <time name="diis">   12.47   12.53</time>
   <time name="orth">    0.31    0.31</time>
   <time name="total">   17.90   17.98</time>
   <energy>
    <i name="e_fr_energy">    -78.94447840 </i>
    <i name="e_wo_entrp">    -78.94188762 </i>
    <i name="e_0_energy">    -78.94318301 </i>
   </energy>
  </scstep>
  <scstep>
   <time name="diag">    3.40    3.41</time>
   <time name="diis">   12.77   12.83</time>
   <time name="orth">    0.31    0.31</time>
   <time name="total">   18.20   18.28</time>
   <energy>
    <i name="e_fr_energy">    -78.94418523 </i>
    <i name="e_wo_entrp">    -78.94159371 </i>
    <i name="e_0_energy">    -78.94288947 </i>
   </energy>
  </scstep>
  <scstep>
   <time name="diag">    3.40    3.41</time>
   <time name="diis">   12.60   12.66</time>
   <time name="orth">    0.31    0.31</time>
   <time name="total">   18.03   18.11</time>
   <energy>
    <i name="e_fr_energy">    -78.94450560 </i>
    <i name="e_wo_entrp">    -78.94183921 </i>
    <i name="e_0_energy">    -78.94317240 </i>
   </energy>
  </scstep>
  <scstep>
   <time name="diag">    3.40    3.41</time>
   <time name="diis">   12.79   12.85</time>
   <time name="orth">    0.31    0.31</time>
   <time name="total">   18.22   18.30</time>
   <energy>
    <i name="e_fr_energy">    -78.94450039 </i>
    <i name="e_wo_entrp">    -78.94186124 </i>
    <i name="e_0_energy">    -78.94318081 </i>
   </energy>
  </scstep>
  <scstep>
   <time name="diag">    3.40    3.41</time>
   <time name="diis">   13.13   13.19</time>
   <time name="orth">    0.31    0.31</time>
   <time name="total">   18.56   18.64</time>
   <energy>
    <i name="e_fr_energy">    -78.94450642 </i>
    <i name="e_wo_entrp">    -78.94187501 </i>
    <i name="e_0_energy">    -78.94319072 </i>
   </energy>
  </scstep>
  <scstep>
   <time name="diag">    3.40    3.41</time>
   <time name="diis">   12.59   12.65</time>
   <time name="orth">    0.31    0.31</time>
   <time name="total">   18.02   18.10</time>
   <energy>
    <i name="e_fr_energy">    -78.94450694 </i>
    <i name="e_wo_entrp">    -78.94187294 </i>
    <i name="e_0_energy">    -78.94318994 </i>
   </energy>
  </scstep>
  <scstep>
   <time name="diag">    3.40    3.41</time>
   <time name="diis">    9.61    9.66</time>
   <time name="orth">    0.31    0.31</time>
   <time name="total">   15.04   15.11</time>
   <energy>
    <i name="e_fr_energy">    -78.94450810 </i>
    <i name="e_wo_entrp">    -78.94187335 </i>
    <i name="e_0_energy">    -78.94319073 </i>
   </energy>
  </scstep>
  <scstep>
   <time name="diag">    3.40    3.41</time>
   <time name="diis">    8.15    8.18</time>
   <time name="orth">    0.31    0.31</time>
   <time name="total">   12.18   12.23</time>
   <energy>
    <i name="alphaZ">    112.46935826 </i>
    <i name="ewald">  -2143.03675875 </i>
    <i name="hartreedc">   -250.51881049 </i>
    <i name="XCdc">   -158.02517825 </i>
    <i name="pawpsdc">   8353.58549690 </i>
    <i name="pawaedc">  -8037.12953636 </i>
    <i name="eentropy">     -0.00263495 </i>
    <i name="bandstr">    -36.91080463 </i>
    <i name="atom">   2080.62436032 </i>
    <i name="e_fr_energy">    -78.94450794 </i>
    <i name="e_wo_entrp">    -78.94187299 </i>
    <i name="e_0_energy">    -78.94319046 </i>
   </energy>
  </scstep>
  <structure>
   <crystal>
    <varray name="basis" >
     <v>       6.78998557       0.00000000       0.00000000 </v>
     <v>       2.26332852       3.20082989       0.00000000 </v>
     <v>       0.00000000       0.00000000      18.39296920 </v>
    </varray>
    <i name="volume">    399.74522888 </i>
    <varray name="rec_basis" >
     <v>       0.14727572      -0.10413966       0.00000000 </v>
     <v>       0.00000000       0.31241898       0.00000000 </v>
     <v>       0.00000000       0.00000000       0.05436860 </v>
    </varray>
   </crystal>
   <varray name="positions" >
    <v>       0.12500266       0.99999637       0.99666965 </v>
    <v>       0.37500266       0.24999637       0.99666965 </v>
    <v>       0.62500266       0.99999637       0.10104621 </v>
    <v>       0.87500266       0.24999637       0.10104621 </v>
    <v>       0.12500266       0.99999637       0.20542278 </v>
    <v>       0.37500266       0.24999637       0.20542278 </v>
    <v>       0.62500266       0.99999637       0.30979934 </v>
    <v>       0.87500266       0.24999637       0.30979934 </v>
    <v>       0.12500266       0.99999637       0.41417590 </v>
    <v>       0.37500266       0.24999637       0.41417590 </v>
    <v>       0.12499923       0.37500391       0.48789797 </v>
    <v>       0.37499923       0.62500391       0.48789797 </v>
    <v>       0.62499923       0.37500391       0.59665720 </v>
    <v>       0.87499923       0.62500391       0.59665720 </v>
    <v>       0.12499923       0.37500391       0.70541642 </v>
    <v>       0.37499923       0.62500391       0.70541642 </v>
    <v>       0.62499923       0.37500391       0.81417565 </v>
    <v>       0.87499923       0.62500391       0.81417565 </v>
    <v>       0.12499923       0.37500391       0.92293487 </v>
    <v>       0.37499923       0.62500391       0.92293487 </v>
   </varray>
  </structure>
  <varray name="forces" >
   <v>      -5.88578474       1.14907967      10.23112823 </v>
   <v>       3.04529095      -5.16614451      10.23112823 </v>
   <v>       0.31365106      -0.18707511       0.14777700 </v>
   <v>      -0.28092645       0.23335468       0.14777700 </v>
   <v>       0.07983873      -0.09598689       0.00075672 </v>
   <v>      -0.11711022       0.04327705       0.00075672 </v>
   <v>       0.31386771      -0.18736583      -0.13716973 </v>
   <v>      -0.28127277       0.23346204      -0.13716973 </v>
   <v>      -5.88468692       1.14549706     -10.23515725 </v>
   <v>       3.04154729      -5.16630369     -10.23515725 </v>
   <v>      -4.71198319       6.36678205       9.65492849 </v>
   <v>       7.57332074      -2.32023967       9.65492849 </v>
   <v>      -0.18349182       0.07718952       0.22413691 </v>
   <v>       0.13393891      -0.14726791       0.22413691 </v>
   <v>      -0.31220975       0.25233717      -0.02216286 </v>
   <v>       0.34197568      -0.21024179      -0.02216286 </v>
   <v>      -0.18243176       0.07628060      -0.21064407 </v>
   <v>       0.13272862      -0.14657144      -0.21064407 </v>
   <v>      -4.69232339       6.35542645      -9.65359344 </v>
   <v>       7.55606132      -2.30548943      -9.65359344 </v>
  </varray>
  <varray name="stress" >
   <v>     199.90337038      40.86338385      -0.00105439 </v>
   <v>      40.86338385     228.79814620      -0.00149113 </v>
   <v>      -0.00105421      -0.00149088     266.23162693 </v>
  </varray>
  <energy>
   <i name="e_fr_energy">    -78.94450794 </i>
   <i name="e_wo_entrp">    -78.94187299 </i>
   <i name="e_0_energy">    -78.94319046 </i>
  </energy>
  <time name="totalsc">  409.41  411.26</time>
 </calculation>
 <calculation>
  <scstep>
   <time name="diag">    3.39    3.41</time>
   <time name="diis">   14.16   14.23</time>
   <time name="orth">    0.31    0.31</time>
   <time name="total">   19.60   19.69</time>
   <energy>
    <i name="alphaZ">     76.09102679 </i>
    <i name="ewald">  -1950.02331760 </i>
    <i name="hartreedc">   -161.26120605 </i>
    <i name="XCdc">   -175.01042934 </i>
    <i name="pawpsdc">   8353.71789983 </i>
    <i name="pawaedc">  -8037.26197626 </i>
    <i name="eentropy">     -0.01302562 </i>
    <i name="bandstr">   -256.44385215 </i>
    <i name="atom">   2080.62436032 </i>
    <i name="e_fr_energy">    -69.58052008 </i>
    <i name="e_wo_entrp">    -69.56749445 </i>
    <i name="e_0_energy">    -69.57400727 </i>
   </energy>
  </scstep>
  <scstep>
   <time name="diag">    3.39    3.41</time>
   <time name="diis">   12.05   12.11</time>
   <time name="orth">    0.31    0.31</time>
   <time name="total">   17.50   17.58</time>
   <energy>
    <i name="e_fr_energy">    -81.43755200 </i>
    <i name="e_wo_entrp">    -81.42238894 </i>
    <i name="e_0_energy">    -81.42997047 </i>
   </energy>
  </scstep>
  <scstep>
   <time name="diag">    3.39    3.40</time>
   <time name="diis">   13.52   13.59</time>
   <time name="orth">    0.31    0.31</time>
   <time name="total">   18.96   19.04</time>
   <energy>
    <i name="e_fr_energy">    -81.76493264 </i>
    <i name="e_wo_entrp">    -81.75543081 </i>
    <i name="e_0_energy">    -81.76018173 </i>
   </energy>
  </scstep>
  <scstep>
   <time name="diag">    3.39    3.41</time>
   <time name="diis">   12.64   12.69</time>
   <time name="orth">    0.31    0.31</time>
   <time name="total">   18.08   18.16</time>
   <energy>
    <i name="e_fr_energy">    -81.40840977 </i>
    <i name="e_wo_entrp">    -81.39327870 </i>
    <i name="e_0_energy">    -81.40084424 </i>
   </energy>
  </scstep>
  <scstep>
   <time name="diag">    3.39    3.40</time>
   <time name="diis">   12.28   12.34</time>
   <time name="orth">    0.31    0.31</time>
   <time name="total">   17.72   17.80</time>
   <energy>
    <i name="e_fr_energy">    -79.32394202 </i>
    <i name="e_wo_entrp">    -79.31394438 </i>
    <i name="e_0_energy">    -79.31894320 </i>
   </energy>
  </scstep>
  <scstep>
   <time name="diag">    3.39    3.41</time>
   <time name="diis">   12.11   12.17</time>
   <time name="orth">    0.31    0.31</time>
   <time name="total">   17.56   17.64</time>
   <energy>
    <i name="e_fr_energy">    -79.04143322 </i>
    <i name="e_wo_entrp">    -79.03243248 </i>
    <i name="e_0_energy">    -79.03693285 </i>
   </energy>
  </scstep>
  <scstep>
   <time name="diag">    3.40    3.41</time>
   <time name="diis">   12.43   12.49</time>
   <time name="orth">    0.31    0.31</time>
   <time name="total">   17.89   17.97</time>
   <energy>
    <i name="e_fr_energy">    -78.82780932 </i>
    <i name="e_wo_entrp">    -78.81688261 </i>
    <i name="e_0_energy">    -78.82234596 </i>
   </energy>
  </scstep>
  <scstep>
   <time name="diag">    3.40    3.42</time>
   <time name="diis">   12.06   12.11</time>
   <time name="orth">    0.31    0.31</time>
   <time name="total">   17.52   17.60</time>
   <energy>
    <i name="e_fr_energy">    -78.70865548 </i>
    <i name="e_wo_entrp">    -78.69766504 </i>
    <i name="e_0_energy">    -78.70316026 </i>
   </energy>
  </scstep>
  <scstep>
   <time name="diag">    3.40    3.42</time>
   <time name="diis">   12.36   12.42</time>
   <time name="orth">    0.31    0.31</time>
   <time name="total">   17.82   17.90</time>
   <energy>
    <i name="e_fr_energy">    -78.71611064 </i>
    <i name="e_wo_entrp">    -78.70465473 </i>
    <i name="e_0_energy">    -78.71038269 </i>
   </energy>
  </scstep>
  <scstep>
   <time name="diag">    3.41    3.42</time>
   <time name="diis">   12.01   12.06</time>
   <time name="orth">    0.31    0.31</time>
   <time name="total">   17.48   17.55</time>
   <energy>
    <i name="e_fr_energy">    -78.71458136 </i>
    <i name="e_wo_entrp">    -78.70337485 </i>
    <i name="e_0_energy">    -78.70897811 </i>
   </energy>
  </scstep>
  <scstep>
   <time name="diag">    3.41    3.42</time>
   <time name="diis">   12.99   13.04</time>
   <time name="orth">    0.31    0.31</time>
   <time name="total">   18.45   18.53</time>
   <energy>
    <i name="e_fr_energy">    -78.71406225 </i>
    <i name="e_wo_entrp">    -78.70269890 </i>
    <i name="e_0_energy">    -78.70838057 </i>
   </energy>
  </scstep>
  <scstep>
   <time name="diag">    3.39    3.41</time>
   <time name="diis">   12.76   12.82</time>
   <time name="orth">    0.31    0.31</time>
   <time name="total">   18.22   18.29</time>
   <energy>
    <i name="e_fr_energy">    -78.71442630 </i>
    <i name="e_wo_entrp">    -78.70305893 </i>
    <i name="e_0_energy">    -78.70874262 </i>
   </energy>
  </scstep>
  <scstep>
   <time name="diag">    3.39    3.41</time>
   <time name="diis">   12.15   12.20</time>
   <time name="orth">    0.31    0.31</time>
   <time name="total">   17.60   17.68</time>
   <energy>
    <i name="e_fr_energy">    -78.71436929 </i>
    <i name="e_wo_entrp">    -78.70302451 </i>
    <i name="e_0_energy">    -78.70869690 </i>
   </energy>
  </scstep>
  <scstep>
   <time name="diag">    3.39    3.41</time>
   <time name="diis">   13.61   13.67</time>
   <time name="orth">    0.31    0.31</time>
   <time name="total">   19.06   19.14</time>
   <energy>
    <i name="e_fr_energy">    -78.71438085 </i>
    <i name="e_wo_entrp">    -78.70302584 </i>
    <i name="e_0_energy">    -78.70870334 </i>
   </energy>
  </scstep>
  <scstep>
   <time name="diag">    3.39    3.40</time>
   <time name="diis">   14.29   14.36</time>
   <time name="orth">    0.31    0.31</time>
   <time name="total">   19.75   19.83</time>
   <energy>
    <i name="e_fr_energy">    -78.71438893 </i>
    <i name="e_wo_entrp">    -78.70303346 </i>
    <i name="e_0_energy">    -78.70871119 </i>
   </energy>
  </scstep>
  <scstep>
   <time name="diag">    3.40    3.41</time>
   <time name="diis">   10.16   10.21</time>
   <time name="orth">    0.31    0.31</time>
   <time name="total">   15.63   15.69</time>
   <energy>
    <i name="e_fr_energy">    -78.71439048 </i>
    <i name="e_wo_entrp">    -78.70303327 </i>
    <i name="e_0_energy">    -78.70871187 </i>
   </energy>
  </scstep>
  <scstep>
   <time name="diag">    3.39    3.40</time>
   <time name="diis">    8.60    8.64</time>
   <time name="orth">    0.31    0.31</time>
   <time name="total">   12.62   12.67</time>
   <energy>
    <i name="alphaZ">     76.09102679 </i>
    <i name="ewald">  -1950.02331760 </i>
    <i name="hartreedc">   -230.02297559 </i>
    <i name="XCdc">   -174.56684617 </i>
    <i name="pawpsdc">   4277.42569849 </i>
    <i name="pawaedc">  -3958.15459115 </i>
    <i name="eentropy">     -0.01136019 </i>
    <i name="bandstr">   -200.07638628 </i>
    <i name="atom">   2080.62436032 </i>
    <i name="e_fr_energy">    -78.71439138 </i>
    <i name="e_wo_entrp">    -78.70303119 </i>
    <i name="e_0_energy">    -78.70871128 </i>
   </energy>
  </scstep>
  <structure>
   <crystal>
    <varray name="basis" >
     <v>       7.60687423       0.16698485      -0.00000431 </v>
     <v>       2.61434216       3.69723814      -0.00000431 </v>
     <v>      -0.00001167      -0.00001650      21.34000488 </v>
    </varray>
    <i name="volume">    590.85928077 </i>
    <varray name="rec_basis" >
     <v>       0.13353278      -0.09442193      -0.00000000 </v>
     <v>      -0.00603098       0.27473671       0.00000021 </v>
     <v>       0.00000003       0.00000004       0.04686035 </v>
    </varray>
   </crystal>
   <varray name="positions" >
    <v>       0.07741138       0.01731521       0.02350473 </v>
    <v>       0.42259394       0.17213265       0.02350473 </v>
    <v>       0.62817100       0.99717679       0.10143382 </v>
    <v>       0.87183432       0.25351347       0.10143382 </v>
    <v>       0.12605215       0.99854966       0.20542476 </v>
    <v>       0.37395317       0.25064864       0.20542476 </v>
    <v>       0.62817400       0.99717241       0.30943956 </v>
    <v>       0.87183132       0.25351509       0.30943956 </v>
    <v>       0.07743718       0.01726121       0.38733026 </v>
    <v>       0.42256814       0.17213025       0.38733026 </v>
    <v>       0.05953418       0.47096355       0.51322175 </v>
    <v>       0.44046428       0.59003345       0.51322175 </v>
    <v>       0.62330773       0.37616731       0.59724508 </v>
    <v>       0.87669073       0.62278430       0.59724508 </v>
    <v>       0.12151325       0.37880712       0.70535829 </v>
    <v>       0.37848521       0.62183517       0.70535829 </v>
    <v>       0.62331983       0.37615361       0.81362315 </v>
    <v>       0.87667863       0.62279480       0.81362315 </v>
    <v>       0.05973091       0.47079240       0.89761460 </v>
    <v>       0.44026755       0.59025576       0.89761460 </v>
   </varray>
  </structure>
  <varray name="forces" >
   <v>       2.98335112      -2.06331431      -3.18284101 </v>
   <v>      -2.93976176       2.12495898      -3.18284101 </v>
   <v>       2.06999825      -1.13400075       3.65737683 </v>
   <v>      -1.75914558       1.57361281       3.65737683 </v>
   <v>      -0.05665026       0.02335326       0.00252767 </v>
   <v>       0.04090108      -0.04562595       0.00252767 </v>
   <v>       2.09015484      -1.13606435      -3.66658900 </v>
   <v>      -1.76781003       1.59192877      -3.66658900 </v>
   <v>       2.98922489      -2.07151562       3.18856186 </v>
   <v>      -2.94945195       2.12776305       3.18856186 </v>
   <v>       3.14358349      -2.06046637      -4.83940383 </v>
   <v>      -2.99048749       2.27697681      -4.83940383 </v>
   <v>       2.02331198      -1.96361428       4.90114611 </v>
   <v>      -2.52575062       1.25305874       4.90114611 </v>
   <v>       0.09810953      -0.09788718       0.00378320 </v>
   <v>      -0.12499209       0.05986949       0.00378320 </v>
   <v>       2.01753452      -1.95642770      -4.88590620 </v>
   <v>      -2.51704923       1.25000723      -4.88590620 </v>
   <v>       3.15537349      -2.04564545       4.82134437 </v>
   <v>      -2.98044419       2.29303284       4.82134437 </v>
  </varray>
  <varray name="stress" >
   <v>     -45.62602248     -42.87515504       0.02277855 </v>
   <v>     -42.87515504     -75.94333535       0.03221373 </v>
   <v>       0.02277841       0.03221354      69.89839853 </v>
  </varray>
  <energy>
   <i name="e_fr_energy">    -78.71439138 </i>
   <i name="e_wo_entrp">    -78.70303119 </i>
   <i name="e_0_energy">    -78.70871128 </i>
  </energy>
  <time name="totalsc">  325.74  327.15</time>
 </calculation>
 <calculation>
  <scstep>
   <time name="diag">    3.39    3.41</time>
   <time name="diis">   12.41   12.47</time>
   <time name="orth">    0.31    0.31</time>
   <time name="total">   17.84   17.92</time>
   <energy>
    <i name="alphaZ">     96.02384466 </i>
    <i name="ewald">  -2123.71338476 </i>
    <i name="hartreedc">   -251.46042757 </i>
    <i name="XCdc">   -167.04123983 </i>
    <i name="pawpsdc">   4277.37501954 </i>
    <i name="pawaedc">  -3958.10425016 </i>
    <i name="eentropy">     -0.00784897 </i>
    <i name="bandstr">    -46.43261601 </i>
    <i name="atom">   2080.62436032 </i>
    <i name="e_fr_energy">    -92.73654277 </i>
    <i name="e_wo_entrp">    -92.72869380 </i>
    <i name="e_0_energy">    -92.73261829 </i>
   </energy>
  </scstep>
  <scstep>
   <time name="diag">    3.39    3.40</time>
   <time name="diis">   12.58   12.64</time>
   <time name="orth">    0.31    0.31</time>
   <time name="total">   18.01   18.09</time>
   <energy>
    <i name="e_fr_energy">    -92.61419256 </i>
    <i name="e_wo_entrp">    -92.60545503 </i>
    <i name="e_0_energy">    -92.60982379 </i>
   </energy>
  </scstep>
  <scstep>
   <time name="diag">    3.39    3.40</time>
   <time name="diis">   12.50   12.56</time>
   <time name="orth">    0.31    0.31</time>
   <time name="total">   17.93   18.01</time>
   <energy>
    <i name="e_fr_energy">    -91.42846052 </i>
    <i name="e_wo_entrp">    -91.41804982 </i>
    <i name="e_0_energy">    -91.42325517 </i>
   </energy>
  </scstep>
  <scstep>
   <time name="diag">    3.39    3.40</time>
   <time name="diis">   12.16   12.21</time>
   <time name="orth">    0.31    0.31</time>
   <time name="total">   17.58   17.66</time>
   <energy>
    <i name="e_fr_energy">    -90.91974428 </i>
    <i name="e_wo_entrp">    -90.91049564 </i>
    <i name="e_0_energy">    -90.91511996 </i>
   </energy>
  </scstep>
  <scstep>
   <time name="diag">    3.39    3.40</time>
   <time name="diis">   12.78   12.83</time>
   <time name="orth">    0.31    0.31</time>
   <time name="total">   18.21   18.28</time>
   <energy>
    <i name="e_fr_energy">    -90.99819530 </i>
    <i name="e_wo_entrp">    -90.99215888 </i>
    <i name="e_0_energy">    -90.99517709 </i>
   </energy>
  </scstep>
  <scstep>
   <time name="diag">    3.39    3.40</time>
   <time name="diis">   12.51   12.57</time>
   <time name="orth">    0.31    0.31</time>
   <time name="total">   17.94   18.02</time>
   <energy>
    <i name="e_fr_energy">    -90.90916217 </i>
    <i name="e_wo_entrp">    -90.89981740 </i>
    <i name="e_0_energy">    -90.90448978 </i>
   </energy>
  </scstep>
  <scstep>
   <time name="diag">    3.39    3.40</time>
   <time name="diis">   12.75   12.81</time>
   <time name="orth">    0.31    0.31</time>
   <time name="total">   18.18   18.26</time>
   <energy>
    <i name="e_fr_energy">    -90.91362862 </i>
    <i name="e_wo_entrp">    -90.90426193 </i>
    <i name="e_0_energy">    -90.90894528 </i>
   </energy>
  </scstep>
  <scstep>
   <time name="diag">    3.39    3.40</time>
   <time name="diis">   12.19   12.24</time>
   <time name="orth">    0.31    0.31</time>
   <time name="total">   17.62   17.69</time>
   <energy>
    <i name="e_fr_energy">    -90.91126635 </i>
    <i name="e_wo_entrp">    -90.90193309 </i>
    <i name="e_0_energy">    -90.90659972 </i>
   </energy>
  </scstep>
  <scstep>
   <time name="diag">    3.39    3.40</time>
   <time name="diis">   13.04   13.10</time>
   <time name="orth">    0.31    0.31</time>
   <time name="total">   18.47   18.54</time>
   <energy>
    <i name="e_fr_energy">    -90.91202048 </i>
    <i name="e_wo_entrp">    -90.90264995 </i>
    <i name="e_0_energy">    -90.90733522 </i>
   </energy>
  </scstep>
  <scstep>
   <time name="diag">    3.39    3.40</time>
   <time name="diis">   12.56   12.62</time>
   <time name="orth">    0.31    0.31</time>
   <time name="total">   17.99   18.07</time>
   <energy>
    <i name="e_fr_energy">    -90.91175061 </i>
    <i name="e_wo_entrp">    -90.90238547 </i>
    <i name="e_0_energy">    -90.90706804 </i>
   </energy>
  </scstep>
  <scstep>
   <time name="diag">    3.39    3.40</time>
   <time name="diis">   12.65   12.70</time>
   <time name="orth">    0.31    0.31</time>
   <time name="total">   18.07   18.15</time>
   <energy>
    <i name="e_fr_energy">    -90.91173208 </i>
    <i name="e_wo_entrp">    -90.90237114 </i>
    <i name="e_0_energy">    -90.90705161 </i>
   </energy>
  </scstep>
  <scstep>
   <time name="diag">    3.39    3.40</time>
   <time name="diis">   14.09   14.15</time>
   <time name="orth">    0.31    0.31</time>
   <time name="total">   19.52   19.60</time>
   <energy>
    <i name="e_fr_energy">    -90.91175223 </i>
    <i name="e_wo_entrp">    -90.90239074 </i>
    <i name="e_0_energy">    -90.90707148 </i>
   </energy>
  </scstep>
  <scstep>
   <time name="diag">    3.39    3.40</time>
   <time name="diis">   12.08   12.14</time>
   <time name="orth">    0.31    0.31</time>
   <time name="total">   17.51   17.59</time>
   <energy>
    <i name="e_fr_energy">    -90.91174066 </i>
    <i name="e_wo_entrp">    -90.90237861 </i>
    <i name="e_0_energy">    -90.90705964 </i>
   </energy>
  </scstep>
  <scstep>
   <time name="diag">    3.39    3.40</time>
   <time name="diis">   11.53   11.59</time>
   <time name="orth">    0.31    0.31</time>
   <time name="total">   16.97   17.04</time>
   <energy>
    <i name="e_fr_energy">    -90.91174123 </i>
    <i name="e_wo_entrp">    -90.90237852 </i>
    <i name="e_0_energy">    -90.90705988 </i>
   </energy>
  </scstep>
  <scstep>
   <time name="diag">    3.39    3.40</time>
   <time name="diis">    8.43    8.47</time>
   <time name="orth">    0.31    0.31</time>
   <time name="total">   12.45   12.50</time>
   <energy>
    <i name="alphaZ">     96.02384466 </i>
    <i name="ewald">  -2123.71338476 </i>
    <i name="hartreedc">   -199.29067891 </i>
    <i name="XCdc">   -166.20467754 </i>
    <i name="pawpsdc">   5236.63753419 </i>
    <i name="pawaedc">  -4917.87954275 </i>
    <i name="eentropy">     -0.00936239 </i>
    <i name="bandstr">    -97.09983402 </i>
    <i name="atom">   2080.62436032 </i>
    <i name="e_fr_energy">    -90.91174119 </i>
    <i name="e_wo_entrp">    -90.90237880 </i>
    <i name="e_0_energy">    -90.90705999 </i>
   </energy>
  </scstep>
  <structure>
   <crystal>
    <varray name="basis" >
     <v>       7.10731763       0.06486765      -0.00000167 </v>
     <v>       2.39968478       3.39366676      -0.00000167 </v>
     <v>      -0.00000453      -0.00000641      19.53778728 </v>
    </varray>
    <i name="volume">    468.20755321 </i>
    <varray name="rec_basis" >
     <v>       0.14161399      -0.10013621      -0.00000000 </v>
     <v>      -0.00270686       0.29658056       0.00000010 </v>
     <v>       0.00000001       0.00000002       0.05118287 </v>
    </varray>
   </crystal>
   <varray name="positions" >
    <v>       0.10379935       0.00695426       0.00936041 </v>
    <v>       0.39620597       0.21454764       0.00936041 </v>
    <v>       0.62641425       0.99874890       0.10122952 </v>
    <v>       0.87359107       0.25157208       0.10122952 </v>
    <v>       0.12547024       0.99934187       0.20542371 </v>
    <v>       0.37453508       0.25027703       0.20542371 </v>
    <v>       0.62641559       0.99874691       0.30962919 </v>
    <v>       0.87358973       0.25157276       0.30962919 </v>
    <v>       0.10381084       0.00692962       0.40148015 </v>
    <v>       0.39619448       0.21454599       0.40148015 </v>
    <v>       0.09583263       0.41852035       0.49987401 </v>
    <v>       0.40416583       0.61018715       0.49987401 </v>
    <v>       0.62424562       0.37550901       0.59693522 </v>
    <v>       0.87575284       0.62400179       0.59693522 </v>
    <v>       0.12344613       0.37670630       0.70538893 </v>
    <v>       0.37655234       0.62360009       0.70538893 </v>
    <v>       0.62425101       0.37550287       0.81391436 </v>
    <v>       0.87574745       0.62400643       0.81391436 </v>
    <v>       0.09592028       0.41844486       0.91096049 </v>
    <v>       0.40407818       0.61028695       0.91096049 </v>
   </varray>
  </structure>
  <varray name="forces" >
   <v>       1.49436618      -0.41718620      -0.53677861 </v>
   <v>      -0.89144898       1.26983988      -0.53677861 </v>
   <v>       1.11002561      -0.61824832       1.73312321 </v>
   <v>      -0.95289864       0.84045941       1.73312321 </v>
   <v>       0.03771615      -0.04839022       0.00557809 </v>
   <v>      -0.05819479       0.01942906       0.00557809 </v>
   <v>       1.11292823      -0.61285403      -1.73107811 </v>
   <v>      -0.94878040       0.84499412      -1.73107811 </v>
   <v>       1.49834902      -0.42277469       0.54654212 </v>
   <v>      -0.89804547       1.27173211       0.54654212 </v>
   <v>       0.52130963      -0.89773815      -1.47621150 </v>
   <v>      -1.02016552       0.19224938      -1.47621150 </v>
   <v>       0.87310927      -0.88116708       2.15887849 </v>
   <v>      -1.12180871       0.52945295       2.15887849 </v>
   <v>      -0.06619194       0.03823146      -0.00930637 </v>
   <v>       0.05810895      -0.04966254      -0.00930637 </v>
   <v>       0.86493490      -0.87044161      -2.16255355 </v>
   <v>      -1.10897185       0.52532124      -2.16255355 </v>
   <v>       0.52266112      -0.90451230       1.47180623 </v>
   <v>      -1.02700275       0.19126553       1.47180623 </v>
  </varray>
  <varray name="stress" >
   <v>     -20.34039723     -42.69470429      -0.02567089 </v>
   <v>     -42.69470429     -50.53011215      -0.03630412 </v>
   <v>      -0.02567082      -0.03630402      64.16804091 </v>
  </varray>
  <energy>
   <i name="e_fr_energy">    -90.91174119 </i>
   <i name="e_wo_entrp">    -90.90237880 </i>
   <i name="e_0_energy">    -90.90705999 </i>
  </energy>
  <time name="totalsc">  289.21  290.45</time>
 </calculation>
 <calculation>
  <scstep>
   <time name="diag">    3.39    3.41</time>
   <time name="diis">   12.13   12.19</time>
   <time name="orth">    0.31    0.31</time>
   <time name="total">   17.56   17.63</time>
   <energy>
    <i name="alphaZ">     97.24696907 </i>
    <i name="ewald">  -2129.77183818 </i>
    <i name="hartreedc">   -202.80720642 </i>
    <i name="XCdc">   -165.68796953 </i>
    <i name="pawpsdc">   5236.21084075 </i>
    <i name="pawaedc">  -4917.45278292 </i>
    <i name="eentropy">     -0.00990922 </i>
    <i name="bandstr">    -89.45075096 </i>
    <i name="atom">   2080.62436032 </i>
    <i name="e_fr_energy">    -91.09828710 </i>
    <i name="e_wo_entrp">    -91.08837788 </i>
    <i name="e_0_energy">    -91.09333249 </i>
   </energy>
  </scstep>
  <scstep>
   <time name="diag">    3.39    3.40</time>
   <time name="diis">   12.19   12.24</time>
   <time name="orth">    0.31    0.31</time>
   <time name="total">   17.61   17.69</time>
   <energy>
    <i name="e_fr_energy">    -91.10068024 </i>
    <i name="e_wo_entrp">    -91.09089248 </i>
    <i name="e_0_energy">    -91.09578636 </i>
   </energy>
  </scstep>
  <scstep>
   <time name="diag">    3.39    3.40</time>
   <time name="diis">   12.91   12.96</time>
   <time name="orth">    0.31    0.31</time>
   <time name="total">   18.33   18.41</time>
   <energy>
    <i name="e_fr_energy">    -91.10027546 </i>
    <i name="e_wo_entrp">    -91.09053411 </i>
    <i name="e_0_energy">    -91.09540479 </i>
   </energy>
  </scstep>
  <scstep>
   <time name="diag">    3.39    3.41</time>
   <time name="diis">   12.16   12.22</time>
   <time name="orth">    0.31    0.31</time>
   <time name="total">   17.59   17.67</time>
   <energy>
    <i name="e_fr_energy">    -91.09918869 </i>
    <i name="e_wo_entrp">    -91.08951087 </i>
    <i name="e_0_energy">    -91.09434978 </i>
   </energy>
  </scstep>
  <scstep>
   <time name="diag">    3.39    3.41</time>
   <time name="diis">   12.25   12.31</time>
   <time name="orth">    0.31    0.31</time>
   <time name="total">   17.71   17.79</time>
   <energy>
    <i name="e_fr_energy">    -91.09921973 </i>
    <i name="e_wo_entrp">    -91.08952221 </i>
    <i name="e_0_energy">    -91.09437097 </i>
   </energy>
  </scstep>
  <scstep>
   <time name="diag">    3.45    3.46</time>
   <time name="diis">   13.43   13.49</time>
   <time name="orth">    0.31    0.31</time>
   <time name="total">   18.93   19.00</time>
   <energy>
    <i name="e_fr_energy">    -91.09919064 </i>
    <i name="e_wo_entrp">    -91.08949627 </i>
    <i name="e_0_energy">    -91.09434345 </i>
   </energy>
  </scstep>
  <scstep>
   <time name="diag">    3.39    3.41</time>
   <time name="diis">   12.76   12.82</time>
   <time name="orth">    0.31    0.31</time>
   <time name="total">   18.20   18.28</time>
   <energy>
    <i name="e_fr_energy">    -91.09917640 </i>
    <i name="e_wo_entrp">    -91.08948529 </i>
    <i name="e_0_energy">    -91.09433084 </i>
   </energy>
  </scstep>
  <scstep>
   <time name="diag">    3.40    3.41</time>
   <time name="diis">   12.69   12.75</time>
   <time name="orth">    0.31    0.31</time>
   <time name="total">   18.13   18.20</time>
   <energy>
    <i name="e_fr_energy">    -91.09918446 </i>
    <i name="e_wo_entrp">    -91.08948965 </i>
    <i name="e_0_energy">    -91.09433706 </i>
   </energy>
  </scstep>
  <scstep>
   <time name="diag">    3.39    3.41</time>
   <time name="diis">   12.23   12.29</time>
   <time name="orth">    0.31    0.31</time>
   <time name="total">   17.67   17.75</time>
   <energy>
    <i name="e_fr_energy">    -91.09918098 </i>
    <i name="e_wo_entrp">    -91.08949079 </i>
    <i name="e_0_energy">    -91.09433589 </i>
   </energy>
  </scstep>
  <scstep>
   <time name="diag">    3.40    3.42</time>
   <time name="diis">    9.51    9.56</time>
   <time name="orth">    0.31    0.31</time>
   <time name="total">   13.55   13.61</time>
   <energy>
    <i name="alphaZ">     97.24696907 </i>
    <i name="ewald">  -2129.77183818 </i>
    <i name="hartreedc">   -200.36168333 </i>
    <i name="XCdc">   -165.63163269 </i>
    <i name="pawpsdc">   5355.38712274 </i>
    <i name="pawaedc">  -5036.71169893 </i>
    <i name="eentropy">     -0.00969116 </i>
    <i name="bandstr">    -91.87108803 </i>
    <i name="atom">   2080.62436032 </i>
    <i name="e_fr_energy">    -91.09918018 </i>
    <i name="e_wo_entrp">    -91.08948903 </i>
    <i name="e_0_energy">    -91.09433460 </i>
   </energy>
  </scstep>
  <structure>
   <crystal>
    <varray name="basis" >
     <v>       7.08126920       0.05954294      -0.00000154 </v>
     <v>       2.38849188       3.37783761      -0.00000154 </v>
     <v>      -0.00000416      -0.00000588      19.44381406 </v>
    </varray>
    <i name="volume">    462.31866957 </i>
    <varray name="rec_basis" >
     <v>       0.14206228      -0.10045320      -0.00000000 </v>
     <v>      -0.00250421       0.29781813       0.00000009 </v>
     <v>       0.00000001       0.00000002       0.05143024 </v>
    </varray>
   </crystal>
   <varray name="positions" >
    <v>       0.10525857       0.00640549       0.00855485 </v>
    <v>       0.39474675       0.21691731       0.00855485 </v>
    <v>       0.62631710       0.99883555       0.10121788 </v>
    <v>       0.87368822       0.25146444       0.10121788 </v>
    <v>       0.12543806       0.99938600       0.20542366 </v>
    <v>       0.37456726       0.25025679       0.20542366 </v>
    <v>       0.62631835       0.99883370       0.30963999 </v>
    <v>       0.87368697       0.25146508       0.30963999 </v>
    <v>       0.10526927       0.00638250       0.40228603 </v>
    <v>       0.39473605       0.21691572       0.40228603 </v>
    <v>       0.09783989       0.41559595       0.49911381 </v>
    <v>       0.40215857       0.61127727       0.49911381 </v>
    <v>       0.62429748       0.37547303       0.59691757 </v>
    <v>       0.87570098       0.62406953       0.59691757 </v>
    <v>       0.12355301       0.37658987       0.70539068 </v>
    <v>       0.37644545       0.62369743       0.70539068 </v>
    <v>       0.62430250       0.37546731       0.81393095 </v>
    <v>       0.87569596       0.62407385       0.81393095 </v>
    <v>       0.09792150       0.41552573       0.91172058 </v>
    <v>       0.40207696       0.61137027       0.91172058 </v>
   </varray>
  </structure>
  <varray name="forces" >
   <v>       1.26868120      -0.30144297      -0.18529095 </v>
   <v>      -0.70709689       1.09564311      -0.18529095 </v>
   <v>       1.06944549      -0.58484191       1.62534085 </v>
   <v>      -0.90787607       0.81333557       1.62534085 </v>
   <v>       0.04117085      -0.04584456      -0.00318115 </v>
   <v>      -0.05694628       0.02353473      -0.00318115 </v>
   <v>       1.06699128      -0.58476964      -1.62471928 </v>
   <v>      -0.90698987       0.81104581      -1.62471928 </v>
   <v>       1.27282255      -0.31073052       0.19134658 </v>
   <v>      -0.71723373       1.09645177       0.19134658 </v>
   <v>       0.27633990      -0.69609673      -1.09193691 </v>
   <v>      -0.74839959       0.02850351      -1.09193691 </v>
   <v>       0.79775108      -0.81049975       2.00467581 </v>
   <v>      -1.03006352       0.48196035       2.00467581 </v>
   <v>      -0.06246381       0.03809162       0.00172288 </v>
   <v>       0.05673439      -0.04619423       0.00172288 </v>
   <v>       0.79462674      -0.81734756      -2.01402123 </v>
   <v>      -1.03547825       0.47673209      -2.01402123 </v>
   <v>       0.26976746      -0.69140240       1.09606341 </v>
   <v>      -0.74178292       0.02387173       1.09606341 </v>
  </varray>
  <varray name="stress" >
   <v>     -13.39306736     -42.38374292      -0.01387420 </v>
   <v>     -42.38374292     -43.36289939      -0.01962108 </v>
   <v>      -0.01387440      -0.01962136      71.02818098 </v>
  </varray>
  <energy>
   <i name="e_fr_energy">    -91.09918018 </i>
   <i name="e_wo_entrp">    -91.08948903 </i>
   <i name="e_0_energy">    -91.09433460 </i>
  </energy>
  <time name="totalsc">  200.35  201.20</time>
 </calculation>
 <calculation>
  <scstep>
   <time name="diag">    3.40    3.41</time>
   <time name="diis">   12.17   12.22</time>
   <time name="orth">    0.31    0.31</time>
   <time name="total">   17.60   17.68</time>
   <energy>
    <i name="alphaZ">     98.95933275 </i>
    <i name="ewald">  -2137.46057876 </i>
    <i name="hartreedc">   -205.58084191 </i>
    <i name="XCdc">   -164.91017133 </i>
    <i name="pawpsdc">   5356.15872989 </i>
    <i name="pawaedc">  -5037.48314342 </i>
    <i name="eentropy">     -0.01097774 </i>
    <i name="bandstr">    -81.48719442 </i>
    <i name="atom">   2080.62436032 </i>
    <i name="e_fr_energy">    -91.19048462 </i>
    <i name="e_wo_entrp">    -91.17950688 </i>
    <i name="e_0_energy">    -91.18499575 </i>
   </energy>
  </scstep>
  <scstep>
   <time name="diag">    3.39    3.41</time>
   <time name="diis">   12.24   12.29</time>
   <time name="orth">    0.31    0.31</time>
   <time name="total">   17.67   17.74</time>
   <energy>
    <i name="e_fr_energy">    -91.19538788 </i>
    <i name="e_wo_entrp">    -91.18466971 </i>
    <i name="e_0_energy">    -91.19002880 </i>
   </energy>
  </scstep>
  <scstep>
   <time name="diag">    3.39    3.41</time>
   <time name="diis">   12.91   12.96</time>
   <time name="orth">    0.31    0.31</time>
   <time name="total">   18.34   18.42</time>
   <energy>
    <i name="e_fr_energy">    -91.19465964 </i>
    <i name="e_wo_entrp">    -91.18401149 </i>
    <i name="e_0_energy">    -91.18933556 </i>
   </energy>
  </scstep>
  <scstep>
   <time name="diag">    3.39    3.41</time>
   <time name="diis">   12.20   12.25</time>
   <time name="orth">    0.31    0.31</time>
   <time name="total">   17.63   17.71</time>
   <energy>
    <i name="e_fr_energy">    -91.19253613 </i>
    <i name="e_wo_entrp">    -91.18197935 </i>
    <i name="e_0_energy">    -91.18725774 </i>
   </energy>
  </scstep>
  <scstep>
   <time name="diag">    3.39    3.41</time>
   <time name="diis">   12.25   12.30</time>
   <time name="orth">    0.31    0.31</time>
   <time name="total">   17.68   17.75</time>
   <energy>
    <i name="e_fr_energy">    -91.19253443 </i>
    <i name="e_wo_entrp">    -91.18193623 </i>
    <i name="e_0_energy">    -91.18723533 </i>
   </energy>
  </scstep>
  <scstep>
   <time name="diag">    3.39    3.40</time>
   <time name="diis">   12.87   12.93</time>
   <time name="orth">    0.31    0.31</time>
   <time name="total">   18.30   18.38</time>
   <energy>
    <i name="e_fr_energy">    -91.19249702 </i>
    <i name="e_wo_entrp">    -91.18191590 </i>
    <i name="e_0_energy">    -91.18720646 </i>
   </energy>
  </scstep>
  <scstep>
   <time name="diag">    3.40    3.42</time>
   <time name="diis">   13.36   13.42</time>
   <time name="orth">    0.31    0.31</time>
   <time name="total">   18.80   18.89</time>
   <energy>
    <i name="e_fr_energy">    -91.19251473 </i>
    <i name="e_wo_entrp">    -91.18193514 </i>
    <i name="e_0_energy">    -91.18722493 </i>
   </energy>
  </scstep>
  <scstep>
   <time name="diag">    3.40    3.41</time>
   <time name="diis">   12.92   12.98</time>
   <time name="orth">    0.31    0.31</time>
   <time name="total">   18.36   18.44</time>
   <energy>
    <i name="e_fr_energy">    -91.19251274 </i>
    <i name="e_wo_entrp">    -91.18192820 </i>
    <i name="e_0_energy">    -91.18722047 </i>
   </energy>
  </scstep>
  <scstep>
   <time name="diag">    3.40    3.41</time>
   <time name="diis">   12.23   12.29</time>
   <time name="orth">    0.31    0.31</time>
   <time name="total">   17.67   17.75</time>
   <energy>
    <i name="e_fr_energy">    -91.19250781 </i>
    <i name="e_wo_entrp">    -91.18192768 </i>
    <i name="e_0_energy">    -91.18721774 </i>
   </energy>
  </scstep>
  <scstep>
   <time name="diag">    3.40    3.41</time>
   <time name="diis">   11.42   11.47</time>
   <time name="orth">    0.31    0.31</time>
   <time name="total">   16.86   16.93</time>
   <energy>
    <i name="e_fr_energy">    -91.19250488 </i>
    <i name="e_wo_entrp">    -91.18192452 </i>
    <i name="e_0_energy">    -91.18721470 </i>
   </energy>
  </scstep>
  <scstep>
   <time name="diag">    3.40    3.41</time>
   <time name="diis">    8.19    8.22</time>
   <time name="orth">    0.31    0.31</time>
   <time name="total">   12.22   12.27</time>
   <energy>
    <i name="alphaZ">     98.95933275 </i>
    <i name="ewald">  -2137.46057876 </i>
    <i name="hartreedc">   -202.28004559 </i>
    <i name="XCdc">   -164.82419023 </i>
    <i name="pawpsdc">   5542.90491890 </i>
    <i name="pawaedc">  -5224.35769763 </i>
    <i name="eentropy">     -0.01057974 </i>
    <i name="bandstr">    -84.74802490 </i>
    <i name="atom">   2080.62436032 </i>
    <i name="e_fr_energy">    -91.19250488 </i>
    <i name="e_wo_entrp">    -91.18192514 </i>
    <i name="e_0_energy">    -91.18721501 </i>
   </energy>
  </scstep>
  <structure>
   <crystal>
    <varray name="basis" >
     <v>       7.04553230       0.05223776      -0.00000135 </v>
     <v>       2.37313588       3.35612095      -0.00000135 </v>
     <v>      -0.00000365      -0.00000516      19.31488838 </v>
    </varray>
    <i name="volume">    454.31884101 </i>
    <varray name="rec_basis" >
     <v>       0.14268196      -0.10089138      -0.00000000 </v>
     <v>      -0.00222083       0.29953341       0.00000008 </v>
     <v>       0.00000001       0.00000001       0.05177353 </v>
    </varray>
   </crystal>
   <varray name="positions" >
    <v>       0.10726687       0.00565214       0.00744433 </v>
    <v>       0.39273845       0.22018056       0.00744433 </v>
    <v>       0.62618340       0.99895480       0.10120184 </v>
    <v>       0.87382192       0.25131628       0.10120184 </v>
    <v>       0.12539377       0.99944675       0.20542357 </v>
    <v>       0.37461155       0.25022897       0.20542357 </v>
    <v>       0.62618452       0.99895313       0.30965488 </v>
    <v>       0.87382080       0.25131685       0.30965488 </v>
    <v>       0.10727649       0.00563140       0.40339699 </v>
    <v>       0.39272883       0.22017905       0.40339699 </v>
    <v>       0.10060244       0.41156924       0.49806583 </v>
    <v>       0.39939602       0.61277566       0.49806583 </v>
    <v>       0.62436886       0.37542355       0.59689324 </v>
    <v>       0.87562960       0.62416281       0.59689324 </v>
    <v>       0.12370012       0.37642962       0.70539308 </v>
    <v>       0.37629835       0.62383139       0.70539308 </v>
    <v>       0.62437337       0.37541840       0.81395381 </v>
    <v>       0.87562509       0.62416668       0.81395381 </v>
    <v>       0.10067576       0.41150626       0.91276841 </v>
    <v>       0.39932270       0.61285931       0.91276841 </v>
   </varray>
  </structure>
  <varray name="forces" >
   <v>       0.93059488      -0.14052785       0.33594796 </v>
   <v>      -0.44268922       0.83053065       0.33594796 </v>
   <v>       1.00433497      -0.54003206       1.48426241 </v>
   <v>      -0.84392543       0.76688541       1.48426241 </v>
   <v>       0.06373967      -0.05902526       0.00495896 </v>
   <v>      -0.07689610       0.04041925       0.00495896 </v>
   <v>       1.00783345      -0.54577458      -1.49180275 </v>
   <v>      -0.85050570       0.76826963      -1.49180275 </v>
   <v>       0.92816356      -0.14517488      -0.32791693 </v>
   <v>      -0.44626004       0.82668937      -0.32791693 </v>
   <v>      -0.09682025      -0.36964969      -0.52508888 </v>
   <v>      -0.31623565      -0.21449957      -0.52508888 </v>
   <v>       0.71147277      -0.74311003       1.84755295 </v>
   <v>      -0.93776844       0.42307961       1.84755295 </v>
   <v>      -0.09748094       0.06485178       0.00204789 </v>
   <v>       0.09363649      -0.07028865       0.00204789 </v>
   <v>       0.70834126      -0.73602136      -1.85419877 </v>
   <v>      -0.93004134       0.42249009      -1.85419877 </v>
   <v>      -0.10413788      -0.36069731       0.52423714 </v>
   <v>      -0.30535606      -0.21841457       0.52423714 </v>
  </varray>
  <varray name="stress" >
   <v>      -2.20131893     -41.23861176      -0.05145625 </v>
   <v>     -41.23861176     -31.36142096      -0.07277012 </v>
   <v>      -0.05145620      -0.07277006      82.99474953 </v>
  </varray>
  <energy>
   <i name="e_fr_energy">    -91.19250488 </i>
   <i name="e_wo_entrp">    -91.18192514 </i>
   <i name="e_0_energy">    -91.18721501 </i>
  </energy>
  <time name="totalsc">  216.19  217.12</time>
 </calculation>
 <calculation>
  <scstep>
   <time name="diag">    3.39    3.41</time>
   <time name="diis">   12.17   12.22</time>
   <time name="orth">    0.31    0.31</time>
   <time name="total">   17.60   17.67</time>
   <energy>
    <i name="alphaZ">     94.76541323 </i>
    <i name="ewald">  -2109.17387221 </i>
    <i name="hartreedc">   -198.07968318 </i>
    <i name="XCdc">   -166.34261005 </i>
    <i name="pawpsdc">   5542.73286925 </i>
    <i name="pawaedc">  -5224.18563163 </i>
    <i name="eentropy">     -0.00558847 </i>
    <i name="bandstr">   -113.54324756 </i>
    <i name="atom">   2080.62436032 </i>
    <i name="e_fr_energy">    -93.20799029 </i>
    <i name="e_wo_entrp">    -93.20240182 </i>
    <i name="e_0_energy">    -93.20519606 </i>
   </energy>
  </scstep>
  <scstep>
   <time name="diag">    3.40    3.41</time>
   <time name="diis">   12.29   12.34</time>
   <time name="orth">    0.31    0.31</time>
   <time name="total">   17.71   17.79</time>
   <energy>
    <i name="e_fr_energy">    -93.12541311 </i>
    <i name="e_wo_entrp">    -93.12065812 </i>
    <i name="e_0_energy">    -93.12303562 </i>
   </energy>
  </scstep>
  <scstep>
   <time name="diag">    3.40    3.41</time>
   <time name="diis">   12.50   12.55</time>
   <time name="orth">    0.31    0.31</time>
   <time name="total">   17.92   18.00</time>
   <energy>
    <i name="e_fr_energy">    -92.95849783 </i>
    <i name="e_wo_entrp">    -92.95347315 </i>
    <i name="e_0_energy">    -92.95598549 </i>
   </energy>
  </scstep>
  <scstep>
   <time name="diag">    3.40    3.41</time>
   <time name="diis">   12.73   12.78</time>
   <time name="orth">    0.31    0.31</time>
   <time name="total">   18.16   18.23</time>
   <energy>
    <i name="e_fr_energy">    -92.92748615 </i>
    <i name="e_wo_entrp">    -92.92205603 </i>
    <i name="e_0_energy">    -92.92477109 </i>
   </energy>
  </scstep>
  <scstep>
   <time name="diag">    3.40    3.41</time>
   <time name="diis">   12.90   12.96</time>
   <time name="orth">    0.31    0.31</time>
   <time name="total">   18.33   18.41</time>
   <energy>
    <i name="e_fr_energy">    -92.92780565 </i>
    <i name="e_wo_entrp">    -92.92240428 </i>
    <i name="e_0_energy">    -92.92510497 </i>
   </energy>
  </scstep>
  <scstep>
   <time name="diag">    3.40    3.41</time>
   <time name="diis">   13.43   13.49</time>
   <time name="orth">    0.31    0.31</time>
   <time name="total">   18.86   18.94</time>
   <energy>
    <i name="e_fr_energy">    -92.92857840 </i>
    <i name="e_wo_entrp">    -92.92314096 </i>
    <i name="e_0_energy">    -92.92585968 </i>
   </energy>
  </scstep>
  <scstep>
   <time name="diag">    3.40    3.41</time>
   <time name="diis">   12.86   12.92</time>
   <time name="orth">    0.31    0.31</time>
   <time name="total">   18.29   18.37</time>
   <energy>
    <i name="e_fr_energy">    -92.92850411 </i>
    <i name="e_wo_entrp">    -92.92304778 </i>
    <i name="e_0_energy">    -92.92577595 </i>
   </energy>
  </scstep>
  <scstep>
   <time name="diag">    3.40    3.41</time>
   <time name="diis">   13.26   13.31</time>
   <time name="orth">    0.31    0.31</time>
   <time name="total">   18.68   18.77</time>
   <energy>
    <i name="e_fr_energy">    -92.92854893 </i>
    <i name="e_wo_entrp">    -92.92308898 </i>
    <i name="e_0_energy">    -92.92581895 </i>
   </energy>
  </scstep>
  <scstep>
   <time name="diag">    3.40    3.41</time>
   <time name="diis">   12.49   12.54</time>
   <time name="orth">    0.31    0.31</time>
   <time name="total">   17.92   17.99</time>
   <energy>
    <i name="e_fr_energy">    -92.92855241 </i>
    <i name="e_wo_entrp">    -92.92310062 </i>
    <i name="e_0_energy">    -92.92582652 </i>
   </energy>
  </scstep>
  <scstep>
   <time name="diag">    3.40    3.41</time>
   <time name="diis">   13.72   13.78</time>
   <time name="orth">    0.31    0.31</time>
   <time name="total">   19.15   19.23</time>
   <energy>
    <i name="e_fr_energy">    -92.92855705 </i>
    <i name="e_wo_entrp">    -92.92310417 </i>
    <i name="e_0_energy">    -92.92583061 </i>
   </energy>
  </scstep>
  <scstep>
   <time name="diag">    3.39    3.41</time>
   <time name="diis">   10.03   10.08</time>
   <time name="orth">    0.31    0.31</time>
   <time name="total">   14.06   14.12</time>
   <energy>
    <i name="alphaZ">     94.76541323 </i>
    <i name="ewald">  -2109.17387221 </i>
    <i name="hartreedc">   -209.40406354 </i>
    <i name="XCdc">   -166.44293579 </i>
    <i name="pawpsdc">   5086.24879552 </i>
    <i name="pawaedc">  -4767.33578895 </i>
[...]
       <r>    0.8371    1.0000 </r>
       <r>    0.8371    1.0000 </r>
       <r>    1.0090    1.0000 </r>
       <r>    1.0090    1.0000 </r>
       <r>    1.3325    1.0000 </r>
       <r>    1.3325    1.0000 </r>
       <r>    1.6332    1.0000 </r>
       <r>    1.6332    1.0000 </r>
       <r>    1.6727    1.0000 </r>
       <r>    1.6728    1.0000 </r>
       <r>    2.6556    1.0000 </r>
       <r>    2.6558    1.0000 </r>
       <r>    2.7603    1.0000 </r>
       <r>    2.7604    1.0000 </r>
       <r>    4.7860    0.0000 </r>
       <r>    4.7860    0.0000 </r>
       <r>    4.9425    0.0000 </r>
       <r>    4.9426    0.0000 </r>
       <r>    5.4875    0.0000 </r>
       <r>    5.4875    0.0000 </r>
       <r>    5.6175    0.0000 </r>
       <r>    5.6178    0.0000 </r>
       <r>    6.1925    0.0000 </r>
       <r>    6.2237    0.0000 </r>
       <r>    6.2237    0.0000 </r>
      </set>
      <set comment="kpoint 30">
       <r>   -6.1732    1.0000 </r>
       <r>   -6.1731    1.0000 </r>
       <r>   -6.1169    1.0000 </r>
       <r>   -6.1168    1.0000 </r>
       <r>   -5.5774    1.0000 </r>
       <r>   -5.5773    1.0000 </r>
       <r>   -5.4559    1.0000 </r>
       <r>   -5.4559    1.0000 </r>
       <r>   -4.4150    1.0000 </r>
       <r>   -4.4149    1.0000 </r>
       <r>   -4.3348    1.0000 </r>
       <r>   -4.3347    1.0000 </r>
       <r>   -3.0387    1.0000 </r>
       <r>   -3.0386    1.0000 </r>
       <r>   -2.8950    1.0000 </r>
       <r>   -2.8950    1.0000 </r>
       <r>   -2.0197    1.0000 </r>
       <r>   -2.0196    1.0000 </r>
       <r>   -1.8691    1.0000 </r>
       <r>   -1.8690    1.0000 </r>
       <r>   -0.2209    1.0000 </r>
       <r>   -0.2209    1.0000 </r>
       <r>    0.1885    1.0000 </r>
       <r>    0.1885    1.0000 </r>
       <r>    0.5964    1.0000 </r>
       <r>    0.5964    1.0000 </r>
       <r>    0.6527    1.0000 </r>
       <r>    0.6528    1.0000 </r>
       <r>    1.1005    1.0000 </r>
       <r>    1.1006    1.0000 </r>
       <r>    1.1237    1.0000 </r>
       <r>    1.1238    1.0000 </r>
       <r>    1.6027    1.0000 </r>
       <r>    1.6027    1.0000 </r>
       <r>    1.7088    1.0000 </r>
       <r>    1.7089    1.0000 </r>
       <r>    2.4176    1.0000 </r>
       <r>    2.4177    1.0000 </r>
       <r>    2.5591    1.0000 </r>
       <r>    2.5592    1.0000 </r>
       <r>    4.4865    0.0000 </r>
       <r>    4.4865    0.0000 </r>
       <r>    4.6599    0.0000 </r>
       <r>    4.6600    0.0000 </r>
       <r>    5.2807    0.0000 </r>
       <r>    5.2811    0.0000 </r>
       <r>    5.3697    0.0000 </r>
       <r>    5.3698    0.0000 </r>
       <r>    5.9269    0.0000 </r>
       <r>    5.9270    0.0000 </r>
       <r>    6.0484    0.0000 </r>
      </set>
     </set>
    </set>
   </array>
  </eigenvalues>
  <separator name="orbital magnetization" >
   <v name="MAGDIPOLOUT">      0.00000000      0.00000000      0.00000000</v>
  </separator>
  <dos>
   <i name="efermi">      4.28698314 </i>
   <total>
    <array>
     <dimension dim="1">gridpoints</dimension>
     <dimension dim="2">spin</dimension>
     <field>energy</field>
     <field>total</field>
     <field>integrated</field>
     <set>
      <set comment="spin 1">
       <r>    -8.9288     0.0000     0.0000 </r>
       <r>    -8.8731     0.0000     0.0000 </r>
       <r>    -8.8173     0.0000     0.0000 </r>
       <r>    -8.7616     0.0000     0.0000 </r>
       <r>    -8.7058     0.0000     0.0000 </r>
       <r>    -8.6501     0.0000     0.0000 </r>
       <r>    -8.5943     0.0000     0.0000 </r>
       <r>    -8.5386     0.0000     0.0000 </r>
       <r>    -8.4829     0.0000     0.0000 </r>
       <r>    -8.4271     0.0000     0.0000 </r>
       <r>    -8.3714     0.0000     0.0000 </r>
       <r>    -8.3156     0.0000     0.0000 </r>
       <r>    -8.2599     0.0040     0.0002 </r>
       <r>    -8.2041     0.1669     0.0095 </r>
       <r>    -8.1484     0.9553     0.0628 </r>
       <r>    -8.0927     1.0088     0.1190 </r>
       <r>    -8.0369     0.6430     0.1549 </r>
       <r>    -7.9812     1.8147     0.2560 </r>
       <r>    -7.9254     2.9278     0.4192 </r>
       <r>    -7.8697     2.0028     0.5308 </r>
       <r>    -7.8139     2.0628     0.6458 </r>
       <r>    -7.7582     1.5733     0.7335 </r>
       <r>    -7.7025     1.2848     0.8051 </r>
       <r>    -7.6467     2.9138     0.9676 </r>
       <r>    -7.5910     4.9483     1.2434 </r>
       <r>    -7.5352     3.9852     1.4656 </r>
       <r>    -7.4795     5.0709     1.7482 </r>
       <r>    -7.4237     6.7823     2.1263 </r>
       <r>    -7.3680     4.6507     2.3855 </r>
       <r>    -7.3123     5.3329     2.6828 </r>
       <r>    -7.2565     4.2800     2.9214 </r>
       <r>    -7.2008     3.1249     3.0956 </r>
       <r>    -7.1450     5.5111     3.4028 </r>
       <r>    -7.0893     6.9756     3.7916 </r>
       <r>    -7.0336     6.0605     4.1294 </r>
       <r>    -6.9778     6.3383     4.4827 </r>
       <r>    -6.9221     3.1707     4.6595 </r>
       <r>    -6.8663     2.1515     4.7794 </r>
       <r>    -6.8106     3.5870     4.9794 </r>
       <r>    -6.7548     3.3962     5.1687 </r>
       <r>    -6.6991     5.3834     5.4688 </r>
       <r>    -6.6434     7.0080     5.8594 </r>
       <r>    -6.5876     5.1628     6.1472 </r>
       <r>    -6.5319     4.6149     6.4045 </r>
       <r>    -6.4761     4.7145     6.6673 </r>
       <r>    -6.4204     2.2916     6.7950 </r>
       <r>    -6.3646     3.3382     6.9811 </r>
       <r>    -6.3089     2.8795     7.1416 </r>
       <r>    -6.2532     5.1016     7.4260 </r>
       <r>    -6.1974     9.3215     7.9456 </r>
       <r>    -6.1417    11.5869     8.5915 </r>
       <r>    -6.0859    13.2602     9.3306 </r>
       <r>    -6.0302    10.4877     9.9152 </r>
       <r>    -5.9744     7.2522    10.3195 </r>
       <r>    -5.9187     5.0548    10.6013 </r>
       <r>    -5.8630     5.4723    10.9063 </r>
       <r>    -5.8072     8.9846    11.4071 </r>
       <r>    -5.7515    11.1225    12.0271 </r>
       <r>    -5.6957    10.7719    12.6276 </r>
       <r>    -5.6400     8.5543    13.1044 </r>
       <r>    -5.5842     4.2484    13.3412 </r>
       <r>    -5.5285     3.5680    13.5401 </r>
       <r>    -5.4728     5.4622    13.8446 </r>
       <r>    -5.4170     8.5725    14.3225 </r>
       <r>    -5.3613     4.7911    14.5895 </r>
       <r>    -5.3055     2.2861    14.7170 </r>
       <r>    -5.2498     2.5417    14.8586 </r>
       <r>    -5.1940     3.8557    15.0736 </r>
       <r>    -5.1383     2.5763    15.2172 </r>
       <r>    -5.0826     1.1800    15.2830 </r>
       <r>    -5.0268     2.6023    15.4280 </r>
       <r>    -4.9711     7.0476    15.8209 </r>
       <r>    -4.9153     7.9561    16.2644 </r>
       <r>    -4.8596     6.2681    16.6138 </r>
       <r>    -4.8038     4.2837    16.8526 </r>
       <r>    -4.7481     1.6765    16.9460 </r>
       <r>    -4.6924     3.1587    17.1221 </r>
       <r>    -4.6366     7.7768    17.5556 </r>
       <r>    -4.5809     6.5291    17.9195 </r>
       <r>    -4.5251    10.2862    18.4929 </r>
       <r>    -4.4694    10.2879    19.0664 </r>
       <r>    -4.4136     5.3985    19.3673 </r>
       <r>    -4.3579     5.7271    19.6866 </r>
       <r>    -4.3022     4.6725    19.9470 </r>
       <r>    -4.2464     1.9691    20.0568 </r>
       <r>    -4.1907     2.0748    20.1724 </r>
       <r>    -4.1349     4.2528    20.4095 </r>
       <r>    -4.0792     6.7261    20.7844 </r>
       <r>    -4.0234     6.3360    21.1376 </r>
       <r>    -3.9677     2.5880    21.2819 </r>
       <r>    -3.9120     2.0882    21.3983 </r>
       <r>    -3.8562     1.2228    21.4664 </r>
       <r>    -3.8005     0.6312    21.5016 </r>
       <r>    -3.7447     1.3197    21.5752 </r>
       <r>    -3.6890     3.4404    21.7670 </r>
       <r>    -3.6332     4.7404    22.0312 </r>
       <r>    -3.5775     6.8043    22.4105 </r>
       <r>    -3.5218     7.7903    22.8448 </r>
       <r>    -3.4660    10.3780    23.4233 </r>
       <r>    -3.4103     9.9073    23.9755 </r>
       <r>    -3.3545     8.7234    24.4618 </r>
       <r>    -3.2988     5.6604    24.7773 </r>
       <r>    -3.2430     4.8897    25.0499 </r>
       <r>    -3.1873     6.6516    25.4207 </r>
       <r>    -3.1316     8.4162    25.8898 </r>
       <r>    -3.0758     9.0651    26.3951 </r>
       <r>    -3.0201     7.4403    26.8099 </r>
       <r>    -2.9643     3.4326    27.0012 </r>
       <r>    -2.9086     4.6600    27.2610 </r>
       <r>    -2.8528     6.7167    27.6354 </r>
       <r>    -2.7971     6.5191    27.9988 </r>
       <r>    -2.7414     5.0602    28.2808 </r>
       <r>    -2.6856     4.0141    28.5046 </r>
       <r>    -2.6299     4.5155    28.7563 </r>
       <r>    -2.5741     4.5882    29.0120 </r>
       <r>    -2.5184     6.0706    29.3504 </r>
       <r>    -2.4626     9.4942    29.8797 </r>
       <r>    -2.4069    12.1768    30.5584 </r>
       <r>    -2.3512     6.1349    30.9004 </r>
       <r>    -2.2954     4.3800    31.1446 </r>
       <r>    -2.2397     7.0368    31.5368 </r>
       <r>    -2.1839     9.2624    32.0531 </r>
       <r>    -2.1282     7.6991    32.4823 </r>
       <r>    -2.0724     6.0790    32.8212 </r>
       <r>    -2.0167     4.5107    33.0726 </r>
       <r>    -1.9610     4.6494    33.3318 </r>
       <r>    -1.9052     3.5544    33.5299 </r>
       <r>    -1.8495     2.4448    33.6662 </r>
       <r>    -1.7937     2.4208    33.8011 </r>
       <r>    -1.7380     5.7648    34.1225 </r>
       <r>    -1.6822     7.0306    34.5144 </r>
       <r>    -1.6265     3.1945    34.6924 </r>
       <r>    -1.5708     1.7217    34.7884 </r>
       <r>    -1.5150     0.7708    34.8314 </r>
       <r>    -1.4593     2.2857    34.9588 </r>
       <r>    -1.4035     4.8443    35.2288 </r>
       <r>    -1.3478     5.2499    35.5215 </r>
       <r>    -1.2920     3.0625    35.6922 </r>
       <r>    -1.2363     0.8432    35.7392 </r>
       <r>    -1.1806     1.6758    35.8326 </r>
       <r>    -1.1248     5.5869    36.1440 </r>
       <r>    -1.0691     3.7253    36.3517 </r>
       <r>    -1.0133     2.1942    36.4740 </r>
       <r>    -0.9576     1.6908    36.5683 </r>
       <r>    -0.9018     0.5195    36.5972 </r>
       <r>    -0.8461     0.9226    36.6486 </r>
       <r>    -0.7904     1.7045    36.7437 </r>
       <r>    -0.7346     0.7188    36.7837 </r>
       <r>    -0.6789     0.5816    36.8161 </r>
       <r>    -0.6231     1.8798    36.9209 </r>
       <r>    -0.5674     2.8822    37.0816 </r>
       <r>    -0.5116     5.8110    37.4055 </r>
       <r>    -0.4559     9.4594    37.9328 </r>
       <r>    -0.4002     6.1371    38.2749 </r>
       <r>    -0.3444     5.2416    38.5671 </r>
       <r>    -0.2887     6.5514    38.9323 </r>
       <r>    -0.2329     9.7644    39.4766 </r>
       <r>    -0.1772    12.4104    40.1684 </r>
       <r>    -0.1215     6.7149    40.5427 </r>
       <r>    -0.0657     5.0230    40.8227 </r>
       <r>    -0.0100     7.3067    41.2300 </r>
       <r>     0.0458     9.1854    41.7420 </r>
       <r>     0.1015    13.7995    42.5112 </r>
       <r>     0.1573    14.1042    43.2974 </r>
       <r>     0.2130    13.4800    44.0488 </r>
       <r>     0.2687    13.6607    44.8103 </r>
       <r>     0.3245    10.0532    45.3707 </r>
       <r>     0.3802     6.4256    45.7289 </r>
       <r>     0.4360     4.6090    45.9858 </r>
       <r>     0.4917     6.5563    46.3513 </r>
       <r>     0.5475    10.0444    46.9112 </r>
       <r>     0.6032     9.7977    47.4573 </r>
       <r>     0.6589    12.1328    48.1336 </r>
       <r>     0.7147    13.3176    48.8760 </r>
       <r>     0.7704    10.9723    49.4876 </r>
       <r>     0.8262    12.3591    50.1766 </r>
       <r>     0.8819    13.0387    50.9034 </r>
       <r>     0.9377    10.6342    51.4962 </r>
       <r>     0.9934    15.1410    52.3402 </r>
       <r>     1.0491    18.9221    53.3949 </r>
       <r>     1.1049    13.1406    54.1274 </r>
       <r>     1.1606     9.1951    54.6400 </r>
       <r>     1.2164     9.6730    55.1792 </r>
       <r>     1.2721    12.2433    55.8617 </r>
       <r>     1.3279    11.0834    56.4795 </r>
       <r>     1.3836    11.0632    57.0962 </r>
       <r>     1.4393    11.3965    57.7314 </r>
       <r>     1.4951    16.2145    58.6353 </r>
       <r>     1.5508    17.6747    59.6205 </r>
       <r>     1.6066    11.3656    60.2541 </r>
       <r>     1.6623    10.2293    60.8243 </r>
       <r>     1.7181     8.7720    61.3133 </r>
       <r>     1.7738     8.6300    61.7943 </r>
       <r>     1.8295    10.0994    62.3573 </r>
       <r>     1.8853    13.2663    63.0968 </r>
       <r>     1.9410    15.7336    63.9738 </r>
       <r>     1.9968    11.8300    64.6333 </r>
       <r>     2.0525     8.5036    65.1073 </r>
       <r>     2.1083    13.0058    65.8322 </r>
       <r>     2.1640    13.4364    66.5812 </r>
       <r>     2.2197     8.0981    67.0326 </r>
       <r>     2.2755     7.1674    67.4322 </r>
       <r>     2.3312    12.7718    68.1441 </r>
       <r>     2.3870    16.0135    69.0367 </r>
       <r>     2.4427    13.8123    69.8067 </r>
       <r>     2.4985    11.6953    70.4586 </r>
       <r>     2.5542     8.7784    70.9479 </r>
       <r>     2.6099     6.4875    71.3096 </r>
       <r>     2.6657     8.1133    71.7618 </r>
       <r>     2.7214    11.3917    72.3968 </r>
       <r>     2.7772    10.1624    72.9633 </r>
       <r>     2.8329     9.5013    73.4929 </r>
       <r>     2.8887    10.1491    74.0587 </r>
       <r>     2.9444    11.2723    74.6870 </r>
       <r>     3.0001    11.2162    75.3122 </r>
       <r>     3.0559     7.9096    75.7532 </r>
       <r>     3.1116     6.7785    76.1310 </r>
       <r>     3.1674     6.0467    76.4681 </r>
       <r>     3.2231     5.5674    76.7784 </r>
       <r>     3.2789     7.6927    77.2072 </r>
       <r>     3.3346     6.0911    77.5467 </r>
       <r>     3.3903     8.4019    78.0151 </r>
       <r>     3.4461     8.4624    78.4868 </r>
       <r>     3.5018     5.7919    78.8097 </r>
       <r>     3.5576     1.7188    78.9055 </r>
       <r>     3.6133     0.9807    78.9601 </r>
       <r>     3.6691     1.7050    79.0552 </r>
       <r>     3.7248     1.8472    79.1582 </r>
       <r>     3.7805     3.3721    79.3461 </r>
       <r>     3.8363     2.1091    79.4637 </r>
       <r>     3.8920     1.4451    79.5442 </r>
       <r>     3.9478     3.1331    79.7189 </r>
       <r>     4.0035     2.2373    79.8436 </r>
       <r>     4.0593     0.7194    79.8837 </r>
       <r>     4.1150     0.3416    79.9028 </r>
       <r>     4.1707     0.2778    79.9182 </r>
       <r>     4.2265     0.6620    79.9551 </r>
       <r>     4.2822     0.7104    79.9947 </r>
       <r>     4.3380     1.4843    80.0775 </r>
       <r>     4.3937     1.4947    80.1608 </r>
       <r>     4.4495     3.0055    80.3283 </r>
       <r>     4.5052     6.4031    80.6853 </r>
       <r>     4.5609     5.1505    80.9724 </r>
       <r>     4.6167     5.1509    81.2595 </r>
       <r>     4.6724     5.4743    81.5646 </r>
       <r>     4.7282     7.1235    81.9617 </r>
       <r>     4.7839     9.4534    82.4887 </r>
       <r>     4.8397     8.1120    82.9409 </r>
       <r>     4.8954     5.5235    83.2488 </r>
       <r>     4.9511     6.4314    83.6073 </r>
       <r>     5.0069    11.1907    84.2311 </r>
       <r>     5.0626    11.0690    84.8481 </r>
       <r>     5.1184     9.1227    85.3566 </r>
       <r>     5.1741     8.8841    85.8518 </r>
       <r>     5.2299     8.5657    86.3293 </r>
       <r>     5.2856     6.4137    86.6868 </r>
       <r>     5.3413     8.8443    87.1798 </r>
       <r>     5.3971    14.4976    87.9880 </r>
       <r>     5.4528    13.7095    88.7522 </r>
       <r>     5.5086    14.4186    89.5559 </r>
       <r>     5.5643    11.1413    90.1770 </r>
       <r>     5.6201    11.5266    90.8195 </r>
       <r>     5.6758    13.2247    91.5567 </r>
       <r>     5.7315     8.3076    92.0198 </r>
       <r>     5.7873     8.3458    92.4850 </r>
       <r>     5.8430    13.9093    93.2603 </r>
       <r>     5.8988    11.6366    93.9090 </r>
       <r>     5.9545     9.7118    94.4503 </r>
       <r>     6.0103    12.0374    95.1213 </r>
       <r>     6.0660    11.0785    95.7389 </r>
       <r>     6.1217     7.3712    96.1498 </r>
       <r>     6.1775     7.7271    96.5805 </r>
       <r>     6.2332    12.0459    97.2520 </r>
       <r>     6.2890    11.1006    97.8707 </r>
       <r>     6.3447     8.6547    98.3532 </r>
       <r>     6.4005    10.8194    98.9563 </r>
       <r>     6.4562    10.3979    99.5359 </r>
       <r>     6.5119     7.8849    99.9754 </r>
       <r>     6.5677     6.2511   100.3239 </r>
       <r>     6.6234     4.4091   100.5696 </r>
       <r>     6.6792     3.8204   100.7826 </r>
       <r>     6.7349     4.0151   101.0064 </r>
       <r>     6.7906     3.6949   101.2124 </r>
       <r>     6.8464     3.1877   101.3901 </r>
       <r>     6.9021     4.7454   101.6546 </r>
       <r>     6.9579     4.4186   101.9009 </r>
       <r>     7.0136     1.3058   101.9737 </r>
       <r>     7.0694     0.3828   101.9950 </r>
       <r>     7.1251     0.0863   101.9998 </r>
       <r>     7.1808     0.0028   102.0000 </r>
       <r>     7.2366     0.0000   102.0000 </r>
       <r>     7.2923     0.0000   102.0000 </r>
       <r>     7.3481     0.0000   102.0000 </r>
       <r>     7.4038     0.0000   102.0000 </r>
       <r>     7.4596     0.0000   102.0000 </r>
       <r>     7.5153     0.0000   102.0000 </r>
       <r>     7.5710     0.0000   102.0000 </r>
       <r>     7.6268     0.0000   102.0000 </r>
       <r>     7.6825     0.0000   102.0000 </r>
       <r>     7.7383     0.0000   102.0000 </r>
       <r>     7.7940     0.0000   102.0000 </r>
      </set>
     </set>
    </array>
   </total>
  </dos>
 </calculation>
 <structure name="finalpos" >
  <crystal>
   <varray name="basis" >
    <v>       7.08574985      -0.15703536      -0.00028163 </v>
    <v>       2.28788944       3.23556427      -0.00028163 </v>
    <v>      -0.00069926      -0.00098890      20.05578105 </v>
   </varray>
   <i name="volume">    467.01246996 </i>
   <varray name="rec_basis" >
    <v>       0.13895083      -0.09825307      -0.00000000 </v>
    <v>       0.00674386       0.30429647       0.00001524 </v>
    <v>       0.00000205       0.00000289       0.04986094 </v>
   </varray>
  </crystal>
  <varray name="positions" >
   <v>       0.13157656       0.11234783       0.02889247 </v>
   <v>       0.36842876       0.37549563       0.02889247 </v>
   <v>       0.63920639       0.03507126       0.11538227 </v>
   <v>       0.86079893       0.31347871       0.11538227 </v>
   <v>       0.13341394       0.01525290       0.20537041 </v>
   <v>       0.36659138       0.28207545       0.20537041 </v>
   <v>       0.63909397       0.03554130       0.29538938 </v>
   <v>       0.86091135       0.31372391       0.29538938 </v>
   <v>       0.13138009       0.11273460       0.38193562 </v>
   <v>       0.36862523       0.37548947       0.38193562 </v>
   <v>       0.12029896       0.27831602       0.50206745 </v>
   <v>       0.37969950       0.51891548       0.50206745 </v>
   <v>       0.62723022       0.30598352       0.60311698 </v>
   <v>       0.87276824       0.56044550       0.60311698 </v>
   <v>       0.12269620       0.35142865       0.70548572 </v>
   <v>       0.37730226       0.59682259       0.70548572 </v>
   <v>       0.62720670       0.30674840       0.80774393 </v>
   <v>       0.87279176       0.56116333       0.80774393 </v>
   <v>       0.12009222       0.27939116       0.90881177 </v>
   <v>       0.37990624       0.51957715       0.90881177 </v>
  </varray>
 </structure>
</modeling>
