Si and Ge interface calculation         
           1
     6.789986    0.000000    0.000000
     2.263329    3.200830    0.000000
     0.000000    0.000000   18.392969
   Si   Ge
    10    10
Direct configuration=     1
   0.12500266  0.99999637  0.99666965
   0.37500266  0.24999637  0.99666965
   0.62500266  0.99999637  0.10104621
   0.87500266  0.24999637  0.10104621
   0.12500266  0.99999637  0.20542278
   0.37500266  0.24999637  0.20542278
   0.62500266  0.99999637  0.30979934
   0.87500266  0.24999637  0.30979934
   0.12500266  0.99999637  0.41417590
   0.37500266  0.24999637  0.41417590
   0.12499923  0.37500391  0.48789797
   0.37499923  0.62500391  0.48789797
   0.62499923  0.37500391  0.59665720
   0.87499923  0.62500391  0.59665720
   0.12499923  0.37500391  0.70541642
   0.37499923  0.62500391  0.70541642
   0.62499923  0.37500391  0.81417565
   0.87499923  0.62500391  0.81417565
   0.12499923  0.37500391  0.92293487
   0.37499923  0.62500391  0.92293487
Si and Ge interface calculation         
           1
     7.606874    0.166985   -0.000004
     2.614342    3.697238   -0.000004
    -0.000012   -0.000017   21.340005
   Si   Ge
    10    10
Direct configuration=     2
   0.07741138  0.01731521  0.02350473
   0.42259394  0.17213265  0.02350473
   0.62817100  0.99717679  0.10143382
   0.87183432  0.25351347  0.10143382
   0.12605215  0.99854966  0.20542476
   0.37395317  0.25064864  0.20542476
   0.62817400  0.99717241  0.30943956
   0.87183132  0.25351509  0.30943956
   0.07743718  0.01726121  0.38733026
   0.42256814  0.17213025  0.38733026
   0.05953418  0.47096355  0.51322175
   0.44046428  0.59003345  0.51322175
   0.62330773  0.37616731  0.59724508
   0.87669073  0.62278430  0.59724508
   0.12151325  0.37880712  0.70535829
   0.37848521  0.62183517  0.70535829
   0.62331983  0.37615361  0.81362315
   0.87667863  0.62279480  0.81362315
   0.05973091  0.47079240  0.89761460
   0.44026755  0.59025576  0.89761460
Si and Ge interface calculation         
           1
     7.107318    0.064868   -0.000002
     2.399685    3.393667   -0.000002
    -0.000005   -0.000006   19.537787
   Si   Ge
    10    10
Direct configuration=     3
   0.10379935  0.00695426  0.00936041
   0.39620597  0.21454764  0.00936041
   0.62641425  0.99874890  0.10122952
   0.87359107  0.25157208  0.10122952
   0.12547024  0.99934187  0.20542371
   0.37453508  0.25027703  0.20542371
   0.62641559  0.99874691  0.30962919
   0.87358973  0.25157276  0.30962919
   0.10381084  0.00692962  0.40148015
   0.39619448  0.21454599  0.40148015
   0.09583263  0.41852035  0.49987401
   0.40416583  0.61018715  0.49987401
   0.62424562  0.37550901  0.59693522
   0.87575284  0.62400179  0.59693522
   0.12344613  0.37670630  0.70538893
   0.37655234  0.62360009  0.70538893
   0.62425101  0.37550287  0.81391436
   0.87574745  0.62400643  0.81391436
   0.09592028  0.41844486  0.91096049
   0.40407818  0.61028695  0.91096049
Si and Ge interface calculation         
           1
     7.081269    0.059543   -0.000002
     2.388492    3.377838   -0.000002
    -0.000004   -0.000006   19.443814
   Si   Ge
    10    10
Direct configuration=     4
   0.10525857  0.00640549  0.00855485
   0.39474675  0.21691731  0.00855485
   0.62631710  0.99883555  0.10121788
   0.87368822  0.25146444  0.10121788
   0.12543806  0.99938600  0.20542366
   0.37456726  0.25025679  0.20542366
   0.62631835  0.99883370  0.30963999
   0.87368697  0.25146508  0.30963999
   0.10526927  0.00638250  0.40228603
   0.39473605  0.21691572  0.40228603
   0.09783989  0.41559595  0.49911381
   0.40215857  0.61127727  0.49911381
   0.62429748  0.37547303  0.59691757
   0.87570098  0.62406953  0.59691757
   0.12355301  0.37658987  0.70539068
   0.37644545  0.62369743  0.70539068
   0.62430250  0.37546731  0.81393095
   0.87569596  0.62407385  0.81393095
   0.09792150  0.41552573  0.91172058
   0.40207696  0.61137027  0.91172058
Si and Ge interface calculation         
           1
     7.045532    0.052238   -0.000001
     2.373136    3.356121   -0.000001
    -0.000004   -0.000005   19.314888
   Si   Ge
    10    10
Direct configuration=     5
   0.10726687  0.00565214  0.00744433
   0.39273845  0.22018056  0.00744433
   0.62618340  0.99895480  0.10120184
   0.87382192  0.25131628  0.10120184
   0.12539377  0.99944675  0.20542357
   0.37461155  0.25022897  0.20542357
   0.62618452  0.99895313  0.30965488
   0.87382080  0.25131685  0.30965488
   0.10727649  0.00563140  0.40339699
   0.39272883  0.22017905  0.40339699
   0.10060244  0.41156924  0.49806583
   0.39939602  0.61277566  0.49806583
   0.62436886  0.37542355  0.59689324
   0.87562960  0.62416281  0.59689324
   0.12370012  0.37642962  0.70539308
   0.37629835  0.62383139  0.70539308
   0.62437337  0.37541840  0.81395381
   0.87562509  0.62416668  0.81395381
   0.10067576  0.41150626  0.91276841
   0.39932270  0.61285931  0.91276841
Si and Ge interface calculation         
           1
     7.068104   -0.113135   -0.000218
     2.302702    3.256513   -0.000218
    -0.000590   -0.000835   20.380936
   Si   Ge
    10    10
Direct configuration=     6
   0.11159020  0.00448439  0.00916126
   0.38841512  0.22765947  0.00916126
   0.63453302  0.99202448  0.10441392
   0.86547230  0.26108521  0.10441392
   0.12605954  0.99865091  0.20543433
   0.37394578  0.25076467  0.20543433
   0.63457913  0.99195074  0.30642759
   0.86542619  0.26110369  0.30642759
   0.11160586  0.00440393  0.40169697
   0.38839946  0.22761034  0.40169697
   0.09911460  0.41056597  0.49787179
   0.40088386  0.60879671  0.49787179
   0.63164926  0.36613955  0.60089541
   0.86834920  0.62943961  0.60089541
   0.12271781  0.37738997  0.70539534
   0.37728065  0.62282714  0.70539534
   0.63160587  0.36622253  0.80993863
   0.86839259  0.62943581  0.80993863
   0.09911429  0.41060879  0.91296075
   0.40088417  0.60883891  0.91296075
Si and Ge interface calculation         
           1
     7.069453   -0.123022   -0.000231
     2.298491    3.250558   -0.000231
    -0.000625   -0.000885   20.444667
   Si   Ge
    10    10
Direct configuration=     7
   0.11184362  0.00442542  0.00925853
   0.38816170  0.22810734  0.00925853
   0.63502244  0.99162255  0.10459590
   0.86498288  0.26166212  0.10459590
   0.12609856  0.99860387  0.20543494
   0.37390676  0.25079568  0.20543494
   0.63507119  0.99154441  0.30624475
   0.86493413  0.26168148  0.30624475
   0.11185963  0.00434125  0.40160066
   0.38814569  0.22805520  0.40160066
   0.09902739  0.41049970  0.49786079
   0.40097107  0.60855601  0.49786079
   0.63207601  0.36558942  0.60112216
   0.86792245  0.62974297  0.60112216
   0.12266023  0.37744620  0.70539547
   0.37733823  0.62276821  0.70539547
   0.63202981  0.36567756  0.80971115
   0.86796865  0.62973872  0.80971115
   0.09902276  0.41054883  0.91297165
   0.40097570  0.60859589  0.91297165
Si and Ge interface calculation         
           1
     7.005805   -0.162066   -0.000198
     2.258869    3.194524   -0.000198
    -0.000523   -0.000740   20.322921
   Si   Ge
    10    10
Direct configuration=     8
   0.11540984  0.00704445  0.01114505
   0.38459548  0.23785881  0.01114505
   0.63361315  0.99437680  0.10632267
   0.86639218  0.26159777  0.10632267
   0.12456459  0.00016656  0.20543063
   0.37544073  0.24929041  0.20543063
   0.63368332  0.99424522  0.30452440
   0.86632200  0.26160654  0.30452440
   0.11538312  0.00707332  0.39969347
   0.38462220  0.23783424  0.39969347
   0.09695627  0.40737202  0.49839908
   0.40304219  0.60128610  0.49839908
   0.62887949  0.36663159  0.60307956
   0.87111897  0.62439211  0.60307956
   0.12045228  0.37920753  0.70536790
   0.37954618  0.62011364  0.70536790
   0.62880735  0.36674809  0.80775664
   0.87119111  0.62436434  0.80775664
   0.09697022  0.40742566  0.91247660
   0.40302824  0.60136765  0.91247660
Si and Ge interface calculation         
           1
     6.884045   -0.236758   -0.000137
     2.183073    3.087331   -0.000137
    -0.000328   -0.000464   20.090021
   Si   Ge
    10    10
Direct configuration=     9
   0.12226656  0.01222751  0.01477556
   0.37773876  0.25675531  0.01477556
   0.63090351  0.99970429  0.10964575
   0.86910181  0.26150600  0.10964575
   0.12161524  0.00317179  0.20542234
   0.37839008  0.24639695  0.20542234
   0.63101489  0.99946949  0.30121365
   0.86899043  0.26149395  0.30121365
   0.12215766  0.01247570  0.39602316
   0.37784766  0.25678571  0.39602316
   0.09297417  0.40123433  0.49943502
   0.40702429  0.58718421  0.49943502
   0.62273361  0.36858375  0.60684650
   0.87726485  0.61405251  0.60684650
   0.11620710  0.38258336  0.70531485
   0.38379136  0.61499909  0.70531485
   0.62261159  0.36875518  0.80399525
   0.87738688  0.61397989  0.80399525
   0.09302385  0.40129730  0.91152392
   0.40697462  0.58734653  0.91152392
Si and Ge interface calculation         
           1
     6.918295   -0.215748   -0.000154
     2.204394    3.117484   -0.000154
    -0.000383   -0.000542   20.155534
   Si   Ge
    10    10
Direct configuration=    10
   0.12031895  0.01067091  0.01374249
   0.37968637  0.25130349  0.01374249
   0.63167317  0.99817276  0.10870015
   0.86833215  0.26151378  0.10870015
   0.12245298  0.00231778  0.20542470
   0.37755234  0.24721843  0.20542470
   0.63177284  0.99796755  0.30215574
   0.86823248  0.26150791  0.30215574
   0.12023340  0.01085566  0.39706757
   0.37977192  0.25131713  0.39706757
   0.09410526  0.40304873  0.49914023
   0.40589320  0.59126079  0.49914023
   0.62447931  0.36805877  0.60577460
   0.87551915  0.61701893  0.60577460
   0.11741291  0.38163058  0.70532995
   0.38258555  0.61645795  0.70532995
   0.62437145  0.36821438  0.80506557
   0.87562701  0.61695882  0.80506557
   0.09414479  0.40310868  0.91179500
   0.40585367  0.59139980  0.91179500
Si and Ge interface calculation         
           1
     6.967522   -0.188411   -0.000186
     2.233690    3.158914   -0.000186
    -0.000486   -0.000687   20.145101
   Si   Ge
    10    10
Direct configuration=    11
   0.12380947  0.01863156  0.01670301
   0.37619585  0.26624518  0.01670301
   0.62792482  0.00457077  0.11037820
   0.87208050  0.26041508  0.11037820
   0.12308639  0.00227776  0.20542154
   0.37691893  0.24844521  0.20542154
   0.62798477  0.00442715  0.30045221
   0.87202055  0.26039137  0.30045221
   0.12379420  0.01888035  0.39413434
   0.37621112  0.26646342  0.39413434
   0.09272736  0.39475827  0.50001375
   0.40727110  0.58021453  0.50001375
   0.61988314  0.36830335  0.60714979
   0.88011532  0.60807118  0.60714979
   0.11785850  0.38021537  0.70533017
   0.38213996  0.61593391  0.70533017
   0.61967974  0.36859791  0.80370383
   0.88031872  0.60795894  0.80370383
   0.09268638  0.39491363  0.91090918
   0.40731208  0.58028792  0.91090918
Si and Ge interface calculation         
           1
     6.989670   -0.176111   -0.000201
     2.246870    3.177554   -0.000201
    -0.000532   -0.000753   20.140407
   Si   Ge
    10    10
Direct configuration=    12
   0.12537330  0.02215231  0.01803569
   0.37463202  0.27289359  0.01803569
   0.62624547  0.00742665  0.11113358
   0.87375985  0.25991226  0.11113358
   0.12337017  0.00225744  0.20542012
   0.37663515  0.24899246  0.20542012
   0.62628763  0.00731046  0.29968536
   0.87371769  0.25988039  0.29968536
   0.12538952  0.02242912  0.39281395
   0.37461580  0.27320283  0.39281395
   0.09211003  0.39108270  0.50040695
   0.40788843  0.57530429  0.50040695
   0.61782395  0.36843039  0.60776883
   0.88217451  0.60407984  0.60776883
   0.11805813  0.37958520  0.70533027
   0.38194033  0.61570301  0.70533027
   0.61757775  0.36878698  0.80309083
   0.88242071  0.60394401  0.80309083
   0.09203298  0.39128071  0.91051042
   0.40796548  0.57534820  0.91051042
Si and Ge interface calculation         
           1
     7.008321   -0.150421   -0.000006
     2.265198    3.203474   -0.000006
     0.000052    0.000073   20.316667
   Si   Ge
    10    10
Direct configuration=    13
   0.12992577  0.03205851  0.02049932
   0.37007955  0.29190473  0.02049932
   0.62750085  0.01002966  0.11237821
   0.87250447  0.26502604  0.11237821
   0.12835661  0.99844116  0.20541205
   0.37164871  0.25514906  0.20541205
   0.62745578  0.01005060  0.29843093
   0.87254954  0.26495683  0.29843093
   0.12997263  0.03237656  0.39037596
   0.37003269  0.29231650  0.39037596
   0.09559100  0.37554817  0.50058316
   0.40440746  0.56673171  0.50058316
   0.61994666  0.36017446  0.60789852
   0.88005180  0.60006932  0.60789852
   0.12489444  0.37093709  0.70536679
   0.37510402  0.62072751  0.70536679
   0.61968329  0.36065570  0.80292756
   0.88031517  0.60002382  0.80292756
   0.09547354  0.37593840  0.91032350
   0.40452493  0.56688701  0.91032350
Si and Ge interface calculation         
           1
     7.030640   -0.119679    0.000228
     2.287129    3.234489    0.000228
     0.000750    0.001061   20.527585
   Si   Ge
    10    10
Direct configuration=    14
   0.13537301  0.04377218  0.02342162
   0.36463232  0.31451287  0.02342162
   0.62900297  0.01310686  0.11385460
   0.87100235  0.27110748  0.11385460
   0.13432311  0.99386358  0.20540245
   0.36568221  0.26250448  0.20540245
   0.62885352  0.01329216  0.29694283
   0.87115180  0.27099388  0.29694283
   0.13545654  0.04414039  0.38748373
   0.36454878  0.31504814  0.38748373
   0.09975615  0.35707604  0.50079232
   0.40024231  0.55658988  0.50079232
   0.62248658  0.35035470  0.60805244
   0.87751188  0.59532939  0.60805244
   0.13307439  0.36060662  0.70541015
   0.36692407  0.62675694  0.70541015
   0.62220267  0.35098416  0.80273394
   0.87779579  0.59539104  0.80273394
   0.09959032  0.35769493  0.91010191
   0.40040814  0.55687712  0.91010191
Si and Ge interface calculation         
           1
     6.986812   -0.082866    0.000166
     2.289874    3.238371    0.000166
     0.000578    0.000817   20.212307
   Si   Ge
    10    10
Direct configuration=    15
   0.13636850  0.06177832  0.02546584
   0.36363682  0.33450999  0.02546584
   0.63144745  0.01713454  0.11481757
   0.86855787  0.28002413  0.11481757
   0.13472727  0.99673010  0.20537095
   0.36527805  0.26617932  0.20537095
   0.63128799  0.01736851  0.29599063
   0.86871733  0.27993916  0.29599063
   0.13640425  0.06212593  0.38543123
   0.36360107  0.33492911  0.38543123
   0.10757457  0.33286780  0.50058494
   0.39242390  0.54801847  0.50058494
   0.62588742  0.33791434  0.60752562
   0.87411104  0.58969071  0.60752562
   0.13380365  0.35629601  0.70544151
   0.36619481  0.62390485  0.70544151
   0.62580708  0.33853173  0.80326062
   0.87419138  0.59014743  0.80326062
   0.10740349  0.33355195  0.91030708
   0.39259498  0.54836046  0.91030708
Si and Ge interface calculation         
           1
     6.961878   -0.061923    0.000131
     2.291435    3.240579    0.000131
     0.000480    0.000678   20.032938
   Si   Ge
    10    10
Direct configuration=    16
   0.13694047  0.07200393  0.02664701
   0.36306485  0.34587955  0.02664701
   0.63285197  0.01940781  0.11537398
   0.86715335  0.28510642  0.11537398
   0.13495948  0.99835642  0.20535276
   0.36504584  0.26827006  0.20535276
   0.63268674  0.01966942  0.29544046
   0.86731858  0.28503759  0.29544046
   0.13694877  0.07233997  0.38424533
   0.36305655  0.34623220  0.38424533
   0.11206674  0.31906225  0.50046509
   0.38793172  0.54319727  0.50046509
   0.62784142  0.33082369  0.60722120
   0.87215704  0.58650806  0.60722120
   0.13422265  0.35384194  0.70545963
   0.36577581  0.62228878  0.70545963
   0.62787804  0.33143298  0.80356493
   0.87212042  0.58719061  0.80356493
   0.11189264  0.31978353  0.91042561
   0.38810582  0.54357036  0.91042561
Si and Ge interface calculation         
           1
     7.036641   -0.067896    0.000016
     2.313540    3.271840    0.000016
     0.000149    0.000210   19.914423
   Si   Ge
    10    10
Direct configuration=    17
   0.13264145  0.09262555  0.02800280
   0.36736387  0.35790314  0.02800280
   0.63550185  0.02526035  0.11549203
   0.86450347  0.29625873  0.11549203
   0.13333545  0.00526579  0.20534869
   0.36666987  0.27193137  0.20534869
   0.63537031  0.02557441  0.29531317
   0.86463501  0.29630971  0.29531317
   0.13254090  0.09301881  0.38285718
   0.36746442  0.35809529  0.38285718
   0.11607031  0.30026477  0.50097642
   0.38392815  0.53240693  0.50097642
   0.62690152  0.32148719  0.60575557
   0.87309694  0.57529176  0.60575557
   0.12695539  0.35605747  0.70546635
   0.37304307  0.60996978  0.70546635
   0.62709536  0.32209060  0.80505535
   0.87290310  0.57628285  0.80505535
   0.11599935  0.30095406  0.90992842
   0.38399911  0.53295430  0.90992842
Si and Ge interface calculation         
           1
     7.062345   -0.069950   -0.000024
     2.321140    3.282588   -0.000024
     0.000035    0.000050   19.873676
   Si   Ge
    10    10
Direct configuration=    18
   0.13117990  0.09964536  0.02847174
   0.36882542  0.36199985  0.02847174
   0.63640274  0.02725472  0.11553287
   0.86360258  0.30005488  0.11553287
   0.13278332  0.00761769  0.20534729
   0.36722200  0.27317901  0.20534729
   0.63628265  0.02758665  0.29526916
   0.86372267  0.30014663  0.29526916
   0.13104234  0.10005791  0.38237712
   0.36896298  0.36213728  0.38237712
   0.11743142  0.29386605  0.50115324
   0.38256704  0.52873043  0.50115324
   0.62658198  0.31830732  0.60524866
   0.87341648  0.57147281  0.60524866
   0.12448471  0.35680792  0.70546867
   0.37551375  0.60577888  0.70546867
   0.62682927  0.31890896  0.80557080
   0.87316919  0.57256903  0.80557080
   0.11739552  0.29454445  0.90975644
   0.38260294  0.52933703  0.90975644
Si and Ge interface calculation         
           1
     7.082844   -0.146223   -0.000250
     2.292018    3.241403   -0.000250
    -0.000608   -0.000860   20.033172
   Si   Ge
    10    10
Direct configuration=    19
   0.13152776  0.11075222  0.02884058
   0.36847756  0.37380243  0.02884058
   0.63886146  0.03408298  0.11540082
   0.86114386  0.31180059  0.11540082
   0.13333635  0.01429283  0.20536755
   0.36666897  0.28096022  0.20536755
   0.63874810  0.03453566  0.29537455
   0.86125722  0.31202654  0.29537455
   0.13133854  0.11114240  0.38199003
   0.36866678  0.37381417  0.38199003
   0.11994617  0.28026087  0.50195475
   0.38005229  0.52015475  0.50195475
   0.62715047  0.30752902  0.60337981
   0.87284799  0.56183150  0.60337981
   0.12291624  0.35210842  0.70548363
   0.37708222  0.59794243  0.70548363
   0.62716026  0.30827396  0.80747602
   0.87283820  0.56259602  0.80747602
   0.11976046  0.28128669  0.90892826
   0.38023800  0.52080914  0.90892826
Si and Ge interface calculation         
           1
     7.085750   -0.157035   -0.000282
     2.287889    3.235564   -0.000282
    -0.000699   -0.000989   20.055781
   Si   Ge
    10    10
Direct configuration=    20
   0.13157656  0.11234783  0.02889247
   0.36842876  0.37549563  0.02889247
   0.63920639  0.03507126  0.11538227
   0.86079893  0.31347871  0.11538227
   0.13341394  0.01525290  0.20537041
   0.36659138  0.28207545  0.20537041
   0.63909397  0.03554130  0.29538938
   0.86091135  0.31372391  0.29538938
   0.13138009  0.11273460  0.38193562
   0.36862523  0.37548947  0.38193562
   0.12029896  0.27831602  0.50206745
   0.37969950  0.51891548  0.50206745
   0.62723022  0.30598352  0.60311698
   0.87276824  0.56044550  0.60311698
   0.12269620  0.35142865  0.70548572
   0.37730226  0.59682259  0.70548572
   0.62720670  0.30674840  0.80774393
   0.87279176  0.56116333  0.80774393
   0.12009222  0.27939116  0.90881177
   0.37990624  0.51957715  0.90881177
