 144 144   0   0
  0.2809490E+02  0.1086200E-08  0.1629300E-08  0.2286015E-08  0.5000000E-15
  1.000000000000000E-004
  CAR 
 Si and Ge interface calculation         
      6.76109363     -8.40165299  301      4.02986659      1.00000000
     -8.402  0.0000E+00  0.0000E+00  0.0000E+00  0.0000E+00
     -8.351  0.0000E+00  0.0000E+00  0.0000E+00  0.0000E+00
     -8.301  0.0000E+00  0.0000E+00  0.0000E+00  0.0000E+00
     -8.250  0.0000E+00  0.0000E+00  0.0000E+00  0.0000E+00
     -8.199  0.0000E+00  0.0000E+00  0.0000E+00  0.0000E+00
     -8.149  0.0000E+00  0.0000E+00  0.0000E+00  0.0000E+00
     -8.098  0.0000E+00  0.0000E+00  0.0000E+00  0.0000E+00
     -8.048  0.0000E+00  0.0000E+00  0.0000E+00  0.0000E+00
     -7.997  0.0000E+00  0.0000E+00  0.0000E+00  0.0000E+00
     -7.947  0.0000E+00  0.0000E+00  0.0000E+00  0.0000E+00
     -7.896  0.0000E+00  0.0000E+00  0.0000E+00  0.0000E+00
     -7.846  0.0000E+00  0.0000E+00  0.0000E+00  0.0000E+00
     -7.795  0.0000E+00  0.0000E+00  0.0000E+00  0.0000E+00
     -7.745  0.1781E-04  0.4676E-06  0.9001E-06  0.2363E-07
     -7.694  0.6564E+01  0.6399E+01  0.3318E+00  0.3234E+00
     -7.644  0.3081E-01  0.1960E+00  0.3333E+00  0.3333E+00
     -7.593  0.1675E+02  0.9389E+01  0.1180E+01  0.8079E+00
     -7.542  0.9630E+01  0.1699E+02  0.1667E+01  0.1667E+01
     -7.492  0.1855E+01  0.3797E+00  0.1760E+01  0.1686E+01
     -7.441  0.2453E+02  0.2600E+02  0.3000E+01  0.3000E+01
     -7.391  0.0000E+00  0.0000E+00  0.3000E+01  0.3000E+01
     -7.340  0.0000E+00  0.0000E+00  0.3000E+01  0.3000E+01
     -7.290  0.1104E-02  0.4163E-04  0.3000E+01  0.3000E+01
     -7.239  0.2049E+02  0.1985E+02  0.4036E+01  0.4003E+01
     -7.189  0.5885E+01  0.6532E+01  0.4333E+01  0.4333E+01
     -7.138  0.1869E+02  0.1228E+02  0.5278E+01  0.4954E+01
     -7.088  0.3320E+02  0.3789E+02  0.6956E+01  0.6869E+01
     -7.037  0.8708E+00  0.2591E+01  0.7000E+01  0.7000E+01
     -6.986  0.0000E+00  0.0000E+00  0.7000E+01  0.7000E+01
     -6.936  0.0000E+00  0.0000E+00  0.7000E+01  0.7000E+01
     -6.885  0.0000E+00  0.0000E+00  0.7000E+01  0.7000E+01
     -6.835  0.1012E+01  0.2129E+00  0.7051E+01  0.7011E+01
     -6.784  0.2819E+02  0.2550E+02  0.8476E+01  0.8300E+01
     -6.734  0.3811E+01  0.7260E+01  0.8669E+01  0.8667E+01
     -6.683  0.2788E+02  0.2105E+02  0.1008E+02  0.9731E+01
     -6.633  0.2481E+02  0.3147E+02  0.1133E+02  0.1132E+02
     -6.582  0.2764E+02  0.2365E+02  0.1273E+02  0.1252E+02
     -6.532  0.5087E+02  0.5342E+02  0.1530E+02  0.1522E+02
     -6.481  0.7248E+01  0.8824E+01  0.1567E+02  0.1566E+02
     -6.430  0.5715E-01  0.7701E-01  0.1567E+02  0.1567E+02
     -6.380  0.3615E+02  0.2984E+02  0.1750E+02  0.1717E+02
     -6.329  0.1661E+02  0.2293E+02  0.1834E+02  0.1833E+02
     -6.279  0.5537E+02  0.4965E+02  0.2113E+02  0.2084E+02
     -6.228  0.7103E+02  0.7584E+02  0.2472E+02  0.2468E+02
     -6.178  0.5468E+01  0.6415E+01  0.2500E+02  0.2500E+02
     -6.127  0.1367E-02  0.1727E-04  0.2500E+02  0.2500E+02
     -6.077  0.1382E+02  0.1318E+02  0.2570E+02  0.2567E+02
     -6.026  0.2573E+02  0.2629E+02  0.2700E+02  0.2699E+02
     -5.976  0.2596E+02  0.2181E+02  0.2831E+02  0.2810E+02
     -5.925  0.3622E+02  0.3340E+02  0.3014E+02  0.2979E+02
     -5.875  0.6085E+02  0.5635E+02  0.3322E+02  0.3263E+02
     -5.824  0.7350E+02  0.7148E+02  0.3693E+02  0.3625E+02
     -5.773  0.1162E+03  0.1219E+03  0.4280E+02  0.4241E+02
     -5.723  0.6776E+02  0.6731E+02  0.4623E+02  0.4581E+02
     -5.672  0.2157E+02  0.2830E+02  0.4732E+02  0.4724E+02
     -5.622  0.5079E+02  0.4934E+02  0.4989E+02  0.4973E+02
     -5.571  0.2899E+02  0.2674E+02  0.5135E+02  0.5109E+02
     -5.521  0.3969E+02  0.3664E+02  0.5336E+02  0.5294E+02
     -5.470  0.4795E+02  0.4893E+02  0.5578E+02  0.5541E+02
     -5.420  0.8295E+02  0.8118E+02  0.5997E+02  0.5951E+02
     -5.369  0.6569E+02  0.7040E+02  0.6329E+02  0.6307E+02
     -5.319  0.2035E+02  0.2355E+02  0.6432E+02  0.6426E+02
     -5.268  0.5795E+02  0.5591E+02  0.6725E+02  0.6709E+02
     -5.217  0.3680E+02  0.3084E+02  0.6911E+02  0.6865E+02
     -5.167  0.3232E+02  0.4044E+02  0.7075E+02  0.7069E+02
     -5.116  0.2499E+02  0.2591E+02  0.7201E+02  0.7200E+02
     -5.066  0.6818E+02  0.6534E+02  0.7545E+02  0.7530E+02
     -5.015  0.1623E+02  0.1606E+02  0.7627E+02  0.7612E+02
     -4.965  0.8071E+02  0.7430E+02  0.8035E+02  0.7987E+02
     -4.914  0.1259E+03  0.1266E+03  0.8672E+02  0.8627E+02
     -4.864  0.4495E+02  0.5094E+02  0.8899E+02  0.8885E+02
     -4.813  0.6141E+02  0.5664E+02  0.9209E+02  0.9171E+02
     -4.763  0.5498E+02  0.5849E+02  0.9487E+02  0.9466E+02
     -4.712  0.7097E+02  0.6584E+02  0.9846E+02  0.9799E+02
     -4.662  0.1983E+02  0.2791E+02  0.9946E+02  0.9940E+02
     -4.611  0.2144E+02  0.2067E+02  0.1005E+03  0.1004E+03
     -4.560  0.4004E+02  0.3624E+02  0.1026E+03  0.1023E+03
     -4.510  0.6540E+02  0.6628E+02  0.1059E+03  0.1056E+03
     -4.459  0.4694E+02  0.4620E+02  0.1082E+03  0.1080E+03
     -4.409  0.2948E+02  0.3400E+02  0.1097E+03  0.1097E+03
     -4.358  0.2306E+02  0.1888E+02  0.1109E+03  0.1106E+03
     -4.308  0.4153E+02  0.4675E+02  0.1130E+03  0.1130E+03
     -4.257  0.5212E+02  0.4825E+02  0.1156E+03  0.1154E+03
     -4.207  0.4707E+02  0.4634E+02  0.1180E+03  0.1178E+03
     -4.156  0.6175E+02  0.6147E+02  0.1211E+03  0.1209E+03
     -4.106  0.7676E+01  0.1018E+02  0.1215E+03  0.1214E+03
     -4.055  0.7073E+02  0.6016E+02  0.1251E+03  0.1244E+03
     -4.004  0.6573E+02  0.7510E+02  0.1284E+03  0.1282E+03
     -3.954  0.2014E+02  0.1942E+02  0.1294E+03  0.1292E+03
     -3.903  0.2962E+02  0.3017E+02  0.1309E+03  0.1307E+03
     -3.853  0.3323E+02  0.3257E+02  0.1326E+03  0.1324E+03
     -3.802  0.4237E+02  0.4530E+02  0.1348E+03  0.1347E+03
     -3.752  0.5628E+02  0.5115E+02  0.1376E+03  0.1373E+03
     -3.701  0.1590E+02  0.1835E+02  0.1384E+03  0.1382E+03
     -3.651  0.2671E+02  0.2553E+02  0.1398E+03  0.1395E+03
     -3.600  0.1656E+02  0.1450E+02  0.1406E+03  0.1402E+03
     -3.550  0.4814E+02  0.4752E+02  0.1430E+03  0.1426E+03
     -3.499  0.4105E+02  0.3862E+02  0.1451E+03  0.1446E+03
     -3.448  0.6965E+02  0.7031E+02  0.1486E+03  0.1481E+03
     -3.398  0.3932E+02  0.4488E+02  0.1506E+03  0.1504E+03
     -3.347  0.2223E+02  0.2532E+02  0.1517E+03  0.1517E+03
     -3.297  0.2515E+02  0.2609E+02  0.1530E+03  0.1530E+03
     -3.246  0.3530E+02  0.2895E+02  0.1548E+03  0.1545E+03
     -3.196  0.1750E+02  0.2401E+02  0.1557E+03  0.1557E+03
     -3.145  0.2473E+02  0.1957E+02  0.1569E+03  0.1567E+03
     -3.095  0.3580E+02  0.3553E+02  0.1587E+03  0.1585E+03
     -3.044  0.1571E+02  0.1263E+02  0.1595E+03  0.1591E+03
     -2.994  0.2966E+02  0.3786E+02  0.1610E+03  0.1610E+03
     -2.943  0.3251E+02  0.3260E+02  0.1627E+03  0.1627E+03
     -2.893  0.3758E+02  0.2775E+02  0.1646E+03  0.1641E+03
     -2.842  0.3329E+02  0.3862E+02  0.1662E+03  0.1660E+03
     -2.791  0.3922E+02  0.3925E+02  0.1682E+03  0.1680E+03
     -2.741  0.5962E+02  0.5633E+02  0.1712E+03  0.1708E+03
     -2.690  0.7405E+02  0.7469E+02  0.1750E+03  0.1746E+03
     -2.640  0.6049E+02  0.5557E+02  0.1780E+03  0.1774E+03
     -2.589  0.4045E+02  0.5129E+02  0.1801E+03  0.1800E+03
     -2.539  0.6852E+02  0.5741E+02  0.1836E+03  0.1829E+03
     -2.488  0.5588E+02  0.6421E+02  0.1864E+03  0.1862E+03
     -2.438  0.6297E+02  0.6023E+02  0.1896E+03  0.1892E+03
     -2.387  0.4558E+02  0.4839E+02  0.1919E+03  0.1916E+03
     -2.337  0.6133E+02  0.6113E+02  0.1950E+03  0.1947E+03
     -2.286  0.5654E+02  0.5593E+02  0.1978E+03  0.1976E+03
     -2.235  0.4488E+02  0.4504E+02  0.2001E+03  0.1998E+03
     -2.185  0.5948E+02  0.4904E+02  0.2031E+03  0.2023E+03
     -2.134  0.5231E+02  0.6658E+02  0.2057E+03  0.2057E+03
     -2.084  0.5267E+02  0.4995E+02  0.2084E+03  0.2082E+03
     -2.033  0.6360E+02  0.5953E+02  0.2116E+03  0.2112E+03
     -1.983  0.5898E+02  0.5537E+02  0.2146E+03  0.2140E+03
     -1.932  0.7256E+02  0.7274E+02  0.2183E+03  0.2177E+03
     -1.882  0.3876E+02  0.4684E+02  0.2202E+03  0.2201E+03
     -1.831  0.4837E+02  0.5147E+02  0.2227E+03  0.2227E+03
     -1.781  0.2010E+02  0.1711E+02  0.2237E+03  0.2235E+03
     -1.730  0.1800E+02  0.1770E+02  0.2246E+03  0.2244E+03
     -1.680  0.3433E+02  0.2847E+02  0.2263E+03  0.2259E+03
     -1.629  0.8688E+02  0.8270E+02  0.2307E+03  0.2300E+03
     -1.578  0.5175E+02  0.6509E+02  0.2333E+03  0.2333E+03
     -1.528  0.6829E+01  0.6642E+01  0.2337E+03  0.2337E+03
     -1.477  0.3491E+02  0.3077E+02  0.2354E+03  0.2352E+03
     -1.427  0.3106E+02  0.2856E+02  0.2370E+03  0.2367E+03
     -1.376  0.1889E+02  0.2030E+02  0.2380E+03  0.2377E+03
     -1.326  0.4775E+02  0.4550E+02  0.2404E+03  0.2400E+03
     -1.275  0.6130E+02  0.6388E+02  0.2435E+03  0.2432E+03
     -1.225  0.2427E+02  0.2833E+02  0.2447E+03  0.2447E+03
     -1.174  0.3774E+02  0.3430E+02  0.2466E+03  0.2464E+03
     -1.124  0.5012E+02  0.4682E+02  0.2491E+03  0.2488E+03
     -1.073  0.1689E+02  0.2469E+02  0.2500E+03  0.2500E+03
     -1.022  0.4187E+02  0.3271E+02  0.2521E+03  0.2517E+03
     -0.972  0.3700E+02  0.4463E+02  0.2540E+03  0.2539E+03
     -0.921  0.1344E+02  0.1496E+02  0.2547E+03  0.2547E+03
     -0.871  0.1330E+02  0.1291E+02  0.2553E+03  0.2553E+03
     -0.820  0.1309E+02  0.1351E+02  0.2560E+03  0.2560E+03
     -0.770  0.1513E+02  0.1004E+02  0.2568E+03  0.2565E+03
     -0.719  0.2586E+02  0.2653E+02  0.2581E+03  0.2578E+03
     -0.669  0.5659E+02  0.5166E+02  0.2609E+03  0.2605E+03
     -0.618  0.5602E+02  0.5726E+02  0.2638E+03  0.2634E+03
     -0.568  0.3767E+02  0.4520E+02  0.2657E+03  0.2656E+03
     -0.517  0.1318E+02  0.1375E+02  0.2663E+03  0.2663E+03
     -0.466  0.1293E+02  0.1058E+02  0.2670E+03  0.2669E+03
     -0.416  0.2004E+02  0.2226E+02  0.2680E+03  0.2680E+03
     -0.365  0.5752E+00  0.2498E+00  0.2680E+03  0.2680E+03
     -0.315  0.2113E+02  0.1625E+02  0.2691E+03  0.2688E+03
     -0.264  0.6351E+02  0.6750E+02  0.2723E+03  0.2722E+03
     -0.214  0.1954E+02  0.1789E+02  0.2733E+03  0.2731E+03
     -0.163  0.6580E+01  0.6832E+01  0.2736E+03  0.2735E+03
     -0.113  0.1033E+01  0.3570E+01  0.2737E+03  0.2737E+03
     -0.062  0.5252E+02  0.5272E+02  0.2763E+03  0.2763E+03
     -0.012  0.1241E+02  0.6447E+01  0.2770E+03  0.2767E+03
      0.039  0.2787E+02  0.3292E+02  0.2784E+03  0.2783E+03
      0.089  0.5345E+02  0.4399E+02  0.2811E+03  0.2805E+03
      0.140  0.5191E+02  0.6179E+02  0.2837E+03  0.2837E+03
      0.191  0.8258E+02  0.7192E+02  0.2879E+03  0.2873E+03
      0.241  0.6731E+02  0.7335E+02  0.2913E+03  0.2910E+03
      0.292  0.7254E+02  0.7131E+02  0.2949E+03  0.2946E+03
      0.342  0.3294E+02  0.2968E+02  0.2966E+03  0.2961E+03
      0.393  0.1079E+02  0.1800E+02  0.2971E+03  0.2970E+03
      0.443  0.5658E+02  0.5012E+02  0.3000E+03  0.2996E+03
      0.494  0.7262E+02  0.7506E+02  0.3037E+03  0.3034E+03
      0.544  0.5812E+02  0.6140E+02  0.3066E+03  0.3065E+03
      0.595  0.5072E+02  0.4632E+02  0.3092E+03  0.3088E+03
      0.645  0.6892E+02  0.6396E+02  0.3127E+03  0.3120E+03
      0.696  0.5449E+02  0.5536E+02  0.3154E+03  0.3148E+03
      0.747  0.1105E+03  0.1207E+03  0.3210E+03  0.3209E+03
      0.797  0.6695E+02  0.5505E+02  0.3244E+03  0.3237E+03
      0.848  0.8999E+02  0.9201E+02  0.3289E+03  0.3284E+03
      0.898  0.9879E+02  0.1042E+03  0.3339E+03  0.3336E+03
      0.949  0.5293E+02  0.4758E+02  0.3366E+03  0.3360E+03
      0.999  0.1479E+03  0.1395E+03  0.3441E+03  0.3431E+03
      1.050  0.8259E+02  0.9405E+02  0.3483E+03  0.3478E+03
      1.100  0.1497E+03  0.1474E+03  0.3558E+03  0.3553E+03
      1.151  0.9115E+02  0.9439E+02  0.3604E+03  0.3601E+03
      1.201  0.1065E+03  0.1043E+03  0.3658E+03  0.3653E+03
      1.252  0.9028E+02  0.9419E+02  0.3704E+03  0.3701E+03
      1.303  0.8207E+02  0.8077E+02  0.3745E+03  0.3742E+03
      1.353  0.7596E+02  0.7510E+02  0.3784E+03  0.3780E+03
      1.404  0.5938E+02  0.5780E+02  0.3814E+03  0.3809E+03
      1.454  0.1055E+03  0.1008E+03  0.3867E+03  0.3860E+03
      1.505  0.1114E+03  0.1125E+03  0.3923E+03  0.3917E+03
      1.555  0.1107E+03  0.1091E+03  0.3979E+03  0.3972E+03
      1.606  0.9263E+02  0.8898E+02  0.4026E+03  0.4017E+03
      1.656  0.1373E+03  0.1444E+03  0.4095E+03  0.4090E+03
      1.707  0.7820E+02  0.7376E+02  0.4135E+03  0.4127E+03
      1.757  0.1054E+03  0.1059E+03  0.4188E+03  0.4181E+03
      1.808  0.6119E+02  0.6240E+02  0.4219E+03  0.4212E+03
      1.858  0.1289E+03  0.1366E+03  0.4284E+03  0.4281E+03
      1.909  0.6500E+02  0.6509E+02  0.4317E+03  0.4314E+03
      1.960  0.1062E+03  0.1028E+03  0.4371E+03  0.4366E+03
      2.010  0.6247E+02  0.5974E+02  0.4402E+03  0.4396E+03
      2.061  0.8935E+02  0.8721E+02  0.4448E+03  0.4440E+03
      2.111  0.1307E+03  0.1329E+03  0.4514E+03  0.4508E+03
      2.162  0.8494E+02  0.8656E+02  0.4557E+03  0.4551E+03
      2.212  0.1210E+03  0.1191E+03  0.4618E+03  0.4611E+03
      2.263  0.4969E+02  0.5658E+02  0.4643E+03  0.4640E+03
      2.313  0.1150E+03  0.1077E+03  0.4701E+03  0.4695E+03
      2.364  0.8646E+02  0.8890E+02  0.4745E+03  0.4739E+03
      2.414  0.9071E+02  0.9294E+02  0.4790E+03  0.4786E+03
      2.465  0.7813E+02  0.8005E+02  0.4830E+03  0.4827E+03
      2.516  0.8070E+02  0.7708E+02  0.4871E+03  0.4866E+03
      2.566  0.1165E+03  0.1205E+03  0.4930E+03  0.4927E+03
      2.617  0.8871E+02  0.8516E+02  0.4974E+03  0.4970E+03
      2.667  0.8261E+02  0.8283E+02  0.5016E+03  0.5012E+03
      2.718  0.6408E+02  0.6800E+02  0.5049E+03  0.5046E+03
      2.768  0.5525E+02  0.5393E+02  0.5076E+03  0.5073E+03
      2.819  0.1021E+03  0.9708E+02  0.5128E+03  0.5122E+03
      2.869  0.9779E+02  0.1013E+03  0.5177E+03  0.5174E+03
      2.920  0.9213E+02  0.9133E+02  0.5224E+03  0.5220E+03
      2.970  0.4028E+02  0.4510E+02  0.5244E+03  0.5242E+03
      3.021  0.6980E+02  0.5931E+02  0.5280E+03  0.5272E+03
      3.071  0.6240E+02  0.5757E+02  0.5311E+03  0.5302E+03
      3.122  0.4652E+02  0.5596E+02  0.5335E+03  0.5330E+03
      3.173  0.4137E+02  0.4619E+02  0.5356E+03  0.5353E+03
      3.223  0.1998E+02  0.1433E+02  0.5366E+03  0.5360E+03
      3.274  0.6160E+02  0.6346E+02  0.5397E+03  0.5392E+03
      3.324  0.5223E+02  0.5485E+02  0.5423E+03  0.5420E+03
      3.375  0.6351E+02  0.5977E+02  0.5455E+03  0.5450E+03
      3.425  0.4646E+02  0.5144E+02  0.5479E+03  0.5476E+03
      3.476  0.2723E+02  0.2114E+02  0.5493E+03  0.5487E+03
      3.526  0.5837E+02  0.5551E+02  0.5522E+03  0.5515E+03
      3.577  0.3804E+02  0.4320E+02  0.5541E+03  0.5537E+03
      3.627  0.5028E+02  0.4059E+02  0.5567E+03  0.5558E+03
      3.678  0.5159E+02  0.6141E+02  0.5593E+03  0.5589E+03
      3.729  0.5617E+02  0.5132E+02  0.5621E+03  0.5614E+03
      3.779  0.5101E+02  0.6002E+02  0.5647E+03  0.5645E+03
      3.830  0.6290E+02  0.4805E+02  0.5679E+03  0.5669E+03
      3.880  0.2882E+02  0.4774E+02  0.5693E+03  0.5693E+03
      3.931  0.1858E+02  0.1352E+02  0.5703E+03  0.5700E+03
      3.981  0.6300E+02  0.4549E+02  0.5735E+03  0.5723E+03
      4.032  0.5024E+02  0.5533E+02  0.5760E+03  0.5751E+03
      4.082  0.4258E+02  0.5099E+02  0.5782E+03  0.5777E+03
      4.133  0.5371E+02  0.4664E+02  0.5809E+03  0.5800E+03
      4.183  0.1596E+02  0.2640E+02  0.5817E+03  0.5814E+03
      4.234  0.6408E+02  0.4416E+02  0.5849E+03  0.5836E+03
      4.285  0.4018E+02  0.5969E+02  0.5869E+03  0.5866E+03
      4.335  0.1981E+02  0.1874E+02  0.5879E+03  0.5876E+03
      4.386  0.4247E+02  0.4216E+02  0.5901E+03  0.5897E+03
      4.436  0.3822E+02  0.3437E+02  0.5920E+03  0.5914E+03
      4.487  0.2212E+02  0.3074E+02  0.5931E+03  0.5930E+03
      4.537  0.4801E+02  0.4080E+02  0.5956E+03  0.5951E+03
      4.588  0.4521E+02  0.3538E+02  0.5979E+03  0.5968E+03
      4.638  0.3024E+02  0.4548E+02  0.5994E+03  0.5991E+03
      4.689  0.5543E+02  0.4234E+02  0.6022E+03  0.6013E+03
      4.739  0.4503E+02  0.5351E+02  0.6045E+03  0.6040E+03
      4.790  0.3376E+02  0.3374E+02  0.6062E+03  0.6057E+03
      4.840  0.6280E+02  0.5776E+02  0.6093E+03  0.6086E+03
      4.891  0.6661E+02  0.6564E+02  0.6127E+03  0.6119E+03
      4.942  0.5656E+02  0.5437E+02  0.6156E+03  0.6147E+03
      4.992  0.8243E+02  0.9020E+02  0.6197E+03  0.6192E+03
      5.043  0.4527E+02  0.4887E+02  0.6220E+03  0.6217E+03
      5.093  0.4302E+02  0.3902E+02  0.6242E+03  0.6237E+03
      5.144  0.5072E+02  0.5469E+02  0.6268E+03  0.6264E+03
      5.194  0.4892E+02  0.4756E+02  0.6292E+03  0.6288E+03
      5.245  0.5221E+02  0.5532E+02  0.6319E+03  0.6316E+03
      5.295  0.8927E+02  0.7797E+02  0.6364E+03  0.6356E+03
      5.346  0.7231E+02  0.7321E+02  0.6400E+03  0.6393E+03
      5.396  0.8924E+02  0.8939E+02  0.6445E+03  0.6438E+03
      5.447  0.5192E+02  0.5237E+02  0.6472E+03  0.6464E+03
      5.498  0.6862E+02  0.7444E+02  0.6506E+03  0.6502E+03
      5.548  0.8387E+02  0.7826E+02  0.6549E+03  0.6542E+03
      5.599  0.1223E+03  0.1185E+03  0.6611E+03  0.6602E+03
      5.649  0.8444E+02  0.9203E+02  0.6653E+03  0.6648E+03
      5.700  0.6363E+02  0.5665E+02  0.6685E+03  0.6677E+03
      5.750  0.9637E+02  0.1014E+03  0.6734E+03  0.6728E+03
      5.801  0.7410E+02  0.7772E+02  0.6772E+03  0.6767E+03
      5.851  0.6116E+02  0.6534E+02  0.6802E+03  0.6800E+03
      5.902  0.1073E+03  0.9383E+02  0.6857E+03  0.6848E+03
      5.952  0.7547E+02  0.7589E+02  0.6895E+03  0.6886E+03
      6.003  0.6571E+02  0.7132E+02  0.6928E+03  0.6922E+03
      6.053  0.4348E+02  0.4463E+02  0.6950E+03  0.6945E+03
      6.104  0.1970E+02  0.3050E+02  0.6960E+03  0.6960E+03
      6.155  0.0000E+00  0.0000E+00  0.6960E+03  0.6960E+03
      6.205  0.0000E+00  0.0000E+00  0.6960E+03  0.6960E+03
      6.256  0.0000E+00  0.0000E+00  0.6960E+03  0.6960E+03
      6.306  0.0000E+00  0.0000E+00  0.6960E+03  0.6960E+03
      6.357  0.0000E+00  0.0000E+00  0.6960E+03  0.6960E+03
      6.407  0.0000E+00  0.0000E+00  0.6960E+03  0.6960E+03
      6.458  0.0000E+00  0.0000E+00  0.6960E+03  0.6960E+03
      6.508  0.0000E+00  0.0000E+00  0.6960E+03  0.6960E+03
      6.559  0.0000E+00  0.0000E+00  0.6960E+03  0.6960E+03
      6.609  0.0000E+00  0.0000E+00  0.6960E+03  0.6960E+03
      6.660  0.0000E+00  0.0000E+00  0.6960E+03  0.6960E+03
      6.711  0.0000E+00  0.0000E+00  0.6960E+03  0.6960E+03
      6.761  0.0000E+00  0.0000E+00  0.6960E+03  0.6960E+03
