 156 156   0   0
  0.1812026E+02  0.1265123E-08  0.1789153E-08  0.1261525E-08  0.5000000E-15
  1.000000000000000E-004
  CAR 
 Si and Ge interface calculation         
      9.30949518    -11.01475405  301      6.44527956      1.00000000
    -11.015  0.0000E+00  0.0000E+00  0.0000E+00  0.0000E+00
    -10.947  0.0000E+00  0.0000E+00  0.0000E+00  0.0000E+00
    -10.879  0.0000E+00  0.0000E+00  0.0000E+00  0.0000E+00
    -10.812  0.0000E+00  0.0000E+00  0.0000E+00  0.0000E+00
    -10.744  0.0000E+00  0.0000E+00  0.0000E+00  0.0000E+00
    -10.676  0.0000E+00  0.0000E+00  0.0000E+00  0.0000E+00
    -10.608  0.0000E+00  0.0000E+00  0.0000E+00  0.0000E+00
    -10.541  0.0000E+00  0.0000E+00  0.0000E+00  0.0000E+00
    -10.473  0.0000E+00  0.0000E+00  0.0000E+00  0.0000E+00
    -10.405  0.0000E+00  0.0000E+00  0.0000E+00  0.0000E+00
    -10.337  0.0000E+00  0.0000E+00  0.0000E+00  0.0000E+00
    -10.270  0.0000E+00  0.0000E+00  0.0000E+00  0.0000E+00
    -10.202  0.0000E+00  0.0000E+00  0.0000E+00  0.0000E+00
    -10.134  0.7624E-08  0.3480E-10  0.5165E-09  0.2358E-11
    -10.066  0.2951E+02  0.2935E+02  0.1999E+01  0.1989E+01
     -9.999  0.0000E+00  0.0000E+00  0.2000E+01  0.2000E+01
     -9.931  0.1750E+02  0.9064E+01  0.3185E+01  0.2614E+01
     -9.863  0.1203E+02  0.2046E+02  0.4000E+01  0.4000E+01
     -9.795  0.0000E+00  0.0000E+00  0.4000E+01  0.4000E+01
     -9.728  0.0000E+00  0.0000E+00  0.4000E+01  0.4000E+01
     -9.660  0.1245E-03  0.7811E-06  0.4000E+01  0.4000E+01
     -9.592  0.5007E+02  0.4186E+02  0.7392E+01  0.6836E+01
     -9.524  0.8976E+01  0.1718E+02  0.8000E+01  0.8000E+01
     -9.457  0.0000E+00  0.0000E+00  0.8000E+01  0.8000E+01
     -9.389  0.0000E+00  0.0000E+00  0.8000E+01  0.8000E+01
     -9.321  0.0000E+00  0.0000E+00  0.8000E+01  0.8000E+01
     -9.253  0.0000E+00  0.0000E+00  0.8000E+01  0.8000E+01
     -9.186  0.0000E+00  0.0000E+00  0.8000E+01  0.8000E+01
     -9.118  0.4787E+00  0.6466E-01  0.8032E+01  0.8004E+01
     -9.050  0.2904E+02  0.2946E+02  0.1000E+02  0.1000E+02
     -8.982  0.9764E-13  0.0000E+00  0.1000E+02  0.1000E+02
     -8.915  0.1737E+02  0.1342E+02  0.1118E+02  0.1091E+02
     -8.847  0.2669E+02  0.3043E+02  0.1300E+02  0.1297E+02
     -8.779  0.1810E+02  0.1482E+02  0.1423E+02  0.1399E+02
     -8.711  0.2674E+02  0.2795E+02  0.1604E+02  0.1588E+02
     -8.644  0.2198E+02  0.2155E+02  0.1754E+02  0.1734E+02
     -8.576  0.1721E+02  0.1684E+02  0.1871E+02  0.1848E+02
     -8.508  0.3781E+02  0.3818E+02  0.2127E+02  0.2107E+02
     -8.440  0.1177E+02  0.1375E+02  0.2208E+02  0.2201E+02
     -8.373  0.2655E+02  0.2597E+02  0.2388E+02  0.2377E+02
     -8.305  0.1843E+01  0.3334E+01  0.2400E+02  0.2400E+02
     -8.237  0.0000E+00  0.0000E+00  0.2400E+02  0.2400E+02
     -8.169  0.3595E-10  0.6378E-13  0.2400E+02  0.2400E+02
     -8.102  0.9790E+01  0.9417E+01  0.2466E+02  0.2464E+02
     -8.034  0.1968E+02  0.1996E+02  0.2600E+02  0.2600E+02
     -7.966  0.9610E+01  0.8867E+01  0.2665E+02  0.2660E+02
     -7.898  0.1958E+02  0.2008E+02  0.2799E+02  0.2796E+02
     -7.831  0.2945E+02  0.2935E+02  0.3000E+02  0.2997E+02
     -7.763  0.2412E+02  0.2168E+02  0.3163E+02  0.3145E+02
     -7.695  0.5398E+01  0.8158E+01  0.3200E+02  0.3200E+02
     -7.627  0.2391E+02  0.1694E+02  0.3362E+02  0.3315E+02
     -7.560  0.3018E+02  0.3405E+02  0.3566E+02  0.3546E+02
     -7.492  0.9595E+01  0.1219E+02  0.3634E+02  0.3629E+02
     -7.424  0.2446E+02  0.2520E+02  0.3800E+02  0.3799E+02
     -7.356  0.6978E+00  0.4477E-01  0.3805E+02  0.3800E+02
     -7.289  0.2882E+02  0.2941E+02  0.4000E+02  0.4000E+02
     -7.221  0.0000E+00  0.0000E+00  0.4000E+02  0.4000E+02
     -7.153  0.0000E+00  0.0000E+00  0.4000E+02  0.4000E+02
     -7.085  0.3100E-02  0.6452E-04  0.4000E+02  0.4000E+02
     -7.018  0.1010E+02  0.9850E+01  0.4068E+02  0.4067E+02
     -6.950  0.1943E+02  0.1967E+02  0.4200E+02  0.4200E+02
     -6.882  0.2966E+02  0.2945E+02  0.4401E+02  0.4400E+02
     -6.814  0.2285E+02  0.1792E+02  0.4556E+02  0.4522E+02
     -6.747  0.6515E+01  0.1158E+02  0.4600E+02  0.4600E+02
     -6.679  0.0000E+00  0.0000E+00  0.4600E+02  0.4600E+02
     -6.611  0.0000E+00  0.0000E+00  0.4600E+02  0.4600E+02
     -6.543  0.6661E+01  0.2273E+01  0.4645E+02  0.4615E+02
     -6.476  0.1342E+02  0.1744E+02  0.4736E+02  0.4734E+02
     -6.408  0.3700E+02  0.3478E+02  0.4987E+02  0.4969E+02
     -6.340  0.1878E+01  0.4333E+01  0.5000E+02  0.5000E+02
     -6.272  0.9869E-12  0.6828E-15  0.5000E+02  0.5000E+02
     -6.205  0.7513E+01  0.5179E+01  0.5051E+02  0.5035E+02
     -6.137  0.2232E+02  0.2063E+02  0.5202E+02  0.5175E+02
     -6.069  0.3662E+02  0.3525E+02  0.5450E+02  0.5414E+02
     -6.001  0.2245E+02  0.2755E+02  0.5603E+02  0.5601E+02
     -5.934  0.3502E+02  0.3064E+02  0.5840E+02  0.5808E+02
     -5.866  0.2216E+02  0.2471E+02  0.5991E+02  0.5976E+02
     -5.798  0.2994E+02  0.3031E+02  0.6193E+02  0.6181E+02
     -5.730  0.1084E+02  0.1229E+02  0.6267E+02  0.6264E+02
     -5.663  0.2093E+02  0.1926E+02  0.6409E+02  0.6395E+02
     -5.595  0.1946E+02  0.1845E+02  0.6541E+02  0.6520E+02
     -5.527  0.3522E+02  0.3132E+02  0.6780E+02  0.6732E+02
     -5.459  0.2535E+02  0.3208E+02  0.6952E+02  0.6950E+02
     -5.392  0.2942E+02  0.2933E+02  0.7152E+02  0.7149E+02
     -5.324  0.2425E+02  0.2193E+02  0.7316E+02  0.7298E+02
     -5.256  0.1745E+02  0.1981E+02  0.7434E+02  0.7433E+02
     -5.188  0.3275E+02  0.3015E+02  0.7656E+02  0.7638E+02
     -5.121  0.3424E+02  0.3542E+02  0.7888E+02  0.7878E+02
     -5.053  0.3007E+02  0.2768E+02  0.8092E+02  0.8067E+02
     -4.985  0.3655E+02  0.3812E+02  0.8341E+02  0.8325E+02
     -4.917  0.2098E+02  0.2014E+02  0.8484E+02  0.8462E+02
     -4.850  0.3300E+02  0.3204E+02  0.8707E+02  0.8679E+02
     -4.782  0.2871E+02  0.3077E+02  0.8902E+02  0.8888E+02
     -4.714  0.2055E+02  0.1961E+02  0.9041E+02  0.9020E+02
     -4.646  0.2476E+02  0.2593E+02  0.9209E+02  0.9198E+02
     -4.579  0.2696E+02  0.2782E+02  0.9393E+02  0.9386E+02
     -4.511  0.3907E+02  0.3405E+02  0.9658E+02  0.9619E+02
     -4.443  0.3208E+02  0.3277E+02  0.9875E+02  0.9841E+02
     -4.375  0.3234E+02  0.3401E+02  0.1010E+03  0.1007E+03
     -4.308  0.2441E+02  0.2631E+02  0.1026E+03  0.1025E+03
     -4.240  0.3616E+02  0.3639E+02  0.1051E+03  0.1050E+03
     -4.172  0.3541E+02  0.3307E+02  0.1075E+03  0.1072E+03
     -4.105  0.3604E+02  0.3352E+02  0.1099E+03  0.1095E+03
     -4.037  0.4393E+02  0.4681E+02  0.1129E+03  0.1127E+03
     -3.969  0.3483E+02  0.3270E+02  0.1153E+03  0.1149E+03
     -3.901  0.3769E+02  0.3752E+02  0.1178E+03  0.1174E+03
     -3.834  0.3880E+02  0.4323E+02  0.1205E+03  0.1204E+03
     -3.766  0.3189E+02  0.2926E+02  0.1226E+03  0.1223E+03
     -3.698  0.3936E+02  0.4037E+02  0.1253E+03  0.1251E+03
     -3.630  0.4987E+02  0.4861E+02  0.1287E+03  0.1284E+03
     -3.563  0.3460E+02  0.3541E+02  0.1310E+03  0.1308E+03
     -3.495  0.3045E+02  0.3142E+02  0.1331E+03  0.1329E+03
     -3.427  0.3875E+02  0.3743E+02  0.1357E+03  0.1354E+03
     -3.359  0.3685E+02  0.3638E+02  0.1382E+03  0.1379E+03
     -3.292  0.3740E+02  0.3835E+02  0.1408E+03  0.1405E+03
     -3.224  0.3959E+02  0.4045E+02  0.1435E+03  0.1433E+03
     -3.156  0.4414E+02  0.4102E+02  0.1465E+03  0.1460E+03
     -3.088  0.4615E+02  0.4729E+02  0.1496E+03  0.1492E+03
     -3.021  0.4315E+02  0.4233E+02  0.1525E+03  0.1521E+03
     -2.953  0.3685E+02  0.4182E+02  0.1550E+03  0.1550E+03
     -2.885  0.3293E+02  0.2936E+02  0.1572E+03  0.1570E+03
     -2.817  0.5115E+02  0.4985E+02  0.1607E+03  0.1604E+03
     -2.750  0.4337E+02  0.4491E+02  0.1636E+03  0.1634E+03
     -2.682  0.2084E+02  0.2371E+02  0.1651E+03  0.1650E+03
     -2.614  0.4817E+02  0.4340E+02  0.1683E+03  0.1679E+03
     -2.546  0.5177E+02  0.5162E+02  0.1718E+03  0.1714E+03
     -2.479  0.3587E+02  0.3831E+02  0.1743E+03  0.1740E+03
     -2.411  0.5192E+02  0.4986E+02  0.1778E+03  0.1774E+03
     -2.343  0.4071E+02  0.4272E+02  0.1805E+03  0.1803E+03
     -2.275  0.4572E+02  0.4444E+02  0.1836E+03  0.1833E+03
     -2.208  0.3533E+02  0.3701E+02  0.1860E+03  0.1859E+03
     -2.140  0.3997E+02  0.3889E+02  0.1888E+03  0.1885E+03
     -2.072  0.4659E+02  0.4771E+02  0.1919E+03  0.1917E+03
     -2.004  0.4222E+02  0.3927E+02  0.1948E+03  0.1944E+03
     -1.937  0.3490E+02  0.3766E+02  0.1972E+03  0.1969E+03
     -1.869  0.3331E+02  0.3406E+02  0.1994E+03  0.1993E+03
     -1.801  0.4322E+02  0.4166E+02  0.2024E+03  0.2021E+03
     -1.733  0.3750E+02  0.3718E+02  0.2049E+03  0.2046E+03
     -1.666  0.3864E+02  0.4006E+02  0.2075E+03  0.2073E+03
     -1.598  0.3220E+02  0.3150E+02  0.2097E+03  0.2095E+03
     -1.530  0.4506E+02  0.4597E+02  0.2128E+03  0.2126E+03
     -1.462  0.4259E+02  0.4107E+02  0.2157E+03  0.2154E+03
     -1.395  0.4291E+02  0.4300E+02  0.2186E+03  0.2183E+03
     -1.327  0.3846E+02  0.4110E+02  0.2212E+03  0.2211E+03
     -1.259  0.3215E+02  0.3071E+02  0.2234E+03  0.2232E+03
     -1.191  0.3917E+02  0.4049E+02  0.2260E+03  0.2259E+03
     -1.124  0.3186E+02  0.3256E+02  0.2282E+03  0.2282E+03
     -1.056  0.4022E+02  0.3579E+02  0.2309E+03  0.2306E+03
     -0.988  0.4168E+02  0.4312E+02  0.2338E+03  0.2335E+03
     -0.920  0.4073E+02  0.4154E+02  0.2365E+03  0.2363E+03
     -0.853  0.5026E+02  0.4717E+02  0.2399E+03  0.2395E+03
     -0.785  0.5287E+02  0.5436E+02  0.2435E+03  0.2432E+03
     -0.717  0.4104E+02  0.4057E+02  0.2463E+03  0.2460E+03
     -0.649  0.3891E+02  0.3641E+02  0.2489E+03  0.2485E+03
     -0.582  0.4791E+02  0.5277E+02  0.2522E+03  0.2520E+03
     -0.514  0.3394E+02  0.3024E+02  0.2545E+03  0.2541E+03
     -0.446  0.5315E+02  0.5306E+02  0.2581E+03  0.2577E+03
     -0.378  0.5046E+02  0.5407E+02  0.2615E+03  0.2614E+03
     -0.311  0.4473E+02  0.4141E+02  0.2645E+03  0.2642E+03
     -0.243  0.3694E+02  0.3793E+02  0.2670E+03  0.2667E+03
     -0.175  0.4794E+02  0.4845E+02  0.2703E+03  0.2700E+03
     -0.107  0.4211E+02  0.4389E+02  0.2731E+03  0.2730E+03
     -0.040  0.4704E+02  0.4733E+02  0.2763E+03  0.2762E+03
      0.028  0.3654E+02  0.3597E+02  0.2788E+03  0.2787E+03
      0.096  0.3858E+02  0.3916E+02  0.2815E+03  0.2813E+03
      0.164  0.4523E+02  0.3969E+02  0.2845E+03  0.2840E+03
      0.231  0.4972E+02  0.5178E+02  0.2879E+03  0.2875E+03
      0.299  0.3449E+02  0.3581E+02  0.2902E+03  0.2900E+03
      0.367  0.4781E+02  0.4839E+02  0.2935E+03  0.2932E+03
      0.435  0.4282E+02  0.4088E+02  0.2964E+03  0.2960E+03
      0.502  0.4617E+02  0.4734E+02  0.2995E+03  0.2992E+03
      0.570  0.4139E+02  0.3937E+02  0.3023E+03  0.3019E+03
      0.638  0.5724E+02  0.5684E+02  0.3062E+03  0.3058E+03
      0.706  0.4819E+02  0.4926E+02  0.3094E+03  0.3091E+03
      0.773  0.4617E+02  0.4348E+02  0.3126E+03  0.3121E+03
      0.841  0.5042E+02  0.5519E+02  0.3160E+03  0.3158E+03
      0.909  0.3716E+02  0.3674E+02  0.3185E+03  0.3183E+03
      0.977  0.5819E+02  0.5648E+02  0.3225E+03  0.3221E+03
      1.044  0.5331E+02  0.5491E+02  0.3261E+03  0.3258E+03
      1.112  0.3526E+02  0.3540E+02  0.3285E+03  0.3283E+03
      1.180  0.5529E+02  0.5303E+02  0.3322E+03  0.3318E+03
      1.248  0.4526E+02  0.4666E+02  0.3353E+03  0.3350E+03
      1.315  0.5175E+02  0.4920E+02  0.3388E+03  0.3383E+03
      1.383  0.5039E+02  0.5010E+02  0.3422E+03  0.3417E+03
      1.451  0.4463E+02  0.4518E+02  0.3453E+03  0.3448E+03
      1.519  0.5845E+02  0.5966E+02  0.3492E+03  0.3488E+03
      1.586  0.5721E+02  0.5727E+02  0.3531E+03  0.3528E+03
      1.654  0.6273E+02  0.6340E+02  0.3574E+03  0.3570E+03
      1.722  0.6140E+02  0.6180E+02  0.3616E+03  0.3612E+03
      1.790  0.4295E+02  0.4147E+02  0.3645E+03  0.3641E+03
      1.857  0.4787E+02  0.5023E+02  0.3677E+03  0.3675E+03
      1.925  0.5391E+02  0.5188E+02  0.3714E+03  0.3710E+03
      1.993  0.5671E+02  0.5426E+02  0.3752E+03  0.3747E+03
      2.061  0.5632E+02  0.5983E+02  0.3790E+03  0.3787E+03
      2.128  0.5021E+02  0.4859E+02  0.3824E+03  0.3820E+03
      2.196  0.6356E+02  0.6401E+02  0.3868E+03  0.3864E+03
      2.264  0.4978E+02  0.4879E+02  0.3901E+03  0.3897E+03
      2.332  0.6154E+02  0.6442E+02  0.3943E+03  0.3940E+03
      2.399  0.5780E+02  0.5891E+02  0.3982E+03  0.3980E+03
      2.467  0.4694E+02  0.4698E+02  0.4014E+03  0.4012E+03
      2.535  0.5873E+02  0.5590E+02  0.4054E+03  0.4051E+03
      2.602  0.5186E+02  0.5338E+02  0.4089E+03  0.4087E+03
      2.670  0.6638E+02  0.6649E+02  0.4134E+03  0.4132E+03
      2.738  0.6725E+02  0.6590E+02  0.4180E+03  0.4177E+03
      2.806  0.6399E+02  0.6297E+02  0.4223E+03  0.4219E+03
      2.873  0.5808E+02  0.5818E+02  0.4263E+03  0.4259E+03
      2.941  0.7447E+02  0.7628E+02  0.4313E+03  0.4310E+03
      3.009  0.5952E+02  0.5840E+02  0.4354E+03  0.4350E+03
      3.077  0.6288E+02  0.6236E+02  0.4396E+03  0.4392E+03
      3.144  0.5621E+02  0.5719E+02  0.4435E+03  0.4431E+03
      3.212  0.7098E+02  0.6877E+02  0.4483E+03  0.4478E+03
      3.280  0.6237E+02  0.6530E+02  0.4525E+03  0.4522E+03
      3.348  0.6448E+02  0.6631E+02  0.4569E+03  0.4567E+03
      3.415  0.7069E+02  0.6881E+02  0.4617E+03  0.4614E+03
      3.483  0.5584E+02  0.5587E+02  0.4655E+03  0.4652E+03
      3.551  0.6536E+02  0.6391E+02  0.4699E+03  0.4695E+03
      3.619  0.6618E+02  0.6631E+02  0.4744E+03  0.4740E+03
      3.686  0.6772E+02  0.6739E+02  0.4790E+03  0.4786E+03
      3.754  0.5922E+02  0.6057E+02  0.4830E+03  0.4827E+03
      3.822  0.5310E+02  0.5131E+02  0.4866E+03  0.4862E+03
      3.890  0.6489E+02  0.6712E+02  0.4910E+03  0.4907E+03
      3.957  0.5704E+02  0.5819E+02  0.4949E+03  0.4947E+03
      4.025  0.6037E+02  0.5875E+02  0.4990E+03  0.4987E+03
      4.093  0.6572E+02  0.6130E+02  0.5034E+03  0.5028E+03
      4.161  0.4552E+02  0.5129E+02  0.5065E+03  0.5063E+03
      4.228  0.4070E+02  0.3925E+02  0.5093E+03  0.5090E+03
      4.296  0.5878E+02  0.6011E+02  0.5133E+03  0.5130E+03
      4.364  0.4775E+02  0.4331E+02  0.5165E+03  0.5160E+03
      4.432  0.4931E+02  0.5280E+02  0.5199E+03  0.5196E+03
      4.499  0.6020E+02  0.5846E+02  0.5239E+03  0.5235E+03
      4.567  0.6024E+02  0.6225E+02  0.5280E+03  0.5277E+03
      4.635  0.4571E+02  0.4160E+02  0.5311E+03  0.5306E+03
      4.703  0.6270E+02  0.6608E+02  0.5354E+03  0.5351E+03
      4.770  0.5007E+02  0.5078E+02  0.5388E+03  0.5385E+03
      4.838  0.4980E+02  0.4801E+02  0.5421E+03  0.5417E+03
      4.906  0.5172E+02  0.5207E+02  0.5457E+03  0.5453E+03
      4.974  0.6461E+02  0.6114E+02  0.5500E+03  0.5494E+03
      5.041  0.4444E+02  0.4956E+02  0.5531E+03  0.5528E+03
      5.109  0.6008E+02  0.5924E+02  0.5571E+03  0.5568E+03
      5.177  0.4760E+02  0.4608E+02  0.5604E+03  0.5599E+03
      5.245  0.5272E+02  0.5479E+02  0.5640E+03  0.5637E+03
      5.312  0.5382E+02  0.5209E+02  0.5676E+03  0.5672E+03
      5.380  0.3083E+02  0.3262E+02  0.5697E+03  0.5694E+03
      5.448  0.5970E+02  0.5813E+02  0.5738E+03  0.5734E+03
      5.516  0.4313E+02  0.4503E+02  0.5767E+03  0.5764E+03
      5.583  0.5890E+02  0.5439E+02  0.5807E+03  0.5801E+03
      5.651  0.4685E+02  0.4582E+02  0.5839E+03  0.5832E+03
      5.719  0.5446E+02  0.5858E+02  0.5876E+03  0.5872E+03
      5.787  0.3615E+02  0.4091E+02  0.5900E+03  0.5900E+03
      5.854  0.5380E+02  0.5027E+02  0.5937E+03  0.5934E+03
      5.922  0.5101E+02  0.5043E+02  0.5971E+03  0.5968E+03
      5.990  0.4316E+02  0.4410E+02  0.6001E+03  0.5998E+03
      6.058  0.5854E+02  0.5341E+02  0.6040E+03  0.6034E+03
      6.125  0.5454E+02  0.5713E+02  0.6077E+03  0.6073E+03
      6.193  0.4350E+02  0.4469E+02  0.6107E+03  0.6103E+03
      6.261  0.4863E+02  0.4576E+02  0.6140E+03  0.6134E+03
      6.329  0.5033E+02  0.5415E+02  0.6174E+03  0.6171E+03
      6.396  0.5188E+02  0.4917E+02  0.6209E+03  0.6204E+03
      6.464  0.5938E+02  0.5633E+02  0.6250E+03  0.6243E+03
      6.532  0.5428E+02  0.5693E+02  0.6286E+03  0.6281E+03
      6.600  0.6161E+02  0.5913E+02  0.6328E+03  0.6321E+03
      6.667  0.5343E+02  0.5792E+02  0.6365E+03  0.6361E+03
      6.735  0.5510E+02  0.5388E+02  0.6402E+03  0.6397E+03
      6.803  0.6843E+02  0.6681E+02  0.6448E+03  0.6442E+03
      6.871  0.5782E+02  0.5910E+02  0.6488E+03  0.6482E+03
      6.938  0.5825E+02  0.5860E+02  0.6527E+03  0.6522E+03
      7.006  0.6731E+02  0.6687E+02  0.6573E+03  0.6568E+03
      7.074  0.5887E+02  0.6128E+02  0.6613E+03  0.6609E+03
      7.142  0.6683E+02  0.6455E+02  0.6658E+03  0.6653E+03
      7.209  0.5798E+02  0.5492E+02  0.6698E+03  0.6690E+03
      7.277  0.7052E+02  0.7387E+02  0.6745E+03  0.6740E+03
      7.345  0.7485E+02  0.7242E+02  0.6796E+03  0.6789E+03
      7.413  0.7840E+02  0.8077E+02  0.6849E+03  0.6844E+03
      7.480  0.6602E+02  0.6398E+02  0.6894E+03  0.6888E+03
      7.548  0.6625E+02  0.6649E+02  0.6939E+03  0.6933E+03
      7.616  0.6483E+02  0.6464E+02  0.6983E+03  0.6977E+03
      7.684  0.7748E+02  0.7779E+02  0.7036E+03  0.7030E+03
      7.751  0.7436E+02  0.7662E+02  0.7086E+03  0.7082E+03
      7.819  0.7633E+02  0.7372E+02  0.7138E+03  0.7132E+03
      7.887  0.7588E+02  0.7597E+02  0.7190E+03  0.7183E+03
      7.955  0.6860E+02  0.7291E+02  0.7236E+03  0.7233E+03
      8.022  0.7066E+02  0.6416E+02  0.7284E+03  0.7276E+03
      8.090  0.7624E+02  0.7941E+02  0.7336E+03  0.7330E+03
      8.158  0.7248E+02  0.7342E+02  0.7385E+03  0.7380E+03
      8.226  0.7955E+02  0.8066E+02  0.7439E+03  0.7435E+03
      8.293  0.7099E+02  0.7141E+02  0.7487E+03  0.7483E+03
      8.361  0.4566E+02  0.5038E+02  0.7518E+03  0.7517E+03
      8.429  0.2586E+01  0.3747E+01  0.7520E+03  0.7520E+03
      8.497  0.0000E+00  0.0000E+00  0.7520E+03  0.7520E+03
      8.564  0.0000E+00  0.0000E+00  0.7520E+03  0.7520E+03
      8.632  0.0000E+00  0.0000E+00  0.7520E+03  0.7520E+03
      8.700  0.0000E+00  0.0000E+00  0.7520E+03  0.7520E+03
      8.768  0.0000E+00  0.0000E+00  0.7520E+03  0.7520E+03
      8.835  0.0000E+00  0.0000E+00  0.7520E+03  0.7520E+03
      8.903  0.0000E+00  0.0000E+00  0.7520E+03  0.7520E+03
      8.971  0.0000E+00  0.0000E+00  0.7520E+03  0.7520E+03
      9.039  0.0000E+00  0.0000E+00  0.7520E+03  0.7520E+03
      9.106  0.0000E+00  0.0000E+00  0.7520E+03  0.7520E+03
      9.174  0.0000E+00  0.0000E+00  0.7520E+03  0.7520E+03
      9.242  0.0000E+00  0.0000E+00  0.7520E+03  0.7520E+03
      9.309  0.0000E+00  0.0000E+00  0.7520E+03  0.7520E+03
