Si and Ge interface calculation         
           1
    12.651226    0.000000    0.000000
     2.530245   17.711716    0.000000
     0.000000    0.000000   12.615247
   Ge   Si
    84    72
Direct configuration=     1
   0.99755949  0.99511904  0.00000000
   0.92613083  0.85226178  0.22424453
   0.85470217  0.70940459  0.44848910
   0.14041664  0.28083327  0.00000000
   0.06898798  0.13797608  0.22424453
   0.99755931  0.99511892  0.44848910
   0.56898809  0.13797615  0.00000000
   0.49755940  0.99511892  0.22424453
   0.42613074  0.85226178  0.44848910
   0.28327379  0.56654757  0.00000000
   0.21184512  0.42369038  0.22424453
   0.14041646  0.28083318  0.44848910
   0.71184522  0.42369047  0.00000000
   0.64041656  0.28083327  0.22424453
   0.56898791  0.13797608  0.44848910
   0.42613095  0.85226190  0.00000000
   0.35470229  0.70940471  0.22424453
   0.28327364  0.56654751  0.44848910
   0.85470241  0.70940471  0.00000000
   0.78327382  0.56654751  0.22424453
   0.71184510  0.42369035  0.44848910
   0.14041665  0.03083329  0.11212227
   0.06898799  0.88797605  0.33636683
   0.99755931  0.74511886  0.56061137
   0.28327379  0.31654760  0.11212227
   0.21184513  0.17369041  0.33636683
   0.14041646  0.03083320  0.56061137
   0.71184522  0.17369042  0.11212227
   0.64041650  0.03083323  0.33636683
   0.56898791  0.88797599  0.56061137
   0.99755949  0.74511898  0.11212227
   0.92613083  0.60226178  0.33636683
   0.85470217  0.45940456  0.56061137
   0.42613095  0.60226184  0.11212227
   0.35470229  0.45940465  0.33636683
   0.28327361  0.31654742  0.56061137
   0.85470229  0.45940477  0.11212227
   0.78327370  0.31654757  0.33636683
   0.71184504  0.17369033  0.56061137
   0.56898809  0.88797629  0.11212227
   0.49755943  0.74511904  0.33636683
   0.42613074  0.60226184  0.56061137
   0.28327379  0.06654758  0.00000000
   0.21184512  0.92369038  0.22424453
   0.14041646  0.78083318  0.44848910
   0.99755949  0.49511904  0.00000000
   0.92613083  0.35226181  0.22424453
   0.85470217  0.20940463  0.44848910
   0.42613098  0.35226187  0.00000000
   0.35470229  0.20940465  0.22424453
   0.28327364  0.06654747  0.44848910
   0.85470241  0.20940474  0.00000000
   0.78327370  0.06654751  0.22424453
   0.71184510  0.92369032  0.44848910
   0.14041662  0.78083330  0.00000000
   0.06898795  0.63797611  0.22424453
   0.99755931  0.49511892  0.44848910
   0.56898803  0.63797617  0.00000000
   0.49755940  0.49511898  0.22424453
   0.42613074  0.35226178  0.44848910
   0.71184522  0.92369056  0.00000000
   0.64041656  0.78083336  0.22424453
   0.56898791  0.63797617  0.44848910
   0.99755949  0.24511899  0.11212227
   0.92613083  0.10226178  0.33636683
   0.85470217  0.95940459  0.56061137
   0.42613095  0.10226187  0.11212227
   0.35470229  0.95940465  0.33636683
   0.28327364  0.81654745  0.56061137
   0.14041664  0.53083330  0.11212227
   0.06898798  0.38797611  0.33636683
   0.99755931  0.24511889  0.56061137
   0.56898803  0.38797617  0.11212227
   0.49755940  0.24511896  0.33636683
   0.42613077  0.10226173  0.56061137
   0.28327376  0.81654757  0.11212227
   0.21184512  0.67369038  0.33636683
   0.14041646  0.53083318  0.56061137
   0.71184516  0.67369044  0.11212227
   0.64041656  0.53083324  0.33636683
   0.56898791  0.38797605  0.56061137
   0.85470247  0.95940477  0.11212227
   0.78327382  0.81654757  0.33636683
   0.71184510  0.67369038  0.56061137
   0.74189818  0.60300934  0.56061137
   0.10300946  0.29745364  0.64848912
   0.46412075  0.99189788  0.73636687
   0.82523179  0.68634224  0.82424450
   0.18634296  0.38078648  0.91212213
   0.54745436  0.07523072  0.00000000
   0.40856481  0.26967594  0.56061137
   0.76967609  0.96412021  0.64848912
   0.13078737  0.65856451  0.73636687
   0.49189842  0.35300887  0.82424450
   0.85300970  0.04745311  0.91212237
   0.21412086  0.74189746  0.00000000
   0.07523150  0.93634260  0.56061137
   0.43634275  0.63078690  0.64848912
   0.79745394  0.32523107  0.73636687
   0.15856504  0.01967549  0.82424450
   0.51967633  0.71411979  0.91212213
   0.88078761  0.40856397  0.00000000
   0.07523149  0.68634272  0.56061137
   0.43634275  0.38078702  0.64848912
   0.79745394  0.07523129  0.73636687
   0.15856516  0.76967561  0.82424450
   0.51967633  0.46411991  0.91212237
   0.88078773  0.15856415  0.99999988
   0.74189812  0.35300928  0.56061137
   0.10300934  0.04745356  0.64848912
   0.46412051  0.74189782  0.73636687
   0.82523167  0.43634224  0.82424450
   0.18634296  0.13078636  0.91212237
   0.54745412  0.82523072  0.00000000
   0.40856487  0.01967591  0.56061137
   0.76967609  0.71412015  0.64848912
   0.13078737  0.40856439  0.73636687
   0.49189854  0.10300887  0.82424462
   0.85300970  0.79745317  0.91212237
   0.21412086  0.49189723  0.00000000
   0.90856487  0.76967603  0.56061149
   0.26967621  0.46412036  0.64848912
   0.63078737  0.15856457  0.73636687
   0.99189842  0.85300893  0.82424450
   0.35300994  0.54745322  0.91212237
   0.71412086  0.24189752  0.00000000
   0.57523155  0.43634263  0.56061137
   0.93634272  0.13078690  0.64848912
   0.29745400  0.82523119  0.73636687
   0.65856516  0.51967555  0.82424450
   0.01967645  0.21411985  0.91212213
   0.38078761  0.90856409  0.00000000
   0.24189815  0.10300927  0.56061137
   0.60300940  0.79745352  0.64848912
   0.96412063  0.49189776  0.73636687
   0.32523179  0.18634218  0.82424450
   0.68634296  0.88078642  0.91212237
   0.04745412  0.57523072  0.00000000
   0.24189815  0.85300934  0.56061137
   0.60300934  0.54745364  0.64848912
   0.96412063  0.24189791  0.73636687
   0.32523179  0.93634224  0.82424450
   0.68634307  0.63078654  0.91212237
   0.04745436  0.32523084  0.00000000
   0.90856487  0.51967597  0.56061149
   0.26967609  0.21412030  0.64848912
   0.63078737  0.90856457  0.73636687
   0.99189854  0.60300893  0.82424450
   0.35300970  0.29745322  0.91212237
   0.71412110  0.99189746  0.00000000
   0.57523149  0.18634261  0.56061137
   0.93634278  0.88078690  0.64848912
   0.29745400  0.57523114  0.73636687
   0.65856516  0.26967555  0.82424450
   0.01967621  0.96411979  0.91212237
   0.38078761  0.65856409  0.00000000
