       N       E                     dE             d eps       ncg     rms          rms(c)
DAV:   1     0.361504303765E+04    0.36150E+04   -0.30196E+05 13824   0.168E+03
DAV:   2    -0.296042493110E+03   -0.39111E+04   -0.37882E+04 16192   0.202E+02
DAV:   3    -0.725089764989E+03   -0.42905E+03   -0.41420E+03 16928   0.651E+01
DAV:   4    -0.743879499912E+03   -0.18790E+02   -0.18366E+02 16728   0.132E+01
DAV:   5    -0.744771151040E+03   -0.89165E+00   -0.88347E+00 18784   0.245E+00    0.274E+01
DAV:   6    -0.735989320610E+03    0.87818E+01   -0.25613E+01 19312   0.671E+00    0.133E+01
DAV:   7    -0.735116243943E+03    0.87308E+00   -0.18415E+01 17752   0.646E+00    0.674E+00
DAV:   8    -0.734008094622E+03    0.11081E+01   -0.39050E+00 16184   0.322E+00    0.152E+00
DAV:   9    -0.734033642173E+03   -0.25548E-01   -0.10267E+00 16008   0.129E+00    0.975E-01
DAV:  10    -0.734030188107E+03    0.34541E-02   -0.20326E-01 15928   0.603E-01    0.504E-01
DAV:  11    -0.734032500140E+03   -0.23120E-02   -0.53808E-02 15664   0.317E-01    0.207E-01
DAV:  12    -0.734031735453E+03    0.76469E-03   -0.11092E-02 15624   0.152E-01    0.108E-01
DAV:  13    -0.734031931041E+03   -0.19559E-03   -0.33470E-03 16888   0.639E-02    0.578E-02
DAV:  14    -0.734032028717E+03   -0.97676E-04   -0.80608E-04 16664   0.404E-02    0.346E-02
DAV:  15    -0.734032035095E+03   -0.63777E-05   -0.27002E-04 16632   0.258E-02    0.161E-02
DAV:  16    -0.734032045399E+03   -0.10305E-04   -0.71704E-05 15752   0.120E-02    0.833E-03
DAV:  17    -0.734032051273E+03   -0.58740E-05   -0.18241E-05 15888   0.505E-03    0.518E-03
DAV:  18    -0.734032055118E+03   -0.38444E-05   -0.43103E-06 15288   0.280E-03    0.267E-03
DAV:  19    -0.734032055719E+03   -0.60145E-06   -0.96963E-07 16008   0.137E-03    0.155E-03
DAV:  20    -0.734032055514E+03    0.20489E-06   -0.27116E-07 10312   0.746E-04    0.891E-04
DAV:  21    -0.734032055422E+03    0.92939E-07   -0.99399E-08  8832   0.467E-04
   1 F= -.73403206E+03 E0= -.73403047E+03  d E =-.317570E-02  mag=     1.0000
