 120 120   0   0
  0.2190039E+02  0.7680595E-09  0.1629300E-08  0.2100086E-08  0.5000000E-15
  1.000000000000000E-004
  CAR 
 Si and Ge interface calculation         
      7.79162524     -8.59619528  301      4.75291299      1.00000000
     -8.596  0.0000E+00  0.0000E+00  0.0000E+00  0.0000E+00
     -8.542  0.0000E+00  0.0000E+00  0.0000E+00  0.0000E+00
     -8.487  0.0000E+00  0.0000E+00  0.0000E+00  0.0000E+00
     -8.432  0.0000E+00  0.0000E+00  0.0000E+00  0.0000E+00
     -8.378  0.0000E+00  0.0000E+00  0.0000E+00  0.0000E+00
     -8.323  0.0000E+00  0.0000E+00  0.0000E+00  0.0000E+00
     -8.268  0.0000E+00  0.0000E+00  0.0000E+00  0.0000E+00
     -8.214  0.0000E+00  0.0000E+00  0.0000E+00  0.0000E+00
     -8.159  0.0000E+00  0.0000E+00  0.0000E+00  0.0000E+00
     -8.105  0.0000E+00  0.0000E+00  0.0000E+00  0.0000E+00
     -8.050  0.0000E+00  0.0000E+00  0.0000E+00  0.0000E+00
     -7.995  0.0000E+00  0.0000E+00  0.0000E+00  0.0000E+00
     -7.941  0.0000E+00  0.0000E+00  0.0000E+00  0.0000E+00
     -7.886  0.2020E-05  0.1263E-07  0.1104E-06  0.6900E-09
     -7.831  0.4565E+01  0.4444E+01  0.2494E+00  0.2427E+00
     -7.777  0.1237E-01  0.1331E+00  0.2501E+00  0.2500E+00
     -7.722  0.1099E+02  0.9519E+01  0.8504E+00  0.7700E+00
     -7.668  0.7316E+01  0.8787E+01  0.1250E+01  0.1250E+01
     -7.613  0.1289E+02  0.6500E+01  0.1954E+01  0.1605E+01
     -7.558  0.1244E+02  0.1656E+02  0.2634E+01  0.2510E+01
     -7.504  0.2131E+01  0.4399E+01  0.2750E+01  0.2750E+01
     -7.449  0.1098E+02  0.9479E+01  0.3350E+01  0.3268E+01
     -7.394  0.2135E+02  0.2259E+02  0.4516E+01  0.4502E+01
     -7.340  0.2195E+02  0.2038E+02  0.5716E+01  0.5615E+01
     -7.285  0.2831E+02  0.2169E+02  0.7262E+01  0.6800E+01
     -7.231  0.8930E+01  0.1739E+02  0.7750E+01  0.7750E+01
     -7.176  0.5296E+01  0.4690E+01  0.8039E+01  0.8006E+01
     -7.121  0.3743E+02  0.3699E+02  0.1008E+02  0.1003E+02
     -7.067  0.2254E+02  0.2200E+02  0.1132E+02  0.1123E+02
     -7.012  0.8111E+01  0.9527E+01  0.1176E+02  0.1175E+02
     -6.957  0.2451E+02  0.1874E+02  0.1310E+02  0.1277E+02
     -6.903  0.1197E+02  0.1789E+02  0.1375E+02  0.1375E+02
     -6.848  0.3100E+02  0.2496E+02  0.1544E+02  0.1511E+02
     -6.794  0.2851E+02  0.3454E+02  0.1700E+02  0.1700E+02
     -6.739  0.9837E+01  0.8821E+01  0.1754E+02  0.1748E+02
     -6.684  0.1812E+02  0.1852E+02  0.1853E+02  0.1849E+02
     -6.630  0.2219E+02  0.2216E+02  0.1974E+02  0.1970E+02
     -6.575  0.2483E+02  0.2403E+02  0.2110E+02  0.2102E+02
     -6.520  0.4501E+02  0.4172E+02  0.2356E+02  0.2330E+02
     -6.466  0.1271E+02  0.1747E+02  0.2425E+02  0.2425E+02
     -6.411  0.4639E+02  0.3802E+02  0.2678E+02  0.2633E+02
     -6.357  0.2226E+02  0.3024E+02  0.2800E+02  0.2798E+02
     -6.302  0.3704E+02  0.3322E+02  0.3002E+02  0.2979E+02
     -6.247  0.2943E+02  0.3154E+02  0.3163E+02  0.3152E+02
     -6.193  0.4594E+02  0.4622E+02  0.3414E+02  0.3404E+02
     -6.138  0.3161E+02  0.2995E+02  0.3587E+02  0.3568E+02
     -6.083  0.2646E+02  0.2693E+02  0.3731E+02  0.3715E+02
     -6.029  0.2729E+02  0.2624E+02  0.3880E+02  0.3858E+02
     -5.974  0.3532E+02  0.3398E+02  0.4073E+02  0.4044E+02
     -5.920  0.3465E+02  0.3349E+02  0.4263E+02  0.4227E+02
     -5.865  0.3888E+02  0.4505E+02  0.4475E+02  0.4473E+02
     -5.810  0.2750E+02  0.2722E+02  0.4625E+02  0.4621E+02
     -5.756  0.4959E+02  0.4665E+02  0.4896E+02  0.4876E+02
     -5.701  0.4616E+02  0.4600E+02  0.5148E+02  0.5128E+02
     -5.646  0.2333E+02  0.2695E+02  0.5276E+02  0.5275E+02
     -5.592  0.4436E+02  0.4178E+02  0.5518E+02  0.5503E+02
     -5.537  0.2147E+02  0.2270E+02  0.5635E+02  0.5627E+02
     -5.483  0.5307E+02  0.5192E+02  0.5925E+02  0.5911E+02
     -5.428  0.3787E+02  0.3658E+02  0.6132E+02  0.6111E+02
     -5.373  0.4518E+02  0.4541E+02  0.6379E+02  0.6359E+02
     -5.319  0.3676E+02  0.3811E+02  0.6580E+02  0.6567E+02
     -5.264  0.4388E+02  0.4407E+02  0.6819E+02  0.6807E+02
     -5.209  0.4683E+02  0.4393E+02  0.7075E+02  0.7047E+02
     -5.155  0.5017E+02  0.5227E+02  0.7349E+02  0.7333E+02
     -5.100  0.3622E+02  0.3491E+02  0.7547E+02  0.7524E+02
     -5.046  0.6362E+02  0.6532E+02  0.7895E+02  0.7880E+02
     -4.991  0.4000E+02  0.3888E+02  0.8113E+02  0.8093E+02
     -4.936  0.3345E+02  0.3191E+02  0.8296E+02  0.8267E+02
     -4.882  0.4706E+02  0.5110E+02  0.8553E+02  0.8546E+02
     -4.827  0.1793E+02  0.1698E+02  0.8651E+02  0.8639E+02
     -4.772  0.4473E+02  0.3810E+02  0.8895E+02  0.8847E+02
     -4.718  0.3645E+02  0.4371E+02  0.9094E+02  0.9086E+02
     -4.663  0.3292E+02  0.3366E+02  0.9274E+02  0.9270E+02
     -4.608  0.3102E+02  0.2915E+02  0.9444E+02  0.9429E+02
     -4.554  0.3394E+02  0.3433E+02  0.9629E+02  0.9617E+02
     -4.499  0.2805E+02  0.2573E+02  0.9782E+02  0.9757E+02
     -4.445  0.3926E+02  0.3980E+02  0.9997E+02  0.9975E+02
     -4.390  0.3203E+02  0.3034E+02  0.1017E+03  0.1014E+03
     -4.335  0.5068E+02  0.5290E+02  0.1045E+03  0.1043E+03
     -4.281  0.4476E+02  0.4237E+02  0.1069E+03  0.1066E+03
     -4.226  0.9070E+01  0.1239E+02  0.1074E+03  0.1073E+03
     -4.171  0.1960E+02  0.1986E+02  0.1085E+03  0.1084E+03
     -4.117  0.1907E+02  0.1819E+02  0.1095E+03  0.1094E+03
     -4.062  0.1352E+02  0.1320E+02  0.1103E+03  0.1101E+03
     -4.008  0.1783E+02  0.2134E+02  0.1113E+03  0.1113E+03
     -3.953  0.2519E+02  0.1964E+02  0.1126E+03  0.1123E+03
     -3.898  0.2162E+02  0.2421E+02  0.1138E+03  0.1136E+03
     -3.844  0.5061E+01  0.6535E+01  0.1141E+03  0.1140E+03
     -3.789  0.1544E+02  0.1306E+02  0.1149E+03  0.1147E+03
     -3.734  0.2204E+02  0.2044E+02  0.1161E+03  0.1158E+03
     -3.680  0.2502E+02  0.3020E+02  0.1175E+03  0.1175E+03
     -3.625  0.1602E+02  0.1120E+02  0.1184E+03  0.1181E+03
     -3.571  0.2557E+02  0.3040E+02  0.1198E+03  0.1198E+03
     -3.516  0.1451E+02  0.1009E+02  0.1206E+03  0.1203E+03
     -3.461  0.1639E+02  0.1641E+02  0.1215E+03  0.1212E+03
     -3.407  0.1904E+02  0.2306E+02  0.1225E+03  0.1225E+03
     -3.352  0.2648E+02  0.2397E+02  0.1239E+03  0.1238E+03
     -3.297  0.1287E+02  0.1443E+02  0.1246E+03  0.1246E+03
     -3.243  0.9848E+01  0.9604E+01  0.1252E+03  0.1251E+03
     -3.188  0.3488E+02  0.2678E+02  0.1271E+03  0.1265E+03
     -3.134  0.2520E+02  0.3151E+02  0.1285E+03  0.1283E+03
     -3.079  0.2388E+02  0.2680E+02  0.1298E+03  0.1297E+03
     -3.024  0.1791E+02  0.1822E+02  0.1307E+03  0.1307E+03
     -2.970  0.3386E+02  0.2824E+02  0.1326E+03  0.1323E+03
     -2.915  0.7201E+01  0.1102E+02  0.1330E+03  0.1329E+03
     -2.860  0.2961E+02  0.2758E+02  0.1346E+03  0.1344E+03
     -2.806  0.2703E+02  0.2584E+02  0.1361E+03  0.1358E+03
     -2.751  0.4338E+02  0.4503E+02  0.1385E+03  0.1383E+03
     -2.697  0.4690E+02  0.4331E+02  0.1410E+03  0.1406E+03
     -2.642  0.5076E+02  0.5474E+02  0.1438E+03  0.1436E+03
     -2.587  0.4401E+02  0.3935E+02  0.1462E+03  0.1458E+03
     -2.533  0.6224E+02  0.5866E+02  0.1496E+03  0.1490E+03
     -2.478  0.5149E+02  0.5947E+02  0.1524E+03  0.1522E+03
     -2.423  0.5831E+02  0.5607E+02  0.1556E+03  0.1553E+03
     -2.369  0.7364E+02  0.7306E+02  0.1596E+03  0.1593E+03
     -2.314  0.5893E+02  0.6128E+02  0.1628E+03  0.1626E+03
     -2.260  0.3460E+02  0.3175E+02  0.1647E+03  0.1643E+03
     -2.205  0.5854E+02  0.5513E+02  0.1679E+03  0.1674E+03
     -2.150  0.5575E+02  0.5785E+02  0.1710E+03  0.1705E+03
     -2.096  0.3037E+02  0.3434E+02  0.1726E+03  0.1724E+03
     -2.041  0.5263E+02  0.5282E+02  0.1755E+03  0.1753E+03
     -1.986  0.4566E+02  0.4464E+02  0.1780E+03  0.1777E+03
     -1.932  0.3641E+02  0.3837E+02  0.1800E+03  0.1798E+03
     -1.877  0.5622E+01  0.8133E+01  0.1803E+03  0.1803E+03
     -1.823  0.2216E+02  0.2185E+02  0.1815E+03  0.1815E+03
     -1.768  0.3600E+02  0.3361E+02  0.1835E+03  0.1833E+03
     -1.713  0.4550E+02  0.4611E+02  0.1860E+03  0.1858E+03
     -1.659  0.4472E+02  0.3851E+02  0.1884E+03  0.1879E+03
     -1.604  0.5556E+02  0.5503E+02  0.1914E+03  0.1909E+03
     -1.549  0.2132E+02  0.2670E+02  0.1926E+03  0.1924E+03
     -1.495  0.2264E+02  0.2083E+02  0.1938E+03  0.1935E+03
     -1.440  0.3201E+02  0.3636E+02  0.1956E+03  0.1955E+03
     -1.386  0.3042E+02  0.3048E+02  0.1972E+03  0.1972E+03
     -1.331  0.1286E+02  0.8535E+01  0.1979E+03  0.1976E+03
     -1.276  0.1815E+02  0.2052E+02  0.1989E+03  0.1988E+03
     -1.222  0.1483E+02  0.1808E+02  0.1997E+03  0.1997E+03
     -1.167  0.8862E+01  0.7408E+01  0.2002E+03  0.2001E+03
     -1.112  0.1108E+02  0.9003E+01  0.2008E+03  0.2006E+03
     -1.058  0.2614E+02  0.2718E+02  0.2023E+03  0.2021E+03
     -1.003  0.3811E+02  0.3495E+02  0.2043E+03  0.2040E+03
     -0.949  0.1473E+02  0.1951E+02  0.2052E+03  0.2051E+03
     -0.894  0.1107E+02  0.1182E+02  0.2058E+03  0.2057E+03
     -0.839  0.1660E+02  0.1485E+02  0.2067E+03  0.2066E+03
     -0.785  0.1602E+02  0.1658E+02  0.2075E+03  0.2075E+03
     -0.730  0.1756E+02  0.1819E+02  0.2085E+03  0.2085E+03
     -0.675  0.2475E+02  0.2131E+02  0.2099E+03  0.2096E+03
     -0.621  0.3206E+02  0.2890E+02  0.2116E+03  0.2112E+03
     -0.566  0.4607E+02  0.4757E+02  0.2141E+03  0.2138E+03
     -0.512  0.3926E+02  0.4076E+02  0.2163E+03  0.2160E+03
     -0.457  0.1841E+02  0.1916E+02  0.2173E+03  0.2171E+03
     -0.402  0.4016E+02  0.3453E+02  0.2195E+03  0.2190E+03
     -0.348  0.9824E+01  0.1919E+02  0.2200E+03  0.2200E+03
     -0.293  0.9117E+01  0.8540E+01  0.2205E+03  0.2205E+03
     -0.238  0.1281E+02  0.8837E+01  0.2212E+03  0.2209E+03
     -0.184  0.2985E+02  0.3258E+02  0.2228E+03  0.2227E+03
     -0.129  0.3142E+01  0.4964E+01  0.2230E+03  0.2230E+03
     -0.075  0.9055E+01  0.8767E+01  0.2235E+03  0.2235E+03
     -0.020  0.1753E+02  0.1503E+02  0.2245E+03  0.2243E+03
      0.035  0.1918E+02  0.2175E+02  0.2255E+03  0.2255E+03
      0.089  0.2965E+01  0.1251E+01  0.2257E+03  0.2256E+03
      0.144  0.1975E+02  0.1441E+02  0.2267E+03  0.2263E+03
      0.199  0.4193E+02  0.4200E+02  0.2290E+03  0.2286E+03
      0.253  0.7598E+02  0.6919E+02  0.2332E+03  0.2324E+03
      0.308  0.5251E+02  0.6196E+02  0.2361E+03  0.2358E+03
      0.362  0.3693E+02  0.3672E+02  0.2381E+03  0.2378E+03
      0.417  0.3981E+02  0.3727E+02  0.2402E+03  0.2398E+03
      0.472  0.4616E+02  0.5032E+02  0.2428E+03  0.2426E+03
      0.526  0.5035E+02  0.4643E+02  0.2455E+03  0.2451E+03
      0.581  0.2840E+02  0.3160E+02  0.2471E+03  0.2469E+03
      0.636  0.7722E+02  0.7188E+02  0.2513E+03  0.2508E+03
      0.690  0.3114E+02  0.3494E+02  0.2530E+03  0.2527E+03
      0.745  0.9599E+02  0.8903E+02  0.2582E+03  0.2576E+03
      0.799  0.9056E+02  0.9288E+02  0.2632E+03  0.2626E+03
      0.854  0.6620E+02  0.7026E+02  0.2668E+03  0.2665E+03
      0.909  0.5914E+02  0.5694E+02  0.2700E+03  0.2696E+03
      0.963  0.5002E+02  0.5193E+02  0.2728E+03  0.2724E+03
      1.018  0.4491E+02  0.4779E+02  0.2752E+03  0.2750E+03
      1.073  0.8933E+02  0.7948E+02  0.2801E+03  0.2794E+03
      1.127  0.6356E+02  0.6970E+02  0.2836E+03  0.2832E+03
      1.182  0.7753E+02  0.6619E+02  0.2878E+03  0.2868E+03
      1.236  0.6670E+02  0.8198E+02  0.2914E+03  0.2913E+03
      1.291  0.6770E+02  0.6052E+02  0.2951E+03  0.2946E+03
      1.346  0.9440E+02  0.9660E+02  0.3003E+03  0.2999E+03
      1.400  0.6505E+02  0.6461E+02  0.3038E+03  0.3034E+03
      1.455  0.8723E+02  0.8028E+02  0.3086E+03  0.3078E+03
      1.510  0.5099E+02  0.6058E+02  0.3114E+03  0.3111E+03
      1.564  0.5412E+02  0.5150E+02  0.3144E+03  0.3139E+03
      1.619  0.8294E+02  0.8074E+02  0.3189E+03  0.3183E+03
      1.674  0.8052E+02  0.8305E+02  0.3233E+03  0.3228E+03
      1.728  0.7274E+02  0.7521E+02  0.3273E+03  0.3269E+03
      1.783  0.9335E+02  0.8932E+02  0.3324E+03  0.3318E+03
      1.837  0.9364E+02  0.8487E+02  0.3375E+03  0.3365E+03
      1.892  0.9118E+02  0.1002E+03  0.3425E+03  0.3419E+03
      1.947  0.8194E+02  0.8288E+02  0.3469E+03  0.3465E+03
      2.001  0.4599E+02  0.4906E+02  0.3494E+03  0.3491E+03
      2.056  0.6311E+02  0.6087E+02  0.3529E+03  0.3525E+03
      2.111  0.6492E+02  0.5675E+02  0.3564E+03  0.3556E+03
      2.165  0.5778E+02  0.6997E+02  0.3596E+03  0.3594E+03
      2.220  0.7840E+02  0.7179E+02  0.3639E+03  0.3633E+03
      2.274  0.6607E+02  0.7052E+02  0.3675E+03  0.3672E+03
      2.329  0.9558E+02  0.8586E+02  0.3727E+03  0.3719E+03
      2.384  0.5259E+02  0.5928E+02  0.3756E+03  0.3751E+03
      2.438  0.7736E+02  0.7814E+02  0.3798E+03  0.3794E+03
      2.493  0.7381E+02  0.7241E+02  0.3838E+03  0.3833E+03
      2.548  0.7723E+02  0.7920E+02  0.3881E+03  0.3876E+03
      2.602  0.6456E+02  0.6033E+02  0.3916E+03  0.3909E+03
      2.657  0.5212E+02  0.5257E+02  0.3944E+03  0.3938E+03
      2.711  0.7898E+02  0.8338E+02  0.3987E+03  0.3984E+03
      2.766  0.6399E+02  0.6371E+02  0.4022E+03  0.4018E+03
      2.821  0.4022E+02  0.4189E+02  0.4044E+03  0.4041E+03
      2.875  0.5089E+02  0.4607E+02  0.4072E+03  0.4066E+03
      2.930  0.8432E+02  0.8337E+02  0.4118E+03  0.4112E+03
      2.985  0.5585E+02  0.5923E+02  0.4149E+03  0.4144E+03
      3.039  0.5121E+02  0.4352E+02  0.4177E+03  0.4168E+03
      3.094  0.8770E+02  0.9123E+02  0.4225E+03  0.4218E+03
      3.148  0.4478E+02  0.4494E+02  0.4249E+03  0.4243E+03
      3.203  0.7154E+02  0.7314E+02  0.4288E+03  0.4282E+03
      3.258  0.9607E+02  0.9758E+02  0.4341E+03  0.4336E+03
      3.312  0.6260E+02  0.6314E+02  0.4375E+03  0.4370E+03
      3.367  0.6513E+02  0.6171E+02  0.4410E+03  0.4404E+03
      3.422  0.5927E+02  0.5780E+02  0.4443E+03  0.4436E+03
      3.476  0.6232E+02  0.6741E+02  0.4477E+03  0.4472E+03
      3.531  0.2079E+02  0.2747E+02  0.4488E+03  0.4487E+03
      3.585  0.5833E+02  0.4699E+02  0.4520E+03  0.4513E+03
      3.640  0.2728E+02  0.3544E+02  0.4535E+03  0.4532E+03
      3.695  0.3372E+02  0.3065E+02  0.4553E+03  0.4549E+03
      3.749  0.3051E+02  0.3291E+02  0.4570E+03  0.4567E+03
      3.804  0.3410E+02  0.3266E+02  0.4589E+03  0.4585E+03
      3.859  0.2507E+02  0.3038E+02  0.4602E+03  0.4602E+03
      3.913  0.2724E+02  0.2265E+02  0.4617E+03  0.4614E+03
      3.968  0.2860E+02  0.2954E+02  0.4633E+03  0.4630E+03
      4.022  0.3879E+02  0.4164E+02  0.4654E+03  0.4653E+03
      4.077  0.2924E+02  0.3015E+02  0.4670E+03  0.4669E+03
      4.132  0.2283E+02  0.1271E+02  0.4682E+03  0.4676E+03
      4.186  0.1048E+02  0.1466E+02  0.4688E+03  0.4684E+03
      4.241  0.3525E+02  0.2884E+02  0.4707E+03  0.4700E+03
      4.296  0.1385E+02  0.2733E+02  0.4715E+03  0.4715E+03
      4.350  0.1829E+02  0.1842E+02  0.4725E+03  0.4725E+03
      4.405  0.3886E+01  0.1758E+00  0.4727E+03  0.4725E+03
      4.459  0.2758E+02  0.1560E+02  0.4742E+03  0.4734E+03
      4.514  0.2799E+02  0.3145E+02  0.4757E+03  0.4751E+03
      4.569  0.1729E+02  0.1454E+02  0.4767E+03  0.4759E+03
      4.623  0.1049E+01  0.1175E+02  0.4768E+03  0.4765E+03
      4.678  0.2074E+02  0.4637E+01  0.4779E+03  0.4768E+03
      4.733  0.3857E+02  0.2308E+02  0.4800E+03  0.4780E+03
      4.787  0.3198E+02  0.3345E+02  0.4817E+03  0.4799E+03
      4.842  0.2538E+02  0.4821E+02  0.4831E+03  0.4825E+03
      4.896  0.2956E+02  0.1853E+02  0.4847E+03  0.4835E+03
      4.951  0.2752E+02  0.2820E+02  0.4862E+03  0.4850E+03
      5.006  0.2498E+02  0.2214E+02  0.4876E+03  0.4863E+03
      5.060  0.3767E+02  0.3215E+02  0.4897E+03  0.4880E+03
      5.115  0.3263E+02  0.5369E+02  0.4914E+03  0.4909E+03
      5.170  0.3036E+02  0.1668E+02  0.4931E+03  0.4919E+03
      5.224  0.3113E+02  0.3983E+02  0.4948E+03  0.4940E+03
      5.279  0.4912E+02  0.4419E+02  0.4975E+03  0.4964E+03
      5.333  0.3618E+02  0.4987E+02  0.4995E+03  0.4992E+03
      5.388  0.3875E+02  0.4156E+02  0.5016E+03  0.5014E+03
      5.443  0.3785E+02  0.2860E+02  0.5036E+03  0.5030E+03
      5.497  0.3031E+02  0.2815E+02  0.5053E+03  0.5045E+03
      5.552  0.5213E+02  0.5474E+02  0.5082E+03  0.5075E+03
      5.607  0.3237E+02  0.3472E+02  0.5099E+03  0.5094E+03
      5.661  0.7190E+02  0.5016E+02  0.5138E+03  0.5122E+03
      5.716  0.4838E+02  0.6516E+02  0.5165E+03  0.5157E+03
      5.770  0.4513E+02  0.4121E+02  0.5190E+03  0.5180E+03
      5.825  0.4026E+02  0.4361E+02  0.5212E+03  0.5204E+03
      5.880  0.6790E+02  0.5871E+02  0.5249E+03  0.5236E+03
      5.934  0.4621E+02  0.6012E+02  0.5274E+03  0.5268E+03
      5.989  0.4960E+02  0.4514E+02  0.5301E+03  0.5293E+03
      6.044  0.4263E+02  0.4720E+02  0.5324E+03  0.5319E+03
      6.098  0.6409E+02  0.6444E+02  0.5359E+03  0.5354E+03
      6.153  0.5605E+02  0.5129E+02  0.5390E+03  0.5382E+03
      6.207  0.5975E+02  0.6511E+02  0.5423E+03  0.5418E+03
      6.262  0.3490E+02  0.4092E+02  0.5442E+03  0.5440E+03
      6.317  0.1813E+02  0.1626E+02  0.5451E+03  0.5449E+03
      6.371  0.6291E+02  0.5711E+02  0.5486E+03  0.5480E+03
      6.426  0.6190E+02  0.6560E+02  0.5520E+03  0.5516E+03
      6.481  0.6250E+02  0.5938E+02  0.5554E+03  0.5548E+03
      6.535  0.6885E+02  0.6953E+02  0.5591E+03  0.5586E+03
      6.590  0.3377E+02  0.3720E+02  0.5610E+03  0.5607E+03
      6.644  0.3017E+02  0.3369E+02  0.5626E+03  0.5625E+03
      6.699  0.4486E+02  0.3992E+02  0.5651E+03  0.5647E+03
      6.754  0.5802E+02  0.5903E+02  0.5683E+03  0.5679E+03
      6.808  0.3305E+02  0.2812E+02  0.5701E+03  0.5695E+03
      6.863  0.4812E+02  0.5425E+02  0.5727E+03  0.5724E+03
      6.918  0.2925E+02  0.2899E+02  0.5743E+03  0.5740E+03
      6.972  0.4564E+01  0.9200E+01  0.5745E+03  0.5745E+03
      7.027  0.1539E+02  0.1737E+02  0.5754E+03  0.5755E+03
      7.081  0.1141E+02  0.1002E+02  0.5760E+03  0.5760E+03
      7.136  0.0000E+00  0.0000E+00  0.5760E+03  0.5760E+03
      7.191  0.0000E+00  0.0000E+00  0.5760E+03  0.5760E+03
      7.245  0.0000E+00  0.0000E+00  0.5760E+03  0.5760E+03
      7.300  0.0000E+00  0.0000E+00  0.5760E+03  0.5760E+03
      7.355  0.0000E+00  0.0000E+00  0.5760E+03  0.5760E+03
      7.409  0.0000E+00  0.0000E+00  0.5760E+03  0.5760E+03
      7.464  0.0000E+00  0.0000E+00  0.5760E+03  0.5760E+03
      7.518  0.0000E+00  0.0000E+00  0.5760E+03  0.5760E+03
      7.573  0.0000E+00  0.0000E+00  0.5760E+03  0.5760E+03
      7.628  0.0000E+00  0.0000E+00  0.5760E+03  0.5760E+03
      7.682  0.0000E+00  0.0000E+00  0.5760E+03  0.5760E+03
      7.737  0.0000E+00  0.0000E+00  0.5760E+03  0.5760E+03
      7.792  0.0000E+00  0.0000E+00  0.5760E+03  0.5760E+03
