 vasp.6.4.3 19Mar24 (build Oct 22 2024 11:23:12) complex                        
  
 executed on             LinuxIFC date 2025.06.08  11:18:46
 running   64 mpi-ranks, on    4 nodes
 distrk:  each k-point on   64 cores,    1 groups
 distr:  one band on NCORE=  16 cores,    4 groups


--------------------------------------------------------------------------------------------------------


 INCAR:
   SYSTEM = Si and Ge interface calculation
   ISTART = 0
   ICHARG = 2
   LWAVE = .FALSE.
   LREAL = AUTO
   ENCUT = 700
   ENAUG = 900
   ADDGRID = .TRUE.
   LMAXMIX = 6
   LASPH = .TRUE.
   LMIXTAU = .TRUE.
   NCORE = 16
   NELM = 100
   NBANDS = 288
   EDIFF = 1d-7
   AMIX = 0.6
   ISMEAR = 0
   SIGMA = 0.01
   NELECT = 480
   ISPIN = 2
   NUPDOWN = 1
   LVTOT = .FALSE.
   LVHAR = .TRUE.

 POTCAR:    PAW_PBE Si 05Jan2001                  
 POTCAR:    PAW_PBE Ge 05Jan2001                  
 -----------------------------------------------------------------------------
|                                                                             |
|           W    W    AA    RRRRR   N    N  II  N    N   GGGG   !!!           |
|           W    W   A  A   R    R  NN   N  II  NN   N  G    G  !!!           |
|           W    W  A    A  R    R  N N  N  II  N N  N  G       !!!           |
|           W WW W  AAAAAA  RRRRR   N  N N  II  N  N N  G  GGG   !            |
|           WW  WW  A    A  R   R   N   NN  II  N   NN  G    G                |
|           W    W  A    A  R    R  N    N  II  N    N   GGGG   !!!           |
|                                                                             |
|     You use a magnetic or noncollinear calculation, but did not specify     |
|     the initial magnetic moment with the MAGMOM tag. Note that a            |
|     default of 8.333e-3 will be used for all atoms. This ferromagnetic      |
|     setup may break the symmetry of the crystal, in particular it may       |
|     rule out finding an antiferromagnetic solution. Thence, we              |
|     recommend setting the initial magnetic moment manually or verifying     |
|     carefully that this magnetic setup is desired.                          |
|                                                                             |
 -----------------------------------------------------------------------------

 POTCAR:    PAW_PBE Si 05Jan2001                  
   VRHFIN =Si: s2p2                                                                                 
   LEXCH  = PE                                                                                      
   EATOM  =   103.0669 eV,    7.5752 Ry                                                             
                                                                                                    
   TITEL  = PAW_PBE Si 05Jan2001                                                                    
   LULTRA =        F    use ultrasoft PP ?                                                          
   IUNSCR =        1    unscreen: 0-lin 1-nonlin 2-no                                               
   RPACOR =    1.500    partial core radius                                                         
   POMASS =   28.085; ZVAL   =    4.000    mass and valenz                                          
   RCORE  =    1.900    outmost cutoff radius                                                       
   RWIGS  =    2.480; RWIGS  =    1.312    wigner-seitz radius (au A)                               
   ENMAX  =  245.345; ENMIN  =  184.009 eV                                                          
   ICORE  =        2    local potential                                                             
   LCOR   =        T    correct aug charges                                                         
   LPAW   =        T    paw PP                                                                      
   EAUG   =  322.069                                                                                
   DEXC   =    0.000                                                                                
   RMAX   =    1.950    core radius for proj-oper                                                   
   RAUG   =    1.300    factor for augmentation sphere                                              
   RDEP   =    1.993    radius for radial grids                                                     
   RDEPT  =    1.837    core radius for aug-charge                                                  
                                                                                                    
   Atomic configuration                                                                             
    6 entries                                                                                       
     n  l   j            E        occ.                                                              
     1  0  0.50     -1785.8828   2.0000                                                             
     2  0  0.50      -139.4969   2.0000                                                             
     2  1  1.50       -95.5546   6.0000                                                             
     3  0  0.50       -10.8127   2.0000                                                             
     3  1  0.50        -4.0811   2.0000                                                             
     3  2  1.50        -4.0817   0.0000                                                             
   Description                                                                                      
     l       E           TYP  RCUT    TYP  RCUT                                                     
     0    -10.8127223     23  1.900                                                                 
     0     -7.6451159     23  1.900                                                                 
     1     -4.0811372     23  1.900                                                                 
     1      2.4879257     23  1.900                                                                 
     2     -4.0817478      7  1.900                                                                 
  local pseudopotential read in
  partial core-charges read in
  partial kinetic energy density read in
  atomic valenz-charges read in
  non local Contribution for L=           0  read in
    real space projection operators read in
  non local Contribution for L=           0  read in
    real space projection operators read in
  non local Contribution for L=           1  read in
    real space projection operators read in
  non local Contribution for L=           1  read in
    real space projection operators read in
    PAW grid and wavefunctions read in
 
   number of l-projection  operators is LMAX  =           4
   number of lm-projection operators is LMMAX =           8
 
 POTCAR:    PAW_PBE Ge 05Jan2001                  
   VRHFIN =Ge: s2p2                                                                                 
   LEXCH  = PE                                                                                      
   EATOM  =   104.9960 eV,    7.7170 Ry                                                             
                                                                                                    
   TITEL  = PAW_PBE Ge 05Jan2001                                                                    
   LULTRA =        F    use ultrasoft PP ?                                                          
   IUNSCR =        1    unscreen: 0-lin 1-nonlin 2-no                                               
   RPACOR =    2.170    partial core radius                                                         
   POMASS =   72.610; ZVAL   =    4.000    mass and valenz                                          
   RCORE  =    2.300    outmost cutoff radius                                                       
   RWIGS  =    2.300; RWIGS  =    1.217    wigner-seitz radius (au A)                               
   ENMAX  =  173.807; ENMIN  =  130.355 eV                                                          
   ICORE  =        3    local potential                                                             
   LCOR   =        T    correct aug charges                                                         
   LPAW   =        T    paw PP                                                                      
   EAUG   =  385.843                                                                                
   DEXC   =    0.000                                                                                
   RMAX   =    2.342    core radius for proj-oper                                                   
   RAUG   =    1.300    factor for augmentation sphere                                              
   RDEP   =    2.318    radius for radial grids                                                     
   RDEPT  =    2.103    core radius for aug-charge                                                  
                                                                                                    
   Atomic configuration                                                                             
   10 entries                                                                                       
     n  l   j            E        occ.                                                              
     1  0  0.50    -10959.8463   2.0000                                                             
     2  0  0.50     -1371.6056   2.0000                                                             
     2  1  1.50     -1198.4791   6.0000                                                             
     3  0  0.50      -168.4733   2.0000                                                             
     3  1  1.50      -115.6019   6.0000                                                             
     3  2  2.50       -29.3106  10.0000                                                             
     4  0  0.50       -11.7309   2.0000                                                             
     4  1  0.50        -3.8952   2.0000                                                             
     4  2  1.50        -4.0817   0.0000                                                             
     4  3  2.50        -4.0817   0.0000                                                             
   Description                                                                                      
     l       E           TYP  RCUT    TYP  RCUT                                                     
     0    -11.7309493     23  2.300                                                                 
     0     -7.4578696     23  2.300                                                                 
     1     -3.8952261     23  2.300                                                                 
     1      6.1178114     23  2.300                                                                 
     2     -4.0817478     23  2.300                                                                 
     3     -1.3605826      7  2.300                                                                 
  local pseudopotential read in
  partial core-charges read in
  partial kinetic energy density read in
  atomic valenz-charges read in
  non local Contribution for L=           0  read in
    real space projection operators read in
  non local Contribution for L=           0  read in
    real space projection operators read in
  non local Contribution for L=           1  read in
    real space projection operators read in
  non local Contribution for L=           1  read in
    real space projection operators read in
  non local Contribution for L=           2  read in
    real space projection operators read in
    PAW grid and wavefunctions read in
 
   number of l-projection  operators is LMAX  =           5
   number of lm-projection operators is LMMAX =          13
 
 Optimization of the real space projectors (new method)

 maximal supplied QI-value         = 19.84
 optimisation between [QCUT,QGAM] = [ 13.49, 26.99] = [ 50.98,203.92] Ry 
 Optimized for a Real-space Cutoff    1.07 Angstroem

   l    n(q)    QCUT    max X(q) W(low)/X(q) W(high)/X(q)  e(spline) 
   0      9    13.493   159.560    0.22E-03    0.15E-03    0.72E-07
   0      9    13.493   115.863    0.21E-03    0.15E-03    0.71E-07
   1      8    13.493    88.339    0.15E-03    0.11E-03    0.13E-06
   1      8    13.493    48.592    0.15E-03    0.10E-03    0.13E-06
 Optimization of the real space projectors (new method)

 maximal supplied QI-value         = 16.25
 optimisation between [QCUT,QGAM] = [ 13.49, 26.98] = [ 50.95,203.80] Ry 
 Optimized for a Real-space Cutoff    1.25 Angstroem

   l    n(q)    QCUT    max X(q) W(low)/X(q) W(high)/X(q)  e(spline) 
   0     10    13.489    65.336    0.91E-04    0.11E-03    0.34E-06
   0     10    13.489    52.220    0.89E-04    0.11E-03    0.34E-06
   1     10    13.489    36.409    0.22E-03    0.27E-03    0.14E-06
   1     10    13.489    21.334    0.21E-03    0.27E-03    0.14E-06
   2      9    13.489     4.673    0.11E-03    0.12E-03    0.19E-06
  PAW_PBE Si 05Jan2001                  :
 energy of atom  1       EATOM= -103.0669
 kinetic energy error for atom=    0.0003 (will be added to EATOM!!)
  PAW_PBE Ge 05Jan2001                  :
 energy of atom  2       EATOM= -104.9960
 kinetic energy error for atom=    0.0001 (will be added to EATOM!!)
 
 
 POSCAR: Si+Ge
  positions in direct lattice
  No initial velocities read in


 exchange-correlation table for PE
   RHO(1)=    0.500       N(1)  =     2000
   RHO(2)=  100.500       N(2)  =     4000
 


--------------------------------------------------------------------------------------------------------


 ion  position               nearest neighbor table
   1  0.979  0.986  0.000-  96 2.35  67 2.35  56 2.35   2 2.46
   2  0.851  0.946  0.897-  25 2.38  75 2.38   1 2.46  96 2.47
   3  0.479  0.652  0.183-  51 2.35  69 2.35  58 2.35  50 2.35
   4  0.229  0.486  0.274-  52 2.35  51 2.35  70 2.35  59 2.35
   5  0.101  0.446  0.560-  18 2.38  94 2.38  30 2.46 106 2.47
   6  0.601  0.696  0.560- 115 2.38  85 2.38  48 2.45
   7  0.979  0.319  0.000- 120 2.35  55 2.35  62 2.35
   8  0.729  0.152  0.091-  38 2.35  56 2.35  63 2.35 120 2.35
   9  0.479  0.986  0.183-  64 2.35  39 2.35  57 2.35  38 2.35
  10  0.229  0.819  0.274-  39 2.35  40 2.35  65 2.35  58 2.35
  11  0.979  0.652  0.366-  41 2.35  59 2.35  76 2.35  40 2.35
  12  0.101  0.196  0.560- 118 2.38  91 2.38  24 2.48  72 3.14
  13  0.979  0.652  0.000-  43 2.35  68 2.35  61 2.35  19 2.48
  14  0.729  0.486  0.091-  44 2.35  62 2.35  69 2.35  43 2.35
  15  0.479  0.319  0.183-  70 2.35  45 2.35  63 2.35  44 2.35
  16  0.229  0.152  0.274-  45 2.35  46 2.35  71 2.35  64 2.35
  17  0.979  0.986  0.366-  72 2.35  47 2.35  65 2.35  46 2.35
  18  0.351  0.446  0.628-  82 2.38   5 2.38 104 2.48  77 2.48
  19  0.851  0.696  0.897- 102 2.38  84 2.38  13 2.48  43 3.14
  20  0.229  0.819  0.091-  68 2.35  50 2.35  39 2.35  67 2.35
  21  0.979  0.652  0.183-  51 2.35  69 2.35  40 2.35  68 2.35
  22  0.729  0.486  0.274-  69 2.35  70 2.35  52 2.35  41 2.35
  23  0.479  0.319  0.366-  42 2.35  71 2.35  53 2.35  70 2.35
  24  0.229  0.152  0.457-  72 2.35  54 2.35  71 2.35  12 2.48
  25  0.101  0.946  0.830- 117 2.38   2 2.38 113 2.48  92 2.48
  26  0.229  0.152  0.091-  55 2.35  45 2.35  56 2.35  38 2.35
  27  0.979  0.986  0.183-  46 2.35  56 2.35  39 2.35  57 2.35
  28  0.729  0.819  0.274-  57 2.35  58 2.35  40 2.35  47 2.35
  29  0.479  0.652  0.366-  48 2.35  59 2.35  41 2.35  58 2.35
  30  0.229  0.486  0.457-  59 2.35 106 2.35  42 2.35   5 2.46
  31  0.351  0.196  0.897-  78 2.38  99 2.38  55 2.45
  32  0.229  0.486  0.091-  62 2.35  51 2.35  44 2.35  61 2.35
  33  0.979  0.319  0.183-  52 2.35  45 2.35  63 2.35  62 2.35
  34  0.729  0.152  0.274-  63 2.35  64 2.35  46 2.35  53 2.35
  35  0.479  0.986  0.366-  54 2.35  65 2.35  47 2.35  64 2.35
  36  0.229  0.819  0.457-  76 2.35  48 2.35  65 2.35
  37  0.351  0.446  0.897- 108 2.38  81 2.38  61 3.09
  38  0.479  0.069  0.091- 114 2.35   8 2.35   9 2.35  26 2.35
  39  0.229  0.902  0.183-  10 2.35   9 2.35  20 2.35  27 2.35
  40  0.979  0.736  0.274-  21 2.35  10 2.35  28 2.35  11 2.35
  41  0.729  0.569  0.366-  11 2.35  29 2.35  79 2.35  22 2.35
  42  0.479  0.402  0.457-  23 2.35  79 2.35  30 2.35  82 2.47
  43  0.729  0.569  0.000-  13 2.35  90 2.35  14 2.35  19 3.14
  44  0.479  0.402  0.091-  14 2.35  32 2.35 105 2.35  15 2.35
  45  0.229  0.236  0.183-  15 2.35  16 2.35  33 2.35  26 2.35
  46  0.979  0.069  0.274-  16 2.35  34 2.35  27 2.35  17 2.35
  47  0.729  0.902  0.366-  17 2.35  35 2.35  28 2.35 112 2.35
  48  0.479  0.736  0.457-  29 2.35 112 2.35  36 2.35   6 2.45
  49  0.351  0.696  0.897-  84 2.38 102 2.38  90 2.48  61 3.14
  50  0.479  0.736  0.091-  87 2.35  90 2.35  20 2.35   3 2.35
  51  0.229  0.569  0.183-   3 2.35  21 2.35   4 2.35  32 2.35
  52  0.979  0.402  0.274-   4 2.35  22 2.35  33 2.35 100 2.35
  53  0.729  0.236  0.366- 100 2.35  23 2.35  34 2.35 103 2.35
  54  0.479  0.069  0.457-  35 2.35 103 2.35  24 2.35  66 3.09  60 3.14
  55  0.229  0.236  0.000-   7 2.35 105 2.35  26 2.35  31 2.45
  56  0.979  0.069  0.091-   1 2.35   8 2.35  26 2.35  27 2.35
  57  0.729  0.902  0.183-  28 2.35  87 2.35   9 2.35  27 2.35
  58  0.479  0.736  0.274-   3 2.35  28 2.35  10 2.35  29 2.35
  59  0.229  0.569  0.366-  11 2.35  29 2.35   4 2.35  30 2.35
  60  0.601  0.196  0.560-  91 2.38 118 2.38 103 2.48  54 3.14
  61  0.229  0.569  0.000-  13 2.35  90 2.35  32 2.35  37 3.09  49 3.14
  62  0.979  0.402  0.091-  14 2.35  32 2.35   7 2.35  33 2.35
  63  0.729  0.236  0.183-  34 2.35  15 2.35  33 2.35   8 2.35
  64  0.479  0.069  0.274-   9 2.35  34 2.35  16 2.35  35 2.35
  65  0.229  0.902  0.366-  17 2.35  35 2.35  10 2.35  36 2.35
  66  0.601  0.946  0.560- 109 2.38  88 2.38  54 3.09
  67  0.229  0.902  0.000-   1 2.35 114 2.35  20 2.35 117 2.47
  68  0.979  0.736  0.091-  87 2.35  20 2.35  13 2.35  21 2.35
  69  0.729  0.569  0.183-   3 2.35  22 2.35  21 2.35  14 2.35
  70  0.479  0.402  0.274-  15 2.35  22 2.35   4 2.35  23 2.35
  71  0.229  0.236  0.366-  23 2.35 100 2.35  16 2.35  24 2.35
  72  0.979  0.069  0.457- 103 2.35  17 2.35  24 2.35  12 3.14
  73  0.101  0.696  0.560-  85 2.38 115 2.38  76 2.45
  74  0.851  0.321  0.695-  86 2.38 116 2.38 118 2.48  94 2.48
  75  0.601  0.946  0.830-   2 2.38 117 2.38  95 2.48 119 2.48
  76  0.979  0.736  0.457- 112 2.35  11 2.35  36 2.35  73 2.45
  77  0.351  0.571  0.695-  89 2.38 110 2.38  85 2.48  18 2.48
  78  0.101  0.196  0.830-  31 2.38 111 2.38  86 2.48 113 2.48
  79  0.729  0.486  0.457- 106 2.35  41 2.35  42 2.35  82 2.46
  80  0.851  0.821  0.695-  92 2.38 119 2.38  88 2.48 115 2.48
  81  0.601  0.446  0.830-  93 2.38  37 2.38  89 2.48 116 2.48
  82  0.601  0.446  0.560-  18 2.38  94 2.38  79 2.46  42 2.47
  83  0.351  0.071  0.695-  95 2.38 113 2.38  91 2.48 109 2.48
  84  0.101  0.696  0.830-  19 2.38  49 2.38 110 2.48  92 2.48
  85  0.351  0.696  0.628-  73 2.38   6 2.38  77 2.48 107 2.48
  86  0.101  0.321  0.762-  74 2.38 104 2.38  78 2.48 108 2.48
  87  0.729  0.819  0.091-  50 2.35  68 2.35  57 2.35  96 2.35
  88  0.851  0.946  0.628-  66 2.38  97 2.38  80 2.48 101 2.48
  89  0.601  0.571  0.762-  77 2.38  98 2.38  81 2.48 102 2.48
  90  0.479  0.652  0.000-  50 2.35  61 2.35  43 2.35  49 2.48
  91  0.351  0.196  0.628-  60 2.38  12 2.38 104 2.48  83 2.48
  92  0.101  0.821  0.762-  80 2.38 107 2.38  25 2.48  84 2.48
  93  0.851  0.446  0.897-  81 2.38 108 2.38
  94  0.851  0.446  0.628-  82 2.38   5 2.38  74 2.48  98 2.48
  95  0.601  0.071  0.762-  83 2.38 101 2.38  99 2.48  75 2.48
  96  0.729  0.902  0.000-   1 2.35 114 2.35  87 2.35   2 2.47
  97  0.101  0.946  0.560-  88 2.38 109 2.38
  98  0.851  0.571  0.695- 110 2.38  89 2.38 115 2.48  94 2.48
  99  0.601  0.196  0.830- 111 2.38  31 2.38 116 2.48  95 2.48
 100  0.979  0.319  0.366-  53 2.35 106 2.35  71 2.35  52 2.35
 101  0.851  0.071  0.695- 113 2.38  95 2.38 118 2.48  88 2.48
 102  0.601  0.696  0.830-  19 2.38  49 2.38  89 2.48 119 2.48
 103  0.729  0.152  0.457-  72 2.35  54 2.35  53 2.35  60 2.48
 104  0.351  0.321  0.695- 116 2.38  86 2.38  18 2.48  91 2.48
 105  0.479  0.319  0.000-  55 2.35  44 2.35 120 2.35
 106  0.979  0.402  0.457- 100 2.35  79 2.35  30 2.35   5 2.47
 107  0.351  0.821  0.695-  92 2.38 119 2.38 109 2.48  85 2.48
 108  0.101  0.446  0.830-  37 2.38  93 2.38 110 2.48  86 2.48
 109  0.351  0.946  0.628-  66 2.38  97 2.38 107 2.48  83 2.48
 110  0.101  0.571  0.762-  98 2.38  77 2.38  84 2.48 108 2.48
 111  0.851  0.196  0.897-  99 2.38  78 2.38 120 2.45
 112  0.729  0.819  0.457-  76 2.35  48 2.35  47 2.35
 113  0.101  0.071  0.762- 101 2.38  83 2.38  25 2.48  78 2.48
 114  0.479  0.986  0.000-  67 2.35  96 2.35  38 2.35 117 2.46
 115  0.851  0.696  0.628-  73 2.38   6 2.38  98 2.48  80 2.48
 116  0.601  0.321  0.762- 104 2.38  74 2.38  99 2.48  81 2.48
 117  0.351  0.946  0.897-  25 2.38  75 2.38 114 2.46  67 2.47
 118  0.851  0.196  0.628-  12 2.38  60 2.38  74 2.48 101 2.48
 119  0.601  0.821  0.762- 107 2.38  80 2.38  75 2.48 102 2.48
 120  0.729  0.236  0.000-   7 2.35   8 2.35 105 2.35 111 2.45
 
  LATTYP: Found a simple orthorhombic cell.
 ALAT       =     7.6805944440
 B/A-ratio  =     2.1213200862
 C/A-ratio  =     2.7342758666
  
  Lattice vectors:
  
 A1 = (   7.6805944440,   0.0000000000,   0.0000000000)
 A2 = (   0.0000000000,  16.2929992680,   0.0000000000)
 A3 = (   0.0000000000,   0.0000000000,  21.0008640290)


Analysis of symmetry for initial positions (statically):
=====================================================================
 Subroutine PRICEL returns:
 Original cell was already a primitive cell.
 

 Routine SETGRP: Setting up the symmetry group for a 
 simple orthorhombic supercell.


 Subroutine GETGRP returns: Found  1 space group operations
 (whereof  1 operations were pure point group operations)
 out of a pool of  8 trial point group operations.


The static configuration has the point symmetry C_1 .


Analysis of symmetry for dynamics (positions and initial velocities):
=====================================================================
 Subroutine PRICEL returns:
 Original cell was already a primitive cell.
 

 Routine SETGRP: Setting up the symmetry group for a 
 simple orthorhombic supercell.


 Subroutine GETGRP returns: Found  1 space group operations
 (whereof  1 operations were pure point group operations)
 out of a pool of  8 trial point group operations.


The dynamic configuration has the point symmetry C_1 .


Analysis of structural, dynamic, and magnetic symmetry:
=====================================================================
 Subroutine PRICEL returns:
 Original cell was already a primitive cell.
 

 Routine SETGRP: Setting up the symmetry group for a 
 simple orthorhombic supercell.


 Subroutine GETGRP returns: Found  1 space group operations
 (whereof  1 operations were pure point group operations)
 out of a pool of  8 trial point group operations.


The overall configuration has the point symmetry C_1 .


 Subroutine INISYM returns: Found  1 space group operations
 (whereof  1 operations are pure point group operations),
 and found     1 'primitive' translations


----------------------------------------------------------------------------------------

                                     Primitive cell                                     

  volume of cell :    2628.0464

  direct lattice vectors                    reciprocal lattice vectors
     7.680594444  0.000000000  0.000000000     0.130198256  0.000000000  0.000000000
     0.000000000 16.292999268  0.000000000     0.000000000  0.061376054  0.000000000
     0.000000000  0.000000000 21.000864029     0.000000000  0.000000000  0.047617088

  length of vectors
     7.680594444 16.292999268 21.000864029     0.130198256  0.061376054  0.047617088

  position of ions in fractional coordinates (direct lattice)
     0.978517294  0.985678196  0.000000001
     0.851163685  0.946336031  0.896959722
     0.478517175  0.652344763  0.182863802
     0.228517234  0.485678136  0.274295658
     0.101163626  0.446336091  0.560199738
     0.601163626  0.696336091  0.560199738
     0.978517294  0.319011539  0.000000001
     0.728517234  0.152344853  0.091431901
     0.478517175  0.985678136  0.182863802
     0.228517234  0.819011509  0.274295658
     0.978517175  0.652344763  0.365727574
     0.101163626  0.196336150  0.560199738
     0.978517294  0.652344942  0.000000001
     0.728517234  0.485678196  0.091431901
     0.478517175  0.319011509  0.182863802
     0.228517234  0.152344868  0.274295658
     0.978517175  0.985678136  0.365727574
     0.351163626  0.446336091  0.627551734
     0.851163626  0.696336091  0.896959722
     0.228517249  0.819011450  0.091431901
     0.978517234  0.652344763  0.182863802
     0.728517294  0.485678136  0.274295628
     0.478517175  0.319011390  0.365727574
     0.228517115  0.152344704  0.457159460
     0.101163626  0.946336150  0.829607725
     0.228517249  0.152344853  0.091431901
     0.978517234  0.985678136  0.182863802
     0.728517294  0.819011509  0.274295628
     0.478517175  0.652344763  0.365727574
     0.228517115  0.485678077  0.457159460
     0.351163596  0.196336031  0.896959722
     0.228517249  0.485678196  0.091431901
     0.978517234  0.319011509  0.182863802
     0.728517294  0.152344868  0.274295628
     0.478517175  0.985678136  0.365727574
     0.228517115  0.819011390  0.457159460
     0.351163596  0.446336091  0.896959722
     0.478517294  0.069011487  0.091431893
     0.228517264  0.902344763  0.182863802
     0.978517294  0.735678136  0.274295658
     0.728517234  0.569011450  0.365727574
     0.478517234  0.402344644  0.457159400
     0.728517354  0.569011629  0.000000000
     0.478517294  0.402344882  0.091431893
     0.228517264  0.235678196  0.182863802
     0.978517294  0.069011539  0.274295658
     0.728517234  0.902344823  0.365727574
     0.478517234  0.735678077  0.457159400
     0.351163626  0.696336091  0.896959722
     0.478517294  0.735678196  0.091431893
     0.228517264  0.569011509  0.182863802
     0.978517294  0.402344853  0.274295658
     0.728517234  0.235678121  0.365727574
     0.478517234  0.069011383  0.457159400
     0.228517294  0.235678196  0.000000001
     0.978517234  0.069011487  0.091431901
     0.728517175  0.902344763  0.182863802
     0.478517294  0.735678136  0.274295628
     0.228517175  0.569011450  0.365727574
     0.601163626  0.196336150  0.560199738
     0.228517294  0.569011629  0.000000001
     0.978517234  0.402344882  0.091431901
     0.728517175  0.235678196  0.182863802
     0.478517294  0.069011539  0.274295628
     0.228517175  0.902344823  0.365727574
     0.601163626  0.946336031  0.560199738
     0.228517294  0.902344942  0.000000001
     0.978517234  0.735678196  0.091431901
     0.728517175  0.569011509  0.182863802
     0.478517294  0.402344853  0.274295628
     0.228517175  0.235678121  0.365727574
     0.978517056  0.069011383  0.457159460
     0.101163626  0.696336031  0.560199738
     0.851163685  0.321336091  0.694903731
     0.601163685  0.946336150  0.829607725
     0.978517056  0.735678077  0.457159460
     0.351163626  0.571336091  0.694903731
     0.101163626  0.196336150  0.829607725
     0.728517175  0.485678077  0.457159460
     0.851163685  0.821336150  0.694903731
     0.601163685  0.446336091  0.829607725
     0.601163566  0.446336061  0.560199738
     0.351163626  0.071336150  0.694903731
     0.101163626  0.696336091  0.829607725
     0.351163596  0.696336031  0.627551734
     0.101163626  0.321336091  0.762255728
     0.728517234  0.819011450  0.091431901
     0.851163626  0.946336031  0.627551734
     0.601163626  0.571336091  0.762255728
     0.478517294  0.652344942  0.000000000
     0.351163656  0.196336150  0.627551734
     0.101163626  0.821336150  0.762255728
     0.851163626  0.446336091  0.896959722
     0.851163566  0.446336061  0.627551734
     0.601163626  0.071336150  0.762255728
     0.728517354  0.902344942  0.000000000
     0.101163626  0.946336091  0.560199738
     0.851163745  0.571336150  0.694903731
     0.601163685  0.196336150  0.829607725
     0.978517175  0.319011390  0.365727574
     0.851163685  0.071336150  0.694903731
     0.601163685  0.696336091  0.829607725
     0.728517175  0.152344704  0.457159460
     0.351163656  0.321336150  0.694903731
     0.478517294  0.319011539  0.000000000
     0.978517056  0.402344644  0.457159460
     0.351163626  0.821336091  0.694903731
     0.101163626  0.446336150  0.829607725
     0.351163685  0.946336091  0.627551734
     0.101163626  0.571336150  0.762255728
     0.851163626  0.196336150  0.896959722
     0.728517175  0.819011390  0.457159460
     0.101163626  0.071336150  0.762255728
     0.478517294  0.985678196  0.000000000
     0.851163626  0.696336031  0.627551734
     0.601163626  0.321336061  0.762255728
     0.351163566  0.946336031  0.896959722
     0.851163626  0.196336150  0.627551734
     0.601163626  0.821336150  0.762255728
     0.728517354  0.235678196  0.000000000

  ion indices of the primitive-cell ions
   primitive index   ion index
                 1           1
                 2           2
                 3           3
                 4           4
                 5           5
                 6           6
                 7           7
                 8           8
                 9           9
                10          10
                11          11
                12          12
                13          13
                14          14
                15          15
                16          16
                17          17
                18          18
                19          19
                20          20
                21          21
                22          22
                23          23
                24          24
                25          25
                26          26
                27          27
                28          28
                29          29
                30          30
                31          31
                32          32
                33          33
                34          34
                35          35
                36          36
                37          37
                38          38
                39          39
                40          40
                41          41
                42          42
                43          43
                44          44
                45          45
                46          46
                47          47
                48          48
                49          49
                50          50
                51          51
                52          52
                53          53
                54          54
                55          55
                56          56
                57          57
                58          58
                59          59
                60          60
                61          61
                62          62
                63          63
                64          64
                65          65
                66          66
                67          67
                68          68
                69          69
                70          70
                71          71
                72          72
                73          73
                74          74
                75          75
                76          76
                77          77
                78          78
                79          79
                80          80
                81          81
                82          82
                83          83
                84          84
                85          85
                86          86
                87          87
                88          88
                89          89
                90          90
                91          91
                92          92
                93          93
                94          94
                95          95
                96          96
                97          97
                98          98
                99          99
               100         100
               101         101
               102         102
               103         103
               104         104
               105         105
               106         106
               107         107
               108         108
               109         109
               110         110
               111         111
               112         112
               113         113
               114         114
               115         115
               116         116
               117         117
               118         118
               119         119
               120         120

----------------------------------------------------------------------------------------

 
 
 KPOINTS: Automatic KPOINTS generated             

Automatic generation of k-mesh.
 Grid dimensions read from file:
 generate k-points for:    4    2    1

 Generating k-lattice:

  Cartesian coordinates                     Fractional coordinates (reciprocal lattice)
     0.032549564  0.000000000  0.000000000     0.250000000  0.000000000  0.000000000
     0.000000000  0.030688027  0.000000000     0.000000000  0.500000000  0.000000000
     0.000000000  0.000000000  0.047617088     0.000000000  0.000000000  1.000000000

  Length of vectors
     0.032549564  0.030688027  0.047617088

  Shift w.r.t. Gamma in fractional coordinates (k-lattice)
     0.000000000  0.000000000  0.000000000

 
 Subroutine IBZKPT returns following result:
 ===========================================
 
 Found      6 irreducible k-points:
 
 Following reciprocal coordinates:
            Coordinates               Weight
  0.000000  0.000000  0.000000      1.000000
  0.250000  0.000000  0.000000      2.000000
  0.500000  0.000000  0.000000      1.000000
  0.000000  0.500000  0.000000      1.000000
  0.250000  0.500000  0.000000      2.000000
  0.500000  0.500000  0.000000      1.000000
 
 Following cartesian coordinates:
            Coordinates               Weight
  0.000000  0.000000  0.000000      1.000000
  0.032550  0.000000  0.000000      2.000000
  0.065099  0.000000  0.000000      1.000000
  0.000000  0.030688  0.000000      1.000000
  0.032550  0.030688  0.000000      2.000000
  0.065099  0.030688  0.000000      1.000000
 


--------------------------------------------------------------------------------------------------------




 Dimension of arrays:
   k-points           NKPTS =      6   k-points in BZ     NKDIM =      6   number of bands    NBANDS=    288
   number of dos      NEDOS =    301   number of ions     NIONS =    120
   non local maximal  LDIM  =      5   non local SUM 2l+1 LMDIM =     13
   total plane-waves  NPLWV = 756000
   max r-space proj   IRMAX =   2381   max aug-charges    IRDMAX= 125263
   dimension x,y,z NGX =    50 NGY =  108 NGZ =  140
   dimension x,y,z NGXF=   100 NGYF=  216 NGZF=  280
   support grid    NGXF=   200 NGYF=  432 NGZF=  560
   ions per type =              72  48
   NGX,Y,Z   is equivalent  to a cutoff of  10.82, 11.02, 11.08 a.u.
   NGXF,Y,Z  is equivalent  to a cutoff of  21.64, 22.04, 22.17 a.u.

 SYSTEM =  Si and Ge interface calculation         
 POSCAR =  Si+Ge                                   

 Startparameter for this run:
   NWRITE =      2    write-flag & timer
   PREC   = normal    normal or accurate (medium, high low for compatibility)
   ISTART =      0    job   : 0-new  1-cont  2-samecut
   ICHARG =      2    charge: 1-file 2-atom 10-const
   ISPIN  =      2    spin polarized calculation?
   LNONCOLLINEAR =      F non collinear calculations
   LSORBIT =      F    spin-orbit coupling
   INIWAV =      1    electr: 0-lowe 1-rand  2-diag
   LASPH  =      T    aspherical Exc in radial PAW
 Electronic Relaxation 1
   ENCUT  =  700.0 eV  51.45 Ry    7.17 a.u.  16.57 35.15 45.30*2*pi/ulx,y,z
   ENINI  =  700.0     initial cutoff
   ENAUG  =  900.0 eV  augmentation charge cutoff
   NELM   =    100;   NELMIN=  2; NELMDL= -5     # of ELM steps 
   EDIFF  = 0.1E-06   stopping-criterion for ELM
   LREAL  =      T    real-space projection
   NLSPLINE    = F    spline interpolate recip. space projectors
   LCOMPAT=      F    compatible to vasp.4.4
   GGA_COMPAT  = T    GGA compatible to vasp.4.4-vasp.4.6
   LMAXPAW     = -100 max onsite density
   LMAXMIX     =    6 max onsite mixed and CHGCAR
   VOSKOWN=      0    Vosko Wilk Nusair interpolation
   ROPT   =   -0.00050  -0.00050
 Ionic relaxation
   EDIFFG = 0.1E-05   stopping-criterion for IOM
   NSW    =      0    number of steps for IOM
   NBLOCK =      1;   KBLOCK =      1    inner block; outer block 
   IBRION =     -1    ionic relax: 0-MD 1-quasi-New 2-CG
   NFREE  =      0    steps in history (QN), initial steepest desc. (CG)
   ISIF   =      2    stress and relaxation
   IWAVPR =     10    prediction:  0-non 1-charg 2-wave 3-comb
   ISYM   =      2    0-nonsym 1-usesym 2-fastsym
   LCORR  =      T    Harris-Foulkes like correction to forces

   POTIM  = 0.5000    time-step for ionic-motion
   TEIN   =    0.0    initial temperature
   TEBEG  =    0.0;   TEEND  =   0.0 temperature during run
   SMASS  =  -3.00    Nose mass-parameter (am)
   estimated Nose-frequenzy (Omega)   =  0.10E-29 period in steps = 0.13E+47 mass=  -0.135E-26a.u.
   SCALEE = 1.0000    scale energy and forces
   NPACO  =    256;   APACO  = 10.0  distance and # of slots for P.C.
   PSTRESS=    0.0 pullay stress

  Mass of Ions in am
   POMASS =  28.09 72.61
  Ionic Valenz
   ZVAL   =   4.00  4.00
  Atomic Wigner-Seitz radii
   RWIGS  =  -1.00 -1.00
  virtual crystal weights 
   VCA    =   1.00  1.00
   NELECT =     480.0000    total number of electrons
   NUPDOWN=       1.0000    fix difference up-down

 DOS related values:
   EMIN   =  10.00;   EMAX   =-10.00  energy-range for DOS
   EFERMI =   0.00;   METHOD = LEGACY      
   ISMEAR =     0;   SIGMA  =   0.01  broadening in eV -4-tet -1-fermi 0-gaus

 Electronic relaxation 2 (details)
   IALGO  =     38    algorithm
   LDIAG  =      T    sub-space diagonalisation (order eigenvalues)
   LSUBROT=      F    optimize rotation matrix (better conditioning)
   TURBO    =      0    0=normal 1=particle mesh
   IRESTART =      0    0=no restart 2=restart with 2 vectors
   NREBOOT  =      0    no. of reboots
   NMIN     =      0    reboot dimension
   EREF     =   0.00    reference energy to select bands
   IMIX   =      4    mixing-type and parameters
     AMIX     =   0.60;   BMIX     =  1.00
     AMIX_MAG =   2.40;   BMIX_MAG =  1.00
     AMIN     =   0.10
     WC   =   100.;   INIMIX=   1;  MIXPRE=   1;  MAXMIX= -45

 Intra band minimization:
   WEIMIN = 0.0000     energy-eigenvalue tresh-hold
   EBREAK =  0.87E-10  absolut break condition
   DEPER  =   0.30     relativ break condition  

   TIME   =   0.40     timestep for ELM

  volume/ion in A,a.u.               =      21.90       147.79
  Fermi-wavevector in a.u.,A,eV,Ry     =   0.928847  1.755267 11.738521  0.862757
  Thomas-Fermi vector in A             =   2.055067
 
 Write flags
   LWAVE        =      F    write WAVECAR
   LDOWNSAMPLE  =      F    k-point downsampling of WAVECAR
   LCHARG       =      T    write CHGCAR
   LVTOT        =      F    write LOCPOT, total local potential
   LVHAR        =      T    write LOCPOT, Hartree potential only
   WRT_POTENTIAL=  hartree ionic  ! write potential to hdf5 file
   LELF         =      F    write electronic localiz. function (ELF)
   LORBIT       =      0    0 simple, 1 ext, 2 COOP (PROOUT), +10 PAW based schemes


 Dipole corrections
   LMONO      =      F    monopole corrections only (constant potential shift)
   LDIPOL     =      F    correct potential (dipole corrections)
   IDIPOL     =      0    1-x, 2-y, 3-z, 4-all directions 
   EPSILON    =  1.0000000 bulk dielectric constant
   LVACPOTAV  =      F  vacuum potentials using an averaging scheme for the charge density
   VACPOTFLAT =  0.1000000 required flatness to determine vacuum potential
 Exchange correlation treatment:
   GGA     = PE    functional components
   XC_C    = 1    coefficients multiplying the functional components
   LIBXC   =     F    Libxc                    
   VOSKOWN =     0    Vosko Wilk Nusair interpolation
   LHFCALC =     F    Hartree Fock is set to
   LHFONE  =     F    Hartree Fock one center treatment
   AEXX    =    0.0000 exact exchange contribution

 Parameters of functionals:
   PE:
     No parameter
 
 Van der Waals corrections
   IVDW    =     0    specifies the selected vdW correction

 Linear response parameters
   LEPSILON=     F    determine dielectric tensor
   LRPA    =     F    only Hartree local field effects (RPA)
   LNABLA  =     F    use nabla operator in PAW spheres
   LVEL    =     F    velocity operator in full k-point grid
   CSHIFT  =0.1000    complex shift for real part using Kramers Kronig
   OMEGAMAX=  -1.0    maximum frequency
   DEG_THRESHOLD= 0.2000000E-02 threshold for treating states as degnerate
   RTIME   =   -0.100 relaxation time in fs
  (WPLASMAI=    0.000 imaginary part of plasma frequency in eV, 0.658/RTIME)
   DFIELD  = 0.0000000 0.0000000 0.0000000 field for delta impulse in time
 
  Optional k-point grid parameters
   LKPOINTS_OPT  =     F    use optional k-point grid
   KPOINTS_OPT_MODE=     1    mode for optional k-point grid
 
 Orbital magnetization related:
   ORBITALMAG=     F  switch on orbital magnetization
   LCHIMAG   =     F  perturbation theory with respect to B field
   DQ        =  0.001000  dq finite difference perturbation B field
   LLRAUG    =     F  two centre corrections for induced B field
   LBONE     =     F  B-component reconstruction in AE one-centre
   LVGVCALC  =     T  calculate vGv susceptibility
   LVGVAPPL  =     F  apply vGv susceptibility instead of pGv for G=0

 Random number generation:
   RANDOM_GENERATOR = DEFAULT
   PCG_SEED         = not used


--------------------------------------------------------------------------------------------------------


 Static calculation
 charge density and potential will be updated during run
 spin polarized calculation
 Variant of blocked Davidson
 Davidson routine will perform the subspace rotation
 perform sub-space diagonalisation
    after iterative eigenvector-optimisation
 modified Broyden-mixing scheme, WC =      100.0
 initial mixing is a Kerker type mixing with AMIX =  0.6000 and BMIX =      1.0000
 Hartree-type preconditioning will be used
 using additional bands           48
 real space projection scheme for non local part
 use partial core corrections
 calculate Harris-corrections to forces 
   (improved forces if not selfconsistent)
 use gradient corrections 
 use of overlap-Matrix (Vanderbilt PP)
 Gauss-broadening in eV      SIGMA  =   0.01


--------------------------------------------------------------------------------------------------------


  energy-cutoff  :      700.00
  volume of cell :     2628.05
      direct lattice vectors                 reciprocal lattice vectors
     7.680594444  0.000000000  0.000000000     0.130198256  0.000000000  0.000000000
     0.000000000 16.292999268  0.000000000     0.000000000  0.061376054  0.000000000
     0.000000000  0.000000000 21.000864029     0.000000000  0.000000000  0.047617088

  length of vectors
     7.680594444 16.292999268 21.000864029     0.130198256  0.061376054  0.047617088


 
 k-points in units of 2pi/SCALE and weight: Automatic KPOINTS generated             
   0.00000000  0.00000000  0.00000000       0.125
   0.03254956  0.00000000  0.00000000       0.250
   0.06509913  0.00000000  0.00000000       0.125
   0.00000000  0.03068803  0.00000000       0.125
   0.03254956  0.03068803  0.00000000       0.250
   0.06509913  0.03068803  0.00000000       0.125
 
 k-points in reciprocal lattice and weights: Automatic KPOINTS generated             
   0.00000000  0.00000000  0.00000000       0.125
   0.25000000  0.00000000  0.00000000       0.250
   0.50000000  0.00000000  0.00000000       0.125
   0.00000000  0.50000000  0.00000000       0.125
   0.25000000  0.50000000  0.00000000       0.250
   0.50000000  0.50000000  0.00000000       0.125
 
 position of ions in fractional coordinates (direct lattice) 
   0.97851729  0.98567820  0.00000000
   0.85116369  0.94633603  0.89695972
   0.47851718  0.65234476  0.18286380
   0.22851723  0.48567814  0.27429566
   0.10116363  0.44633609  0.56019974
   0.60116363  0.69633609  0.56019974
   0.97851729  0.31901154  0.00000000
   0.72851723  0.15234485  0.09143190
   0.47851718  0.98567814  0.18286380
   0.22851723  0.81901151  0.27429566
   0.97851718  0.65234476  0.36572757
   0.10116363  0.19633615  0.56019974
   0.97851729  0.65234494  0.00000000
   0.72851723  0.48567820  0.09143190
   0.47851718  0.31901151  0.18286380
   0.22851723  0.15234487  0.27429566
   0.97851718  0.98567814  0.36572757
   0.35116363  0.44633609  0.62755173
   0.85116363  0.69633609  0.89695972
   0.22851725  0.81901145  0.09143190
   0.97851723  0.65234476  0.18286380
   0.72851729  0.48567814  0.27429563
   0.47851718  0.31901139  0.36572757
   0.22851712  0.15234470  0.45715946
   0.10116363  0.94633615  0.82960773
   0.22851725  0.15234485  0.09143190
   0.97851723  0.98567814  0.18286380
   0.72851729  0.81901151  0.27429563
   0.47851718  0.65234476  0.36572757
   0.22851712  0.48567808  0.45715946
   0.35116360  0.19633603  0.89695972
   0.22851725  0.48567820  0.09143190
   0.97851723  0.31901151  0.18286380
   0.72851729  0.15234487  0.27429563
   0.47851718  0.98567814  0.36572757
   0.22851712  0.81901139  0.45715946
   0.35116360  0.44633609  0.89695972
   0.47851729  0.06901149  0.09143189
   0.22851726  0.90234476  0.18286380
   0.97851729  0.73567814  0.27429566
   0.72851723  0.56901145  0.36572757
   0.47851723  0.40234464  0.45715940
   0.72851735  0.56901163  0.00000000
   0.47851729  0.40234488  0.09143189
   0.22851726  0.23567820  0.18286380
   0.97851729  0.06901154  0.27429566
   0.72851723  0.90234482  0.36572757
   0.47851723  0.73567808  0.45715940
   0.35116363  0.69633609  0.89695972
   0.47851729  0.73567820  0.09143189
   0.22851726  0.56901151  0.18286380
   0.97851729  0.40234485  0.27429566
   0.72851723  0.23567812  0.36572757
   0.47851723  0.06901138  0.45715940
   0.22851729  0.23567820  0.00000000
   0.97851723  0.06901149  0.09143190
   0.72851718  0.90234476  0.18286380
   0.47851729  0.73567814  0.27429563
   0.22851718  0.56901145  0.36572757
   0.60116363  0.19633615  0.56019974
   0.22851729  0.56901163  0.00000000
   0.97851723  0.40234488  0.09143190
   0.72851718  0.23567820  0.18286380
   0.47851729  0.06901154  0.27429563
   0.22851718  0.90234482  0.36572757
   0.60116363  0.94633603  0.56019974
   0.22851729  0.90234494  0.00000000
   0.97851723  0.73567820  0.09143190
   0.72851718  0.56901151  0.18286380
   0.47851729  0.40234485  0.27429563
   0.22851718  0.23567812  0.36572757
   0.97851706  0.06901138  0.45715946
   0.10116363  0.69633603  0.56019974
   0.85116369  0.32133609  0.69490373
   0.60116369  0.94633615  0.82960773
   0.97851706  0.73567808  0.45715946
   0.35116363  0.57133609  0.69490373
   0.10116363  0.19633615  0.82960773
   0.72851718  0.48567808  0.45715946
   0.85116369  0.82133615  0.69490373
   0.60116369  0.44633609  0.82960773
   0.60116357  0.44633606  0.56019974
   0.35116363  0.07133615  0.69490373
   0.10116363  0.69633609  0.82960773
   0.35116360  0.69633603  0.62755173
   0.10116363  0.32133609  0.76225573
   0.72851723  0.81901145  0.09143190
   0.85116363  0.94633603  0.62755173
   0.60116363  0.57133609  0.76225573
   0.47851729  0.65234494  0.00000000
   0.35116366  0.19633615  0.62755173
   0.10116363  0.82133615  0.76225573
   0.85116363  0.44633609  0.89695972
   0.85116357  0.44633606  0.62755173
   0.60116363  0.07133615  0.76225573
   0.72851735  0.90234494  0.00000000
   0.10116363  0.94633609  0.56019974
   0.85116375  0.57133615  0.69490373
   0.60116369  0.19633615  0.82960773
   0.97851718  0.31901139  0.36572757
   0.85116369  0.07133615  0.69490373
   0.60116369  0.69633609  0.82960773
   0.72851718  0.15234470  0.45715946
   0.35116366  0.32133615  0.69490373
   0.47851729  0.31901154  0.00000000
   0.97851706  0.40234464  0.45715946
   0.35116363  0.82133609  0.69490373
   0.10116363  0.44633615  0.82960773
   0.35116369  0.94633609  0.62755173
   0.10116363  0.57133615  0.76225573
   0.85116363  0.19633615  0.89695972
   0.72851718  0.81901139  0.45715946
   0.10116363  0.07133615  0.76225573
   0.47851729  0.98567820  0.00000000
   0.85116363  0.69633603  0.62755173
   0.60116363  0.32133606  0.76225573
   0.35116357  0.94633603  0.89695972
   0.85116363  0.19633615  0.62755173
   0.60116363  0.82133615  0.76225573
   0.72851735  0.23567820  0.00000000
 
 position of ions in cartesian coordinates  (Angst):
   7.51559449 16.05965413  0.00000002
   6.53744307 15.41865226 18.83692916
   3.67529636 10.62865275  3.84029784
   1.75514820  7.91315351  5.76044582
   0.77699678  7.27215360 11.76467853
   4.61729401 11.34540342 11.76467853
   7.51559449  5.19765477  0.00000002
   5.59544542  2.48215458  1.92014892
   3.67529636 16.05965315  3.84029784
   1.75514820 13.34415392  5.76044582
   7.51559358 10.62865275  7.68059505
   0.77699678  3.19890475 11.76467853
   7.51559449 10.62865566  0.00000002
   5.59544542  7.91315449  1.92014892
   3.67529636  5.19765428  3.84029784
   1.75514820  2.48215482  5.76044582
   7.51559358 16.05965315  7.68059505
   2.69714539  7.27215360 13.17912864
   6.53744262 11.34540342 18.83692916
   1.75514831 13.34415296  1.92014892
   7.51559403 10.62865275  3.84029784
   5.59544588  7.91315351  5.76044519
   3.67529636  5.19765234  7.68059505
   1.75514728  2.48215215  9.60074366
   0.77699678 15.41865420 17.42247903
   1.75514831  2.48215458  1.92014892
   7.51559403 16.05965315  3.84029784
   5.59544588 13.34415392  5.76044519
   3.67529636 10.62865275  7.68059505
   1.75514728  7.91315255  9.60074366
   2.69714516  3.19890281 18.83692916
   1.75514831  7.91315449  1.92014892
   7.51559403  5.19765428  3.84029784
   5.59544588  2.48215482  5.76044519
   3.67529636 16.05965315  7.68059505
   1.75514728 13.34415198  9.60074366
   2.69714516  7.27215360 18.83692916
   3.67529727  1.12440411  1.92014875
   1.75514843 14.70190256  3.84029784
   7.51559449 11.98640333  5.76044582
   5.59544542  9.27090314  7.68059505
   3.67529681  6.55540099  9.60074240
   5.59544634  9.27090605  0.00000000
   3.67529727  6.55540487  1.92014875
   1.75514843  3.83990467  3.84029784
   7.51559449  1.12440495  5.76044582
   5.59544542 14.70190354  7.68059505
   3.67529681 11.98640237  9.60074240
   2.69714539 11.34540342 18.83692916
   3.67529727 11.98640431  1.92014875
   1.75514843  9.27090410  3.84029784
   7.51559449  6.55540440  5.76044582
   5.59544542  3.83990345  7.68059505
   3.67529681  1.12440241  9.60074240
   1.75514866  3.83990467  0.00000002
   7.51559403  1.12440411  1.92014892
   5.59544497 14.70190256  3.84029784
   3.67529727 11.98640333  5.76044519
   1.75514774  9.27090314  7.68059505
   4.61729401  3.19890475 11.76467853
   1.75514866  9.27090605  0.00000002
   7.51559403  6.55540487  1.92014892
   5.59544497  3.83990467  3.84029784
   3.67529727  1.12440495  5.76044519
   1.75514774 14.70190354  7.68059505
   4.61729401 15.41865226 11.76467853
   1.75514866 14.70190548  0.00000002
   7.51559403 11.98640431  1.92014892
   5.59544497  9.27090410  3.84029784
   3.67529727  6.55540440  5.76044519
   1.75514774  3.83990345  7.68059505
   7.51559266  1.12440241  9.60074366
   0.77699678 11.34540244 11.76467853
   6.53744307  5.23552870 14.59357877
   4.61729446 15.41865420 17.42247903
   7.51559266 11.98640237  9.60074366
   2.69714539  9.30877851 14.59357877
   0.77699678  3.19890475 17.42247903
   5.59544497  7.91315255  9.60074366
   6.53744307 13.38202929 14.59357877
   4.61729446  7.27215360 17.42247903
   4.61729354  7.27215312 11.76467853
   2.69714539  1.16227984 14.59357877
   0.77699678 11.34540342 17.42247903
   2.69714516 11.34540244 13.17912864
   0.77699678  5.23552870 16.00802890
   5.59544542 13.34415296  1.92014892
   6.53744262 15.41865226 13.17912864
   4.61729401  9.30877851 16.00802890
   3.67529727 10.62865566  0.00000000
   2.69714563  3.19890475 13.17912864
   0.77699678 13.38202929 16.00802890
   6.53744262  7.27215360 18.83692916
   6.53744216  7.27215312 13.17912864
   4.61729401  1.16227984 16.00802890
   5.59544634 14.70190548  0.00000000
   0.77699678 15.41865324 11.76467853
   6.53744353  9.30877947 14.59357877
   4.61729446  3.19890475 17.42247903
   7.51559358  5.19765234  7.68059505
   6.53744307  1.16227984 14.59357877
   4.61729446 11.34540342 17.42247903
   5.59544497  2.48215215  9.60074366
   2.69714563  5.23552966 14.59357877
   3.67529727  5.19765477  0.00000000
   7.51559266  6.55540099  9.60074366
   2.69714539 13.38202833 14.59357877
   0.77699678  7.27215457 17.42247903
   2.69714585 15.41865324 13.17912864
   0.77699678  9.30877947 16.00802890
   6.53744262  3.19890475 18.83692916
   5.59544497 13.34415198  9.60074366
   0.77699678  1.16227984 16.00802890
   3.67529727 16.05965413  0.00000000
   6.53744262 11.34540244 13.17912864
   4.61729401  5.23552821 16.00802890
   2.69714493 15.41865226 18.83692916
   6.53744262  3.19890475 13.17912864
   4.61729401 13.38202929 16.00802890
   5.59544634  3.83990467  0.00000000
 


--------------------------------------------------------------------------------------------------------


 k-point     1 :   0.0000 0.0000 0.0000  plane waves:  110549
 k-point     2 :   0.2500 0.0000 0.0000  plane waves:  110533
 k-point     3 :   0.5000 0.0000 0.0000  plane waves:  110530
 k-point     4 :   0.0000 0.5000 0.0000  plane waves:  110618
 k-point     5 :   0.2500 0.5000 0.0000  plane waves:  110556
 k-point     6 :   0.5000 0.5000 0.0000  plane waves:  110468

 maximum and minimum number of plane-waves per node :      6948     6873

 maximum number of plane-waves:    110618
 maximum index in each direction: 
   IXMAX=   16   IYMAX=   35   IZMAX=   45
   IXMIN=  -17   IYMIN=  -35   IZMIN=  -45


 real space projection operators:
  total allocation   :      17563.77 KBytes
  max/ min on nodes  :       1416.30       1019.08


 parallel 3D FFT for wavefunctions:
    minimum data exchange during FFTs selected (reduces bandwidth)
 parallel 3D FFT for charge:
    minimum data exchange during FFTs selected (reduces bandwidth)


 total amount of memory used by VASP MPI-rank0   166828. kBytes
=======================================================================

   base      :      30000. kBytes
   nonlr-proj:       6547. kBytes
   fftplans  :      18524. kBytes
   grid      :      14584. kBytes
   one-center:        129. kBytes
   wavefun   :      97044. kBytes
 
     INWAV:  cpu time      0.0000: real time      0.0002
 Broyden mixing: mesh for mixing (old mesh)
   NGX = 33   NGY = 71   NGZ = 91
  (NGX  =100   NGY  =216   NGZ  =280)
  gives a total of 213213 points

 initial charge density was supplied:
 charge density of overlapping atoms calculated
 number of electron     480.0000000 magnetization       1.0000000
 keeping initial charge density in first step


--------------------------------------------------------------------------------------------------------


 Maximum index for non-local projection operator          417
 Maximum index for augmentation-charges         5904 (set IRDMAX)


--------------------------------------------------------------------------------------------------------


 First call to EWALD:  gamma=   0.128
 Maximum number of real-space cells 5x 2x 2
 Maximum number of reciprocal cells 2x 3x 4

    FEWALD:  cpu time      0.0034: real time      0.0034


--------------------------------------- Ionic step        1  -------------------------------------------




--------------------------------------- Iteration      1(   1)  ---------------------------------------


    POTLOK:  cpu time      0.2180: real time      0.2201
    SETDIJ:  cpu time      1.0892: real time      1.0950
     EDDAV:  cpu time     18.5919: real time     18.7549
       DOS:  cpu time      0.0019: real time      0.0019
    --------------------------------------------
      LOOP:  cpu time     19.9011: real time     20.0720

 eigenvalue-minimisations  :  6912
 total energy-change (2. order) : 0.1966527E+04  (-0.2139717E+05)
 number of electron     480.0000000 magnetization       1.0000000
 augmentation part      480.0000000 magnetization       1.0000000

 Free energy of the ion-electron system (eV)
  ---------------------------------------------------
  alpha Z        PSCENC =       529.58409355
  Ewald energy   TEWEN  =    -12736.13709485
  -Hartree energ DENC   =     -1248.54741434
  -exchange      EXHF   =         0.00000000
  -V(xc)+E(xc)   XCENC  =     -1036.07651600
  PAW double counting   =     10575.88222728    -8613.76247617
  entropy T*S    EENTRO =        -0.00178233
  eigenvalues    EBANDS =      2034.98552593
  atomic energy  EATOM  =     12460.60057749
  Solvation  Ediel_sol  =         0.00000000
  ---------------------------------------------------
  free energy    TOTEN  =      1966.52714057 eV

  energy without entropy =     1966.52892290  energy(sigma->0) =     1966.52803174


--------------------------------------------------------------------------------------------------------




--------------------------------------- Iteration      1(   2)  ---------------------------------------


     EDDAV:  cpu time     20.8947: real time     21.0918
       DOS:  cpu time      0.0015: real time      0.0015
    --------------------------------------------
      LOOP:  cpu time     20.8961: real time     21.0932

 eigenvalue-minimisations  :  8096
 total energy-change (2. order) :-0.2326439E+04  (-0.2244258E+04)
 number of electron     480.0000000 magnetization       1.0000000
 augmentation part      480.0000000 magnetization       1.0000000

 Free energy of the ion-electron system (eV)
  ---------------------------------------------------
  alpha Z        PSCENC =       529.58409355
  Ewald energy   TEWEN  =    -12736.13709485
  -Hartree energ DENC   =     -1248.54741434
  -exchange      EXHF   =         0.00000000
  -V(xc)+E(xc)   XCENC  =     -1036.07651600
  PAW double counting   =     10575.88222728    -8613.76247617
  entropy T*S    EENTRO =        -0.00152748
  eigenvalues    EBANDS =      -291.45362919
  atomic energy  EATOM  =     12460.60057749
  Solvation  Ediel_sol  =         0.00000000
  ---------------------------------------------------
  free energy    TOTEN  =      -359.91175971 eV

  energy without entropy =     -359.91023223  energy(sigma->0) =     -359.91099597


--------------------------------------------------------------------------------------------------------




--------------------------------------- Iteration      1(   3)  ---------------------------------------


     EDDAV:  cpu time     21.6925: real time     21.8890
       DOS:  cpu time      0.0015: real time      0.0015
    --------------------------------------------
      LOOP:  cpu time     21.6941: real time     21.8905

 eigenvalue-minimisations  :  8512
 total energy-change (2. order) :-0.2165548E+03  (-0.2102052E+03)
 number of electron     480.0000000 magnetization       1.0000000
 augmentation part      480.0000000 magnetization       1.0000000

 Free energy of the ion-electron system (eV)
  ---------------------------------------------------
  alpha Z        PSCENC =       529.58409355
  Ewald energy   TEWEN  =    -12736.13709485
  -Hartree energ DENC   =     -1248.54741434
  -exchange      EXHF   =         0.00000000
  -V(xc)+E(xc)   XCENC  =     -1036.07651600
  PAW double counting   =     10575.88222728    -8613.76247617
  entropy T*S    EENTRO =        -0.00192211
  eigenvalues    EBANDS =      -508.00803926
  atomic energy  EATOM  =     12460.60057749
  Solvation  Ediel_sol  =         0.00000000
  ---------------------------------------------------
  free energy    TOTEN  =      -576.46656441 eV

  energy without entropy =     -576.46464230  energy(sigma->0) =     -576.46560335


--------------------------------------------------------------------------------------------------------




--------------------------------------- Iteration      1(   4)  ---------------------------------------


     EDDAV:  cpu time     20.8978: real time     21.1168
       DOS:  cpu time      0.0015: real time      0.0015
    --------------------------------------------
      LOOP:  cpu time     20.8993: real time     21.1183

 eigenvalue-minimisations  :  8144
 total energy-change (2. order) :-0.7843100E+01  (-0.7713604E+01)
 number of electron     480.0000000 magnetization       1.0000000
 augmentation part      480.0000000 magnetization       1.0000000

 Free energy of the ion-electron system (eV)
  ---------------------------------------------------
  alpha Z        PSCENC =       529.58409355
  Ewald energy   TEWEN  =    -12736.13709485
  -Hartree energ DENC   =     -1248.54741434
  -exchange      EXHF   =         0.00000000
  -V(xc)+E(xc)   XCENC  =     -1036.07651600
  PAW double counting   =     10575.88222728    -8613.76247617
  entropy T*S    EENTRO =        -0.00272834
  eigenvalues    EBANDS =      -515.85033261
  atomic energy  EATOM  =     12460.60057749
  Solvation  Ediel_sol  =         0.00000000
  ---------------------------------------------------
  free energy    TOTEN  =      -584.30966398 eV

  energy without entropy =     -584.30693564  energy(sigma->0) =     -584.30829981


--------------------------------------------------------------------------------------------------------




--------------------------------------- Iteration      1(   5)  ---------------------------------------


     EDDAV:  cpu time     22.9896: real time     23.2285
       DOS:  cpu time      0.0015: real time      0.0015
    CHARGE:  cpu time      1.0680: real time      1.0860
    MIXING:  cpu time      0.0048: real time      0.0048
    --------------------------------------------
      LOOP:  cpu time     24.0639: real time     24.3208

 eigenvalue-minimisations  :  9200
 total energy-change (2. order) :-0.2999595E+00  (-0.2980915E+00)
 number of electron     479.9999997 magnetization       1.0000000
 augmentation part      -48.5654867 magnetization      -0.0717783

 Broyden mixing:
  rms(total) = 0.31579E+01    rms(broyden)= 0.31579E+01
  rms(prec ) = 0.33069E+01
  weight for this iteration     100.00

 Free energy of the ion-electron system (eV)
  ---------------------------------------------------
  alpha Z        PSCENC =       529.58409355
  Ewald energy   TEWEN  =    -12736.13709485
  -Hartree energ DENC   =     -1248.54741434
  -exchange      EXHF   =         0.00000000
  -V(xc)+E(xc)   XCENC  =     -1036.07651600
  PAW double counting   =     10575.88222728    -8613.76247617
  entropy T*S    EENTRO =        -0.00303457
  eigenvalues    EBANDS =      -516.14998585
  atomic energy  EATOM  =     12460.60057749
  Solvation  Ediel_sol  =         0.00000000
  ---------------------------------------------------
  free energy    TOTEN  =      -584.60962345 eV

  energy without entropy =     -584.60658888  energy(sigma->0) =     -584.60810617


--------------------------------------------------------------------------------------------------------




--------------------------------------- Iteration      1(   6)  ---------------------------------------


    POTLOK:  cpu time      0.1993: real time      0.2008
    SETDIJ:  cpu time      1.0784: real time      1.0838
     EDDAV:  cpu time     21.3198: real time     21.5102
       DOS:  cpu time      0.0015: real time      0.0015
    CHARGE:  cpu time      1.0576: real time      1.0658
    MIXING:  cpu time      0.0045: real time      0.0045
    --------------------------------------------
      LOOP:  cpu time     23.6610: real time     23.8666

 eigenvalue-minimisations  :  8352
 total energy-change (2. order) : 0.8845378E+01  (-0.1423839E+01)
 number of electron     479.9999997 magnetization       1.0000000
 augmentation part      -48.1863318 magnetization      -0.0578099

 Broyden mixing:
  rms(total) = 0.14406E+01    rms(broyden)= 0.14406E+01
  rms(prec ) = 0.15388E+01
  weight for this iteration     100.00

 eigenvalues of (default mixing * dielectric matrix)
  average eigenvalue GAMMA=   1.6996
  1.6996

 Free energy of the ion-electron system (eV)
  ---------------------------------------------------
  alpha Z        PSCENC =       529.58409355
  Ewald energy   TEWEN  =    -12736.13709485
  -Hartree energ DENC   =     -1382.62089505
  -exchange      EXHF   =         0.00000000
  -V(xc)+E(xc)   XCENC  =     -1017.12019821
  PAW double counting   =     22311.21235127   -20357.92495955
  entropy T*S    EENTRO =        -0.00266775
  eigenvalues    EBANDS =      -383.35545251
  atomic energy  EATOM  =     12460.60057749
  Solvation  Ediel_sol  =         0.00000000
  ---------------------------------------------------
  free energy    TOTEN  =      -575.76424562 eV

  energy without entropy =     -575.76157787  energy(sigma->0) =     -575.76291175


--------------------------------------------------------------------------------------------------------




--------------------------------------- Iteration      1(   7)  ---------------------------------------


    POTLOK:  cpu time      0.1981: real time      0.2002
    SETDIJ:  cpu time      1.0761: real time      1.0828
     EDDAV:  cpu time     21.5005: real time     21.7252
       DOS:  cpu time      0.0014: real time      0.0015
    CHARGE:  cpu time      1.0549: real time      1.0644
    MIXING:  cpu time      0.0046: real time      0.0046
    --------------------------------------------
      LOOP:  cpu time     23.8356: real time     24.0787

 eigenvalue-minimisations  :  8448
 total energy-change (2. order) :-0.2026501E+00  (-0.1529916E+01)
 number of electron     479.9999997 magnetization       1.0000000
 augmentation part      -48.0457547 magnetization      -0.0481276

 Broyden mixing:
  rms(total) = 0.67258E+00    rms(broyden)= 0.67258E+00
  rms(prec ) = 0.92974E+00
  weight for this iteration     100.00

 eigenvalues of (default mixing * dielectric matrix)
  average eigenvalue GAMMA=   1.1891
  1.8592  0.5190

 Free energy of the ion-electron system (eV)
  ---------------------------------------------------
  alpha Z        PSCENC =       529.58409355
  Ewald energy   TEWEN  =    -12736.13709485
  -Hartree energ DENC   =     -1438.08242740
  -exchange      EXHF   =         0.00000000
  -V(xc)+E(xc)   XCENC  =     -1004.43149470
  PAW double counting   =     33751.68024608   -31803.98021858
  entropy T*S    EENTRO =        -0.00195340
  eigenvalues    EBANDS =      -335.19862390
  atomic energy  EATOM  =     12460.60057749
  Solvation  Ediel_sol  =         0.00000000
  ---------------------------------------------------
  free energy    TOTEN  =      -575.96689572 eV

  energy without entropy =     -575.96494232  energy(sigma->0) =     -575.96591902


--------------------------------------------------------------------------------------------------------




--------------------------------------- Iteration      1(   8)  ---------------------------------------


    POTLOK:  cpu time      0.1977: real time      0.2001
    SETDIJ:  cpu time      1.0738: real time      1.0801
     EDDAV:  cpu time     21.3819: real time     21.6092
       DOS:  cpu time      0.0014: real time      0.0015
    CHARGE:  cpu time      1.0547: real time      1.0643
    MIXING:  cpu time      0.0046: real time      0.0047
    --------------------------------------------
      LOOP:  cpu time     23.7142: real time     23.9599

 eigenvalue-minimisations  :  8400
 total energy-change (2. order) : 0.1152751E+01  (-0.4592917E+00)
 number of electron     479.9999997 magnetization       1.0000000
 augmentation part      -47.7888423 magnetization      -0.0492237

 Broyden mixing:
  rms(total) = 0.16125E+00    rms(broyden)= 0.16125E+00
  rms(prec ) = 0.18003E+00
  weight for this iteration     100.00

 eigenvalues of (default mixing * dielectric matrix)
  average eigenvalue GAMMA=   1.2246
  1.8399  1.2580  0.5758

 Free energy of the ion-electron system (eV)
  ---------------------------------------------------
  alpha Z        PSCENC =       529.58409355
  Ewald energy   TEWEN  =    -12736.13709485
  -Hartree energ DENC   =     -1464.27485056
  -exchange      EXHF   =         0.00000000
  -V(xc)+E(xc)   XCENC  =     -1001.34768002
  PAW double counting   =     38496.63658322   -36550.30689816
  entropy T*S    EENTRO =        -0.00251035
  eigenvalues    EBANDS =      -309.56636550
  atomic energy  EATOM  =     12460.60057749
  Solvation  Ediel_sol  =         0.00000000
  ---------------------------------------------------
  free energy    TOTEN  =      -574.81414519 eV

  energy without entropy =     -574.81163484  energy(sigma->0) =     -574.81289002


--------------------------------------------------------------------------------------------------------




--------------------------------------- Iteration      1(   9)  ---------------------------------------


    POTLOK:  cpu time      0.1979: real time      0.1999
    SETDIJ:  cpu time      1.0765: real time      1.0821
     EDDAV:  cpu time     20.7571: real time     20.9457
       DOS:  cpu time      0.0014: real time      0.0014
    CHARGE:  cpu time      1.0560: real time      1.0638
    MIXING:  cpu time      0.0047: real time      0.0048
    --------------------------------------------
      LOOP:  cpu time     23.0937: real time     23.2978

 eigenvalue-minimisations  :  8080
 total energy-change (2. order) :-0.7369124E-01  (-0.1477419E+00)
 number of electron     479.9999997 magnetization       1.0000000
 augmentation part      -47.8401288 magnetization      -0.0524771

 Broyden mixing:
  rms(total) = 0.13410E+00    rms(broyden)= 0.13410E+00
  rms(prec ) = 0.16679E+00
  weight for this iteration     100.00

 eigenvalues of (default mixing * dielectric matrix)
  average eigenvalue GAMMA=   1.1323
  1.7117  1.7117  0.6122  0.4936

 Free energy of the ion-electron system (eV)
  ---------------------------------------------------
  alpha Z        PSCENC =       529.58409355
  Ewald energy   TEWEN  =    -12736.13709485
  -Hartree energ DENC   =     -1455.17312452
  -exchange      EXHF   =         0.00000000
  -V(xc)+E(xc)   XCENC  =     -1002.13989582
  PAW double counting   =     39150.86325362   -37204.21225320
  entropy T*S    EENTRO =        -0.00189260
  eigenvalues    EBANDS =      -318.27150010
  atomic energy  EATOM  =     12460.60057749
  Solvation  Ediel_sol  =         0.00000000
  ---------------------------------------------------
  free energy    TOTEN  =      -574.88783643 eV

  energy without entropy =     -574.88594384  energy(sigma->0) =     -574.88689014


--------------------------------------------------------------------------------------------------------




--------------------------------------- Iteration      1(  10)  ---------------------------------------


    POTLOK:  cpu time      0.1971: real time      0.1990
    SETDIJ:  cpu time      1.0773: real time      1.0838
     EDDAV:  cpu time     21.1338: real time     21.3609
       DOS:  cpu time      0.0015: real time      0.0015
    CHARGE:  cpu time      1.0548: real time      1.0644
    MIXING:  cpu time      0.0049: real time      0.0049
    --------------------------------------------
      LOOP:  cpu time     23.4694: real time     23.7145

 eigenvalue-minimisations  :  8296
 total energy-change (2. order) : 0.1776079E-01  (-0.2610605E-01)
 number of electron     479.9999997 magnetization       1.0000000
 augmentation part      -47.8700226 magnetization      -0.0525403

 Broyden mixing:
  rms(total) = 0.87016E-01    rms(broyden)= 0.87016E-01
  rms(prec ) = 0.10476E+00
  weight for this iteration     100.00

 eigenvalues of (default mixing * dielectric matrix)
  average eigenvalue GAMMA=   1.0521
  1.7689  1.7689  0.7190  0.5018  0.5018

 Free energy of the ion-electron system (eV)
  ---------------------------------------------------
  alpha Z        PSCENC =       529.58409355
  Ewald energy   TEWEN  =    -12736.13709485
  -Hartree energ DENC   =     -1450.09962749
  -exchange      EXHF   =         0.00000000
  -V(xc)+E(xc)   XCENC  =     -1002.60451986
  PAW double counting   =     39322.08427689   -37375.23330549
  entropy T*S    EENTRO =        -0.00235544
  eigenvalues    EBANDS =      -323.06212043
  atomic energy  EATOM  =     12460.60057749
  Solvation  Ediel_sol  =         0.00000000
  ---------------------------------------------------
  free energy    TOTEN  =      -574.87007564 eV

  energy without entropy =     -574.86772020  energy(sigma->0) =     -574.86889792


--------------------------------------------------------------------------------------------------------




--------------------------------------- Iteration      1(  11)  ---------------------------------------


    POTLOK:  cpu time      0.1971: real time      0.1993
    SETDIJ:  cpu time      1.0766: real time      1.0823
     EDDAV:  cpu time     21.3113: real time     21.5046
       DOS:  cpu time      0.0015: real time      0.0015
    CHARGE:  cpu time      1.0619: real time      1.0696
    MIXING:  cpu time      0.0050: real time      0.0051
    --------------------------------------------
      LOOP:  cpu time     23.6534: real time     23.8624

 eigenvalue-minimisations  :  8304
 total energy-change (2. order) : 0.4482488E-02  (-0.8283774E-02)
 number of electron     479.9999997 magnetization       1.0000000
 augmentation part      -47.8771693 magnetization      -0.0520060

 Broyden mixing:
  rms(total) = 0.55766E-01    rms(broyden)= 0.55766E-01
  rms(prec ) = 0.69089E-01
  weight for this iteration     100.00

 eigenvalues of (default mixing * dielectric matrix)
  average eigenvalue GAMMA=   1.0117
  1.5791  1.5791  1.2043  0.6827  0.6827  0.3423

 Free energy of the ion-electron system (eV)
  ---------------------------------------------------
  alpha Z        PSCENC =       529.58409355
  Ewald energy   TEWEN  =    -12736.13709485
  -Hartree energ DENC   =     -1448.05438076
  -exchange      EXHF   =         0.00000000
  -V(xc)+E(xc)   XCENC  =     -1002.80274277
  PAW double counting   =     39407.53972541   -37460.60448814
  entropy T*S    EENTRO =        -0.00254755
  eigenvalues    EBANDS =      -324.98873552
  atomic energy  EATOM  =     12460.60057749
  Solvation  Ediel_sol  =         0.00000000
  ---------------------------------------------------
  free energy    TOTEN  =      -574.86559315 eV

  energy without entropy =     -574.86304560  energy(sigma->0) =     -574.86431938


--------------------------------------------------------------------------------------------------------




--------------------------------------- Iteration      1(  12)  ---------------------------------------


    POTLOK:  cpu time      0.1982: real time      0.2000
    SETDIJ:  cpu time      1.0765: real time      1.0822
     EDDAV:  cpu time     21.2477: real time     21.4358
       DOS:  cpu time      0.0014: real time      0.0014
    CHARGE:  cpu time      1.0588: real time      1.0668
    MIXING:  cpu time      0.0053: real time      0.0054
    --------------------------------------------
      LOOP:  cpu time     23.5879: real time     23.7915

 eigenvalue-minimisations  :  8272
 total energy-change (2. order) : 0.2481299E-02  (-0.2751558E-02)
 number of electron     479.9999997 magnetization       1.0000000
 augmentation part      -47.8743675 magnetization      -0.0514088

 Broyden mixing:
  rms(total) = 0.32346E-01    rms(broyden)= 0.32346E-01
  rms(prec ) = 0.35394E-01
  weight for this iteration     100.00

 eigenvalues of (default mixing * dielectric matrix)
  average eigenvalue GAMMA=   1.0241
  1.6411  1.5986  1.5986  0.8260  0.6413  0.5485  0.3144

 Free energy of the ion-electron system (eV)
  ---------------------------------------------------
  alpha Z        PSCENC =       529.58409355
  Ewald energy   TEWEN  =    -12736.13709485
  -Hartree energ DENC   =     -1449.13970013
  -exchange      EXHF   =         0.00000000
  -V(xc)+E(xc)   XCENC  =     -1002.73181030
  PAW double counting   =     39380.44314228   -37433.54024771
  entropy T*S    EENTRO =        -0.00272160
  eigenvalues    EBANDS =      -323.93935059
  atomic energy  EATOM  =     12460.60057749
  Solvation  Ediel_sol  =         0.00000000
  ---------------------------------------------------
  free energy    TOTEN  =      -574.86311185 eV

  energy without entropy =     -574.86039026  energy(sigma->0) =     -574.86175106


--------------------------------------------------------------------------------------------------------




--------------------------------------- Iteration      1(  13)  ---------------------------------------


    POTLOK:  cpu time      0.1981: real time      0.1995
    SETDIJ:  cpu time      1.0773: real time      1.0829
     EDDAV:  cpu time     20.6084: real time     20.8029
       DOS:  cpu time      0.0015: real time      0.0015
    CHARGE:  cpu time      1.0614: real time      1.0689
    MIXING:  cpu time      0.0053: real time      0.0053
    --------------------------------------------
      LOOP:  cpu time     22.9519: real time     23.1611

 eigenvalue-minimisations  :  7960
 total energy-change (2. order) :-0.1347080E-03  (-0.7880676E-03)
 number of electron     479.9999997 magnetization       1.0000000
 augmentation part      -47.8750172 magnetization      -0.0512374

 Broyden mixing:
  rms(total) = 0.18640E-01    rms(broyden)= 0.18640E-01
  rms(prec ) = 0.20388E-01
  weight for this iteration     100.00

 eigenvalues of (default mixing * dielectric matrix)
  average eigenvalue GAMMA=   1.0946
  2.0726  2.0726  1.6374  0.7752  0.7752  0.6154  0.4941  0.3148

 Free energy of the ion-electron system (eV)
  ---------------------------------------------------
  alpha Z        PSCENC =       529.58409355
  Ewald energy   TEWEN  =    -12736.13709485
  -Hartree energ DENC   =     -1448.99389891
  -exchange      EXHF   =         0.00000000
  -V(xc)+E(xc)   XCENC  =     -1002.76996735
  PAW double counting   =     39314.18203479   -37367.26409833
  entropy T*S    EENTRO =        -0.00275071
  eigenvalues    EBANDS =      -324.06214223
  atomic energy  EATOM  =     12460.60057749
  Solvation  Ediel_sol  =         0.00000000
  ---------------------------------------------------
  free energy    TOTEN  =      -574.86324656 eV

  energy without entropy =     -574.86049585  energy(sigma->0) =     -574.86187121


--------------------------------------------------------------------------------------------------------




--------------------------------------- Iteration      1(  14)  ---------------------------------------


    POTLOK:  cpu time      0.1971: real time      0.1994
    SETDIJ:  cpu time      1.0763: real time      1.0823
     EDDAV:  cpu time     20.5515: real time     20.7330
       DOS:  cpu time      0.0015: real time      0.0015
    CHARGE:  cpu time      1.0679: real time      1.0796
    MIXING:  cpu time      0.0062: real time      0.0062
    --------------------------------------------
      LOOP:  cpu time     22.9004: real time     23.1021

 eigenvalue-minimisations  :  7944
 total energy-change (2. order) :-0.2412081E-04  (-0.2490547E-03)
 number of electron     479.9999997 magnetization       1.0000000
 augmentation part      -47.8762564 magnetization      -0.0509534

 Broyden mixing:
  rms(total) = 0.93468E-02    rms(broyden)= 0.93468E-02
  rms(prec ) = 0.10716E-01
[...]
   0.503E-01 0.362E+00 0.117E+02   -.874E-02 -.127E+00 -.117E+02   -.260E-01 -.949E-01 -.534E-01   0.335E-05 -.555E-04 0.218E-03
   0.317E-01 0.229E+00 -.117E+02   -.820E-02 -.143E+00 0.117E+02   0.541E-03 0.736E-02 -.284E-01   -.121E-04 -.515E-04 0.652E-04
   0.138E+00 -.102E+01 -.370E+02   0.219E+00 0.106E+01 0.371E+02   -.179E+00 0.737E-01 0.308E-01   0.144E-04 0.147E-03 -.194E-03
   -.162E+00 0.594E+00 -.223E+01   0.135E+00 -.683E+00 0.282E+01   -.668E-01 0.183E+00 -.233E+01   -.777E-05 0.248E-03 -.326E-04
   0.558E+01 0.250E+02 0.486E+02   -.563E+01 -.235E+02 -.467E+02   -.361E+00 -.217E+01 -.170E+01   -.491E-04 0.143E-03 0.435E-03
   0.585E+00 -.161E+01 0.371E+02   0.221E+00 0.171E+01 -.371E+02   -.262E+00 -.260E+00 -.134E+00   0.976E-04 0.651E-04 0.491E-03
   0.567E-01 0.235E+00 0.117E+02   -.820E-02 -.143E+00 -.117E+02   -.294E-01 0.987E-02 0.280E-01   0.153E-04 -.634E-04 0.250E-03
   0.103E-01 0.142E+00 -.119E+02   -.871E-02 -.162E+00 0.117E+02   0.177E-01 0.114E+00 0.208E+00   -.176E-04 -.733E-04 -.413E-04
   0.590E+00 -.163E+01 -.371E+02   0.221E+00 0.171E+01 0.371E+02   -.264E+00 -.245E+00 0.144E+00   0.102E-03 -.161E-03 -.220E-03
   0.422E+01 0.176E+02 -.592E+02   -.289E+01 -.164E+02 0.567E+02   -.167E+00 -.194E+01 0.336E+01   0.498E-04 -.762E-04 -.250E-03
   -.468E+01 0.138E+02 -.177E+02   0.431E+01 -.145E+02 0.178E+02   0.131E+00 0.335E+00 -.554E+00   0.691E-05 0.140E-03 0.212E-04
   0.243E+00 0.366E+00 0.434E+01   -.113E-01 -.326E+00 -.388E+01   0.554E-01 -.240E-01 -.106E+01   -.337E-04 -.248E-03 -.105E-03
   0.366E+00 -.136E+00 0.139E+02   0.124E-01 0.117E+00 -.136E+02   0.915E-01 -.946E-03 -.683E+00   0.164E-04 0.111E-03 -.273E-03
   0.683E+01 0.111E+02 -.471E+02   -.585E+01 -.106E+02 0.459E+02   -.103E+00 -.929E+00 0.109E+01   0.991E-04 0.196E-03 -.345E-03
   -.234E+00 -.659E+00 0.421E+01   0.104E-01 0.299E+00 -.392E+01   -.940E-01 -.593E-01 -.118E+01   -.431E-04 0.233E-04 -.291E-04
   0.175E+01 0.290E+01 0.116E+02   -.252E+00 -.280E+01 -.109E+02   -.741E+00 -.123E-01 -.628E+00   0.123E-03 -.135E-03 -.187E-03
   -.639E+01 -.230E+02 -.473E+02   0.582E+01 0.230E+02 0.463E+02   0.124E+00 0.127E+01 0.773E+00   -.739E-04 -.947E-04 -.418E-03
   -.317E+00 -.202E+00 0.314E+01   0.118E-01 0.326E+00 -.299E+01   0.343E-01 -.517E-01 -.705E+00   -.830E-05 0.184E-03 -.108E-03
   -.305E+00 0.126E+00 0.878E+01   -.993E-02 -.118E+00 -.791E+01   -.181E+00 -.139E-01 -.102E+01   -.826E-04 -.144E-03 -.190E-03
   -.379E+00 -.858E+00 -.307E+02   -.228E+00 0.737E+00 0.311E+02   -.754E-01 -.199E-01 -.350E+00   -.947E-04 -.263E-03 -.502E-04
   0.283E+00 0.215E+00 0.304E+01   -.108E-01 -.299E+00 -.295E+01   -.597E-01 0.322E-01 -.644E+00   0.381E-04 0.314E-04 -.162E-03
   -.126E+01 -.293E+01 0.117E+02   0.250E+00 0.280E+01 -.106E+02   0.730E+00 0.798E-02 -.645E+00   0.109E-03 0.136E-03 -.178E-03
   0.176E+01 0.287E+01 -.116E+02   -.252E+00 -.280E+01 0.109E+02   -.756E+00 0.275E-01 0.608E+00   -.716E-04 0.170E-03 0.185E-04
   -.307E+00 -.189E+00 -.312E+01   0.118E-01 0.326E+00 0.299E+01   0.363E-01 -.414E-01 0.687E+00   0.238E-04 -.198E-03 -.179E-03
   -.799E-02 0.601E+00 0.381E+02   -.181E+00 -.137E+01 -.377E+02   0.124E+00 0.561E-01 -.138E+00   0.264E-04 0.783E-04 0.508E-03
   -.319E+00 0.123E+00 -.878E+01   -.991E-02 -.118E+00 0.791E+01   -.181E+00 0.467E-02 0.101E+01   -.441E-04 0.164E-03 -.107E-03
   0.265E+00 0.196E+00 -.304E+01   -.108E-01 -.299E+00 0.295E+01   -.645E-01 0.565E-01 0.639E+00   -.366E-04 0.335E-04 -.159E-03
   -.624E+01 -.110E+02 0.478E+02   0.561E+01 0.103E+02 -.470E+02   0.808E-01 0.934E+00 -.127E+01   -.155E-03 0.328E-04 0.410E-03
   -.125E+01 -.291E+01 -.117E+02   0.250E+00 0.280E+01 0.106E+02   0.720E+00 0.638E-04 0.616E+00   0.166E-03 -.167E-03 -.141E-03
   0.245E+00 0.687E+00 -.412E+01   -.113E-01 -.326E+00 0.388E+01   0.598E-01 0.615E-01 0.112E+01   0.308E-04 0.146E-03 -.181E-03
   -.153E+00 0.645E+00 0.384E+01   0.135E+00 -.683E+00 -.282E+01   0.328E-02 0.625E-01 0.140E+01   0.440E-04 -.150E-03 -.102E-03
   0.368E+00 -.136E+00 -.139E+02   0.124E-01 0.117E+00 0.136E+02   0.794E-01 0.131E-01 0.670E+00   0.566E-04 -.182E-03 0.249E-04
   -.226E+00 -.373E+00 -.443E+01   0.104E-01 0.299E+00 0.392E+01   -.772E-01 0.553E-01 0.112E+01   -.433E-04 0.599E-04 -.248E-03
   0.637E+01 0.240E+02 0.467E+02   -.563E+01 -.235E+02 -.467E+02   -.126E+00 -.123E+01 -.799E+00   0.753E-04 0.181E-03 0.363E-03
   -.143E+00 0.647E+00 -.384E+01   0.135E+00 -.683E+00 0.282E+01   -.197E-01 0.539E-01 -.139E+01   0.983E-05 0.180E-03 -.937E-04
   -.240E+00 -.385E+00 0.442E+01   0.103E-01 0.299E+00 -.392E+01   -.706E-01 0.558E-01 -.112E+01   0.267E-04 0.510E-04 -.459E-04
   0.876E+00 0.291E+01 0.116E+02   -.252E+00 -.280E+01 -.109E+02   -.885E+00 0.702E-02 -.668E+00   -.103E-03 -.115E-03 -.231E-03
   -.199E-02 0.604E+00 -.381E+02   -.180E+00 -.137E+01 0.377E+02   0.136E+00 0.669E-01 0.146E+00   0.312E-04 -.165E-03 -.318E-03
   0.259E+00 0.177E+00 0.307E+01   -.108E-01 -.299E+00 -.295E+01   -.610E-01 0.482E-01 -.668E+00   -.263E-04 0.114E-04 -.173E-03
   -.124E+01 -.289E+01 0.117E+02   0.250E+00 0.280E+01 -.106E+02   0.742E+00 -.182E-01 -.638E+00   -.130E-03 0.147E-03 -.223E-03
   -.625E+01 -.110E+02 -.477E+02   0.561E+01 0.103E+02 0.470E+02   0.640E-01 0.961E+00 0.127E+01   -.920E-04 -.145E-03 -.125E-03
   0.295E+00 0.680E+00 0.416E+01   -.113E-01 -.326E+00 -.388E+01   0.145E-01 0.503E-01 -.116E+01   0.536E-04 -.228E-03 -.102E-03
   -.405E+01 -.172E+02 0.575E+02   0.288E+01 0.172E+02 -.568E+02   0.694E-01 0.119E+01 -.185E+01   -.113E-03 -.130E-03 0.431E-03
   0.637E+01 0.240E+02 -.467E+02   -.563E+01 -.235E+02 0.467E+02   -.109E+00 -.126E+01 0.818E+00   0.112E-03 -.132E-03 -.282E-03
   -.269E+00 -.187E+00 0.312E+01   0.118E-01 0.326E+00 -.299E+01   -.281E-02 -.545E-01 -.685E+00   -.594E-05 0.182E-03 -.907E-04
   0.399E+00 0.134E+00 0.881E+01   -.990E-02 -.118E+00 -.791E+01   0.136E+00 -.198E-01 -.105E+01   0.850E-04 -.121E-03 -.154E-03
   0.416E+00 0.138E+00 -.881E+01   -.992E-02 -.118E+00 0.791E+01   0.119E+00 -.110E-01 0.102E+01   0.408E-04 0.174E-03 -.101E-03
   0.282E+00 0.203E+00 -.306E+01   -.108E-01 -.299E+00 0.295E+01   -.517E-01 0.366E-01 0.656E+00   0.525E-04 0.434E-04 -.163E-03
   -.470E+01 0.137E+02 0.177E+02   0.431E+01 -.145E+02 -.178E+02   0.160E+00 0.379E+00 0.573E+00   0.629E-05 -.892E-04 -.174E-03
   -.406E+01 -.171E+02 -.575E+02   0.288E+01 0.172E+02 0.568E+02   0.628E-01 0.119E+01 0.181E+01   -.197E-04 0.283E-03 -.348E-03
   -.245E+00 -.668E+00 -.420E+01   0.104E-01 0.299E+00 0.392E+01   -.804E-01 -.407E-01 0.117E+01   0.333E-04 0.133E-04 -.201E-03
   -.638E+01 -.230E+02 0.473E+02   0.582E+01 0.230E+02 -.463E+02   0.139E+00 0.125E+01 -.764E+00   -.879E-04 0.232E-04 0.379E-03
   0.859E+00 0.293E+01 -.116E+02   -.252E+00 -.280E+01 0.109E+02   -.888E+00 -.477E-02 0.648E+00   0.801E-04 0.171E-03 0.140E-04
   -.275E+00 -.197E+00 -.312E+01   0.118E-01 0.326E+00 0.299E+01   0.205E-03 -.485E-01 0.682E+00   -.429E-04 -.230E-03 -.201E-03
   -.386E+00 -.869E+00 0.307E+02   -.228E+00 0.737E+00 -.311E+02   -.600E-01 -.719E-03 0.356E+00   -.677E-04 0.111E-03 -.871E-04
   -.125E+01 -.290E+01 -.117E+02   0.250E+00 0.280E+01 0.106E+02   0.731E+00 0.125E-01 0.624E+00   -.180E-03 -.151E-03 -.139E-03
   0.300E+00 0.358E+00 -.436E+01   -.113E-01 -.326E+00 0.388E+01   0.142E-01 -.177E-01 0.109E+01   -.206E-04 0.134E-03 -.213E-03
   0.684E+01 0.111E+02 0.470E+02   -.585E+01 -.106E+02 -.459E+02   -.121E+00 -.910E+00 -.109E+01   0.710E-04 -.142E-04 0.403E-03
 -----------------------------------------------------------------------------------------------
   0.140E+01 0.297E+01 -.451E-01   0.330E-12 -.711E-14 -.135E-12   -.164E+01 -.284E+01 -.109E+00   0.954E-05 0.495E-04 0.689E-03
 
 
 POSITION                                       TOTAL-FORCE (eV/Angst)
 -----------------------------------------------------------------------------------
      7.51559     16.05965      0.00000         0.217996      0.552977     -0.168591
      6.53744     15.41865     18.83693         0.707715      0.099693      0.218635
      3.67530     10.62865      3.84030        -0.007704     -0.121464     -0.041369
      1.75515      7.91315      5.76045        -0.010316     -0.090865      0.052423
      0.77700      7.27215     11.76468         0.701629      0.108343     -0.215871
      4.61729     11.34540     11.76468        -0.782117     -0.174599     -0.591827
      7.51559      5.19765      0.00000        -0.051831      0.860040     -0.684653
      5.59545      2.48215      1.92015        -0.057724     -0.565311      0.372686
      3.67530     16.05965      3.84030         0.017617     -0.095388     -0.050863
      1.75515     13.34415      5.76045        -0.014448     -0.085777      0.034485
      7.51559     10.62865      7.68060        -0.057925     -0.570997     -0.366699
      0.77700      3.19890     11.76468         0.773548      0.055158     -0.776204
      7.51559     10.62866      0.00000        -0.815740     -0.023983     -0.501641
      5.59545      7.91315      1.92015        -0.198398     -0.114058     -0.103890
      3.67530      5.19765      3.84030        -0.014557     -0.095320     -0.027755
      1.75515      2.48215      5.76045        -0.014531     -0.115704      0.049838
      7.51559     16.05965      7.68060        -0.206014     -0.124439      0.109173
      2.69715      7.27215     13.17913        -0.492569      0.007592      0.169217
      6.53744     11.34540     18.83693         0.775058      0.061719      0.765632
      1.75515     13.34415      1.92015        -0.079153     -0.325689     -0.234178
      7.51559     10.62865      3.84030        -0.013024     -0.134655     -0.042021
      5.59545      7.91315      5.76045         0.009519     -0.093113      0.057331
      3.67530      5.19765      7.68060        -0.086803     -0.337137      0.243374
      1.75515      2.48215      9.60074        -0.811190     -0.018051      0.497602
      0.77700     15.41865     17.42248        -0.491746      0.005756     -0.164936
      1.75515      2.48215      1.92015        -0.038141     -0.173259     -0.124952
      7.51559     16.05965      3.84030        -0.010937     -0.096102     -0.042198
      5.59545     13.34415      5.76045        -0.016972     -0.088873      0.030040
      3.67530     10.62865      7.68060        -0.045375     -0.182496      0.129529
      1.75515      7.91315      9.60074         0.222960      0.557351      0.162231
      2.69715      3.19890     18.83693        -0.772229     -0.174453      0.599031
      1.75515      7.91315      1.92015        -0.197341     -0.107394     -0.120741
      7.51559      5.19765      3.84030        -0.009414     -0.089251     -0.019996
      5.59545      2.48215      5.76045        -0.014297     -0.132357      0.049483
      3.67530     16.05965      7.68060        -0.196026     -0.114423      0.126766
      1.75515     13.34415      9.60074        -0.054819      0.850283      0.690997
      2.69715      7.27215     18.83693        -0.088232      0.087566      1.744534
      3.67530      1.12440      1.92015         0.059369      0.654377      0.267539
      1.75515     14.70190      3.84030         0.011634      0.089440     -0.069527
      7.51559     11.98640      5.76045         0.024200      0.127993      0.037780
      5.59545      9.27090      7.68060         0.064474      0.663928     -0.263796
      3.67530      6.55540      9.60074        -0.417975     -0.668189     -0.208360
      5.59545      9.27091      0.00000         1.168909     -0.821561     -0.777988
      3.67530      6.55540      1.92015         0.196100      0.491619      0.405710
      1.75515      3.83990      3.84030         0.025758      0.115005     -0.039722
      7.51559      1.12440      5.76045         0.026293      0.091497      0.019057
      5.59545     14.70190      7.68060         0.197347      0.496820     -0.415415
      3.67530     11.98640      9.60074         0.204707     -0.302136      0.439073
      2.69715     11.34540     18.83693         0.572228      0.210165      0.396825
      3.67530     11.98640      1.92015        -0.453414      0.186868      0.359774
      1.75515      9.27090      3.84030         0.019740      0.088404     -0.026924
      7.51559      6.55540      5.76045         0.008727      0.441113     -0.421806
      5.59545      3.83990      7.68060        -0.450841      0.198688     -0.362141
      3.67530      1.12440      9.60074         0.157810     -0.953794      0.840092
      1.75515      3.83990      0.00000         0.201587     -0.309679     -0.422962
      7.51559      1.12440      1.92015         0.077646      0.296550     -0.263819
      5.59544     14.70190      3.84030         0.006869      0.451821      0.423064
      3.67530     11.98640      5.76045         0.030561      0.118974      0.034677
      1.75515      9.27090      7.68060         0.076247      0.300210      0.255654
      4.61729      3.19890     11.76468         0.573893      0.226396     -0.393860
      1.75515      9.27091      0.00000         0.161259     -0.952879     -0.839978
      7.51559      6.55540      1.92015         0.178881      0.111979     -0.125147
      5.59544      3.83990      3.84030         0.017590      0.139047     -0.041093
      3.67530      1.12440      5.76045         0.026061      0.092049      0.029774
      1.75515     14.70190      7.68060         0.179677      0.119418      0.126667
      4.61729     15.41865     11.76468        -0.091769      0.092723     -1.741696
      1.75515     14.70191      0.00000        -0.413238     -0.666422      0.205663
      7.51559     11.98640      1.92015         0.546669     -0.167009     -0.131570
      5.59544      9.27090      3.84030         0.021151      0.100931     -0.030723
      3.67530      6.55540      5.76045         0.021310      0.092700      0.061755
      1.75515      3.83990      7.68060         0.549645     -0.165295      0.129431
      7.51559      1.12440      9.60074         1.169677     -0.813323      0.787977
      0.77700     11.34540     11.76468        -0.237556     -0.425024     -0.445220
      6.53744      5.23553     14.59358         0.288527      0.014989     -0.603882
      4.61729     15.41865     17.42248         0.472300     -0.021619     -0.351507
      7.51559     11.98640      9.60074         0.879080     -0.403374     -0.061674
      2.69715      9.30878     14.59358        -0.315410     -0.420766     -0.886823
      0.77700      3.19890     17.42248         0.754239      0.085535      0.108337
      5.59544      7.91315      9.60074        -0.438471      1.221780     -0.261996
      6.53744     13.38203     14.59358        -0.269438      0.071524     -0.561192
      4.61729      7.27215     17.42248        -0.494514     -0.007221     -0.158998
      4.61729      7.27215     11.76468        -0.680736     -0.142439      0.076392
      2.69715      1.16228     14.59358         0.214780     -0.053052     -0.558461
      0.77700     11.34540     17.42248        -0.273045     -0.120965      0.453432
      2.69715     11.34540     13.17913         0.756016      0.095511     -0.129070
      0.77700      5.23553     16.00803        -0.256694      0.094229      0.560661
      5.59545     13.34415      1.92015        -0.062768     -0.718502      0.310927
      6.53744     15.41865     13.17913        -0.508206      0.008608      0.142546
      4.61729      9.30878     16.00803         0.191657     -0.046998      0.555569
      3.67530     10.62866      0.00000        -0.555120      0.242219     -0.533501
      2.69715      3.19890     13.17913        -0.275859     -0.117740     -0.464535
      0.77700     13.38203     16.00803         0.295756      0.422084      0.873809
      6.53744      7.27215     18.83693        -0.013305      0.023384      2.420624
      6.53744      7.27215     13.17913         0.461344     -0.007970      0.334243
      4.61729      1.16228     16.00803        -0.290838     -0.020320      0.616851
      5.59545     14.70191      0.00000         0.618612     -0.685021     -0.742887
      0.77700     15.41865     11.76468        -0.026187      0.016920     -2.404943
      6.53744      9.30878     14.59358        -0.298481     -0.031463     -0.616272
      4.61729      3.19890     17.42248        -0.258778      0.117369      0.069816
      7.51559      5.19765      7.68060        -0.044800     -0.705273     -0.304825
      6.53744      1.16228     14.59358         0.188808     -0.074980     -0.553892
      4.61729     11.34540     17.42248        -0.246291     -0.112344      0.441500
      5.59544      2.48215      9.60074        -0.576291      0.261160      0.541665
      2.69715      5.23553     14.59358         0.300483      0.402795     -0.880397
      3.67530      5.19765      0.00000        -1.098911      1.255222     -1.123732
      7.51559      6.55540      9.60074         0.631452     -0.700794      0.744738
      2.69715     13.38203     14.59358        -0.258292      0.083565     -0.560543
      0.77700      7.27215     17.42248         0.527133     -0.004334     -0.146984
      2.69715     15.41865     13.17913         0.526450      0.008262      0.127523
      0.77700      9.30878     16.00803         0.221960     -0.060631      0.548730
      6.53744      3.19890     18.83693        -0.233952     -0.433801      0.454546
      5.59544     13.34415      9.60074        -1.111898      1.287825      1.124631
      0.77700      1.16228     16.00803        -0.312941     -0.410614      0.882970
      3.67530     16.05965      0.00000        -0.414705      1.207777      0.279083
      6.53744     11.34540     13.17913        -0.278957      0.131603     -0.083840
      4.61729      5.23553     16.00803        -0.261124      0.079542      0.558227
      2.69714     15.41865     18.83693        -0.671740     -0.133295     -0.057244
      6.53744      3.19890     13.17913        -0.263849     -0.088722     -0.461119
      4.61729     13.38203     16.00803         0.304670      0.013977      0.605161
      5.59545      3.83990      0.00000         0.870642     -0.378369      0.052956
 -----------------------------------------------------------------------------------
    total drift:                               -0.243107      0.134001     -0.153125


--------------------------------------------------------------------------------------------------------



  FREE ENERGIE OF THE ION-ELECTRON SYSTEM (eV)
  ---------------------------------------------------
  free  energy   TOTEN  =      -574.86336062 eV

  energy  without entropy=     -574.86059293  energy(sigma->0) =     -574.86197677
 


--------------------------------------------------------------------------------------------------------


    POTLOK:  cpu time      1.2780: real time      1.2849


--------------------------------------------------------------------------------------------------------


     LOOP+:  cpu time    606.8558: real time    612.9344
    4ORBIT:  cpu time      0.0000: real time      0.0000

 total amount of memory used by VASP MPI-rank0   166828. kBytes
=======================================================================

   base      :      30000. kBytes
   nonlr-proj:       6547. kBytes
   fftplans  :      18524. kBytes
   grid      :      14584. kBytes
   one-center:        129. kBytes
   wavefun   :      97044. kBytes
 
  
  
 General timing and accounting informations for this job:
 ========================================================
  
                  Total CPU time used (sec):      660.270
                            User time (sec):      620.911
                          System time (sec):       39.358
                         Elapsed time (sec):      668.522
  
                   Maximum memory used (kb):      429588.
                   Average memory used (kb):          N/A
  
                          Minor page faults:       162413
                          Major page faults:           22
                 Voluntary context switches:         1675
