<?xml version="1.0" encoding="ISO-8859-1"?>
<modeling>
 <generator>
  <i name="program" type="string">vasp </i>
  <i name="version" type="string">6.4.3  </i>
  <i name="subversion" type="string">19Mar24 (build Oct 22 2024 11:23:12) complex                          parallel </i>
  <i name="platform" type="string">LinuxIFC </i>
  <i name="date" type="string">2025 06 08 </i>
  <i name="time" type="string">11:18:46 </i>
 </generator>
 <incar>
  <i type="string" name="SYSTEM">Si and Ge interface calculation</i>
  <i type="int" name="ISTART">     0</i>
  <i type="logical" name="ADDGRID"> T  </i>
  <i type="int" name="ISPIN">     2</i>
  <i name="AMIX">      0.60000000</i>
  <i type="int" name="ICHARG">     2</i>
  <i type="int" name="NELM">   100</i>
  <i name="EDIFF">      0.00000010</i>
  <i name="ENCUT">    700.00000000</i>
  <i name="ENAUG">    900.00000000</i>
  <i type="int" name="NBANDS">   288</i>
  <i name="NUPDOWN">      1.00000000</i>
  <i name="NELECT">    480.00000000</i>
  <i type="string" name="LREAL">AUTO</i>
  <i type="int" name="ISMEAR">     0</i>
  <i name="SIGMA">      0.01000000</i>
  <i type="int" name="LMAXMIX">     6</i>
  <i type="logical" name="LWAVE"> F  </i>
  <i type="logical" name="LVTOT"> F  </i>
  <i type="logical" name="LVHAR"> T  </i>
  <i type="logical" name="LASPH"> T  </i>
  <i type="logical" name="LMIXTAU"> T  </i>
 </incar>
 <primitive_cell>
  <structure name="primitive_cell" >
   <crystal>
    <varray name="basis" >
     <v>       7.68059444       0.00000000       0.00000000 </v>
     <v>       0.00000000      16.29299927       0.00000000 </v>
     <v>       0.00000000       0.00000000      21.00086403 </v>
    </varray>
    <i name="volume">   2628.04643725 </i>
    <varray name="rec_basis" >
     <v>       0.13019826       0.00000000       0.00000000 </v>
     <v>       0.00000000       0.06137605       0.00000000 </v>
     <v>       0.00000000       0.00000000       0.04761709 </v>
    </varray>
   </crystal>
   <varray name="positions" >
    <v>       0.97851729       0.98567820       0.00000000 </v>
    <v>       0.85116369       0.94633603       0.89695972 </v>
    <v>       0.47851718       0.65234476       0.18286380 </v>
    <v>       0.22851723       0.48567814       0.27429566 </v>
    <v>       0.10116363       0.44633609       0.56019974 </v>
    <v>       0.60116363       0.69633609       0.56019974 </v>
    <v>       0.97851729       0.31901154       0.00000000 </v>
    <v>       0.72851723       0.15234485       0.09143190 </v>
    <v>       0.47851718       0.98567814       0.18286380 </v>
    <v>       0.22851723       0.81901151       0.27429566 </v>
    <v>       0.97851718       0.65234476       0.36572757 </v>
    <v>       0.10116363       0.19633615       0.56019974 </v>
    <v>       0.97851729       0.65234494       0.00000000 </v>
    <v>       0.72851723       0.48567820       0.09143190 </v>
    <v>       0.47851718       0.31901151       0.18286380 </v>
    <v>       0.22851723       0.15234487       0.27429566 </v>
    <v>       0.97851718       0.98567814       0.36572757 </v>
    <v>       0.35116363       0.44633609       0.62755173 </v>
    <v>       0.85116363       0.69633609       0.89695972 </v>
    <v>       0.22851725       0.81901145       0.09143190 </v>
    <v>       0.97851723       0.65234476       0.18286380 </v>
    <v>       0.72851729       0.48567814       0.27429563 </v>
    <v>       0.47851718       0.31901139       0.36572757 </v>
    <v>       0.22851712       0.15234470       0.45715946 </v>
    <v>       0.10116363       0.94633615       0.82960773 </v>
    <v>       0.22851725       0.15234485       0.09143190 </v>
    <v>       0.97851723       0.98567814       0.18286380 </v>
    <v>       0.72851729       0.81901151       0.27429563 </v>
    <v>       0.47851718       0.65234476       0.36572757 </v>
    <v>       0.22851712       0.48567808       0.45715946 </v>
    <v>       0.35116360       0.19633603       0.89695972 </v>
    <v>       0.22851725       0.48567820       0.09143190 </v>
    <v>       0.97851723       0.31901151       0.18286380 </v>
    <v>       0.72851729       0.15234487       0.27429563 </v>
    <v>       0.47851718       0.98567814       0.36572757 </v>
    <v>       0.22851712       0.81901139       0.45715946 </v>
    <v>       0.35116360       0.44633609       0.89695972 </v>
    <v>       0.47851729       0.06901149       0.09143189 </v>
    <v>       0.22851726       0.90234476       0.18286380 </v>
    <v>       0.97851729       0.73567814       0.27429566 </v>
    <v>       0.72851723       0.56901145       0.36572757 </v>
    <v>       0.47851723       0.40234464       0.45715940 </v>
    <v>       0.72851735       0.56901163       0.00000000 </v>
    <v>       0.47851729       0.40234488       0.09143189 </v>
    <v>       0.22851726       0.23567820       0.18286380 </v>
    <v>       0.97851729       0.06901154       0.27429566 </v>
    <v>       0.72851723       0.90234482       0.36572757 </v>
    <v>       0.47851723       0.73567808       0.45715940 </v>
    <v>       0.35116363       0.69633609       0.89695972 </v>
    <v>       0.47851729       0.73567820       0.09143189 </v>
    <v>       0.22851726       0.56901151       0.18286380 </v>
    <v>       0.97851729       0.40234485       0.27429566 </v>
    <v>       0.72851723       0.23567812       0.36572757 </v>
    <v>       0.47851723       0.06901138       0.45715940 </v>
    <v>       0.22851729       0.23567820       0.00000000 </v>
    <v>       0.97851723       0.06901149       0.09143190 </v>
    <v>       0.72851718       0.90234476       0.18286380 </v>
    <v>       0.47851729       0.73567814       0.27429563 </v>
    <v>       0.22851718       0.56901145       0.36572757 </v>
    <v>       0.60116363       0.19633615       0.56019974 </v>
    <v>       0.22851729       0.56901163       0.00000000 </v>
    <v>       0.97851723       0.40234488       0.09143190 </v>
    <v>       0.72851718       0.23567820       0.18286380 </v>
    <v>       0.47851729       0.06901154       0.27429563 </v>
    <v>       0.22851718       0.90234482       0.36572757 </v>
    <v>       0.60116363       0.94633603       0.56019974 </v>
    <v>       0.22851729       0.90234494       0.00000000 </v>
    <v>       0.97851723       0.73567820       0.09143190 </v>
    <v>       0.72851718       0.56901151       0.18286380 </v>
    <v>       0.47851729       0.40234485       0.27429563 </v>
    <v>       0.22851718       0.23567812       0.36572757 </v>
    <v>       0.97851706       0.06901138       0.45715946 </v>
    <v>       0.10116363       0.69633603       0.56019974 </v>
    <v>       0.85116369       0.32133609       0.69490373 </v>
    <v>       0.60116369       0.94633615       0.82960773 </v>
    <v>       0.97851706       0.73567808       0.45715946 </v>
    <v>       0.35116363       0.57133609       0.69490373 </v>
    <v>       0.10116363       0.19633615       0.82960773 </v>
    <v>       0.72851718       0.48567808       0.45715946 </v>
    <v>       0.85116369       0.82133615       0.69490373 </v>
    <v>       0.60116369       0.44633609       0.82960773 </v>
    <v>       0.60116357       0.44633606       0.56019974 </v>
    <v>       0.35116363       0.07133615       0.69490373 </v>
    <v>       0.10116363       0.69633609       0.82960773 </v>
    <v>       0.35116360       0.69633603       0.62755173 </v>
    <v>       0.10116363       0.32133609       0.76225573 </v>
    <v>       0.72851723       0.81901145       0.09143190 </v>
    <v>       0.85116363       0.94633603       0.62755173 </v>
    <v>       0.60116363       0.57133609       0.76225573 </v>
    <v>       0.47851729       0.65234494       0.00000000 </v>
    <v>       0.35116366       0.19633615       0.62755173 </v>
    <v>       0.10116363       0.82133615       0.76225573 </v>
    <v>       0.85116363       0.44633609       0.89695972 </v>
    <v>       0.85116357       0.44633606       0.62755173 </v>
    <v>       0.60116363       0.07133615       0.76225573 </v>
    <v>       0.72851735       0.90234494       0.00000000 </v>
    <v>       0.10116363       0.94633609       0.56019974 </v>
    <v>       0.85116375       0.57133615       0.69490373 </v>
    <v>       0.60116369       0.19633615       0.82960773 </v>
    <v>       0.97851718       0.31901139       0.36572757 </v>
    <v>       0.85116369       0.07133615       0.69490373 </v>
    <v>       0.60116369       0.69633609       0.82960773 </v>
    <v>       0.72851718       0.15234470       0.45715946 </v>
    <v>       0.35116366       0.32133615       0.69490373 </v>
    <v>       0.47851729       0.31901154       0.00000000 </v>
    <v>       0.97851706       0.40234464       0.45715946 </v>
    <v>       0.35116363       0.82133609       0.69490373 </v>
    <v>       0.10116363       0.44633615       0.82960773 </v>
    <v>       0.35116369       0.94633609       0.62755173 </v>
    <v>       0.10116363       0.57133615       0.76225573 </v>
    <v>       0.85116363       0.19633615       0.89695972 </v>
    <v>       0.72851718       0.81901139       0.45715946 </v>
    <v>       0.10116363       0.07133615       0.76225573 </v>
    <v>       0.47851729       0.98567820       0.00000000 </v>
    <v>       0.85116363       0.69633603       0.62755173 </v>
    <v>       0.60116363       0.32133606       0.76225573 </v>
    <v>       0.35116357       0.94633603       0.89695972 </v>
    <v>       0.85116363       0.19633615       0.62755173 </v>
    <v>       0.60116363       0.82133615       0.76225573 </v>
    <v>       0.72851735       0.23567820       0.00000000 </v>
   </varray>
  </structure>
  <varray name="primitive_index" >
   <v type="int" >        1 </v>
   <v type="int" >        2 </v>
   <v type="int" >        3 </v>
   <v type="int" >        4 </v>
   <v type="int" >        5 </v>
   <v type="int" >        6 </v>
   <v type="int" >        7 </v>
   <v type="int" >        8 </v>
   <v type="int" >        9 </v>
   <v type="int" >       10 </v>
   <v type="int" >       11 </v>
   <v type="int" >       12 </v>
   <v type="int" >       13 </v>
   <v type="int" >       14 </v>
   <v type="int" >       15 </v>
   <v type="int" >       16 </v>
   <v type="int" >       17 </v>
   <v type="int" >       18 </v>
   <v type="int" >       19 </v>
   <v type="int" >       20 </v>
   <v type="int" >       21 </v>
   <v type="int" >       22 </v>
   <v type="int" >       23 </v>
   <v type="int" >       24 </v>
   <v type="int" >       25 </v>
   <v type="int" >       26 </v>
   <v type="int" >       27 </v>
   <v type="int" >       28 </v>
   <v type="int" >       29 </v>
   <v type="int" >       30 </v>
   <v type="int" >       31 </v>
   <v type="int" >       32 </v>
   <v type="int" >       33 </v>
   <v type="int" >       34 </v>
   <v type="int" >       35 </v>
   <v type="int" >       36 </v>
   <v type="int" >       37 </v>
   <v type="int" >       38 </v>
   <v type="int" >       39 </v>
   <v type="int" >       40 </v>
   <v type="int" >       41 </v>
   <v type="int" >       42 </v>
   <v type="int" >       43 </v>
   <v type="int" >       44 </v>
   <v type="int" >       45 </v>
   <v type="int" >       46 </v>
   <v type="int" >       47 </v>
   <v type="int" >       48 </v>
   <v type="int" >       49 </v>
   <v type="int" >       50 </v>
   <v type="int" >       51 </v>
   <v type="int" >       52 </v>
   <v type="int" >       53 </v>
   <v type="int" >       54 </v>
   <v type="int" >       55 </v>
   <v type="int" >       56 </v>
   <v type="int" >       57 </v>
   <v type="int" >       58 </v>
   <v type="int" >       59 </v>
   <v type="int" >       60 </v>
   <v type="int" >       61 </v>
   <v type="int" >       62 </v>
   <v type="int" >       63 </v>
   <v type="int" >       64 </v>
   <v type="int" >       65 </v>
   <v type="int" >       66 </v>
   <v type="int" >       67 </v>
   <v type="int" >       68 </v>
   <v type="int" >       69 </v>
   <v type="int" >       70 </v>
   <v type="int" >       71 </v>
   <v type="int" >       72 </v>
   <v type="int" >       73 </v>
   <v type="int" >       74 </v>
   <v type="int" >       75 </v>
   <v type="int" >       76 </v>
   <v type="int" >       77 </v>
   <v type="int" >       78 </v>
   <v type="int" >       79 </v>
   <v type="int" >       80 </v>
   <v type="int" >       81 </v>
   <v type="int" >       82 </v>
   <v type="int" >       83 </v>
   <v type="int" >       84 </v>
   <v type="int" >       85 </v>
   <v type="int" >       86 </v>
   <v type="int" >       87 </v>
   <v type="int" >       88 </v>
   <v type="int" >       89 </v>
   <v type="int" >       90 </v>
   <v type="int" >       91 </v>
   <v type="int" >       92 </v>
   <v type="int" >       93 </v>
   <v type="int" >       94 </v>
   <v type="int" >       95 </v>
   <v type="int" >       96 </v>
   <v type="int" >       97 </v>
   <v type="int" >       98 </v>
   <v type="int" >       99 </v>
   <v type="int" >      100 </v>
   <v type="int" >      101 </v>
   <v type="int" >      102 </v>
   <v type="int" >      103 </v>
   <v type="int" >      104 </v>
   <v type="int" >      105 </v>
   <v type="int" >      106 </v>
   <v type="int" >      107 </v>
   <v type="int" >      108 </v>
   <v type="int" >      109 </v>
   <v type="int" >      110 </v>
   <v type="int" >      111 </v>
   <v type="int" >      112 </v>
   <v type="int" >      113 </v>
   <v type="int" >      114 </v>
   <v type="int" >      115 </v>
   <v type="int" >      116 </v>
   <v type="int" >      117 </v>
   <v type="int" >      118 </v>
   <v type="int" >      119 </v>
   <v type="int" >      120 </v>
  </varray>
 </primitive_cell>
 <kpoints>
  <generation param="Gamma">
   <v type="int" name="divisions">       4        2        1 </v>
   <v name="usershift">      0.00000000       0.00000000       0.00000000 </v>
   <v name="genvec1">      0.25000000       0.00000000       0.00000000 </v>
   <v name="genvec2">      0.00000000       0.50000000       0.00000000 </v>
   <v name="genvec3">      0.00000000       0.00000000       1.00000000 </v>
   <v name="shift">      0.00000000       0.00000000       0.00000000 </v>
  </generation>
  <varray name="kpointlist" >
   <v>       0.00000000       0.00000000       0.00000000 </v>
   <v>       0.25000000       0.00000000       0.00000000 </v>
   <v>       0.50000000       0.00000000       0.00000000 </v>
   <v>       0.00000000       0.50000000       0.00000000 </v>
   <v>       0.25000000       0.50000000       0.00000000 </v>
   <v>       0.50000000       0.50000000       0.00000000 </v>
  </varray>
  <varray name="weights" >
   <v>       0.12500000 </v>
   <v>       0.25000000 </v>
   <v>       0.12500000 </v>
   <v>       0.12500000 </v>
   <v>       0.25000000 </v>
   <v>       0.12500000 </v>
  </varray>
 </kpoints>
 <parameters>
  <separator name="general" >
   <i type="string" name="SYSTEM">Si and Ge interface calculation</i>
   <i type="logical" name="LCOMPAT"> F  </i>
  </separator>
  <separator name="electronic" >
   <i type="string" name="PREC">normal</i>
   <i name="ENMAX">    700.00000000</i>
   <i name="ENAUG">    900.00000000</i>
   <i name="EDIFF">      0.00000010</i>
   <i type="int" name="IALGO">    38</i>
   <i type="int" name="IWAVPR">    10</i>
   <i type="int" name="NBANDS">   288</i>
   <i type="int" name="NBANDSLOW">    -1</i>
   <i type="int" name="NBANDSHIGH">    -1</i>
   <i name="NELECT">    480.00000000</i>
   <i type="int" name="TURBO">     0</i>
   <i type="int" name="IRESTART">     0</i>
   <i type="int" name="NREBOOT">     0</i>
   <i type="int" name="NMIN">     0</i>
   <i name="EREF">      0.00000000</i>
   <separator name="electronic smearing" >
    <i type="int" name="ISMEAR">     0</i>
    <i name="SIGMA">      0.01000000</i>
    <i name="KSPACING">      0.50000000</i>
    <i type="logical" name="KGAMMA"> T  </i>
    <i type="logical" name="KBLOWUP"> T  </i>
   </separator>
   <separator name="electronic projectors" >
    <i type="logical" name="LREAL"> T  </i>
    <v name="ROPT">     -0.00050000     -0.00050000</v>
    <i type="int" name="LMAXPAW">  -100</i>
    <i type="int" name="LMAXMIX">     6</i>
    <i type="logical" name="NLSPLINE"> F  </i>
   </separator>
   <separator name="electronic startup" >
    <i type="int" name="ISTART">     0</i>
    <i type="int" name="ICHARG">     2</i>
    <i type="int" name="INIWAV">     1</i>
   </separator>
   <separator name="electronic spin" >
    <i type="int" name="ISPIN">     2</i>
    <i type="logical" name="LNONCOLLINEAR"> F  </i>
    <v name="MAGMOM">      0.00833333      0.00833333      0.00833333      0.00833333      0.00833333      0.00833333      0.00833333      0.00833333      0.00833333      0.00833333      0.00833333      0.00833333      0.00833333      0.00833333      0.00833333      0.00833333      0.00833333      0.00833333      0.00833333      0.00833333
      0.00833333      0.00833333      0.00833333      0.00833333      0.00833333      0.00833333      0.00833333      0.00833333      0.00833333      0.00833333      0.00833333      0.00833333      0.00833333      0.00833333      0.00833333      0.00833333      0.00833333      0.00833333      0.00833333      0.00833333
      0.00833333      0.00833333      0.00833333      0.00833333      0.00833333      0.00833333      0.00833333      0.00833333      0.00833333      0.00833333      0.00833333      0.00833333      0.00833333      0.00833333      0.00833333      0.00833333      0.00833333      0.00833333      0.00833333      0.00833333
      0.00833333      0.00833333      0.00833333      0.00833333      0.00833333      0.00833333      0.00833333      0.00833333      0.00833333      0.00833333      0.00833333      0.00833333      0.00833333      0.00833333      0.00833333      0.00833333      0.00833333      0.00833333      0.00833333      0.00833333
      0.00833333      0.00833333      0.00833333      0.00833333      0.00833333      0.00833333      0.00833333      0.00833333      0.00833333      0.00833333      0.00833333      0.00833333      0.00833333      0.00833333      0.00833333      0.00833333      0.00833333      0.00833333      0.00833333      0.00833333
      0.00833333      0.00833333      0.00833333      0.00833333      0.00833333      0.00833333      0.00833333      0.00833333      0.00833333      0.00833333      0.00833333      0.00833333      0.00833333      0.00833333      0.00833333      0.00833333      0.00833333      0.00833333      0.00833333      0.00833333
</v>
    <i name="NUPDOWN">      1.00000000</i>
    <i type="logical" name="LSORBIT"> F  </i>
    <v name="SAXIS">      0.00000000      0.00000000      1.00000000</v>
    <i type="logical" name="LSPIRAL"> F  </i>
    <v name="QSPIRAL">      0.00000000      0.00000000      0.00000000</v>
    <i type="logical" name="LZEROZ"> F  </i>
   </separator>
   <separator name="electronic exchange-correlation" >
    <i type="logical" name="LASPH"> T  </i>
   </separator>
   <separator name="electronic convergence" >
    <i type="int" name="NELM">   100</i>
    <i type="int" name="NELMDL">    -5</i>
    <i type="int" name="NELMIN">     2</i>
    <i name="ENINI">    700.00000000</i>
    <separator name="electronic convergence detail" >
     <i type="logical" name="LDIAG"> T  </i>
     <i type="logical" name="LSUBROT"> F  </i>
     <i name="WEIMIN">      0.00000000</i>
     <i name="EBREAK">      0.00000000</i>
     <i name="DEPER">      0.30000000</i>
     <i type="int" name="NRMM">     4</i>
     <i name="TIME">      0.40000000</i>
    </separator>
   </separator>
   <separator name="electronic mixer" >
    <i name="AMIX">      0.60000000</i>
    <i name="BMIX">      1.00000000</i>
    <i name="AMIN">      0.10000000</i>
    <i name="AMIX_MAG">      2.40000000</i>
    <i name="BMIX_MAG">      1.00000000</i>
    <separator name="electronic mixer details" >
     <i type="int" name="IMIX">     4</i>
     <i type="logical" name="MIXFIRST"> F  </i>
     <i type="int" name="MAXMIX">   -45</i>
     <i name="WC">    100.00000000</i>
     <i type="int" name="INIMIX">     1</i>
     <i type="int" name="MIXPRE">     1</i>
     <i type="int" name="MREMOVE">     5</i>
    </separator>
   </separator>
   <separator name="electronic dipolcorrection" >
    <i type="logical" name="LDIPOL"> F  </i>
    <i type="logical" name="LMONO"> F  </i>
    <i type="int" name="IDIPOL">     0</i>
    <i name="EPSILON">      1.00000000</i>
    <v name="DIPOL">   -100.00000000   -100.00000000   -100.00000000</v>
    <i name="EFIELD">      0.00000000</i>
    <i type="logical" name="LVACPOTAV"> F  </i>
   </separator>
  </separator>
  <separator name="grids" >
   <i type="int" name="NGX">    50</i>
   <i type="int" name="NGY">   108</i>
   <i type="int" name="NGZ">   140</i>
   <i type="int" name="NGXF">   100</i>
   <i type="int" name="NGYF">   216</i>
   <i type="int" name="NGZF">   280</i>
   <i type="logical" name="ADDGRID"> T  </i>
  </separator>
  <separator name="ionic" >
   <i type="int" name="NSW">     0</i>
   <i type="int" name="IBRION">    -1</i>
   <i type="int" name="MDALGO">     0</i>
   <i type="int" name="ISIF">     2</i>
   <i name="PSTRESS">      0.00000000</i>
   <i name="EDIFFG">      0.00000100</i>
   <i type="int" name="NFREE">     0</i>
   <i name="POTIM">      0.50000000</i>
   <i name="SMASS">     -3.00000000</i>
   <i name="SCALEE">      1.00000000</i>
  </separator>
  <separator name="ionic md" >
   <i name="TEBEG">      0.00010000</i>
   <i name="TEEND">      0.00010000</i>
   <i type="int" name="NBLOCK">     1</i>
   <i type="int" name="KBLOCK">     1</i>
   <i type="int" name="NPACO">   256</i>
   <i name="APACO">     10.00000000</i>
  </separator>
  <separator name="symmetry" >
   <i type="int" name="ISYM">     2</i>
   <i name="SYMPREC">      0.00001000</i>
  </separator>
  <separator name="dos" >
   <i type="int" name="LORBIT">     0</i>
   <v name="RWIGS">     -1.00000000     -1.00000000</v>
   <i type="int" name="NEDOS">   301</i>
   <i name="EMIN">     10.00000000</i>
   <i name="EMAX">    -10.00000000</i>
   <i name="EFERMI">      0.00000000</i>
  </separator>
  <separator name="writing" >
   <i type="int" name="NWRITE">     2</i>
   <i type="logical" name="LWAVE"> F  </i>
   <i type="logical" name="LDOWNSAMPLE"> F  </i>
   <i type="logical" name="LCHARG"> T  </i>
   <i type="logical" name="LPARD"> F  </i>
   <i type="logical" name="LVTOT"> F  </i>
   <i type="logical" name="LVHAR"> T  </i>
   <i type="logical" name="LELF"> F  </i>
   <i type="logical" name="LOPTICS"> F  </i>
   <v name="STM">      0.00000000      0.00000000      0.00000000      0.00000000      0.00000000      0.00000000      0.00000000</v>
  </separator>
  <separator name="performance" >
   <i type="int" name="NPAR">     4</i>
   <i type="int" name="NSIM">     4</i>
   <i type="int" name="NBLK">    -1</i>
   <i type="logical" name="LPLANE"> T  </i>
   <i type="logical" name="LSCALAPACK"> T  </i>
   <i type="logical" name="LSCAAWARE"> F  </i>
   <i type="logical" name="LSCALU"> F  </i>
   <i type="logical" name="LASYNC"> F  </i>
   <i type="logical" name="LORBITALREAL"> F  </i>
  </separator>
  <separator name="miscellaneous" >
   <i type="int" name="IDIOT">     3</i>
   <i type="int" name="PHON_NSTRUCT">    -1</i>
   <i type="logical" name="LMUSIC"> F  </i>
   <v name="POMASS">     28.08500000     72.61000000</v>
   <v name="DARWINR">      0.00000000      0.00000000</v>
   <v name="DARWINV">      1.00000000      1.00000000</v>
   <i type="logical" name="LCORR"> T  </i>
  </separator>
  <i type="logical" name="GGA_COMPAT"> T  </i>
  <i type="logical" name="LBERRY"> F  </i>
  <i type="int" name="ICORELEVEL">     0</i>
  <i type="logical" name="LDAU"> F  </i>
  <i type="int" name="I_CONSTRAINED_M">     0</i>
  <separator name="electronic exchange-correlation" >
   <i type="string" name="GGA    ">PE</i>
   <i type="string" name="XC_C">1</i>
   <i type="int" name="VOSKOWN">     0</i>
   <i type="logical" name="LHFCALC"> F  </i>
   <i type="string" name="PRECFOCK"></i>
   <i type="logical" name="LSYMGRAD"> F  </i>
   <i type="logical" name="LHFONE"> F  </i>
   <i type="logical" name="LRHFCALC"> F  </i>
   <i type="logical" name="LTHOMAS"> F  </i>
   <i type="logical" name="LMODELHF"> F  </i>
   <i type="logical" name="LFOCKACE"> F  </i>
   <i name="ENCUT4O">     -1.00000000</i>
   <i type="int" name="EXXOEP">     0</i>
   <i type="int" name="FOURORBIT">     0</i>
   <i name="AEXX">      0.00000000</i>
   <i name="HFALPHA">      0.00000000</i>
   <i name="MCALPHA">      0.00000000</i>
   <i name="ALDAX">      1.00000000</i>
   <i name="AGGAX">      1.00000000</i>
   <i name="AMGGAX">      1.00000000</i>
   <i name="ALDAC">      1.00000000</i>
   <i name="AGGAC">      1.00000000</i>
   <i name="AMGGAC">      1.00000000</i>
   <i type="int" name="NKREDX">     1</i>
   <i type="int" name="NKREDY">     1</i>
   <i type="int" name="NKREDZ">     1</i>
   <i type="logical" name="SHIFTRED"> F  </i>
   <i type="logical" name="ODDONLY"> F  </i>
   <i type="logical" name="EVENONLY"> F  </i>
   <i type="int" name="LMAXFOCK">     0</i>
   <i type="int" name="NMAXFOCKAE">     0</i>
   <i type="logical" name="LFOCKAEDFT"> F  </i>
   <i name="HFSCREEN">      0.00000000</i>
   <i name="HFSCREENC">      0.00000000</i>
   <i type="int" name="NBANDSGWLOW">     0</i>
  </separator>
  <separator name="vdW DFT" >
   <i type="logical" name="LUSE_VDW"> F  </i>
   <i type="int" name="IVDW_NL">    -1</i>
   <i type="logical" name="LSPIN_VDW"> F  </i>
   <i name="ZAB_VDW">     -0.84910000</i>
   <i name="GAMMA_VDW">      1.39626340</i>
   <i name="ALPHA_VDW">      0.00000000</i>
   <i name="PARAM1">      0.12340000</i>
   <i name="PARAM2">      1.00000000</i>
   <i name="BPARAM">      6.30000000</i>
   <i name="CPARAM">      0.00930000</i>
  </separator>
  <separator name="model GW" >
   <i type="int" name="MODEL_GW">     0</i>
   <i name="MODEL_EPS0">     13.14023219</i>
   <i name="MODEL_ALPHA">      1.00000000</i>
  </separator>
  <separator name="linear response parameters" >
   <i type="logical" name="LEPSILON"> F  </i>
   <i type="logical" name="LRPA"> F  </i>
   <i type="logical" name="LNABLA"> F  </i>
   <i type="logical" name="LVEL"> F  </i>
   <i name="CSHIFT">      0.10000000</i>
   <i name="OMEGAMAX">     -1.00000000</i>
   <i name="DEG_THRESHOLD">      0.00200000</i>
   <i name="RTIME">     -0.10000000</i>
   <i name="WPLASMAI">      0.00000000</i>
   <v name="DFIELD">      0.00000000      0.00000000      0.00000000</v>
   <v name="WPLASMA">      0.00000000      0.00000000      0.00000000      0.00000000      0.00000000      0.00000000      0.00000000      0.00000000      0.00000000</v>
  </separator>
  <separator name="orbital magnetization" >
   <i type="logical" name="NUCIND"> F  </i>
   <v name="MAGPOS">      0.00000000      0.00000000      0.00000000</v>
   <i type="logical" name="LNICSALL"> T  </i>
   <i type="logical" name="ORBITALMAG"> F  </i>
   <i type="logical" name="LMAGBLOCH"> F  </i>
   <i type="logical" name="LCHIMAG"> F  </i>
   <i type="logical" name="LGAUGE"> T  </i>
   <i type="int" name="MAGATOM">     0</i>
   <v name="MAGDIPOL">      0.00000000      0.00000000      0.00000000</v>
   <v name="AVECCONST">      0.00000000      0.00000000      0.00000000</v>
  </separator>
  <separator name="response functions" >
   <i type="logical" name="LALL_IN_ONE"> F  </i>
   <i type="int" name="IALL_IN_ONE">    -1</i>
   <i type="int" name="NBANDS_WAVE">    -1</i>
   <i type="logical" name="LFINITE_TEMPERATURE"> F  </i>
   <i type="logical" name="LADDER"> F  </i>
   <i type="logical" name="LRPAFORCE"> F  </i>
   <i type="logical" name="LFXC"> F  </i>
   <i type="logical" name="LHARTREE"> T  </i>
   <i type="int" name="IBSE">     0</i>
   <v type="int" name="KPOINT">    -1     0     0     0</v>
   <i type="logical" name="LTCTC"> F  </i>
   <i type="logical" name="LTCTE"> F  </i>
   <i type="logical" name="LTETE"> F  </i>
   <i type="logical" name="LTRIPLET"> F  </i>
   <i type="logical" name="LFXCEPS"> F  </i>
   <i type="logical" name="LFXHEG"> F  </i>
   <i type="int" name="NATURALO">     2</i>
   <i type="logical" name="LHOLEGF"> F  </i>
   <i type="logical" name="L2ORDER"> F  </i>
   <i type="logical" name="LDMP1"> F  </i>
   <i type="logical" name="LMP2LT"> F  </i>
   <i type="logical" name="LSMP2LT"> F  </i>
   <i type="logical" name="LGWLF"> F  </i>
   <i name="ENCUTGW">     -1.60000002</i>
   <i name="ENCUTGWSOFT">     -1.60000002</i>
   <i name="ENCUTLF">     -1.00000000</i>
   <i type="logical" name="ESF_SPLINES"> F  </i>
   <i name="ESF_CONV">      0.01000000</i>
   <i type="int" name="ESF_NINTER">    15</i>
   <i type="int" name="LMAXMP2">    -1</i>
   <i name="SCISSOR">      0.00000000</i>
   <i type="int" name="NOMEGA">     0</i>
   <i type="int" name="NOMEGAR">     0</i>
   <i type="int" name="NBANDSGW">    -1</i>
   <i type="int" name="NBANDSO">    -1</i>
   <i type="int" name="NBANDSV">    -1</i>
   <i type="int" name="NELMGW">     1</i>
   <i type="int" name="NELMHF">     1</i>
   <i type="int" name="DIM">     3</i>
   <i type="int" name="IESPILON">     4</i>
   <i type="int" name="ANTIRES">     0</i>
   <i name="OMEGAMAX">    -30.00000000</i>
   <i name="OMEGAMIN">    -30.00000000</i>
   <i name="OMEGATL">   -200.00000000</i>
   <i type="int" name="OMEGAGRID">     0</i>
   <i name="CSHIFT">     -0.10000000</i>
   <i type="logical" name="LSELFENERGY"> F  </i>
   <i type="logical" name="LSPECTRAL"> F  </i>
   <i type="logical" name="LSPECTRALGW"> F  </i>
   <i type="logical" name="LSINGLES"> F  </i>
   <i type="logical" name="LFERMIGW"> F  </i>
   <i type="logical" name="ODDONLYGW"> F  </i>
   <i type="logical" name="EVENONLYGW"> F  </i>
   <i type="int" name="NKREDLFX">     1</i>
   <i type="int" name="NKREDLFY">     1</i>
   <i type="int" name="NKREDLFZ">     1</i>
   <i type="int" name="MAXMEM">  2800</i>
   <i type="int" name="TELESCOPE">     0</i>
   <i type="int" name="NTAUPAR">    -1</i>
   <i type="int" name="NOMEGAPAR">    -1</i>
   <i name="DAMP_NEWTON">      0.80000001</i>
   <i name="LAMBDA">      1.00000000</i>
  </separator>
  <separator name="External order field" >
   <i name="OFIELD_KAPPA">      0.00000000</i>
   <v name="OFIELD_K">      0.00000000      0.00000000      0.00000000</v>
   <i name="OFIELD_Q6_NEAR">      0.00000000</i>
   <i name="OFIELD_Q6_FAR">      0.00000000</i>
   <i name="OFIELD_A">      0.00000000</i>
  </separator>
  <separator name="optional k-points parameters" >
   <i type="int" name="KPOINTS_OPT_MODE">     1</i>
   <i type="logical" name="LKPOINTS_OPT"> F  </i>
  </separator>
 </parameters>
 <atominfo>
  <atoms>     120 </atoms>
  <types>       2 </types>
  <array name="atoms" >
   <dimension dim="1">ion</dimension>
   <field type="string">element</field>
   <field type="int">atomtype</field>
   <set>
    <rc><c>Si</c><c>   1</c></rc>
    <rc><c>Si</c><c>   1</c></rc>
    <rc><c>Si</c><c>   1</c></rc>
    <rc><c>Si</c><c>   1</c></rc>
    <rc><c>Si</c><c>   1</c></rc>
    <rc><c>Si</c><c>   1</c></rc>
    <rc><c>Si</c><c>   1</c></rc>
    <rc><c>Si</c><c>   1</c></rc>
    <rc><c>Si</c><c>   1</c></rc>
    <rc><c>Si</c><c>   1</c></rc>
    <rc><c>Si</c><c>   1</c></rc>
    <rc><c>Si</c><c>   1</c></rc>
    <rc><c>Si</c><c>   1</c></rc>
    <rc><c>Si</c><c>   1</c></rc>
    <rc><c>Si</c><c>   1</c></rc>
    <rc><c>Si</c><c>   1</c></rc>
    <rc><c>Si</c><c>   1</c></rc>
    <rc><c>Si</c><c>   1</c></rc>
    <rc><c>Si</c><c>   1</c></rc>
    <rc><c>Si</c><c>   1</c></rc>
    <rc><c>Si</c><c>   1</c></rc>
    <rc><c>Si</c><c>   1</c></rc>
    <rc><c>Si</c><c>   1</c></rc>
    <rc><c>Si</c><c>   1</c></rc>
    <rc><c>Si</c><c>   1</c></rc>
    <rc><c>Si</c><c>   1</c></rc>
    <rc><c>Si</c><c>   1</c></rc>
    <rc><c>Si</c><c>   1</c></rc>
    <rc><c>Si</c><c>   1</c></rc>
    <rc><c>Si</c><c>   1</c></rc>
    <rc><c>Si</c><c>   1</c></rc>
    <rc><c>Si</c><c>   1</c></rc>
    <rc><c>Si</c><c>   1</c></rc>
    <rc><c>Si</c><c>   1</c></rc>
    <rc><c>Si</c><c>   1</c></rc>
    <rc><c>Si</c><c>   1</c></rc>
    <rc><c>Si</c><c>   1</c></rc>
    <rc><c>Si</c><c>   1</c></rc>
    <rc><c>Si</c><c>   1</c></rc>
    <rc><c>Si</c><c>   1</c></rc>
    <rc><c>Si</c><c>   1</c></rc>
    <rc><c>Si</c><c>   1</c></rc>
    <rc><c>Si</c><c>   1</c></rc>
    <rc><c>Si</c><c>   1</c></rc>
    <rc><c>Si</c><c>   1</c></rc>
    <rc><c>Si</c><c>   1</c></rc>
    <rc><c>Si</c><c>   1</c></rc>
    <rc><c>Si</c><c>   1</c></rc>
    <rc><c>Si</c><c>   1</c></rc>
    <rc><c>Si</c><c>   1</c></rc>
    <rc><c>Si</c><c>   1</c></rc>
    <rc><c>Si</c><c>   1</c></rc>
    <rc><c>Si</c><c>   1</c></rc>
    <rc><c>Si</c><c>   1</c></rc>
    <rc><c>Si</c><c>   1</c></rc>
    <rc><c>Si</c><c>   1</c></rc>
    <rc><c>Si</c><c>   1</c></rc>
    <rc><c>Si</c><c>   1</c></rc>
    <rc><c>Si</c><c>   1</c></rc>
    <rc><c>Si</c><c>   1</c></rc>
    <rc><c>Si</c><c>   1</c></rc>
    <rc><c>Si</c><c>   1</c></rc>
    <rc><c>Si</c><c>   1</c></rc>
    <rc><c>Si</c><c>   1</c></rc>
    <rc><c>Si</c><c>   1</c></rc>
    <rc><c>Si</c><c>   1</c></rc>
    <rc><c>Si</c><c>   1</c></rc>
    <rc><c>Si</c><c>   1</c></rc>
    <rc><c>Si</c><c>   1</c></rc>
    <rc><c>Si</c><c>   1</c></rc>
    <rc><c>Si</c><c>   1</c></rc>
    <rc><c>Si</c><c>   1</c></rc>
    <rc><c>Ge</c><c>   2</c></rc>
    <rc><c>Ge</c><c>   2</c></rc>
    <rc><c>Ge</c><c>   2</c></rc>
    <rc><c>Ge</c><c>   2</c></rc>
    <rc><c>Ge</c><c>   2</c></rc>
    <rc><c>Ge</c><c>   2</c></rc>
    <rc><c>Ge</c><c>   2</c></rc>
    <rc><c>Ge</c><c>   2</c></rc>
    <rc><c>Ge</c><c>   2</c></rc>
    <rc><c>Ge</c><c>   2</c></rc>
    <rc><c>Ge</c><c>   2</c></rc>
    <rc><c>Ge</c><c>   2</c></rc>
    <rc><c>Ge</c><c>   2</c></rc>
    <rc><c>Ge</c><c>   2</c></rc>
    <rc><c>Ge</c><c>   2</c></rc>
    <rc><c>Ge</c><c>   2</c></rc>
    <rc><c>Ge</c><c>   2</c></rc>
    <rc><c>Ge</c><c>   2</c></rc>
    <rc><c>Ge</c><c>   2</c></rc>
    <rc><c>Ge</c><c>   2</c></rc>
    <rc><c>Ge</c><c>   2</c></rc>
    <rc><c>Ge</c><c>   2</c></rc>
    <rc><c>Ge</c><c>   2</c></rc>
    <rc><c>Ge</c><c>   2</c></rc>
    <rc><c>Ge</c><c>   2</c></rc>
    <rc><c>Ge</c><c>   2</c></rc>
    <rc><c>Ge</c><c>   2</c></rc>
    <rc><c>Ge</c><c>   2</c></rc>
    <rc><c>Ge</c><c>   2</c></rc>
    <rc><c>Ge</c><c>   2</c></rc>
    <rc><c>Ge</c><c>   2</c></rc>
    <rc><c>Ge</c><c>   2</c></rc>
    <rc><c>Ge</c><c>   2</c></rc>
    <rc><c>Ge</c><c>   2</c></rc>
    <rc><c>Ge</c><c>   2</c></rc>
    <rc><c>Ge</c><c>   2</c></rc>
    <rc><c>Ge</c><c>   2</c></rc>
    <rc><c>Ge</c><c>   2</c></rc>
    <rc><c>Ge</c><c>   2</c></rc>
    <rc><c>Ge</c><c>   2</c></rc>
    <rc><c>Ge</c><c>   2</c></rc>
    <rc><c>Ge</c><c>   2</c></rc>
    <rc><c>Ge</c><c>   2</c></rc>
    <rc><c>Ge</c><c>   2</c></rc>
    <rc><c>Ge</c><c>   2</c></rc>
    <rc><c>Ge</c><c>   2</c></rc>
    <rc><c>Ge</c><c>   2</c></rc>
    <rc><c>Ge</c><c>   2</c></rc>
   </set>
  </array>
  <array name="atomtypes" >
   <dimension dim="1">type</dimension>
   <field type="int">atomspertype</field>
   <field type="string">element</field>
   <field>mass</field>
   <field>valence</field>
   <field type="string">pseudopotential</field>
   <set>
    <rc><c>  72</c><c>Si</c><c>     28.08500000</c><c>      4.00000000</c><c>  PAW_PBE Si 05Jan2001                  </c></rc>
    <rc><c>  48</c><c>Ge</c><c>     72.61000000</c><c>      4.00000000</c><c>  PAW_PBE Ge 05Jan2001                  </c></rc>
   </set>
  </array>
 </atominfo>
 <structure name="initialpos" >
  <crystal>
   <varray name="basis" >
    <v>       7.68059444       0.00000000       0.00000000 </v>
    <v>       0.00000000      16.29299927       0.00000000 </v>
    <v>       0.00000000       0.00000000      21.00086403 </v>
   </varray>
   <i name="volume">   2628.04643725 </i>
   <varray name="rec_basis" >
    <v>       0.13019826       0.00000000       0.00000000 </v>
    <v>       0.00000000       0.06137605       0.00000000 </v>
    <v>       0.00000000       0.00000000       0.04761709 </v>
   </varray>
  </crystal>
  <varray name="positions" >
   <v>       0.97851729       0.98567820       0.00000000 </v>
   <v>       0.85116369       0.94633603       0.89695972 </v>
   <v>       0.47851718       0.65234476       0.18286380 </v>
   <v>       0.22851723       0.48567814       0.27429566 </v>
   <v>       0.10116363       0.44633609       0.56019974 </v>
   <v>       0.60116363       0.69633609       0.56019974 </v>
   <v>       0.97851729       0.31901154       0.00000000 </v>
   <v>       0.72851723       0.15234485       0.09143190 </v>
   <v>       0.47851718       0.98567814       0.18286380 </v>
   <v>       0.22851723       0.81901151       0.27429566 </v>
   <v>       0.97851718       0.65234476       0.36572757 </v>
   <v>       0.10116363       0.19633615       0.56019974 </v>
   <v>       0.97851729       0.65234494       0.00000000 </v>
   <v>       0.72851723       0.48567820       0.09143190 </v>
   <v>       0.47851718       0.31901151       0.18286380 </v>
   <v>       0.22851723       0.15234487       0.27429566 </v>
   <v>       0.97851718       0.98567814       0.36572757 </v>
   <v>       0.35116363       0.44633609       0.62755173 </v>
   <v>       0.85116363       0.69633609       0.89695972 </v>
   <v>       0.22851725       0.81901145       0.09143190 </v>
   <v>       0.97851723       0.65234476       0.18286380 </v>
   <v>       0.72851729       0.48567814       0.27429563 </v>
   <v>       0.47851718       0.31901139       0.36572757 </v>
   <v>       0.22851712       0.15234470       0.45715946 </v>
   <v>       0.10116363       0.94633615       0.82960773 </v>
   <v>       0.22851725       0.15234485       0.09143190 </v>
   <v>       0.97851723       0.98567814       0.18286380 </v>
   <v>       0.72851729       0.81901151       0.27429563 </v>
   <v>       0.47851718       0.65234476       0.36572757 </v>
   <v>       0.22851712       0.48567808       0.45715946 </v>
   <v>       0.35116360       0.19633603       0.89695972 </v>
   <v>       0.22851725       0.48567820       0.09143190 </v>
   <v>       0.97851723       0.31901151       0.18286380 </v>
   <v>       0.72851729       0.15234487       0.27429563 </v>
   <v>       0.47851718       0.98567814       0.36572757 </v>
   <v>       0.22851712       0.81901139       0.45715946 </v>
   <v>       0.35116360       0.44633609       0.89695972 </v>
   <v>       0.47851729       0.06901149       0.09143189 </v>
   <v>       0.22851726       0.90234476       0.18286380 </v>
   <v>       0.97851729       0.73567814       0.27429566 </v>
   <v>       0.72851723       0.56901145       0.36572757 </v>
   <v>       0.47851723       0.40234464       0.45715940 </v>
   <v>       0.72851735       0.56901163       0.00000000 </v>
   <v>       0.47851729       0.40234488       0.09143189 </v>
   <v>       0.22851726       0.23567820       0.18286380 </v>
   <v>       0.97851729       0.06901154       0.27429566 </v>
   <v>       0.72851723       0.90234482       0.36572757 </v>
   <v>       0.47851723       0.73567808       0.45715940 </v>
   <v>       0.35116363       0.69633609       0.89695972 </v>
   <v>       0.47851729       0.73567820       0.09143189 </v>
   <v>       0.22851726       0.56901151       0.18286380 </v>
   <v>       0.97851729       0.40234485       0.27429566 </v>
   <v>       0.72851723       0.23567812       0.36572757 </v>
   <v>       0.47851723       0.06901138       0.45715940 </v>
   <v>       0.22851729       0.23567820       0.00000000 </v>
   <v>       0.97851723       0.06901149       0.09143190 </v>
   <v>       0.72851718       0.90234476       0.18286380 </v>
   <v>       0.47851729       0.73567814       0.27429563 </v>
   <v>       0.22851718       0.56901145       0.36572757 </v>
   <v>       0.60116363       0.19633615       0.56019974 </v>
   <v>       0.22851729       0.56901163       0.00000000 </v>
   <v>       0.97851723       0.40234488       0.09143190 </v>
   <v>       0.72851718       0.23567820       0.18286380 </v>
   <v>       0.47851729       0.06901154       0.27429563 </v>
   <v>       0.22851718       0.90234482       0.36572757 </v>
   <v>       0.60116363       0.94633603       0.56019974 </v>
   <v>       0.22851729       0.90234494       0.00000000 </v>
   <v>       0.97851723       0.73567820       0.09143190 </v>
   <v>       0.72851718       0.56901151       0.18286380 </v>
   <v>       0.47851729       0.40234485       0.27429563 </v>
   <v>       0.22851718       0.23567812       0.36572757 </v>
   <v>       0.97851706       0.06901138       0.45715946 </v>
   <v>       0.10116363       0.69633603       0.56019974 </v>
   <v>       0.85116369       0.32133609       0.69490373 </v>
   <v>       0.60116369       0.94633615       0.82960773 </v>
   <v>       0.97851706       0.73567808       0.45715946 </v>
   <v>       0.35116363       0.57133609       0.69490373 </v>
   <v>       0.10116363       0.19633615       0.82960773 </v>
   <v>       0.72851718       0.48567808       0.45715946 </v>
   <v>       0.85116369       0.82133615       0.69490373 </v>
   <v>       0.60116369       0.44633609       0.82960773 </v>
   <v>       0.60116357       0.44633606       0.56019974 </v>
   <v>       0.35116363       0.07133615       0.69490373 </v>
   <v>       0.10116363       0.69633609       0.82960773 </v>
   <v>       0.35116360       0.69633603       0.62755173 </v>
   <v>       0.10116363       0.32133609       0.76225573 </v>
   <v>       0.72851723       0.81901145       0.09143190 </v>
   <v>       0.85116363       0.94633603       0.62755173 </v>
   <v>       0.60116363       0.57133609       0.76225573 </v>
   <v>       0.47851729       0.65234494       0.00000000 </v>
   <v>       0.35116366       0.19633615       0.62755173 </v>
   <v>       0.10116363       0.82133615       0.76225573 </v>
   <v>       0.85116363       0.44633609       0.89695972 </v>
   <v>       0.85116357       0.44633606       0.62755173 </v>
   <v>       0.60116363       0.07133615       0.76225573 </v>
   <v>       0.72851735       0.90234494       0.00000000 </v>
   <v>       0.10116363       0.94633609       0.56019974 </v>
   <v>       0.85116375       0.57133615       0.69490373 </v>
   <v>       0.60116369       0.19633615       0.82960773 </v>
   <v>       0.97851718       0.31901139       0.36572757 </v>
   <v>       0.85116369       0.07133615       0.69490373 </v>
   <v>       0.60116369       0.69633609       0.82960773 </v>
   <v>       0.72851718       0.15234470       0.45715946 </v>
   <v>       0.35116366       0.32133615       0.69490373 </v>
   <v>       0.47851729       0.31901154       0.00000000 </v>
   <v>       0.97851706       0.40234464       0.45715946 </v>
   <v>       0.35116363       0.82133609       0.69490373 </v>
   <v>       0.10116363       0.44633615       0.82960773 </v>
   <v>       0.35116369       0.94633609       0.62755173 </v>
   <v>       0.10116363       0.57133615       0.76225573 </v>
   <v>       0.85116363       0.19633615       0.89695972 </v>
   <v>       0.72851718       0.81901139       0.45715946 </v>
   <v>       0.10116363       0.07133615       0.76225573 </v>
   <v>       0.47851729       0.98567820       0.00000000 </v>
   <v>       0.85116363       0.69633603       0.62755173 </v>
   <v>       0.60116363       0.32133606       0.76225573 </v>
   <v>       0.35116357       0.94633603       0.89695972 </v>
   <v>       0.85116363       0.19633615       0.62755173 </v>
   <v>       0.60116363       0.82133615       0.76225573 </v>
   <v>       0.72851735       0.23567820       0.00000000 </v>
  </varray>
 </structure>
 <calculation>
  <scstep>
   <time name="dav">   18.59   18.75</time>
   <time name="total">   19.90   20.07</time>
   <energy>
    <i name="alphaZ">    529.58409355 </i>
    <i name="ewald"> -12736.13709485 </i>
    <i name="hartreedc">  -1248.54741434 </i>
    <i name="XCdc">  -1036.07651600 </i>
    <i name="pawpsdc">  10575.88222728 </i>
    <i name="pawaedc">  -8613.76247617 </i>
    <i name="eentropy">     -0.00178233 </i>
    <i name="bandstr">   2034.98552593 </i>
    <i name="atom">  12460.60057749 </i>
    <i name="e_fr_energy">   1966.52714057 </i>
    <i name="e_wo_entrp">   1966.52892290 </i>
    <i name="e_0_energy">   1966.52803174 </i>
   </energy>
  </scstep>
  <scstep>
   <time name="dav">   20.89   21.09</time>
   <time name="total">   20.90   21.09</time>
   <energy>
    <i name="e_fr_energy">   -359.91175971 </i>
    <i name="e_wo_entrp">   -359.91023223 </i>
    <i name="e_0_energy">   -359.91099597 </i>
   </energy>
  </scstep>
  <scstep>
   <time name="dav">   21.69   21.89</time>
   <time name="total">   21.69   21.89</time>
   <energy>
    <i name="e_fr_energy">   -576.46656441 </i>
    <i name="e_wo_entrp">   -576.46464230 </i>
    <i name="e_0_energy">   -576.46560335 </i>
   </energy>
  </scstep>
  <scstep>
   <time name="dav">   20.90   21.12</time>
   <time name="total">   20.90   21.12</time>
   <energy>
    <i name="e_fr_energy">   -584.30966398 </i>
    <i name="e_wo_entrp">   -584.30693564 </i>
    <i name="e_0_energy">   -584.30829981 </i>
   </energy>
  </scstep>
  <scstep>
   <time name="dav">   22.99   23.23</time>
   <time name="total">   24.06   24.32</time>
   <energy>
    <i name="e_fr_energy">   -584.60962345 </i>
    <i name="e_wo_entrp">   -584.60658888 </i>
    <i name="e_0_energy">   -584.60810617 </i>
   </energy>
  </scstep>
  <scstep>
   <time name="dav">   21.32   21.51</time>
   <time name="total">   23.66   23.87</time>
   <energy>
    <i name="e_fr_energy">   -575.76424562 </i>
    <i name="e_wo_entrp">   -575.76157787 </i>
    <i name="e_0_energy">   -575.76291175 </i>
   </energy>
  </scstep>
  <scstep>
   <time name="dav">   21.50   21.73</time>
   <time name="total">   23.84   24.08</time>
   <energy>
    <i name="e_fr_energy">   -575.96689572 </i>
    <i name="e_wo_entrp">   -575.96494232 </i>
    <i name="e_0_energy">   -575.96591902 </i>
   </energy>
  </scstep>
  <scstep>
   <time name="dav">   21.38   21.61</time>
   <time name="total">   23.71   23.96</time>
   <energy>
    <i name="e_fr_energy">   -574.81414519 </i>
    <i name="e_wo_entrp">   -574.81163484 </i>
    <i name="e_0_energy">   -574.81289002 </i>
   </energy>
  </scstep>
  <scstep>
   <time name="dav">   20.76   20.95</time>
   <time name="total">   23.09   23.30</time>
   <energy>
    <i name="e_fr_energy">   -574.88783643 </i>
    <i name="e_wo_entrp">   -574.88594384 </i>
    <i name="e_0_energy">   -574.88689014 </i>
   </energy>
  </scstep>
  <scstep>
   <time name="dav">   21.13   21.36</time>
   <time name="total">   23.47   23.71</time>
   <energy>
    <i name="e_fr_energy">   -574.87007564 </i>
    <i name="e_wo_entrp">   -574.86772020 </i>
    <i name="e_0_energy">   -574.86889792 </i>
   </energy>
  </scstep>
  <scstep>
   <time name="dav">   21.31   21.50</time>
   <time name="total">   23.65   23.86</time>
   <energy>
    <i name="e_fr_energy">   -574.86559315 </i>
    <i name="e_wo_entrp">   -574.86304560 </i>
    <i name="e_0_energy">   -574.86431938 </i>
   </energy>
  </scstep>
  <scstep>
   <time name="dav">   21.25   21.44</time>
   <time name="total">   23.59   23.79</time>
   <energy>
    <i name="e_fr_energy">   -574.86311185 </i>
    <i name="e_wo_entrp">   -574.86039026 </i>
    <i name="e_0_energy">   -574.86175106 </i>
   </energy>
  </scstep>
  <scstep>
   <time name="dav">   20.61   20.80</time>
   <time name="total">   22.95   23.16</time>
   <energy>
    <i name="e_fr_energy">   -574.86324656 </i>
    <i name="e_wo_entrp">   -574.86049585 </i>
    <i name="e_0_energy">   -574.86187121 </i>
   </energy>
  </scstep>
  <scstep>
   <time name="dav">   20.55   20.73</time>
   <time name="total">   22.90   23.10</time>
   <energy>
    <i name="e_fr_energy">   -574.86327068 </i>
    <i name="e_wo_entrp">   -574.86052695 </i>
    <i name="e_0_energy">   -574.86189882 </i>
   </energy>
  </scstep>
  <scstep>
   <time name="dav">   20.42   20.61</time>
   <time name="total">   22.77   22.96</time>
   <energy>
    <i name="e_fr_energy">   -574.86327628 </i>
    <i name="e_wo_entrp">   -574.86050401 </i>
    <i name="e_0_energy">   -574.86189014 </i>
   </energy>
  </scstep>
  <scstep>
   <time name="dav">   20.53   20.72</time>
   <time name="total">   22.88   23.08</time>
   <energy>
    <i name="e_fr_energy">   -574.86329591 </i>
    <i name="e_wo_entrp">   -574.86052398 </i>
    <i name="e_0_energy">   -574.86190995 </i>
   </energy>
  </scstep>
  <scstep>
   <time name="dav">   20.45   20.63</time>
   <time name="total">   22.79   22.99</time>
   <energy>
    <i name="e_fr_energy">   -574.86332173 </i>
    <i name="e_wo_entrp">   -574.86054571 </i>
    <i name="e_0_energy">   -574.86193372 </i>
   </energy>
  </scstep>
  <scstep>
   <time name="dav">   21.28   21.48</time>
   <time name="total">   23.63   23.84</time>
   <energy>
    <i name="e_fr_energy">   -574.86333419 </i>
    <i name="e_wo_entrp">   -574.86055717 </i>
    <i name="e_0_energy">   -574.86194568 </i>
   </energy>
  </scstep>
  <scstep>
   <time name="dav">   20.56   20.75</time>
   <time name="total">   22.90   23.11</time>
   <energy>
    <i name="e_fr_energy">   -574.86334196 </i>
    <i name="e_wo_entrp">   -574.86056593 </i>
    <i name="e_0_energy">   -574.86195395 </i>
   </energy>
  </scstep>
  <scstep>
   <time name="dav">   21.23   21.42</time>
   <time name="total">   23.58   23.79</time>
   <energy>
    <i name="e_fr_energy">   -574.86334963 </i>
    <i name="e_wo_entrp">   -574.86057501 </i>
    <i name="e_0_energy">   -574.86196232 </i>
   </energy>
  </scstep>
  <scstep>
   <time name="dav">   21.12   21.31</time>
   <time name="total">   23.47   23.68</time>
   <energy>
    <i name="e_fr_energy">   -574.86335546 </i>
    <i name="e_wo_entrp">   -574.86058243 </i>
    <i name="e_0_energy">   -574.86196894 </i>
   </energy>
  </scstep>
  <scstep>
   <time name="dav">   21.66   21.85</time>
   <time name="total">   24.01   24.22</time>
   <energy>
    <i name="e_fr_energy">   -574.86335860 </i>
    <i name="e_wo_entrp">   -574.86058750 </i>
    <i name="e_0_energy">   -574.86197305 </i>
   </energy>
  </scstep>
  <scstep>
   <time name="dav">   20.90   21.09</time>
   <time name="total">   23.26   23.46</time>
   <energy>
    <i name="e_fr_energy">   -574.86336037 </i>
    <i name="e_wo_entrp">   -574.86059138 </i>
    <i name="e_0_energy">   -574.86197588 </i>
   </energy>
  </scstep>
  <scstep>
   <time name="dav">   22.45   22.64</time>
   <time name="total">   24.80   25.01</time>
   <energy>
    <i name="e_fr_energy">   -574.86336064 </i>
    <i name="e_wo_entrp">   -574.86059248 </i>
    <i name="e_0_energy">   -574.86197656 </i>
   </energy>
  </scstep>
  <scstep>
   <time name="dav">   18.00   18.16</time>
   <time name="total">   19.28   19.45</time>
   <energy>
    <i name="alphaZ">    529.58409355 </i>
    <i name="ewald"> -12736.13709485 </i>
    <i name="hartreedc">  -1448.73279932 </i>
    <i name="XCdc">  -1002.77920426 </i>
    <i name="pawpsdc">  39275.20950453 </i>
    <i name="pawaedc"> -37328.28603033 </i>
    <i name="eentropy">     -0.00276769 </i>
    <i name="bandstr">   -324.31963973 </i>
    <i name="atom">  12460.60057749 </i>
    <i name="e_fr_energy">   -574.86336062 </i>
    <i name="e_wo_entrp">   -574.86059293 </i>
    <i name="e_0_energy">   -574.86197677 </i>
   </energy>
  </scstep>
  <structure>
   <crystal>
    <varray name="basis" >
     <v>       7.68059444       0.00000000       0.00000000 </v>
     <v>       0.00000000      16.29299927       0.00000000 </v>
     <v>       0.00000000       0.00000000      21.00086403 </v>
    </varray>
    <i name="volume">   2628.04643725 </i>
    <varray name="rec_basis" >
     <v>       0.13019826       0.00000000       0.00000000 </v>
     <v>       0.00000000       0.06137605       0.00000000 </v>
     <v>       0.00000000       0.00000000       0.04761709 </v>
    </varray>
   </crystal>
   <varray name="positions" >
    <v>       0.97851729       0.98567820       0.00000000 </v>
    <v>       0.85116369       0.94633603       0.89695972 </v>
    <v>       0.47851718       0.65234476       0.18286380 </v>
    <v>       0.22851723       0.48567814       0.27429566 </v>
    <v>       0.10116363       0.44633609       0.56019974 </v>
    <v>       0.60116363       0.69633609       0.56019974 </v>
    <v>       0.97851729       0.31901154       0.00000000 </v>
    <v>       0.72851723       0.15234485       0.09143190 </v>
    <v>       0.47851718       0.98567814       0.18286380 </v>
    <v>       0.22851723       0.81901151       0.27429566 </v>
    <v>       0.97851718       0.65234476       0.36572757 </v>
    <v>       0.10116363       0.19633615       0.56019974 </v>
    <v>       0.97851729       0.65234494       0.00000000 </v>
    <v>       0.72851723       0.48567820       0.09143190 </v>
    <v>       0.47851718       0.31901151       0.18286380 </v>
    <v>       0.22851723       0.15234487       0.27429566 </v>
    <v>       0.97851718       0.98567814       0.36572757 </v>
    <v>       0.35116363       0.44633609       0.62755173 </v>
    <v>       0.85116363       0.69633609       0.89695972 </v>
    <v>       0.22851725       0.81901145       0.09143190 </v>
    <v>       0.97851723       0.65234476       0.18286380 </v>
    <v>       0.72851729       0.48567814       0.27429563 </v>
    <v>       0.47851718       0.31901139       0.36572757 </v>
    <v>       0.22851712       0.15234470       0.45715946 </v>
    <v>       0.10116363       0.94633615       0.82960773 </v>
    <v>       0.22851725       0.15234485       0.09143190 </v>
    <v>       0.97851723       0.98567814       0.18286380 </v>
    <v>       0.72851729       0.81901151       0.27429563 </v>
    <v>       0.47851718       0.65234476       0.36572757 </v>
    <v>       0.22851712       0.48567808       0.45715946 </v>
    <v>       0.35116360       0.19633603       0.89695972 </v>
    <v>       0.22851725       0.48567820       0.09143190 </v>
    <v>       0.97851723       0.31901151       0.18286380 </v>
    <v>       0.72851729       0.15234487       0.27429563 </v>
    <v>       0.47851718       0.98567814       0.36572757 </v>
    <v>       0.22851712       0.81901139       0.45715946 </v>
    <v>       0.35116360       0.44633609       0.89695972 </v>
    <v>       0.47851729       0.06901149       0.09143189 </v>
    <v>       0.22851726       0.90234476       0.18286380 </v>
    <v>       0.97851729       0.73567814       0.27429566 </v>
    <v>       0.72851723       0.56901145       0.36572757 </v>
    <v>       0.47851723       0.40234464       0.45715940 </v>
    <v>       0.72851735       0.56901163       0.00000000 </v>
    <v>       0.47851729       0.40234488       0.09143189 </v>
    <v>       0.22851726       0.23567820       0.18286380 </v>
    <v>       0.97851729       0.06901154       0.27429566 </v>
    <v>       0.72851723       0.90234482       0.36572757 </v>
    <v>       0.47851723       0.73567808       0.45715940 </v>
    <v>       0.35116363       0.69633609       0.89695972 </v>
    <v>       0.47851729       0.73567820       0.09143189 </v>
    <v>       0.22851726       0.56901151       0.18286380 </v>
    <v>       0.97851729       0.40234485       0.27429566 </v>
    <v>       0.72851723       0.23567812       0.36572757 </v>
    <v>       0.47851723       0.06901138       0.45715940 </v>
    <v>       0.22851729       0.23567820       0.00000000 </v>
    <v>       0.97851723       0.06901149       0.09143190 </v>
    <v>       0.72851718       0.90234476       0.18286380 </v>
    <v>       0.47851729       0.73567814       0.27429563 </v>
    <v>       0.22851718       0.56901145       0.36572757 </v>
    <v>       0.60116363       0.19633615       0.56019974 </v>
    <v>       0.22851729       0.56901163       0.00000000 </v>
    <v>       0.97851723       0.40234488       0.09143190 </v>
    <v>       0.72851718       0.23567820       0.18286380 </v>
    <v>       0.47851729       0.06901154       0.27429563 </v>
    <v>       0.22851718       0.90234482       0.36572757 </v>
    <v>       0.60116363       0.94633603       0.56019974 </v>
    <v>       0.22851729       0.90234494       0.00000000 </v>
    <v>       0.97851723       0.73567820       0.09143190 </v>
    <v>       0.72851718       0.56901151       0.18286380 </v>
    <v>       0.47851729       0.40234485       0.27429563 </v>
    <v>       0.22851718       0.23567812       0.36572757 </v>
    <v>       0.97851706       0.06901138       0.45715946 </v>
    <v>       0.10116363       0.69633603       0.56019974 </v>
    <v>       0.85116369       0.32133609       0.69490373 </v>
    <v>       0.60116369       0.94633615       0.82960773 </v>
    <v>       0.97851706       0.73567808       0.45715946 </v>
    <v>       0.35116363       0.57133609       0.69490373 </v>
    <v>       0.10116363       0.19633615       0.82960773 </v>
    <v>       0.72851718       0.48567808       0.45715946 </v>
    <v>       0.85116369       0.82133615       0.69490373 </v>
    <v>       0.60116369       0.44633609       0.82960773 </v>
    <v>       0.60116357       0.44633606       0.56019974 </v>
    <v>       0.35116363       0.07133615       0.69490373 </v>
    <v>       0.10116363       0.69633609       0.82960773 </v>
    <v>       0.35116360       0.69633603       0.62755173 </v>
    <v>       0.10116363       0.32133609       0.76225573 </v>
    <v>       0.72851723       0.81901145       0.09143190 </v>
    <v>       0.85116363       0.94633603       0.62755173 </v>
    <v>       0.60116363       0.57133609       0.76225573 </v>
    <v>       0.47851729       0.65234494       0.00000000 </v>
    <v>       0.35116366       0.19633615       0.62755173 </v>
    <v>       0.10116363       0.82133615       0.76225573 </v>
    <v>       0.85116363       0.44633609       0.89695972 </v>
    <v>       0.85116357       0.44633606       0.62755173 </v>
    <v>       0.60116363       0.07133615       0.76225573 </v>
    <v>       0.72851735       0.90234494       0.00000000 </v>
    <v>       0.10116363       0.94633609       0.56019974 </v>
    <v>       0.85116375       0.57133615       0.69490373 </v>
    <v>       0.60116369       0.19633615       0.82960773 </v>
    <v>       0.97851718       0.31901139       0.36572757 </v>
    <v>       0.85116369       0.07133615       0.69490373 </v>
    <v>       0.60116369       0.69633609       0.82960773 </v>
    <v>       0.72851718       0.15234470       0.45715946 </v>
    <v>       0.35116366       0.32133615       0.69490373 </v>
    <v>       0.47851729       0.31901154       0.00000000 </v>
    <v>       0.97851706       0.40234464       0.45715946 </v>
    <v>       0.35116363       0.82133609       0.69490373 </v>
    <v>       0.10116363       0.44633615       0.82960773 </v>
    <v>       0.35116369       0.94633609       0.62755173 </v>
    <v>       0.10116363       0.57133615       0.76225573 </v>
    <v>       0.85116363       0.19633615       0.89695972 </v>
    <v>       0.72851718       0.81901139       0.45715946 </v>
    <v>       0.10116363       0.07133615       0.76225573 </v>
    <v>       0.47851729       0.98567820       0.00000000 </v>
    <v>       0.85116363       0.69633603       0.62755173 </v>
    <v>       0.60116363       0.32133606       0.76225573 </v>
    <v>       0.35116357       0.94633603       0.89695972 </v>
    <v>       0.85116363       0.19633615       0.62755173 </v>
    <v>       0.60116363       0.82133615       0.76225573 </v>
    <v>       0.72851735       0.23567820       0.00000000 </v>
   </varray>
  </structure>
  <varray name="forces" >
   <v>       0.21799602       0.55297680      -0.16859139 </v>
   <v>       0.70771457       0.09969333       0.21863525 </v>
   <v>      -0.00770431      -0.12146363      -0.04136939 </v>
   <v>      -0.01031637      -0.09086457       0.05242344 </v>
   <v>       0.70162902       0.10834316      -0.21587052 </v>
   <v>      -0.78211704      -0.17459929      -0.59182686 </v>
   <v>      -0.05183132       0.86004034      -0.68465254 </v>
   <v>      -0.05772445      -0.56531067       0.37268606 </v>
   <v>       0.01761728      -0.09538756      -0.05086345 </v>
   <v>      -0.01444797      -0.08577725       0.03448477 </v>
   <v>      -0.05792453      -0.57099705      -0.36669946 </v>
   <v>       0.77354763       0.05515799      -0.77620402 </v>
   <v>      -0.81573950      -0.02398276      -0.50164060 </v>
   <v>      -0.19839805      -0.11405799      -0.10389040 </v>
   <v>      -0.01455679      -0.09532011      -0.02775464 </v>
   <v>      -0.01453062      -0.11570384       0.04983848 </v>
   <v>      -0.20601438      -0.12443875       0.10917302 </v>
   <v>      -0.49256907       0.00759173       0.16921697 </v>
   <v>       0.77505795       0.06171901       0.76563189 </v>
   <v>      -0.07915345      -0.32568938      -0.23417837 </v>
   <v>      -0.01302369      -0.13465472      -0.04202085 </v>
   <v>       0.00951912      -0.09311254       0.05733131 </v>
   <v>      -0.08680333      -0.33713712       0.24337398 </v>
   <v>      -0.81118990      -0.01805075       0.49760174 </v>
   <v>      -0.49174615       0.00575647      -0.16493650 </v>
   <v>      -0.03814112      -0.17325896      -0.12495216 </v>
   <v>      -0.01093666      -0.09610221      -0.04219753 </v>
   <v>      -0.01697198      -0.08887334       0.03003957 </v>
   <v>      -0.04537492      -0.18249552       0.12952908 </v>
   <v>       0.22296029       0.55735124       0.16223084 </v>
   <v>      -0.77222945      -0.17445335       0.59903079 </v>
   <v>      -0.19734141      -0.10739366      -0.12074064 </v>
   <v>      -0.00941352      -0.08925057      -0.01999621 </v>
   <v>      -0.01429664      -0.13235697       0.04948267 </v>
   <v>      -0.19602621      -0.11442282       0.12676622 </v>
   <v>      -0.05481881       0.85028323       0.69099698 </v>
   <v>      -0.08823246       0.08756640       1.74453407 </v>
   <v>       0.05936942       0.65437701       0.26753930 </v>
   <v>       0.01163420       0.08944014      -0.06952693 </v>
   <v>       0.02419977       0.12799256       0.03777963 </v>
   <v>       0.06447389       0.66392828      -0.26379595 </v>
   <v>      -0.41797509      -0.66818862      -0.20836032 </v>
   <v>       1.16890948      -0.82156131      -0.77798799 </v>
   <v>       0.19610033       0.49161872       0.40571021 </v>
   <v>       0.02575755       0.11500508      -0.03972214 </v>
   <v>       0.02629299       0.09149689       0.01905690 </v>
   <v>       0.19734703       0.49682007      -0.41541477 </v>
   <v>       0.20470684      -0.30213615       0.43907336 </v>
   <v>       0.57222828       0.21016486       0.39682478 </v>
   <v>      -0.45341366       0.18686771       0.35977378 </v>
   <v>       0.01973961       0.08840395      -0.02692407 </v>
   <v>       0.00872690       0.44111325      -0.42180554 </v>
   <v>      -0.45084090       0.19868786      -0.36214096 </v>
   <v>       0.15781031      -0.95379404       0.84009163 </v>
   <v>       0.20158661      -0.30967929      -0.42296166 </v>
   <v>       0.07764608       0.29654962      -0.26381922 </v>
   <v>       0.00686904       0.45182103       0.42306421 </v>
   <v>       0.03056146       0.11897379       0.03467693 </v>
   <v>       0.07624677       0.30021002       0.25565390 </v>
   <v>       0.57389326       0.22639583      -0.39386033 </v>
   <v>       0.16125928      -0.95287901      -0.83997805 </v>
   <v>       0.17888062       0.11197875      -0.12514742 </v>
   <v>       0.01758965       0.13904748      -0.04109281 </v>
   <v>       0.02606120       0.09204854       0.02977378 </v>
   <v>       0.17967724       0.11941817       0.12666731 </v>
   <v>      -0.09176854       0.09272320      -1.74169630 </v>
   <v>      -0.41323824      -0.66642208       0.20566316 </v>
   <v>       0.54666873      -0.16700852      -0.13157041 </v>
   <v>       0.02115090       0.10093117      -0.03072294 </v>
   <v>       0.02131041       0.09270015       0.06175531 </v>
   <v>       0.54964503      -0.16529516       0.12943099 </v>
   <v>       1.16967672      -0.81332314       0.78797675 </v>
   <v>      -0.23755641      -0.42502383      -0.44522000 </v>
   <v>       0.28852677       0.01498910      -0.60388225 </v>
   <v>       0.47229953      -0.02161927      -0.35150728 </v>
   <v>       0.87908024      -0.40337388      -0.06167410 </v>
   <v>      -0.31541017      -0.42076588      -0.88682296 </v>
   <v>       0.75423869       0.08553547       0.10833657 </v>
   <v>      -0.43847057       1.22177982      -0.26199569 </v>
   <v>      -0.26943754       0.07152431      -0.56119223 </v>
   <v>      -0.49451449      -0.00722107      -0.15899807 </v>
   <v>      -0.68073601      -0.14243881       0.07639152 </v>
   <v>       0.21478008      -0.05305195      -0.55846085 </v>
   <v>      -0.27304543      -0.12096455       0.45343157 </v>
   <v>       0.75601588       0.09551062      -0.12907025 </v>
   <v>      -0.25669384       0.09422876       0.56066069 </v>
   <v>      -0.06276831      -0.71850222       0.31092737 </v>
   <v>      -0.50820554       0.00860822       0.14254606 </v>
   <v>       0.19165722      -0.04699815       0.55556878 </v>
   <v>      -0.55511994       0.24221916      -0.53350090 </v>
   <v>      -0.27585886      -0.11774049      -0.46453533 </v>
   <v>       0.29575559       0.42208352       0.87380908 </v>
   <v>      -0.01330471       0.02338416       2.42062441 </v>
   <v>       0.46134405      -0.00796954       0.33424287 </v>
   <v>      -0.29083846      -0.02031951       0.61685054 </v>
   <v>       0.61861209      -0.68502118      -0.74288708 </v>
   <v>      -0.02618679       0.01691956      -2.40494343 </v>
   <v>      -0.29848082      -0.03146285      -0.61627248 </v>
   <v>      -0.25877835       0.11736897       0.06981582 </v>
   <v>      -0.04479964      -0.70527274      -0.30482500 </v>
   <v>       0.18880752      -0.07498018      -0.55389219 </v>
   <v>      -0.24629134      -0.11234416       0.44149973 </v>
   <v>      -0.57629103       0.26115996       0.54166531 </v>
   <v>       0.30048292       0.40279507      -0.88039733 </v>
   <v>      -1.09891093       1.25522218      -1.12373242 </v>
   <v>       0.63145179      -0.70079400       0.74473783 </v>
   <v>      -0.25829163       0.08356504      -0.56054341 </v>
   <v>       0.52713310      -0.00433416      -0.14698403 </v>
   <v>       0.52644957       0.00826208       0.12752347 </v>
   <v>       0.22196007      -0.06063066       0.54873029 </v>
   <v>      -0.23395245      -0.43380125       0.45454562 </v>
   <v>      -1.11189825       1.28782501       1.12463110 </v>
   <v>      -0.31294131      -0.41061401       0.88297004 </v>
   <v>      -0.41470508       1.20777680       0.27908271 </v>
   <v>      -0.27895720       0.13160320      -0.08384003 </v>
   <v>      -0.26112382       0.07954153       0.55822651 </v>
   <v>      -0.67173973      -0.13329471      -0.05724408 </v>
   <v>      -0.26384943      -0.08872229      -0.46111867 </v>
   <v>       0.30467020       0.01397689       0.60516068 </v>
   <v>       0.87064186      -0.37836922       0.05295577 </v>
  </varray>
  <varray name="stress" >
   <v>      50.41688122       9.88342292       0.01044337 </v>
   <v>       9.88342041      18.59262520       0.07561435 </v>
   <v>       0.01044353       0.07561431      16.47925115 </v>
  </varray>
  <energy>
   <i name="e_fr_energy">   -574.86336062 </i>
   <i name="e_wo_entrp">   -574.86059293 </i>
   <i name="e_0_energy">   -574.86197677 </i>
  </energy>
  <time name="totalsc">  606.86  612.93</time>
  <eigenvalues>
   <array>
    <dimension dim="1">band</dimension>
    <dimension dim="2">kpoint</dimension>
    <dimension dim="3">spin</dimension>
    <field>eigene</field>
    <field>occ</field>
    <set>
     <set comment="spin 1">
      <set comment="kpoint 1">
       <r>   -7.8513    1.0000 </r>
       <r>   -7.5670    1.0000 </r>
       <r>   -7.5609    1.0000 </r>
       <r>   -7.4296    1.0000 </r>
       <r>   -7.2802    1.0000 </r>
       <r>   -7.2018    1.0000 </r>
       <r>   -7.1107    1.0000 </r>
       <r>   -6.9992    1.0000 </r>
       <r>   -6.9557    1.0000 </r>
       <r>   -6.6438    1.0000 </r>
       <r>   -6.5296    1.0000 </r>
       <r>   -6.5028    1.0000 </r>
       <r>   -6.3705    1.0000 </r>
       <r>   -6.3222    1.0000 </r>
       <r>   -6.2378    1.0000 </r>
       <r>   -6.1564    1.0000 </r>
       <r>   -6.0576    1.0000 </r>
       <r>   -5.9312    1.0000 </r>
       <r>   -5.9240    1.0000 </r>
       <r>   -5.7757    1.0000 </r>
       <r>   -5.7709    1.0000 </r>
       <r>   -5.7060    1.0000 </r>
       <r>   -5.5691    1.0000 </r>
       <r>   -5.5298    1.0000 </r>
       <r>   -5.5031    1.0000 </r>
       <r>   -5.4964    1.0000 </r>
       <r>   -5.4455    1.0000 </r>
       <r>   -5.4144    1.0000 </r>
       <r>   -5.4020    1.0000 </r>
       <r>   -5.3863    1.0000 </r>
       <r>   -5.3563    1.0000 </r>
       <r>   -5.3347    1.0000 </r>
       <r>   -5.3249    1.0000 </r>
       <r>   -5.3007    1.0000 </r>
       <r>   -5.2888    1.0000 </r>
       <r>   -5.2390    1.0000 </r>
       <r>   -5.1827    1.0000 </r>
       <r>   -5.1395    1.0000 </r>
       <r>   -5.1056    1.0000 </r>
       <r>   -5.0791    1.0000 </r>
       <r>   -5.0278    1.0000 </r>
       <r>   -5.0041    1.0000 </r>
       <r>   -4.9428    1.0000 </r>
       <r>   -4.9057    1.0000 </r>
       <r>   -4.7697    1.0000 </r>
       <r>   -4.7563    1.0000 </r>
       <r>   -4.4881    1.0000 </r>
       <r>   -4.4663    1.0000 </r>
       <r>   -4.4330    1.0000 </r>
       <r>   -4.4216    1.0000 </r>
       <r>   -4.1759    1.0000 </r>
       <r>   -4.1644    1.0000 </r>
       <r>   -4.1619    1.0000 </r>
       <r>   -4.1212    1.0000 </r>
       <r>   -4.0744    1.0000 </r>
       <r>   -3.9650    1.0000 </r>
       <r>   -3.9226    1.0000 </r>
       <r>   -3.7416    1.0000 </r>
       <r>   -3.7302    1.0000 </r>
       <r>   -3.6976    1.0000 </r>
       <r>   -3.6279    1.0000 </r>
       <r>   -3.6056    1.0000 </r>
       <r>   -3.3898    1.0000 </r>
       <r>   -3.3715    1.0000 </r>
       <r>   -3.2833    1.0000 </r>
       <r>   -3.1411    1.0000 </r>
       <r>   -3.1060    1.0000 </r>
       <r>   -2.9027    1.0000 </r>
       <r>   -2.8940    1.0000 </r>
       <r>   -2.8366    1.0000 </r>
       <r>   -2.8077    1.0000 </r>
       <r>   -2.7803    1.0000 </r>
       <r>   -2.7222    1.0000 </r>
       <r>   -2.6703    1.0000 </r>
       <r>   -2.6462    1.0000 </r>
       <r>   -2.6144    1.0000 </r>
       <r>   -2.5763    1.0000 </r>
       <r>   -2.5360    1.0000 </r>
       <r>   -2.5304    1.0000 </r>
       <r>   -2.4914    1.0000 </r>
       <r>   -2.4662    1.0000 </r>
       <r>   -2.4572    1.0000 </r>
       <r>   -2.4210    1.0000 </r>
       <r>   -2.3864    1.0000 </r>
       <r>   -2.3326    1.0000 </r>
       <r>   -2.3033    1.0000 </r>
       <r>   -2.2659    1.0000 </r>
       <r>   -2.2651    1.0000 </r>
       <r>   -2.2537    1.0000 </r>
       <r>   -2.2452    1.0000 </r>
       <r>   -2.2259    1.0000 </r>
       <r>   -2.1631    1.0000 </r>
       <r>   -2.1361    1.0000 </r>
       <r>   -2.0523    1.0000 </r>
       <r>   -2.0240    1.0000 </r>
       <r>   -1.9439    1.0000 </r>
       <r>   -1.7933    1.0000 </r>
       <r>   -1.7483    1.0000 </r>
       <r>   -1.6888    1.0000 </r>
       <r>   -1.6205    1.0000 </r>
       <r>   -1.5987    1.0000 </r>
       <r>   -1.4618    1.0000 </r>
       <r>   -1.2730    1.0000 </r>
       <r>   -1.2707    1.0000 </r>
       <r>   -1.0085    1.0000 </r>
       <r>   -0.9869    1.0000 </r>
       <r>   -0.8226    1.0000 </r>
       <r>   -0.6317    1.0000 </r>
       <r>   -0.5761    1.0000 </r>
       <r>   -0.4382    1.0000 </r>
       <r>   -0.2488    1.0000 </r>
       <r>   -0.1805    1.0000 </r>
       <r>    0.0867    1.0000 </r>
       <r>    0.2253    1.0000 </r>
       <r>    0.2265    1.0000 </r>
       <r>    0.2652    1.0000 </r>
       <r>    0.5046    1.0000 </r>
       <r>    0.5058    1.0000 </r>
       <r>    0.5529    1.0000 </r>
       <r>    0.5530    1.0000 </r>
       <r>    0.5716    1.0000 </r>
       <r>    0.5732    1.0000 </r>
       <r>    0.5917    1.0000 </r>
       <r>    0.7394    1.0000 </r>
       <r>    0.7401    1.0000 </r>
       <r>    0.7505    1.0000 </r>
       <r>    0.7511    1.0000 </r>
       <r>    0.8283    1.0000 </r>
       <r>    0.8924    1.0000 </r>
       <r>    0.8931    1.0000 </r>
       <r>    0.9210    1.0000 </r>
       <r>    1.0291    1.0000 </r>
       <r>    1.0297    1.0000 </r>
       <r>    1.0549    1.0000 </r>
       <r>    1.0570    1.0000 </r>
       <r>    1.1063    1.0000 </r>
       <r>    1.1066    1.0000 </r>
       <r>    1.1707    1.0000 </r>
       <r>    1.2094    1.0000 </r>
       <r>    1.2129    1.0000 </r>
       <r>    1.2205    1.0000 </r>
       <r>    1.2702    1.0000 </r>
       <r>    1.2774    1.0000 </r>
       <r>    1.2805    1.0000 </r>
       <r>    1.2935    1.0000 </r>
       <r>    1.3648    1.0000 </r>
       <r>    1.3666    1.0000 </r>
       <r>    1.4170    1.0000 </r>
       <r>    1.4177    1.0000 </r>
       <r>    1.4698    1.0000 </r>
       <r>    1.4703    1.0000 </r>
       <r>    1.5116    1.0000 </r>
       <r>    1.5119    1.0000 </r>
       <r>    1.6187    1.0000 </r>
       <r>    1.6406    1.0000 </r>
       <r>    1.6635    1.0000 </r>
       <r>    1.7066    1.0000 </r>
       <r>    1.7078    1.0000 </r>
       <r>    1.7576    1.0000 </r>
       <r>    1.7600    1.0000 </r>
       <r>    1.7916    1.0000 </r>
       <r>    1.7926    1.0000 </r>
       <r>    1.8221    1.0000 </r>
       <r>    1.8563    1.0000 </r>
       <r>    1.8994    1.0000 </r>
       <r>    1.9026    1.0000 </r>
       <r>    1.9202    1.0000 </r>
       <r>    2.0439    1.0000 </r>
       <r>    2.0468    1.0000 </r>
       <r>    2.0571    1.0000 </r>
       <r>    2.0809    1.0000 </r>
       <r>    2.1114    1.0000 </r>
       <r>    2.1237    1.0000 </r>
       <r>    2.1243    1.0000 </r>
       <r>    2.2162    1.0000 </r>
       <r>    2.2480    1.0000 </r>
       <r>    2.2624    1.0000 </r>
       <r>    2.2630    1.0000 </r>
       <r>    2.3278    1.0000 </r>
       <r>    2.3548    1.0000 </r>
       <r>    2.3861    1.0000 </r>
       <r>    2.3898    1.0000 </r>
       <r>    2.4153    1.0000 </r>
       <r>    2.4867    1.0000 </r>
       <r>    2.4926    1.0000 </r>
       <r>    2.5828    1.0000 </r>
       <r>    2.5923    1.0000 </r>
       <r>    2.6328    1.0000 </r>
       <r>    2.6494    1.0000 </r>
       <r>    2.6515    1.0000 </r>
       <r>    2.7568    1.0000 </r>
       <r>    2.7570    1.0000 </r>
       <r>    2.8159    1.0000 </r>
       <r>    2.8589    1.0000 </r>
       <r>    2.9099    1.0000 </r>
       <r>    2.9632    1.0000 </r>
       <r>    2.9658    1.0000 </r>
       <r>    2.9730    1.0000 </r>
       <r>    2.9814    1.0000 </r>
       <r>    3.0270    1.0000 </r>
       <r>    3.0295    1.0000 </r>
       <r>    3.0357    1.0000 </r>
       <r>    3.0383    1.0000 </r>
       <r>    3.1569    1.0000 </r>
       <r>    3.1588    1.0000 </r>
       <r>    3.1723    1.0000 </r>
       <r>    3.1822    1.0000 </r>
       <r>    3.1867    1.0000 </r>
       <r>    3.1954    1.0000 </r>
       <r>    3.2021    1.0000 </r>
       <r>    3.2051    1.0000 </r>
       <r>    3.2234    1.0000 </r>
       <r>    3.2504    1.0000 </r>
       <r>    3.2622    1.0000 </r>
       <r>    3.2696    1.0000 </r>
       <r>    3.2725    1.0000 </r>
       <r>    3.3383    1.0000 </r>
       <r>    3.3875    1.0000 </r>
       <r>    3.3924    1.0000 </r>
       <r>    3.4235    1.0000 </r>
       <r>    3.4427    1.0000 </r>
       <r>    3.4590    1.0000 </r>
       <r>    3.4642    1.0000 </r>
       <r>    3.4675    1.0000 </r>
       <r>    3.6243    1.0000 </r>
       <r>    3.7079    1.0000 </r>
       <r>    3.7086    1.0000 </r>
       <r>    3.8827    1.0000 </r>
       <r>    3.9190    1.0000 </r>
       <r>    3.9836    1.0000 </r>
       <r>    4.0033    1.0000 </r>
       <r>    4.0436    1.0000 </r>
       <r>    4.1891    1.0000 </r>
       <r>    4.2055    1.0000 </r>
       <r>    4.2226    1.0000 </r>
       <r>    4.2244    1.0000 </r>
       <r>    4.2766    1.0000 </r>
       <r>    4.4911    1.0000 </r>
       <r>    4.7095    1.0000 </r>
       <r>    4.7105    1.0000 </r>
       <r>    4.7176    1.0000 </r>
       <r>    4.7826    0.0027 </r>
       <r>    4.8444    0.0000 </r>
       <r>    4.8745    0.0000 </r>
       <r>    4.8846    0.0000 </r>
       <r>    4.9339    0.0000 </r>
       <r>    4.9364    0.0000 </r>
       <r>    5.0603    0.0000 </r>
       <r>    5.0905    0.0000 </r>
       <r>    5.2400    0.0000 </r>
       <r>    5.2470    0.0000 </r>
       <r>    5.2943    0.0000 </r>
       <r>    5.3075    0.0000 </r>
       <r>    5.3189    0.0000 </r>
       <r>    5.3468    0.0000 </r>
       <r>    5.3562    0.0000 </r>
       <r>    5.4010    0.0000 </r>
       <r>    5.4299    0.0000 </r>
       <r>    5.4879    0.0000 </r>
       <r>    5.5037    0.0000 </r>
       <r>    5.5726    0.0000 </r>
       <r>    5.6548    0.0000 </r>
       <r>    5.6596    0.0000 </r>
       <r>    5.6770    0.0000 </r>
       <r>    5.6876    0.0000 </r>
       <r>    5.8234    0.0000 </r>
       <r>    5.8361    0.0000 </r>
       <r>    5.9325    0.0000 </r>
       <r>    5.9397    0.0000 </r>
       <r>    6.0305    0.0000 </r>
       <r>    6.0433    0.0000 </r>
       <r>    6.0478    0.0000 </r>
       <r>    6.1251    0.0000 </r>
       <r>    6.1802    0.0000 </r>
       <r>    6.1965    0.0000 </r>
       <r>    6.2371    0.0000 </r>
       <r>    6.3183    0.0000 </r>
       <r>    6.3371    0.0000 </r>
       <r>    6.3427    0.0000 </r>
       <r>    6.3719    0.0000 </r>
       <r>    6.4032    0.0000 </r>
       <r>    6.4320    0.0000 </r>
       <r>    6.4477    0.0000 </r>
       <r>    6.4544    0.0000 </r>
       <r>    6.4754    0.0000 </r>
       <r>    6.4872    0.0000 </r>
       <r>    6.5077    0.0000 </r>
       <r>    6.5181    0.0000 </r>
      </set>
      <set comment="kpoint 2">
       <r>   -7.7162    1.0000 </r>
       <r>   -7.4430    1.0000 </r>
       <r>   -7.4306    1.0000 </r>
       <r>   -7.2938    1.0000 </r>
       <r>   -7.1465    1.0000 </r>
       <r>   -7.0830    1.0000 </r>
       <r>   -6.9852    1.0000 </r>
       <r>   -6.8692    1.0000 </r>
       <r>   -6.8370    1.0000 </r>
       <r>   -6.6465    1.0000 </r>
       <r>   -6.5449    1.0000 </r>
       <r>   -6.4398    1.0000 </r>
       <r>   -6.4032    1.0000 </r>
       <r>   -6.3335    1.0000 </r>
       <r>   -6.2814    1.0000 </r>
       <r>   -6.2246    1.0000 </r>
       <r>   -6.2137    1.0000 </r>
       <r>   -6.1456    1.0000 </r>
       <r>   -6.1138    1.0000 </r>
       <r>   -6.0765    1.0000 </r>
       <r>   -5.9890    1.0000 </r>
       <r>   -5.9481    1.0000 </r>
       <r>   -5.9116    1.0000 </r>
       <r>   -5.8945    1.0000 </r>
       <r>   -5.8478    1.0000 </r>
       <r>   -5.7192    1.0000 </r>
       <r>   -5.6250    1.0000 </r>
       <r>   -5.5775    1.0000 </r>
       <r>   -5.5282    1.0000 </r>
       <r>   -5.4485    1.0000 </r>
       <r>   -5.4119    1.0000 </r>
       <r>   -5.3709    1.0000 </r>
       <r>   -5.3103    1.0000 </r>
       <r>   -5.2386    1.0000 </r>
       <r>   -5.2155    1.0000 </r>
       <r>   -5.2035    1.0000 </r>
       <r>   -5.1625    1.0000 </r>
       <r>   -5.1104    1.0000 </r>
       <r>   -5.0832    1.0000 </r>
       <r>   -5.0617    1.0000 </r>
[...]
       <r>    -5.2094    43.9270    70.4742 </r>
       <r>    -5.1548    52.2668    73.3293 </r>
       <r>    -5.1001    34.9073    75.2362 </r>
       <r>    -5.0455    65.3179    78.8042 </r>
       <r>    -4.9909    38.8849    80.9284 </r>
       <r>    -4.9362    31.9130    82.6717 </r>
       <r>    -4.8816    51.1025    85.4632 </r>
       <r>    -4.8270    16.9834    86.3910 </r>
       <r>    -4.7724    38.0957    88.4720 </r>
       <r>    -4.7177    43.7095    90.8597 </r>
       <r>    -4.6631    33.6617    92.6985 </r>
       <r>    -4.6085    29.1540    94.2911 </r>
       <r>    -4.5539    34.3263    96.1662 </r>
       <r>    -4.4992    25.7323    97.5718 </r>
       <r>    -4.4446    39.8007    99.7460 </r>
       <r>    -4.3900    30.3418   101.4035 </r>
       <r>    -4.3354    52.9015   104.2933 </r>
       <r>    -4.2807    42.3697   106.6078 </r>
       <r>    -4.2261    12.3918   107.2847 </r>
       <r>    -4.1715    19.8618   108.3697 </r>
       <r>    -4.1169    18.1900   109.3633 </r>
       <r>    -4.0622    13.2014   110.0845 </r>
       <r>    -4.0076    21.3369   111.2500 </r>
       <r>    -3.9530    19.6431   112.3230 </r>
       <r>    -3.8984    24.2133   113.6457 </r>
       <r>    -3.8437     6.5353   114.0027 </r>
       <r>    -3.7891    13.0631   114.7163 </r>
       <r>    -3.7345    20.4446   115.8331 </r>
       <r>    -3.6798    30.1986   117.4827 </r>
       <r>    -3.6252    11.1991   118.0945 </r>
       <r>    -3.5706    30.4032   119.7553 </r>
       <r>    -3.5160    10.0867   120.3063 </r>
       <r>    -3.4613    16.4099   121.2027 </r>
       <r>    -3.4067    23.0574   122.4623 </r>
       <r>    -3.3521    23.9670   123.7715 </r>
       <r>    -3.2975    14.4343   124.5600 </r>
       <r>    -3.2428     9.6043   125.0846 </r>
       <r>    -3.1882    26.7830   126.5477 </r>
       <r>    -3.1336    31.5128   128.2691 </r>
       <r>    -3.0790    26.7987   129.7331 </r>
       <r>    -3.0243    18.2195   130.7283 </r>
       <r>    -2.9697    28.2405   132.2710 </r>
       <r>    -2.9151    11.0223   132.8731 </r>
       <r>    -2.8605    27.5781   134.3796 </r>
       <r>    -2.8058    25.8412   135.7912 </r>
       <r>    -2.7512    45.0316   138.2511 </r>
       <r>    -2.6966    43.3128   140.6171 </r>
       <r>    -2.6420    54.7428   143.6075 </r>
       <r>    -2.5873    39.3481   145.7569 </r>
       <r>    -2.5327    58.6589   148.9612 </r>
       <r>    -2.4781    59.4676   152.2097 </r>
       <r>    -2.4234    56.0723   155.2727 </r>
       <r>    -2.3688    73.0593   159.2637 </r>
       <r>    -2.3142    61.2795   162.6112 </r>
       <r>    -2.2596    31.7532   164.3458 </r>
       <r>    -2.2049    55.1307   167.3574 </r>
       <r>    -2.1503    57.8461   170.5173 </r>
       <r>    -2.0957    34.3420   172.3933 </r>
       <r>    -2.0411    52.8183   175.2786 </r>
       <r>    -1.9864    44.6415   177.7172 </r>
       <r>    -1.9318    38.3680   179.8131 </r>
       <r>    -1.8772     8.1334   180.2575 </r>
       <r>    -1.8226    21.8544   181.4513 </r>
       <r>    -1.7679    33.6119   183.2874 </r>
       <r>    -1.7133    46.1068   185.8060 </r>
       <r>    -1.6587    38.5148   187.9099 </r>
       <r>    -1.6041    55.0336   190.9162 </r>
       <r>    -1.5494    26.7000   192.3748 </r>
       <r>    -1.4948    20.8265   193.5124 </r>
       <r>    -1.4402    36.3645   195.4989 </r>
       <r>    -1.3856    30.4784   197.1638 </r>
       <r>    -1.3309     8.5348   197.6300 </r>
       <r>    -1.2763    20.5245   198.7512 </r>
       <r>    -1.2217    18.0770   199.7387 </r>
       <r>    -1.1670     7.4082   200.1434 </r>
       <r>    -1.1124     9.0028   200.6351 </r>
       <r>    -1.0578    27.1822   202.1200 </r>
       <r>    -1.0032    34.9540   204.0294 </r>
       <r>    -0.9485    19.5084   205.0951 </r>
       <r>    -0.8939    11.8210   205.7408 </r>
       <r>    -0.8393    14.8451   206.5517 </r>
       <r>    -0.7847    16.5799   207.4574 </r>
       <r>    -0.7300    18.1876   208.4510 </r>
       <r>    -0.6754    21.3119   209.6151 </r>
       <r>    -0.6208    28.9036   211.1940 </r>
       <r>    -0.5662    47.5678   213.7925 </r>
       <r>    -0.5115    40.7557   216.0188 </r>
       <r>    -0.4569    19.1576   217.0653 </r>
       <r>    -0.4023    34.5310   218.9517 </r>
       <r>    -0.3477    19.1912   220.0000 </r>
       <r>    -0.2930     8.5399   220.4665 </r>
       <r>    -0.2384     8.8373   220.9492 </r>
       <r>    -0.1838    32.5782   222.7289 </r>
       <r>    -0.1292     4.9635   223.0000 </r>
       <r>    -0.0745     8.7674   223.4789 </r>
       <r>    -0.0199    15.0266   224.2998 </r>
       <r>     0.0347    21.7544   225.4881 </r>
       <r>     0.0893     1.2508   225.5565 </r>
       <r>     0.1440    14.4138   226.3439 </r>
       <r>     0.1986    42.0040   228.6384 </r>
       <r>     0.2532    69.1928   232.4181 </r>
       <r>     0.3079    61.9588   235.8027 </r>
       <r>     0.3625    36.7191   237.8085 </r>
       <r>     0.4171    37.2709   239.8445 </r>
       <r>     0.4717    50.3208   242.5933 </r>
       <r>     0.5264    46.4338   245.1298 </r>
       <r>     0.5810    31.6005   246.8560 </r>
       <r>     0.6356    71.8781   250.7825 </r>
       <r>     0.6902    34.9438   252.6913 </r>
       <r>     0.7449    89.0332   257.5548 </r>
       <r>     0.7995    92.8807   262.6286 </r>
       <r>     0.8541    70.2559   266.4665 </r>
       <r>     0.9087    56.9358   269.5766 </r>
       <r>     0.9634    51.9321   272.4136 </r>
       <r>     1.0180    47.7921   275.0243 </r>
       <r>     1.0726    79.4809   279.3660 </r>
       <r>     1.1272    69.7048   283.1737 </r>
       <r>     1.1819    66.1878   286.7893 </r>
       <r>     1.2365    81.9787   291.2675 </r>
       <r>     1.2911    60.5216   294.5736 </r>
       <r>     1.3457    96.5981   299.8504 </r>
       <r>     1.4004    64.6080   303.3797 </r>
       <r>     1.4550    80.2839   307.7653 </r>
       <r>     1.5096    60.5836   311.0748 </r>
       <r>     1.5643    51.4985   313.8880 </r>
       <r>     1.6189    80.7366   318.2983 </r>
       <r>     1.6735    83.0543   322.8352 </r>
       <r>     1.7281    75.2119   326.9438 </r>
       <r>     1.7828    89.3222   331.8231 </r>
       <r>     1.8374    84.8655   336.4591 </r>
       <r>     1.8920   100.1832   341.9317 </r>
       <r>     1.9466    82.8830   346.4593 </r>
       <r>     2.0013    49.0628   349.1394 </r>
       <r>     2.0559    60.8727   352.4647 </r>
       <r>     2.1105    56.7495   355.5647 </r>
       <r>     2.1651    69.9681   359.3868 </r>
       <r>     2.2198    71.7852   363.3081 </r>
       <r>     2.2744    70.5203   367.1603 </r>
       <r>     2.3290    85.8635   371.8507 </r>
       <r>     2.3836    59.2843   375.0892 </r>
       <r>     2.4383    78.1354   379.3575 </r>
       <r>     2.4929    72.4107   383.3130 </r>
       <r>     2.5475    79.2025   387.6396 </r>
       <r>     2.6021    60.3293   390.9351 </r>
       <r>     2.6568    52.5742   393.8071 </r>
       <r>     2.7114    83.3818   398.3619 </r>
       <r>     2.7660    63.7099   401.8422 </r>
       <r>     2.8207    41.8868   404.1303 </r>
       <r>     2.8753    46.0672   406.6468 </r>
       <r>     2.9299    83.3717   411.2010 </r>
       <r>     2.9845    59.2280   414.4365 </r>
       <r>     3.0392    43.5150   416.8136 </r>
       <r>     3.0938    91.2347   421.7973 </r>
       <r>     3.1484    44.9368   424.2521 </r>
       <r>     3.2030    73.1413   428.2475 </r>
       <r>     3.2577    97.5761   433.5777 </r>
       <r>     3.3123    63.1357   437.0266 </r>
       <r>     3.3669    61.7064   440.3974 </r>
       <r>     3.4215    57.8006   443.5549 </r>
       <r>     3.4762    67.4119   447.2374 </r>
       <r>     3.5308    27.4724   448.7381 </r>
       <r>     3.5854    46.9886   451.3050 </r>
       <r>     3.6400    35.4432   453.2411 </r>
       <r>     3.6947    30.6457   454.9152 </r>
       <r>     3.7493    32.9055   456.7127 </r>
       <r>     3.8039    32.6636   458.4970 </r>
       <r>     3.8585    30.3805   460.1566 </r>
       <r>     3.9132    22.6503   461.3939 </r>
       <r>     3.9678    29.5381   463.0074 </r>
       <r>     4.0224    41.6427   465.2822 </r>
       <r>     4.0771    30.1547   466.9295 </r>
       <r>     4.1317    12.7132   467.6240 </r>
       <r>     4.1863    14.6586   468.4248 </r>
       <r>     4.2409    28.8407   470.0002 </r>
       <r>     4.2956    27.3321   471.4933 </r>
       <r>     4.3502    18.4185   472.4995 </r>
       <r>     4.4048     0.1758   472.5091 </r>
       <r>     4.4594    15.5981   473.3612 </r>
       <r>     4.5141    31.4538   475.0794 </r>
       <r>     4.5687    14.5394   475.8736 </r>
       <r>     4.6233    11.7499   476.5155 </r>
       <r>     4.6779     4.6369   476.7688 </r>
       <r>     4.7326    23.0758   478.0293 </r>
       <r>     4.7872    33.4495   479.8565 </r>
       <r>     4.8418    48.2051   482.4898 </r>
       <r>     4.8964    18.5327   483.5022 </r>
       <r>     4.9511    28.2021   485.0428 </r>
       <r>     5.0057    22.1382   486.2521 </r>
       <r>     5.0603    32.1526   488.0085 </r>
       <r>     5.1149    53.6932   490.9415 </r>
       <r>     5.1696    16.6759   491.8525 </r>
       <r>     5.2242    39.8291   494.0282 </r>
       <r>     5.2788    44.1878   496.4420 </r>
       <r>     5.3335    49.8725   499.1663 </r>
       <r>     5.3881    41.5612   501.4366 </r>
       <r>     5.4427    28.5991   502.9989 </r>
       <r>     5.4973    28.1467   504.5365 </r>
       <r>     5.5520    54.7432   507.5269 </r>
       <r>     5.6066    34.7216   509.4236 </r>
       <r>     5.6612    50.1638   512.1639 </r>
       <r>     5.7158    65.1561   515.7231 </r>
       <r>     5.7705    41.2089   517.9742 </r>
       <r>     5.8251    43.6140   520.3567 </r>
       <r>     5.8797    58.7115   523.5639 </r>
       <r>     5.9343    60.1178   526.8479 </r>
       <r>     5.9890    45.1381   529.3136 </r>
       <r>     6.0436    47.1974   531.8918 </r>
       <r>     6.0982    64.4442   535.4122 </r>
       <r>     6.1528    51.2941   538.2142 </r>
       <r>     6.2075    65.1099   541.7709 </r>
       <r>     6.2621    40.9185   544.0061 </r>
       <r>     6.3167    16.2648   544.8946 </r>
       <r>     6.3713    57.1116   548.0144 </r>
       <r>     6.4260    65.5952   551.5976 </r>
       <r>     6.4806    59.3842   554.8416 </r>
       <r>     6.5352    69.5313   558.6399 </r>
       <r>     6.5899    37.2015   560.6720 </r>
       <r>     6.6445    33.6904   562.5124 </r>
       <r>     6.6991    39.9234   564.6933 </r>
       <r>     6.7537    59.0307   567.9179 </r>
       <r>     6.8084    28.1245   569.4543 </r>
       <r>     6.8630    54.2531   572.4179 </r>
       <r>     6.9176    28.9862   574.0014 </r>
       <r>     6.9722     9.1996   574.5039 </r>
       <r>     7.0269    17.3705   575.4528 </r>
       <r>     7.0815    10.0171   576.0000 </r>
       <r>     7.1361     0.0000   576.0000 </r>
       <r>     7.1907     0.0000   576.0000 </r>
       <r>     7.2454     0.0000   576.0000 </r>
       <r>     7.3000     0.0000   576.0000 </r>
       <r>     7.3546     0.0000   576.0000 </r>
       <r>     7.4092     0.0000   576.0000 </r>
       <r>     7.4639     0.0000   576.0000 </r>
       <r>     7.5185     0.0000   576.0000 </r>
       <r>     7.5731     0.0000   576.0000 </r>
       <r>     7.6277     0.0000   576.0000 </r>
       <r>     7.6824     0.0000   576.0000 </r>
       <r>     7.7370     0.0000   576.0000 </r>
       <r>     7.7916     0.0000   576.0000 </r>
      </set>
     </set>
    </array>
   </total>
  </dos>
 </calculation>
 <structure name="finalpos" >
  <crystal>
   <varray name="basis" >
    <v>       7.68059444       0.00000000       0.00000000 </v>
    <v>       0.00000000      16.29299927       0.00000000 </v>
    <v>       0.00000000       0.00000000      21.00086403 </v>
   </varray>
   <i name="volume">   2628.04643725 </i>
   <varray name="rec_basis" >
    <v>       0.13019826       0.00000000       0.00000000 </v>
    <v>       0.00000000       0.06137605       0.00000000 </v>
    <v>       0.00000000       0.00000000       0.04761709 </v>
   </varray>
  </crystal>
  <varray name="positions" >
   <v>       0.97851729       0.98567820       0.00000000 </v>
   <v>       0.85116369       0.94633603       0.89695972 </v>
   <v>       0.47851718       0.65234476       0.18286380 </v>
   <v>       0.22851723       0.48567814       0.27429566 </v>
   <v>       0.10116363       0.44633609       0.56019974 </v>
   <v>       0.60116363       0.69633609       0.56019974 </v>
   <v>       0.97851729       0.31901154       0.00000000 </v>
   <v>       0.72851723       0.15234485       0.09143190 </v>
   <v>       0.47851718       0.98567814       0.18286380 </v>
   <v>       0.22851723       0.81901151       0.27429566 </v>
   <v>       0.97851718       0.65234476       0.36572757 </v>
   <v>       0.10116363       0.19633615       0.56019974 </v>
   <v>       0.97851729       0.65234494       0.00000000 </v>
   <v>       0.72851723       0.48567820       0.09143190 </v>
   <v>       0.47851718       0.31901151       0.18286380 </v>
   <v>       0.22851723       0.15234487       0.27429566 </v>
   <v>       0.97851718       0.98567814       0.36572757 </v>
   <v>       0.35116363       0.44633609       0.62755173 </v>
   <v>       0.85116363       0.69633609       0.89695972 </v>
   <v>       0.22851725       0.81901145       0.09143190 </v>
   <v>       0.97851723       0.65234476       0.18286380 </v>
   <v>       0.72851729       0.48567814       0.27429563 </v>
   <v>       0.47851718       0.31901139       0.36572757 </v>
   <v>       0.22851712       0.15234470       0.45715946 </v>
   <v>       0.10116363       0.94633615       0.82960773 </v>
   <v>       0.22851725       0.15234485       0.09143190 </v>
   <v>       0.97851723       0.98567814       0.18286380 </v>
   <v>       0.72851729       0.81901151       0.27429563 </v>
   <v>       0.47851718       0.65234476       0.36572757 </v>
   <v>       0.22851712       0.48567808       0.45715946 </v>
   <v>       0.35116360       0.19633603       0.89695972 </v>
   <v>       0.22851725       0.48567820       0.09143190 </v>
   <v>       0.97851723       0.31901151       0.18286380 </v>
   <v>       0.72851729       0.15234487       0.27429563 </v>
   <v>       0.47851718       0.98567814       0.36572757 </v>
   <v>       0.22851712       0.81901139       0.45715946 </v>
   <v>       0.35116360       0.44633609       0.89695972 </v>
   <v>       0.47851729       0.06901149       0.09143189 </v>
   <v>       0.22851726       0.90234476       0.18286380 </v>
   <v>       0.97851729       0.73567814       0.27429566 </v>
   <v>       0.72851723       0.56901145       0.36572757 </v>
   <v>       0.47851723       0.40234464       0.45715940 </v>
   <v>       0.72851735       0.56901163       0.00000000 </v>
   <v>       0.47851729       0.40234488       0.09143189 </v>
   <v>       0.22851726       0.23567820       0.18286380 </v>
   <v>       0.97851729       0.06901154       0.27429566 </v>
   <v>       0.72851723       0.90234482       0.36572757 </v>
   <v>       0.47851723       0.73567808       0.45715940 </v>
   <v>       0.35116363       0.69633609       0.89695972 </v>
   <v>       0.47851729       0.73567820       0.09143189 </v>
   <v>       0.22851726       0.56901151       0.18286380 </v>
   <v>       0.97851729       0.40234485       0.27429566 </v>
   <v>       0.72851723       0.23567812       0.36572757 </v>
   <v>       0.47851723       0.06901138       0.45715940 </v>
   <v>       0.22851729       0.23567820       0.00000000 </v>
   <v>       0.97851723       0.06901149       0.09143190 </v>
   <v>       0.72851718       0.90234476       0.18286380 </v>
   <v>       0.47851729       0.73567814       0.27429563 </v>
   <v>       0.22851718       0.56901145       0.36572757 </v>
   <v>       0.60116363       0.19633615       0.56019974 </v>
   <v>       0.22851729       0.56901163       0.00000000 </v>
   <v>       0.97851723       0.40234488       0.09143190 </v>
   <v>       0.72851718       0.23567820       0.18286380 </v>
   <v>       0.47851729       0.06901154       0.27429563 </v>
   <v>       0.22851718       0.90234482       0.36572757 </v>
   <v>       0.60116363       0.94633603       0.56019974 </v>
   <v>       0.22851729       0.90234494       0.00000000 </v>
   <v>       0.97851723       0.73567820       0.09143190 </v>
   <v>       0.72851718       0.56901151       0.18286380 </v>
   <v>       0.47851729       0.40234485       0.27429563 </v>
   <v>       0.22851718       0.23567812       0.36572757 </v>
   <v>       0.97851706       0.06901138       0.45715946 </v>
   <v>       0.10116363       0.69633603       0.56019974 </v>
   <v>       0.85116369       0.32133609       0.69490373 </v>
   <v>       0.60116369       0.94633615       0.82960773 </v>
   <v>       0.97851706       0.73567808       0.45715946 </v>
   <v>       0.35116363       0.57133609       0.69490373 </v>
   <v>       0.10116363       0.19633615       0.82960773 </v>
   <v>       0.72851718       0.48567808       0.45715946 </v>
   <v>       0.85116369       0.82133615       0.69490373 </v>
   <v>       0.60116369       0.44633609       0.82960773 </v>
   <v>       0.60116357       0.44633606       0.56019974 </v>
   <v>       0.35116363       0.07133615       0.69490373 </v>
   <v>       0.10116363       0.69633609       0.82960773 </v>
   <v>       0.35116360       0.69633603       0.62755173 </v>
   <v>       0.10116363       0.32133609       0.76225573 </v>
   <v>       0.72851723       0.81901145       0.09143190 </v>
   <v>       0.85116363       0.94633603       0.62755173 </v>
   <v>       0.60116363       0.57133609       0.76225573 </v>
   <v>       0.47851729       0.65234494       0.00000000 </v>
   <v>       0.35116366       0.19633615       0.62755173 </v>
   <v>       0.10116363       0.82133615       0.76225573 </v>
   <v>       0.85116363       0.44633609       0.89695972 </v>
   <v>       0.85116357       0.44633606       0.62755173 </v>
   <v>       0.60116363       0.07133615       0.76225573 </v>
   <v>       0.72851735       0.90234494       0.00000000 </v>
   <v>       0.10116363       0.94633609       0.56019974 </v>
   <v>       0.85116375       0.57133615       0.69490373 </v>
   <v>       0.60116369       0.19633615       0.82960773 </v>
   <v>       0.97851718       0.31901139       0.36572757 </v>
   <v>       0.85116369       0.07133615       0.69490373 </v>
   <v>       0.60116369       0.69633609       0.82960773 </v>
   <v>       0.72851718       0.15234470       0.45715946 </v>
   <v>       0.35116366       0.32133615       0.69490373 </v>
   <v>       0.47851729       0.31901154       0.00000000 </v>
   <v>       0.97851706       0.40234464       0.45715946 </v>
   <v>       0.35116363       0.82133609       0.69490373 </v>
   <v>       0.10116363       0.44633615       0.82960773 </v>
   <v>       0.35116369       0.94633609       0.62755173 </v>
   <v>       0.10116363       0.57133615       0.76225573 </v>
   <v>       0.85116363       0.19633615       0.89695972 </v>
   <v>       0.72851718       0.81901139       0.45715946 </v>
   <v>       0.10116363       0.07133615       0.76225573 </v>
   <v>       0.47851729       0.98567820       0.00000000 </v>
   <v>       0.85116363       0.69633603       0.62755173 </v>
   <v>       0.60116363       0.32133606       0.76225573 </v>
   <v>       0.35116357       0.94633603       0.89695972 </v>
   <v>       0.85116363       0.19633615       0.62755173 </v>
   <v>       0.60116363       0.82133615       0.76225573 </v>
   <v>       0.72851735       0.23567820       0.00000000 </v>
  </varray>
 </structure>
</modeling>
