       N       E                     dE             d eps       ncg     rms          rms(c)
DAV:   1     0.196798942737E+04    0.19680E+04   -0.21442E+05 13824   0.173E+03
DAV:   2    -0.360164901636E+03   -0.23282E+04   -0.22449E+04 16144   0.215E+02
DAV:   3    -0.577538667444E+03   -0.21737E+03   -0.21095E+03 17080   0.574E+01
DAV:   4    -0.585299832722E+03   -0.77612E+01   -0.76392E+01 16312   0.117E+01
DAV:   5    -0.585588326490E+03   -0.28849E+00   -0.28687E+00 18168   0.222E+00    0.319E+01
DAV:   6    -0.576436253693E+03    0.91521E+01   -0.14244E+01 16624   0.783E+00    0.145E+01
DAV:   7    -0.576359006584E+03    0.77247E-01   -0.14039E+01 16728   0.822E+00    0.609E+00
DAV:   8    -0.575692282656E+03    0.66672E+00   -0.36978E+00 16736   0.463E+00    0.162E+00
DAV:   9    -0.575715914344E+03   -0.23632E-01   -0.98547E-01 16312   0.147E+00    0.108E+00
DAV:  10    -0.575707910617E+03    0.80037E-02   -0.13910E-01 16304   0.662E-01    0.701E-01
DAV:  11    -0.575709336280E+03   -0.14257E-02   -0.47620E-02 16696   0.405E-01    0.468E-01
DAV:  12    -0.575707106597E+03    0.22297E-02   -0.27167E-02 16928   0.325E-01    0.265E-01
DAV:  13    -0.575706439957E+03    0.66664E-03   -0.68359E-03 16712   0.159E-01    0.146E-01
DAV:  14    -0.575706469705E+03   -0.29748E-04   -0.17626E-03 15624   0.690E-02    0.755E-02
DAV:  15    -0.575706483157E+03   -0.13452E-04   -0.49875E-04 15880   0.364E-02    0.530E-02
DAV:  16    -0.575706484385E+03   -0.12281E-05   -0.16803E-04 15824   0.202E-02    0.340E-02
DAV:  17    -0.575706492671E+03   -0.82862E-05   -0.57591E-05 15960   0.126E-02    0.171E-02
DAV:  18    -0.575706497783E+03   -0.51119E-05   -0.16526E-05 15888   0.617E-03    0.129E-02
DAV:  19    -0.575706500587E+03   -0.28035E-05   -0.45627E-06 15832   0.366E-03    0.852E-03
DAV:  20    -0.575706503559E+03   -0.29726E-05   -0.40577E-06 16440   0.276E-03    0.487E-03
DAV:  21    -0.575706504857E+03   -0.12974E-05   -0.16994E-06 16280   0.183E-03    0.365E-03
DAV:  22    -0.575706505359E+03   -0.50184E-06   -0.50721E-07 14160   0.106E-03    0.266E-03
DAV:  23    -0.575706505836E+03   -0.47710E-06   -0.80062E-07 15496   0.117E-03    0.186E-03
DAV:  24    -0.575706505681E+03    0.15475E-06   -0.22140E-07  9928   0.717E-04    0.137E-03
DAV:  25    -0.575706505459E+03    0.22252E-06   -0.71498E-08  7968   0.409E-04    0.786E-04
DAV:  26    -0.575706505374E+03    0.85007E-07   -0.26872E-08  7944   0.270E-04
   1 F= -.57570651E+03 E0= -.57570559E+03  d E =-.182574E-02  mag=     1.0000
