 vasp.6.4.3 19Mar24 (build Oct 22 2024 11:23:12) complex                        
  
 executed on             LinuxIFC date 2025.04.30  06:59:10
 running   16 mpi-ranks, on    1 nodes
 distrk:  each k-point on   16 cores,    1 groups
 distr:  one band on NCORE=  16 cores,    1 groups


--------------------------------------------------------------------------------------------------------


 INCAR:
   SYSTEM = Si011 and Ge011 interface calculation
   ISTART = 0
   ICHARG = 2
   LWAVE = .FALSE.
   LREAL = AUTO
   ENCUT = 700
   ENAUG = 900
   ADDGRID = .TRUE.
   LMAXMIX = 6
   LASPH = .TRUE.
   LMIXTAU = .TRUE.
   NCORE = 16
   NELM = 100
   NBANDS = 346
   EDIFF = 1d-7
   AMIX = 0.6
   ISMEAR = 0
   SIGMA = 0.01
   NELECT = 576
   ISPIN = 2
   NUPDOWN = 1
   LVTOT = .FALSE.
   LVHAR = .TRUE.

 POTCAR:    PAW_PBE Si 05Jan2001                  
 POTCAR:    PAW_PBE Ge 05Jan2001                  
 -----------------------------------------------------------------------------
|                                                                             |
|           W    W    AA    RRRRR   N    N  II  N    N   GGGG   !!!           |
|           W    W   A  A   R    R  NN   N  II  NN   N  G    G  !!!           |
|           W    W  A    A  R    R  N N  N  II  N N  N  G       !!!           |
|           W WW W  AAAAAA  RRRRR   N  N N  II  N  N N  G  GGG   !            |
|           WW  WW  A    A  R   R   N   NN  II  N   NN  G    G                |
|           W    W  A    A  R    R  N    N  II  N    N   GGGG   !!!           |
|                                                                             |
|     You use a magnetic or noncollinear calculation, but did not specify     |
|     the initial magnetic moment with the MAGMOM tag. Note that a            |
|     default of 6.944e-3 will be used for all atoms. This ferromagnetic      |
|     setup may break the symmetry of the crystal, in particular it may       |
|     rule out finding an antiferromagnetic solution. Thence, we              |
|     recommend setting the initial magnetic moment manually or verifying     |
|     carefully that this magnetic setup is desired.                          |
|                                                                             |
 -----------------------------------------------------------------------------

 -----------------------------------------------------------------------------
|                                                                             |
|           W    W    AA    RRRRR   N    N  II  N    N   GGGG   !!!           |
|           W    W   A  A   R    R  NN   N  II  NN   N  G    G  !!!           |
|           W    W  A    A  R    R  N N  N  II  N N  N  G       !!!           |
|           W WW W  AAAAAA  RRRRR   N  N N  II  N  N N  G  GGG   !            |
|           WW  WW  A    A  R   R   N   NN  II  N   NN  G    G                |
|           W    W  A    A  R    R  N    N  II  N    N   GGGG   !!!           |
|                                                                             |
|     For optimal performance we recommend to set                             |
|       NCORE = 2 up to number-of-cores-per-socket                            |
|     NCORE specifies how many cores store one orbital (NPAR=cpu/NCORE).      |
|     This setting can greatly improve the performance of VASP for DFT.       |
|     The default, NCORE=1 might be grossly inefficient on modern             |
|     multi-core architectures or massively parallel machines. Do your        |
|     own testing! More info at https://www.vasp.at/wiki/index.php/NCORE      |
|     Unfortunately you need to use the default for GW and RPA                |
|     calculations (for HF NCORE is supported but not extensively tested      |
|     yet).                                                                   |
|                                                                             |
 -----------------------------------------------------------------------------

 POTCAR:    PAW_PBE Si 05Jan2001                  
   VRHFIN =Si: s2p2                                                                                 
   LEXCH  = PE                                                                                      
   EATOM  =   103.0669 eV,    7.5752 Ry                                                             
                                                                                                    
   TITEL  = PAW_PBE Si 05Jan2001                                                                    
   LULTRA =        F    use ultrasoft PP ?                                                          
   IUNSCR =        1    unscreen: 0-lin 1-nonlin 2-no                                               
   RPACOR =    1.500    partial core radius                                                         
   POMASS =   28.085; ZVAL   =    4.000    mass and valenz                                          
   RCORE  =    1.900    outmost cutoff radius                                                       
   RWIGS  =    2.480; RWIGS  =    1.312    wigner-seitz radius (au A)                               
   ENMAX  =  245.345; ENMIN  =  184.009 eV                                                          
   ICORE  =        2    local potential                                                             
   LCOR   =        T    correct aug charges                                                         
   LPAW   =        T    paw PP                                                                      
   EAUG   =  322.069                                                                                
   DEXC   =    0.000                                                                                
   RMAX   =    1.950    core radius for proj-oper                                                   
   RAUG   =    1.300    factor for augmentation sphere                                              
   RDEP   =    1.993    radius for radial grids                                                     
   RDEPT  =    1.837    core radius for aug-charge                                                  
                                                                                                    
   Atomic configuration                                                                             
    6 entries                                                                                       
     n  l   j            E        occ.                                                              
     1  0  0.50     -1785.8828   2.0000                                                             
     2  0  0.50      -139.4969   2.0000                                                             
     2  1  1.50       -95.5546   6.0000                                                             
     3  0  0.50       -10.8127   2.0000                                                             
     3  1  0.50        -4.0811   2.0000                                                             
     3  2  1.50        -4.0817   0.0000                                                             
   Description                                                                                      
     l       E           TYP  RCUT    TYP  RCUT                                                     
     0    -10.8127223     23  1.900                                                                 
     0     -7.6451159     23  1.900                                                                 
     1     -4.0811372     23  1.900                                                                 
     1      2.4879257     23  1.900                                                                 
     2     -4.0817478      7  1.900                                                                 
  local pseudopotential read in
  partial core-charges read in
  partial kinetic energy density read in
  atomic valenz-charges read in
  non local Contribution for L=           0  read in
    real space projection operators read in
  non local Contribution for L=           0  read in
    real space projection operators read in
  non local Contribution for L=           1  read in
    real space projection operators read in
  non local Contribution for L=           1  read in
    real space projection operators read in
    PAW grid and wavefunctions read in
 
   number of l-projection  operators is LMAX  =           4
   number of lm-projection operators is LMMAX =           8
 
 POTCAR:    PAW_PBE Ge 05Jan2001                  
   VRHFIN =Ge: s2p2                                                                                 
   LEXCH  = PE                                                                                      
   EATOM  =   104.9960 eV,    7.7170 Ry                                                             
                                                                                                    
   TITEL  = PAW_PBE Ge 05Jan2001                                                                    
   LULTRA =        F    use ultrasoft PP ?                                                          
   IUNSCR =        1    unscreen: 0-lin 1-nonlin 2-no                                               
   RPACOR =    2.170    partial core radius                                                         
   POMASS =   72.610; ZVAL   =    4.000    mass and valenz                                          
   RCORE  =    2.300    outmost cutoff radius                                                       
   RWIGS  =    2.300; RWIGS  =    1.217    wigner-seitz radius (au A)                               
   ENMAX  =  173.807; ENMIN  =  130.355 eV                                                          
   ICORE  =        3    local potential                                                             
   LCOR   =        T    correct aug charges                                                         
   LPAW   =        T    paw PP                                                                      
   EAUG   =  385.843                                                                                
   DEXC   =    0.000                                                                                
   RMAX   =    2.342    core radius for proj-oper                                                   
   RAUG   =    1.300    factor for augmentation sphere                                              
   RDEP   =    2.318    radius for radial grids                                                     
   RDEPT  =    2.103    core radius for aug-charge                                                  
                                                                                                    
   Atomic configuration                                                                             
   10 entries                                                                                       
     n  l   j            E        occ.                                                              
     1  0  0.50    -10959.8463   2.0000                                                             
     2  0  0.50     -1371.6056   2.0000                                                             
     2  1  1.50     -1198.4791   6.0000                                                             
     3  0  0.50      -168.4733   2.0000                                                             
     3  1  1.50      -115.6019   6.0000                                                             
     3  2  2.50       -29.3106  10.0000                                                             
     4  0  0.50       -11.7309   2.0000                                                             
     4  1  0.50        -3.8952   2.0000                                                             
     4  2  1.50        -4.0817   0.0000                                                             
     4  3  2.50        -4.0817   0.0000                                                             
   Description                                                                                      
     l       E           TYP  RCUT    TYP  RCUT                                                     
     0    -11.7309493     23  2.300                                                                 
     0     -7.4578696     23  2.300                                                                 
     1     -3.8952261     23  2.300                                                                 
     1      6.1178114     23  2.300                                                                 
     2     -4.0817478     23  2.300                                                                 
     3     -1.3605826      7  2.300                                                                 
  local pseudopotential read in
  partial core-charges read in
  partial kinetic energy density read in
  atomic valenz-charges read in
  non local Contribution for L=           0  read in
    real space projection operators read in
  non local Contribution for L=           0  read in
    real space projection operators read in
  non local Contribution for L=           1  read in
    real space projection operators read in
  non local Contribution for L=           1  read in
    real space projection operators read in
  non local Contribution for L=           2  read in
    real space projection operators read in
    PAW grid and wavefunctions read in
 
   number of l-projection  operators is LMAX  =           5
   number of lm-projection operators is LMMAX =          13
 
 Optimization of the real space projectors (new method)

 maximal supplied QI-value         = 19.84
 optimisation between [QCUT,QGAM] = [ 13.49, 26.99] = [ 50.98,203.92] Ry 
 Optimized for a Real-space Cutoff    1.07 Angstroem

   l    n(q)    QCUT    max X(q) W(low)/X(q) W(high)/X(q)  e(spline) 
   0      9    13.493   159.560    0.22E-03    0.15E-03    0.72E-07
   0      9    13.493   115.863    0.21E-03    0.15E-03    0.71E-07
   1      8    13.493    88.339    0.15E-03    0.11E-03    0.13E-06
   1      8    13.493    48.592    0.15E-03    0.10E-03    0.13E-06
 Optimization of the real space projectors (new method)

 maximal supplied QI-value         = 16.25
 optimisation between [QCUT,QGAM] = [ 13.49, 26.98] = [ 50.95,203.80] Ry 
 Optimized for a Real-space Cutoff    1.25 Angstroem

   l    n(q)    QCUT    max X(q) W(low)/X(q) W(high)/X(q)  e(spline) 
   0     10    13.489    65.336    0.91E-04    0.11E-03    0.34E-06
   0     10    13.489    52.220    0.89E-04    0.11E-03    0.34E-06
   1     10    13.489    36.409    0.22E-03    0.27E-03    0.14E-06
   1     10    13.489    21.334    0.21E-03    0.27E-03    0.14E-06
   2      9    13.489     4.673    0.11E-03    0.12E-03    0.19E-06
  PAW_PBE Si 05Jan2001                  :
 energy of atom  1       EATOM= -103.0669
 kinetic energy error for atom=    0.0003 (will be added to EATOM!!)
  PAW_PBE Ge 05Jan2001                  :
 energy of atom  2       EATOM= -104.9960
 kinetic energy error for atom=    0.0001 (will be added to EATOM!!)
 
 
 POSCAR: fcc Si+fcc Ge
  positions in direct lattice
  No initial velocities read in


 exchange-correlation table for PE
   RHO(1)=    0.500       N(1)  =     2000
   RHO(2)=  100.500       N(2)  =     4000
 


--------------------------------------------------------------------------------------------------------


 ion  position               nearest neighbor table
   1  0.126  0.075  0.909-  84 2.37  25 2.37  77 2.43 114 2.70
   2  0.000  0.750  0.080-  39 2.37  50 2.37  55 2.37  56 2.37
   3  0.000  0.500  0.161-  56 2.37  51 2.37  40 2.37  57 2.37
   4  0.000  0.250  0.241-  52 2.37  41 2.37  57 2.37  58 2.37
   5  0.000  0.000  0.322-  53 2.37  58 2.37  85 2.37  59 2.37
   6  0.126  0.825  0.493-  79 2.37  30 2.37  92 2.43 109 2.70
   7  0.376  0.575  0.909- 120 2.37  61 2.37 119 2.43  43 2.55
   8  0.333  0.083  0.080-  45 2.37  62 2.37  38 2.37 132 2.37
   9  0.333  0.833  0.161-  62 2.37  63 2.37  39 2.37  46 2.37
  10  0.333  0.583  0.241-  64 2.37  40 2.37  63 2.37  47 2.37
  11  0.333  0.333  0.322-  65 2.37  41 2.37  64 2.37  48 2.37
  12  0.376  0.325  0.493- 115 2.37  66 2.37 134 2.43  48 2.55
  13  0.667  0.667  0.000-  43 2.37  50 2.37  67 2.37  37 2.45
  14  0.709  0.241  0.909- 138 2.37 126 2.37 125 2.43  31 2.45
  15  0.667  0.167  0.161-  68 2.37  45 2.37  52 2.37  69 2.37
  16  0.667  0.917  0.241-  46 2.37  53 2.37  69 2.37  70 2.37
  17  0.667  0.667  0.322-  47 2.37  54 2.37  70 2.37  71 2.37
  18  0.667  0.417  0.402-  48 2.37  71 2.37  72 2.37  42 2.45
  19  0.000  0.500  0.000-  67 2.37  56 2.37  90 2.37  78 2.56  61 2.70
  20  0.000  0.250  0.080-  57 2.37  68 2.37  90 2.37  38 2.37
  21  0.000  0.000  0.161-  38 2.37  69 2.37  58 2.37  39 2.37
  22  0.000  0.750  0.241-  70 2.37  59 2.37  39 2.37  40 2.37
  23  0.000  0.500  0.322-  71 2.37  60 2.37  40 2.37  41 2.37
  24  0.000  0.250  0.402-  72 2.37  41 2.37  85 2.37  73 2.56  66 2.70
  25  0.043  0.908  0.909- 144 2.37   1 2.37 113 2.43  55 2.45 114 2.56
  26  0.333  0.583  0.080-  63 2.37  44 2.37  56 2.37  43 2.37
  27  0.333  0.333  0.161-  44 2.37  45 2.37  57 2.37  64 2.37
  28  0.333  0.083  0.241-  46 2.37  58 2.37  45 2.37  65 2.37
  29  0.333  0.833  0.322-  47 2.37  59 2.37  46 2.37 127 2.37
  30  0.043  0.658  0.493- 139 2.37   6 2.37 128 2.43  60 2.45 109 2.56
  31  0.667  0.167  0.000- 132 2.37  68 2.37  49 2.37  14 2.45
  32  0.667  0.917  0.080-  69 2.37  62 2.37  49 2.37  50 2.37
  33  0.667  0.667  0.161-  50 2.37  63 2.37  70 2.37  51 2.37
  34  0.667  0.417  0.241-  64 2.37  51 2.37  71 2.37  52 2.37
  35  0.709  0.991  0.493- 133 2.37 121 2.37 140 2.43  36 2.45
  36  0.667  0.917  0.402- 127 2.37  53 2.37  54 2.37  35 2.45
  37  0.709  0.741  0.909- 120 2.37 144 2.37 143 2.43  13 2.45
  38  0.083  0.083  0.080-  21 2.37   8 2.37 114 2.37  20 2.37
  39  0.083  0.833  0.161-   2 2.37   9 2.37  22 2.37  21 2.37
  40  0.083  0.583  0.241-  10 2.37   3 2.37  23 2.37  22 2.37
  41  0.083  0.333  0.322-  11 2.37   4 2.37  24 2.37  23 2.37
  42  0.709  0.491  0.493- 115 2.37 139 2.37 122 2.43  18 2.45
  43  0.417  0.667  0.000-  96 2.37  13 2.37  26 2.37 120 2.45   7 2.55
  44  0.417  0.417  0.080-  27 2.37  26 2.37 108 2.37 102 2.37
  45  0.417  0.167  0.161-   8 2.37  27 2.37  15 2.37  28 2.37
  46  0.417  0.917  0.241-  28 2.37  16 2.37   9 2.37  29 2.37
  47  0.417  0.667  0.322-  29 2.37  17 2.37  10 2.37  91 2.37
  48  0.417  0.417  0.402-  91 2.37  18 2.37  11 2.37 115 2.45  12 2.55
  49  0.750  0.000  0.000- 114 2.37  32 2.37  31 2.37 144 2.56
  50  0.750  0.750  0.080-  33 2.37   2 2.37  13 2.37  32 2.37
  51  0.750  0.500  0.161- 108 2.37   3 2.37  34 2.37  33 2.37
  52  0.750  0.250  0.241-   4 2.37  15 2.37 103 2.37  34 2.37
  53  0.750  0.000  0.322-   5 2.37  16 2.37  36 2.37 103 2.37
  54  0.750  0.750  0.402- 109 2.37  17 2.37  36 2.37 139 2.56
  55  0.083  0.833  0.000-  96 2.37   2 2.37 114 2.37  25 2.45
  56  0.083  0.583  0.080-   3 2.37  26 2.37  19 2.37   2 2.37
  57  0.083  0.333  0.161-  20 2.37  27 2.37   4 2.37   3 2.37
  58  0.083  0.083  0.241-  28 2.37  21 2.37   5 2.37   4 2.37
  59  0.083  0.833  0.322-  29 2.37  22 2.37 109 2.37   5 2.37
  60  0.083  0.583  0.402-  91 2.37  23 2.37 109 2.37  30 2.45
  61  0.126  0.575  0.909-   7 2.37  78 2.37  95 2.43  19 2.70
  62  0.417  0.917  0.080-   9 2.37   8 2.37  32 2.37  96 2.37
  63  0.417  0.667  0.161-  26 2.37   9 2.37  33 2.37  10 2.37
  64  0.417  0.417  0.241-  10 2.37  34 2.37  27 2.37  11 2.37
  65  0.417  0.167  0.322-  11 2.37 103 2.37  97 2.37  28 2.37
  66  0.126  0.325  0.493-  12 2.37  73 2.37  74 2.43  24 2.70
  67  0.750  0.500  0.000-  19 2.37 108 2.37  13 2.37 126 2.56
  68  0.750  0.250  0.080-  15 2.37  20 2.37  31 2.37 108 2.37
  69  0.750  0.000  0.161-  32 2.37  21 2.37  16 2.37  15 2.37
  70  0.750  0.750  0.241-  22 2.37  17 2.37  33 2.37  16 2.37
  71  0.750  0.500  0.322-  23 2.37  18 2.37  34 2.37  17 2.37
  72  0.750  0.250  0.402-  24 2.37 103 2.37  18 2.37 121 2.56
  73  0.043  0.158  0.493- 121 2.37  66 2.37 110 2.43  85 2.45  24 2.56
  74  0.043  0.408  0.576- 122 2.37 128 2.37  66 2.43 111 2.43
  75  0.043  0.658  0.660- 123 2.37 129 2.37 128 2.43 112 2.43
  76  0.043  0.908  0.743- 124 2.37 130 2.37 113 2.43 129 2.43
  77  0.043  0.158  0.826- 125 2.37 131 2.37 130 2.43   1 2.43
  78  0.043  0.408  0.909- 126 2.37  61 2.37 131 2.43  90 2.45  19 2.56
  79  0.376  0.825  0.493- 133 2.37   6 2.37 116 2.43 127 2.55
  80  0.376  0.075  0.576- 134 2.37 110 2.37 133 2.43 117 2.43
  81  0.376  0.325  0.660- 135 2.37 111 2.37 134 2.43 118 2.43
  82  0.376  0.575  0.743- 136 2.37 112 2.37 119 2.43 135 2.43
  83  0.376  0.825  0.826- 137 2.37 113 2.37 136 2.43 120 2.43
  84  0.376  0.075  0.909- 138 2.37   1 2.37 137 2.43 132 2.55
  85  0.083  0.083  0.402-  97 2.37   5 2.37  24 2.37  73 2.45
  86  0.709  0.741  0.576- 116 2.37 140 2.37 139 2.43 123 2.43
  87  0.709  0.991  0.660- 117 2.37 141 2.37 140 2.43 124 2.43
  88  0.709  0.241  0.743- 118 2.37 142 2.37 125 2.43 141 2.43
  89  0.709  0.491  0.826- 119 2.37 143 2.37 142 2.43 126 2.43
  90  0.083  0.333  0.000- 102 2.37  20 2.37  19 2.37  78 2.45
  91  0.333  0.583  0.402-  48 2.37  60 2.37  47 2.37 115 2.79
  92  0.043  0.908  0.576- 140 2.37 110 2.37 129 2.43   6 2.43
  93  0.043  0.158  0.660- 141 2.37 111 2.37 130 2.43 110 2.43
  94  0.043  0.408  0.743- 142 2.37 112 2.37 131 2.43 111 2.43
  95  0.043  0.658  0.826- 143 2.37 113 2.37 112 2.43  61 2.43
  96  0.333  0.833  0.000-  43 2.37  55 2.37  62 2.37 120 2.79
  97  0.333  0.083  0.402- 127 2.37  85 2.37  65 2.37 133 2.79
  98  0.376  0.575  0.576- 116 2.37 128 2.37 115 2.43 135 2.43
  99  0.376  0.825  0.660- 117 2.37 129 2.37 116 2.43 136 2.43
 100  0.376  0.075  0.743- 118 2.37 130 2.37 137 2.43 117 2.43
 101  0.376  0.325  0.826- 119 2.37 131 2.37 118 2.43 138 2.43
 102  0.333  0.333  0.000- 132 2.37  90 2.37  44 2.37 138 2.79
 103  0.667  0.167  0.322-  65 2.37  52 2.37  72 2.37  53 2.37
 104  0.709  0.241  0.576- 134 2.37 122 2.37 121 2.43 141 2.43
 105  0.709  0.491  0.660- 135 2.37 123 2.37 122 2.43 142 2.43
 106  0.709  0.741  0.743- 136 2.37 124 2.37 143 2.43 123 2.43
 107  0.709  0.991  0.826- 137 2.37 125 2.37 124 2.43 144 2.43
 108  0.667  0.417  0.080-  51 2.37  44 2.37  67 2.37  68 2.37
 109  0.000  0.750  0.402-  54 2.37  59 2.37  60 2.37  30 2.56   6 2.70
 110  0.126  0.075  0.576-  80 2.37  92 2.37  73 2.43  93 2.43
 111  0.126  0.325  0.660-  81 2.37  93 2.37  74 2.43  94 2.43
 112  0.126  0.575  0.743-  82 2.37  94 2.37  95 2.43  75 2.43
 113  0.126  0.825  0.826-  83 2.37  95 2.37  76 2.43  25 2.43
 114  0.000  0.000  0.000-  49 2.37  38 2.37  55 2.37  25 2.56   1 2.70
 115  0.459  0.491  0.493-  12 2.37  42 2.37  98 2.43  48 2.45  91 2.79
 116  0.459  0.741  0.576-  98 2.37  86 2.37  79 2.43  99 2.43
 117  0.459  0.991  0.660-  99 2.37  87 2.37  80 2.43 100 2.43
 118  0.459  0.241  0.743- 100 2.37  88 2.37 101 2.43  81 2.43
 119  0.459  0.491  0.826- 101 2.37  89 2.37  82 2.43   7 2.43
 120  0.459  0.741  0.909-   7 2.37  37 2.37  83 2.43  43 2.45  96 2.79
 121  0.793  0.158  0.493-  73 2.37  35 2.37 104 2.43  72 2.56
 122  0.793  0.408  0.576-  74 2.37 104 2.37  42 2.43 105 2.43
 123  0.793  0.658  0.660-  75 2.37 105 2.37  86 2.43 106 2.43
 124  0.793  0.908  0.743-  76 2.37 106 2.37 107 2.43  87 2.43
 125  0.793  0.158  0.826-  77 2.37 107 2.37  88 2.43  14 2.43
 126  0.793  0.408  0.909-  78 2.37  14 2.37  89 2.43  67 2.56
 127  0.417  0.917  0.402-  97 2.37  36 2.37  29 2.37 133 2.45  79 2.55
 128  0.126  0.575  0.576-  98 2.37  74 2.37  75 2.43  30 2.43
 129  0.126  0.825  0.660-  99 2.37  75 2.37  92 2.43  76 2.43
 130  0.126  0.075  0.743- 100 2.37  76 2.37  77 2.43  93 2.43
 131  0.126  0.325  0.826- 101 2.37  77 2.37  94 2.43  78 2.43
 132  0.417  0.167  0.000- 102 2.37  31 2.37   8 2.37 138 2.45  84 2.55
 133  0.459  0.991  0.493-  79 2.37  35 2.37  80 2.43 127 2.45  97 2.79
 134  0.459  0.241  0.576-  80 2.37 104 2.37  81 2.43  12 2.43
 135  0.459  0.491  0.660-  81 2.37 105 2.37  98 2.43  82 2.43
 136  0.459  0.741  0.743-  82 2.37 106 2.37  83 2.43  99 2.43
 137  0.459  0.991  0.826-  83 2.37 107 2.37 100 2.43  84 2.43
 138  0.459  0.241  0.909-  84 2.37  14 2.37 101 2.43 132 2.45 102 2.79
 139  0.793  0.658  0.493-  30 2.37  42 2.37  86 2.43  54 2.56
 140  0.793  0.908  0.576-  92 2.37  86 2.37  87 2.43  35 2.43
 141  0.793  0.158  0.660-  93 2.37  87 2.37  88 2.43 104 2.43
 142  0.793  0.408  0.743-  94 2.37  88 2.37  89 2.43 105 2.43
 143  0.793  0.658  0.826-  95 2.37  89 2.37 106 2.43  37 2.43
 144  0.793  0.908  0.909-  25 2.37  37 2.37 107 2.43  49 2.56
 
  LATTYP: Found a simple orthorhombic cell.
 ALAT       =     9.4916384250
 B/A-ratio  =     1.4142135624
 C/A-ratio  =     2.5383314005
  
  Lattice vectors:
  
 A1 = (   9.4916384250,   0.0000000000,   0.0000000000)
 A2 = (   0.0000000000,  13.4232037900,   0.0000000000)
 A3 = (   0.0000000000,   0.0000000000,  24.0929238560)


Analysis of symmetry for initial positions (statically):
=====================================================================
 Subroutine PRICEL returns:
 Original cell was already a primitive cell.
 

 Routine SETGRP: Setting up the symmetry group for a 
 simple orthorhombic supercell.


 Subroutine GETGRP returns: Found  1 space group operations
 (whereof  1 operations were pure point group operations)
 out of a pool of  8 trial point group operations.


The static configuration has the point symmetry C_1 .


Analysis of symmetry for dynamics (positions and initial velocities):
=====================================================================
 Subroutine PRICEL returns:
 Original cell was already a primitive cell.
 

 Routine SETGRP: Setting up the symmetry group for a 
 simple orthorhombic supercell.


 Subroutine GETGRP returns: Found  1 space group operations
 (whereof  1 operations were pure point group operations)
 out of a pool of  8 trial point group operations.


The dynamic configuration has the point symmetry C_1 .


Analysis of structural, dynamic, and magnetic symmetry:
=====================================================================
 Subroutine PRICEL returns:
 Original cell was already a primitive cell.
 

 Routine SETGRP: Setting up the symmetry group for a 
 simple orthorhombic supercell.


 Subroutine GETGRP returns: Found  1 space group operations
 (whereof  1 operations were pure point group operations)
 out of a pool of  8 trial point group operations.


The overall configuration has the point symmetry C_1 .


 Subroutine INISYM returns: Found  1 space group operations
 (whereof  1 operations are pure point group operations),
 and found     1 'primitive' translations


----------------------------------------------------------------------------------------

                                     Primitive cell                                     

  volume of cell :    3069.6360

  direct lattice vectors                    reciprocal lattice vectors
     9.491638425  0.000000000  0.000000000     0.105355889  0.000000000  0.000000000
     0.000000000 13.423203790  0.000000000     0.000000000  0.074497863  0.000000000
     0.000000000  0.000000000 24.092923856     0.000000000  0.000000000  0.041505963

  length of vectors
     9.491638425 13.423203790 24.092923856     0.105355889  0.074497863  0.041505963

  position of ions in fractional coordinates (direct lattice)
     0.125886525  0.074561404  0.908686882
     0.000000000  0.750000000  0.080416665
     0.000000000  0.500000000  0.160833329
     0.000000000  0.250000000  0.241249994
     0.000000000  0.000000000  0.321666659
     0.125886525  0.824561404  0.493396442
     0.375886525  0.574561404  0.908686882
     0.333333333  0.083333333  0.080416665
     0.333333333  0.833333333  0.160833329
     0.333333333  0.583333333  0.241249994
     0.333333333  0.333333333  0.321666659
     0.375886525  0.324561404  0.493396442
     0.666666667  0.666666667  0.000000000
     0.709219858  0.241228070  0.908686882
     0.666666667  0.166666667  0.160833329
     0.666666667  0.916666667  0.241249994
     0.666666667  0.666666667  0.321666659
     0.666666667  0.416666667  0.402083324
     0.000000000  0.500000000  0.000000000
     0.000000000  0.250000000  0.080416665
     0.000000000  0.000000000  0.160833329
     0.000000000  0.750000000  0.241249994
     0.000000000  0.500000000  0.321666659
     0.000000000  0.250000000  0.402083324
     0.042553191  0.907894737  0.908686882
     0.333333333  0.583333333  0.080416665
     0.333333333  0.333333333  0.160833329
     0.333333333  0.083333333  0.241249994
     0.333333333  0.833333333  0.321666659
     0.042553191  0.657894737  0.493396442
     0.666666667  0.166666667  0.000000000
     0.666666667  0.916666667  0.080416665
     0.666666667  0.666666667  0.160833329
     0.666666667  0.416666667  0.241249994
     0.709219858  0.991228070  0.493396442
     0.666666667  0.916666667  0.402083324
     0.709219858  0.741228070  0.908686882
     0.083333333  0.083333333  0.080416665
     0.083333333  0.833333333  0.160833329
     0.083333333  0.583333333  0.241249994
     0.083333333  0.333333333  0.321666659
     0.709219858  0.491228070  0.493396442
     0.416666667  0.666666667  0.000000000
     0.416666667  0.416666667  0.080416665
     0.416666667  0.166666667  0.160833329
     0.416666667  0.916666667  0.241249994
     0.416666667  0.666666667  0.321666659
     0.416666667  0.416666667  0.402083324
     0.750000000  0.000000000  0.000000000
     0.750000000  0.750000000  0.080416665
     0.750000000  0.500000000  0.160833329
     0.750000000  0.250000000  0.241249994
     0.750000000  0.000000000  0.321666659
     0.750000000  0.750000000  0.402083324
     0.083333333  0.833333333  0.000000000
     0.083333333  0.583333333  0.080416665
     0.083333333  0.333333333  0.160833329
     0.083333333  0.083333333  0.241249994
     0.083333333  0.833333333  0.321666659
     0.083333333  0.583333333  0.402083324
     0.125886525  0.574561404  0.908686882
     0.416666667  0.916666667  0.080416665
     0.416666667  0.666666667  0.160833329
     0.416666667  0.416666667  0.241249994
     0.416666667  0.166666667  0.321666659
     0.125886525  0.324561404  0.493396442
     0.750000000  0.500000000  0.000000000
     0.750000000  0.250000000  0.080416665
     0.750000000  0.000000000  0.160833329
     0.750000000  0.750000000  0.241249994
     0.750000000  0.500000000  0.321666659
     0.750000000  0.250000000  0.402083324
     0.042553191  0.157894737  0.493396442
     0.042553191  0.407894737  0.576454530
     0.042553191  0.657894737  0.659512618
     0.042553191  0.907894737  0.742570706
     0.042553191  0.157894737  0.825628794
     0.042553191  0.407894737  0.908686882
     0.375886525  0.824561404  0.493396442
     0.375886525  0.074561404  0.576454530
     0.375886525  0.324561404  0.659512618
     0.375886525  0.574561404  0.742570706
     0.375886525  0.824561404  0.825628794
     0.375886525  0.074561404  0.908686882
     0.083333333  0.083333333  0.402083324
     0.709219858  0.741228070  0.576454530
     0.709219858  0.991228070  0.659512618
     0.709219858  0.241228070  0.742570706
     0.709219858  0.491228070  0.825628794
     0.083333333  0.333333333  0.000000000
     0.333333333  0.583333333  0.402083324
     0.042553191  0.907894737  0.576454530
     0.042553191  0.157894737  0.659512618
     0.042553191  0.407894737  0.742570706
     0.042553191  0.657894737  0.825628794
     0.333333333  0.833333333  0.000000000
     0.333333333  0.083333333  0.402083324
     0.375886525  0.574561404  0.576454530
     0.375886525  0.824561404  0.659512618
     0.375886525  0.074561404  0.742570706
     0.375886525  0.324561404  0.825628794
     0.333333333  0.333333333  0.000000000
     0.666666667  0.166666667  0.321666659
     0.709219858  0.241228070  0.576454530
     0.709219858  0.491228070  0.659512618
     0.709219858  0.741228070  0.742570706
     0.709219858  0.991228070  0.825628794
     0.666666667  0.416666667  0.080416665
     0.000000000  0.750000000  0.402083324
     0.125886525  0.074561404  0.576454530
     0.125886525  0.324561404  0.659512618
     0.125886525  0.574561404  0.742570706
     0.125886525  0.824561404  0.825628794
     0.000000000  0.000000000  0.000000000
     0.459219858  0.491228070  0.493396442
     0.459219858  0.741228070  0.576454530
     0.459219858  0.991228070  0.659512618
     0.459219858  0.241228070  0.742570706
     0.459219858  0.491228070  0.825628794
     0.459219858  0.741228070  0.908686882
     0.792553191  0.157894737  0.493396442
     0.792553191  0.407894737  0.576454530
     0.792553191  0.657894737  0.659512618
     0.792553191  0.907894737  0.742570706
     0.792553191  0.157894737  0.825628794
     0.792553191  0.407894737  0.908686882
     0.416666667  0.916666667  0.402083324
     0.125886525  0.574561404  0.576454530
     0.125886525  0.824561404  0.659512618
     0.125886525  0.074561404  0.742570706
     0.125886525  0.324561404  0.825628794
     0.416666667  0.166666667  0.000000000
     0.459219858  0.991228070  0.493396442
     0.459219858  0.241228070  0.576454530
     0.459219858  0.491228070  0.659512618
     0.459219858  0.741228070  0.742570706
     0.459219858  0.991228070  0.825628794
     0.459219858  0.241228070  0.908686882
     0.792553191  0.657894737  0.493396442
     0.792553191  0.907894737  0.576454530
     0.792553191  0.157894737  0.659512618
     0.792553191  0.407894737  0.742570706
     0.792553191  0.657894737  0.825628794
     0.792553191  0.907894737  0.908686882

  ion indices of the primitive-cell ions
   primitive index   ion index
                 1           1
                 2           2
                 3           3
                 4           4
                 5           5
                 6           6
                 7           7
                 8           8
                 9           9
                10          10
                11          11
                12          12
                13          13
                14          14
                15          15
                16          16
                17          17
                18          18
                19          19
                20          20
                21          21
                22          22
                23          23
                24          24
                25          25
                26          26
                27          27
                28          28
                29          29
                30          30
                31          31
                32          32
                33          33
                34          34
                35          35
                36          36
                37          37
                38          38
                39          39
                40          40
                41          41
                42          42
                43          43
                44          44
                45          45
                46          46
                47          47
                48          48
                49          49
                50          50
                51          51
                52          52
                53          53
                54          54
                55          55
                56          56
                57          57
                58          58
                59          59
                60          60
                61          61
                62          62
                63          63
                64          64
                65          65
                66          66
                67          67
                68          68
                69          69
                70          70
                71          71
                72          72
                73          73
                74          74
                75          75
                76          76
                77          77
                78          78
                79          79
                80          80
                81          81
                82          82
                83          83
                84          84
                85          85
                86          86
                87          87
                88          88
                89          89
                90          90
                91          91
                92          92
                93          93
                94          94
                95          95
                96          96
                97          97
                98          98
                99          99
               100         100
               101         101
               102         102
               103         103
               104         104
               105         105
               106         106
               107         107
               108         108
               109         109
               110         110
               111         111
               112         112
               113         113
               114         114
               115         115
               116         116
               117         117
               118         118
               119         119
               120         120
               121         121
               122         122
               123         123
               124         124
               125         125
               126         126
               127         127
               128         128
               129         129
               130         130
               131         131
               132         132
               133         133
               134         134
               135         135
               136         136
               137         137
               138         138
               139         139
               140         140
               141         141
               142         142
               143         143
               144         144

----------------------------------------------------------------------------------------

 
 
 KPOINTS: Automatic KPOINTS generated             

Automatic generation of k-mesh.
 Grid dimensions read from file:
 generate k-points for:    3    2    1

 Generating k-lattice:

  Cartesian coordinates                     Fractional coordinates (reciprocal lattice)
     0.035118630  0.000000000  0.000000000     0.333333333  0.000000000  0.000000000
     0.000000000  0.037248932  0.000000000     0.000000000  0.500000000  0.000000000
     0.000000000  0.000000000  0.041505963     0.000000000  0.000000000  1.000000000

  Length of vectors
     0.035118630  0.037248932  0.041505963

  Shift w.r.t. Gamma in fractional coordinates (k-lattice)
     0.000000000  0.000000000  0.000000000

 
 Subroutine IBZKPT returns following result:
 ===========================================
 
 Found      4 irreducible k-points:
 
 Following reciprocal coordinates:
            Coordinates               Weight
  0.000000  0.000000  0.000000      1.000000
  0.333333  0.000000  0.000000      2.000000
  0.000000  0.500000  0.000000      1.000000
  0.333333  0.500000  0.000000      2.000000
 
 Following cartesian coordinates:
            Coordinates               Weight
  0.000000  0.000000  0.000000      1.000000
  0.035119  0.000000  0.000000      2.000000
  0.000000  0.037249  0.000000      1.000000
  0.035119  0.037249  0.000000      2.000000
 


--------------------------------------------------------------------------------------------------------




 Dimension of arrays:
   k-points           NKPTS =      4   k-points in BZ     NKDIM =      4   number of bands    NBANDS=    346
   number of dos      NEDOS =    301   number of ions     NIONS =    144
   non local maximal  LDIM  =      5   non local SUM 2l+1 LMDIM =     13
   total plane-waves  NPLWV = 921600
   max r-space proj   IRMAX =   2483   max aug-charges    IRDMAX= 130725
   dimension x,y,z NGX =    64 NGY =   90 NGZ =  160
   dimension x,y,z NGXF=   128 NGYF=  180 NGZF=  320
   support grid    NGXF=   256 NGYF=  360 NGZF=  640
   ions per type =              72  72
   NGX,Y,Z   is equivalent  to a cutoff of  11.21, 11.15, 11.04 a.u.
   NGXF,Y,Z  is equivalent  to a cutoff of  22.42, 22.29, 22.08 a.u.

 SYSTEM =  Si011 and Ge011 interface calculation   
 POSCAR =  fcc Si+fcc Ge                           

 Startparameter for this run:
   NWRITE =      2    write-flag & timer
   PREC   = normal    normal or accurate (medium, high low for compatibility)
   ISTART =      0    job   : 0-new  1-cont  2-samecut
   ICHARG =      2    charge: 1-file 2-atom 10-const
   ISPIN  =      2    spin polarized calculation?
   LNONCOLLINEAR =      F non collinear calculations
   LSORBIT =      F    spin-orbit coupling
   INIWAV =      1    electr: 0-lowe 1-rand  2-diag
   LASPH  =      T    aspherical Exc in radial PAW
 Electronic Relaxation 1
   ENCUT  =  700.0 eV  51.45 Ry    7.17 a.u.  20.48 28.96 51.98*2*pi/ulx,y,z
   ENINI  =  700.0     initial cutoff
   ENAUG  =  900.0 eV  augmentation charge cutoff
   NELM   =    100;   NELMIN=  2; NELMDL= -5     # of ELM steps 
   EDIFF  = 0.1E-06   stopping-criterion for ELM
   LREAL  =      T    real-space projection
   NLSPLINE    = F    spline interpolate recip. space projectors
   LCOMPAT=      F    compatible to vasp.4.4
   GGA_COMPAT  = T    GGA compatible to vasp.4.4-vasp.4.6
   LMAXPAW     = -100 max onsite density
   LMAXMIX     =    6 max onsite mixed and CHGCAR
   VOSKOWN=      0    Vosko Wilk Nusair interpolation
   ROPT   =   -0.00050  -0.00050
 Ionic relaxation
   EDIFFG = 0.1E-05   stopping-criterion for IOM
   NSW    =      0    number of steps for IOM
   NBLOCK =      1;   KBLOCK =      1    inner block; outer block 
   IBRION =     -1    ionic relax: 0-MD 1-quasi-New 2-CG
   NFREE  =      0    steps in history (QN), initial steepest desc. (CG)
   ISIF   =      2    stress and relaxation
   IWAVPR =     10    prediction:  0-non 1-charg 2-wave 3-comb
   ISYM   =      2    0-nonsym 1-usesym 2-fastsym
   LCORR  =      T    Harris-Foulkes like correction to forces

   POTIM  = 0.5000    time-step for ionic-motion
   TEIN   =    0.0    initial temperature
   TEBEG  =    0.0;   TEEND  =   0.0 temperature during run
   SMASS  =  -3.00    Nose mass-parameter (am)
   estimated Nose-frequenzy (Omega)   =  0.10E-29 period in steps = 0.13E+47 mass=  -0.206E-26a.u.
   SCALEE = 1.0000    scale energy and forces
   NPACO  =    256;   APACO  = 10.0  distance and # of slots for P.C.
   PSTRESS=    0.0 pullay stress

  Mass of Ions in am
   POMASS =  28.09 72.61
  Ionic Valenz
   ZVAL   =   4.00  4.00
  Atomic Wigner-Seitz radii
   RWIGS  =  -1.00 -1.00
  virtual crystal weights 
   VCA    =   1.00  1.00
   NELECT =     576.0000    total number of electrons
   NUPDOWN=       1.0000    fix difference up-down

 DOS related values:
   EMIN   =  10.00;   EMAX   =-10.00  energy-range for DOS
   EFERMI =   0.00;   METHOD = LEGACY      
   ISMEAR =     0;   SIGMA  =   0.01  broadening in eV -4-tet -1-fermi 0-gaus

 Electronic relaxation 2 (details)
   IALGO  =     38    algorithm
   LDIAG  =      T    sub-space diagonalisation (order eigenvalues)
   LSUBROT=      F    optimize rotation matrix (better conditioning)
   TURBO    =      0    0=normal 1=particle mesh
   IRESTART =      0    0=no restart 2=restart with 2 vectors
   NREBOOT  =      0    no. of reboots
   NMIN     =      0    reboot dimension
   EREF     =   0.00    reference energy to select bands
   IMIX   =      4    mixing-type and parameters
     AMIX     =   0.60;   BMIX     =  1.00
     AMIX_MAG =   2.40;   BMIX_MAG =  1.00
     AMIN     =   0.10
     WC   =   100.;   INIMIX=   1;  MIXPRE=   1;  MAXMIX= -45

 Intra band minimization:
   WEIMIN = 0.0000     energy-eigenvalue tresh-hold
   EBREAK =  0.72E-10  absolut break condition
   DEPER  =   0.30     relativ break condition  

   TIME   =   0.40     timestep for ELM

  volume/ion in A,a.u.               =      21.32       143.85
  Fermi-wavevector in a.u.,A,eV,Ry     =   0.937246  1.771137 11.951754  0.878429
  Thomas-Fermi vector in A             =   2.064337
 
 Write flags
   LWAVE        =      F    write WAVECAR
   LDOWNSAMPLE  =      F    k-point downsampling of WAVECAR
   LCHARG       =      T    write CHGCAR
   LVTOT        =      F    write LOCPOT, total local potential
   LVHAR        =      T    write LOCPOT, Hartree potential only
   WRT_POTENTIAL=  hartree ionic  ! write potential to hdf5 file
   LELF         =      F    write electronic localiz. function (ELF)
   LORBIT       =      0    0 simple, 1 ext, 2 COOP (PROOUT), +10 PAW based schemes


 Dipole corrections
   LMONO      =      F    monopole corrections only (constant potential shift)
   LDIPOL     =      F    correct potential (dipole corrections)
   IDIPOL     =      0    1-x, 2-y, 3-z, 4-all directions 
   EPSILON    =  1.0000000 bulk dielectric constant
   LVACPOTAV  =      F  vacuum potentials using an averaging scheme for the charge density
   VACPOTFLAT =  0.1000000 required flatness to determine vacuum potential
 Exchange correlation treatment:
   GGA     = PE    functional components
   XC_C    = 1    coefficients multiplying the functional components
   LIBXC   =     F    Libxc                    
   VOSKOWN =     0    Vosko Wilk Nusair interpolation
   LHFCALC =     F    Hartree Fock is set to
   LHFONE  =     F    Hartree Fock one center treatment
   AEXX    =    0.0000 exact exchange contribution

 Parameters of functionals:
   PE:
     No parameter
 
 Van der Waals corrections
   IVDW    =     0    specifies the selected vdW correction

 Linear response parameters
   LEPSILON=     F    determine dielectric tensor
   LRPA    =     F    only Hartree local field effects (RPA)
   LNABLA  =     F    use nabla operator in PAW spheres
   LVEL    =     F    velocity operator in full k-point grid
   CSHIFT  =0.1000    complex shift for real part using Kramers Kronig
   OMEGAMAX=  -1.0    maximum frequency
   DEG_THRESHOLD= 0.2000000E-02 threshold for treating states as degnerate
   RTIME   =   -0.100 relaxation time in fs
  (WPLASMAI=    0.000 imaginary part of plasma frequency in eV, 0.658/RTIME)
   DFIELD  = 0.0000000 0.0000000 0.0000000 field for delta impulse in time
 
  Optional k-point grid parameters
   LKPOINTS_OPT  =     F    use optional k-point grid
   KPOINTS_OPT_MODE=     1    mode for optional k-point grid
 
 Orbital magnetization related:
   ORBITALMAG=     F  switch on orbital magnetization
   LCHIMAG   =     F  perturbation theory with respect to B field
   DQ        =  0.001000  dq finite difference perturbation B field
   LLRAUG    =     F  two centre corrections for induced B field
   LBONE     =     F  B-component reconstruction in AE one-centre
   LVGVCALC  =     T  calculate vGv susceptibility
   LVGVAPPL  =     F  apply vGv susceptibility instead of pGv for G=0

 Random number generation:
   RANDOM_GENERATOR = DEFAULT
   PCG_SEED         = not used


--------------------------------------------------------------------------------------------------------


 Static calculation
 charge density and potential will be updated during run
 spin polarized calculation
 Variant of blocked Davidson
 Davidson routine will perform the subspace rotation
 perform sub-space diagonalisation
    after iterative eigenvector-optimisation
 modified Broyden-mixing scheme, WC =      100.0
 initial mixing is a Kerker type mixing with AMIX =  0.6000 and BMIX =      1.0000
 Hartree-type preconditioning will be used
 using additional bands           58
 real space projection scheme for non local part
 use partial core corrections
 calculate Harris-corrections to forces 
   (improved forces if not selfconsistent)
 use gradient corrections 
 use of overlap-Matrix (Vanderbilt PP)
 Gauss-broadening in eV      SIGMA  =   0.01


--------------------------------------------------------------------------------------------------------


  energy-cutoff  :      700.00
  volume of cell :     3069.64
      direct lattice vectors                 reciprocal lattice vectors
     9.491638425  0.000000000  0.000000000     0.105355889  0.000000000  0.000000000
     0.000000000 13.423203790  0.000000000     0.000000000  0.074497863  0.000000000
     0.000000000  0.000000000 24.092923856     0.000000000  0.000000000  0.041505963

  length of vectors
     9.491638425 13.423203790 24.092923856     0.105355889  0.074497863  0.041505963


 
 k-points in units of 2pi/SCALE and weight: Automatic KPOINTS generated             
   0.00000000  0.00000000  0.00000000       0.167
   0.03511863  0.00000000  0.00000000       0.333
   0.00000000  0.03724893  0.00000000       0.167
   0.03511863  0.03724893  0.00000000       0.333
 
 k-points in reciprocal lattice and weights: Automatic KPOINTS generated             
   0.00000000  0.00000000  0.00000000       0.167
   0.33333333  0.00000000  0.00000000       0.333
   0.00000000  0.50000000  0.00000000       0.167
   0.33333333  0.50000000  0.00000000       0.333
 
 position of ions in fractional coordinates (direct lattice) 
   0.12588652  0.07456140  0.90868688
   0.00000000  0.75000000  0.08041667
   0.00000000  0.50000000  0.16083333
   0.00000000  0.25000000  0.24124999
   0.00000000  0.00000000  0.32166666
   0.12588652  0.82456140  0.49339644
   0.37588652  0.57456140  0.90868688
   0.33333333  0.08333333  0.08041667
   0.33333333  0.83333333  0.16083333
   0.33333333  0.58333333  0.24124999
   0.33333333  0.33333333  0.32166666
   0.37588652  0.32456140  0.49339644
   0.66666667  0.66666667  0.00000000
   0.70921986  0.24122807  0.90868688
   0.66666667  0.16666667  0.16083333
   0.66666667  0.91666667  0.24124999
   0.66666667  0.66666667  0.32166666
   0.66666667  0.41666667  0.40208332
   0.00000000  0.50000000  0.00000000
   0.00000000  0.25000000  0.08041667
   0.00000000  0.00000000  0.16083333
   0.00000000  0.75000000  0.24124999
   0.00000000  0.50000000  0.32166666
   0.00000000  0.25000000  0.40208332
   0.04255319  0.90789474  0.90868688
   0.33333333  0.58333333  0.08041667
   0.33333333  0.33333333  0.16083333
   0.33333333  0.08333333  0.24124999
   0.33333333  0.83333333  0.32166666
   0.04255319  0.65789474  0.49339644
   0.66666667  0.16666667  0.00000000
   0.66666667  0.91666667  0.08041667
   0.66666667  0.66666667  0.16083333
   0.66666667  0.41666667  0.24124999
   0.70921986  0.99122807  0.49339644
   0.66666667  0.91666667  0.40208332
   0.70921986  0.74122807  0.90868688
   0.08333333  0.08333333  0.08041667
   0.08333333  0.83333333  0.16083333
   0.08333333  0.58333333  0.24124999
   0.08333333  0.33333333  0.32166666
   0.70921986  0.49122807  0.49339644
   0.41666667  0.66666667  0.00000000
   0.41666667  0.41666667  0.08041667
   0.41666667  0.16666667  0.16083333
   0.41666667  0.91666667  0.24124999
   0.41666667  0.66666667  0.32166666
   0.41666667  0.41666667  0.40208332
   0.75000000  0.00000000  0.00000000
   0.75000000  0.75000000  0.08041667
   0.75000000  0.50000000  0.16083333
   0.75000000  0.25000000  0.24124999
   0.75000000  0.00000000  0.32166666
   0.75000000  0.75000000  0.40208332
   0.08333333  0.83333333  0.00000000
   0.08333333  0.58333333  0.08041667
   0.08333333  0.33333333  0.16083333
   0.08333333  0.08333333  0.24124999
   0.08333333  0.83333333  0.32166666
   0.08333333  0.58333333  0.40208332
   0.12588652  0.57456140  0.90868688
   0.41666667  0.91666667  0.08041667
   0.41666667  0.66666667  0.16083333
   0.41666667  0.41666667  0.24124999
   0.41666667  0.16666667  0.32166666
   0.12588652  0.32456140  0.49339644
   0.75000000  0.50000000  0.00000000
   0.75000000  0.25000000  0.08041667
   0.75000000  0.00000000  0.16083333
   0.75000000  0.75000000  0.24124999
   0.75000000  0.50000000  0.32166666
   0.75000000  0.25000000  0.40208332
   0.04255319  0.15789474  0.49339644
   0.04255319  0.40789474  0.57645453
   0.04255319  0.65789474  0.65951262
   0.04255319  0.90789474  0.74257071
   0.04255319  0.15789474  0.82562879
   0.04255319  0.40789474  0.90868688
   0.37588652  0.82456140  0.49339644
   0.37588652  0.07456140  0.57645453
   0.37588652  0.32456140  0.65951262
   0.37588652  0.57456140  0.74257071
   0.37588652  0.82456140  0.82562879
   0.37588652  0.07456140  0.90868688
   0.08333333  0.08333333  0.40208332
   0.70921986  0.74122807  0.57645453
   0.70921986  0.99122807  0.65951262
   0.70921986  0.24122807  0.74257071
   0.70921986  0.49122807  0.82562879
   0.08333333  0.33333333  0.00000000
   0.33333333  0.58333333  0.40208332
   0.04255319  0.90789474  0.57645453
   0.04255319  0.15789474  0.65951262
   0.04255319  0.40789474  0.74257071
   0.04255319  0.65789474  0.82562879
   0.33333333  0.83333333  0.00000000
   0.33333333  0.08333333  0.40208332
   0.37588652  0.57456140  0.57645453
   0.37588652  0.82456140  0.65951262
   0.37588652  0.07456140  0.74257071
   0.37588652  0.32456140  0.82562879
   0.33333333  0.33333333  0.00000000
   0.66666667  0.16666667  0.32166666
   0.70921986  0.24122807  0.57645453
   0.70921986  0.49122807  0.65951262
   0.70921986  0.74122807  0.74257071
   0.70921986  0.99122807  0.82562879
   0.66666667  0.41666667  0.08041667
   0.00000000  0.75000000  0.40208332
   0.12588652  0.07456140  0.57645453
   0.12588652  0.32456140  0.65951262
   0.12588652  0.57456140  0.74257071
   0.12588652  0.82456140  0.82562879
   0.00000000  0.00000000  0.00000000
   0.45921986  0.49122807  0.49339644
   0.45921986  0.74122807  0.57645453
   0.45921986  0.99122807  0.65951262
   0.45921986  0.24122807  0.74257071
   0.45921986  0.49122807  0.82562879
   0.45921986  0.74122807  0.90868688
   0.79255319  0.15789474  0.49339644
   0.79255319  0.40789474  0.57645453
   0.79255319  0.65789474  0.65951262
   0.79255319  0.90789474  0.74257071
   0.79255319  0.15789474  0.82562879
   0.79255319  0.40789474  0.90868688
   0.41666667  0.91666667  0.40208332
   0.12588652  0.57456140  0.57645453
   0.12588652  0.82456140  0.65951262
   0.12588652  0.07456140  0.74257071
   0.12588652  0.32456140  0.82562879
   0.41666667  0.16666667  0.00000000
   0.45921986  0.99122807  0.49339644
   0.45921986  0.24122807  0.57645453
   0.45921986  0.49122807  0.65951262
   0.45921986  0.74122807  0.74257071
   0.45921986  0.99122807  0.82562879
   0.45921986  0.24122807  0.90868688
   0.79255319  0.65789474  0.49339644
   0.79255319  0.90789474  0.57645453
   0.79255319  0.15789474  0.65951262
   0.79255319  0.40789474  0.74257071
   0.79255319  0.65789474  0.82562879
   0.79255319  0.90789474  0.90868688
 
 position of ions in cartesian coordinates  (Angst):
   1.19486938  1.00085292 21.89292386
   0.00000000 10.06740284  1.93747259
   0.00000000  6.71160190  3.87494515
   0.00000000  3.35580095  5.81241774
   0.00000000  0.00000000  7.74989032
   1.19486938 11.06825576 11.88736291
   3.56777898  7.71245482 21.89292386
   3.16387947  1.11860031  1.93747259
   3.16387947 11.18600315  3.87494515
   3.16387947  7.83020221  5.81241774
   3.16387947  4.47440126  7.74989032
   3.56777898  4.35665387 11.88736291
   6.32775895  8.94880253  0.00000000
   6.73165846  3.23805354 21.89292386
   6.32775895  2.23720064  3.87494515
   6.32775895 12.30460348  5.81241774
   6.32775895  8.94880253  7.74989032
   6.32775895  5.59300158  9.68736291
   0.00000000  6.71160190  0.00000000
   0.00000000  3.35580095  1.93747259
   0.00000000  0.00000000  3.87494515
   0.00000000 10.06740284  5.81241774
   0.00000000  6.71160190  7.74989032
   0.00000000  3.35580095  9.68736291
   0.40389950 12.18685607 21.89292386
   3.16387947  7.83020221  1.93747259
   3.16387947  4.47440126  3.87494515
   3.16387947  1.11860031  5.81241774
   3.16387947 11.18600315  7.74989032
   0.40389950  8.83105513 11.88736291
   6.32775895  2.23720064  0.00000000
   6.32775895 12.30460348  1.93747259
   6.32775895  8.94880253  3.87494515
   6.32775895  5.59300158  5.81241774
   6.73165846 13.30545639 11.88736291
   6.32775895 12.30460348  9.68736291
   6.73165846  9.94965544 21.89292386
   0.79096987  1.11860031  1.93747259
   0.79096987 11.18600315  3.87494515
   0.79096987  7.83020221  5.81241774
   0.79096987  4.47440126  7.74989032
   6.73165846  6.59385449 11.88736291
   3.95484935  8.94880253  0.00000000
   3.95484935  5.59300158  1.93747259
   3.95484935  2.23720064  3.87494515
   3.95484935 12.30460348  5.81241774
   3.95484935  8.94880253  7.74989032
   3.95484935  5.59300158  9.68736291
   7.11872882  0.00000000  0.00000000
   7.11872882 10.06740284  1.93747259
   7.11872882  6.71160190  3.87494515
   7.11872882  3.35580095  5.81241774
   7.11872882  0.00000000  7.74989032
   7.11872882 10.06740284  9.68736291
   0.79096987 11.18600315  0.00000000
   0.79096987  7.83020221  1.93747259
   0.79096987  4.47440126  3.87494515
   0.79096987  1.11860031  5.81241774
   0.79096987 11.18600315  7.74989032
   0.79096987  7.83020221  9.68736291
   1.19486938  7.71245482 21.89292386
   3.95484935 12.30460348  1.93747259
   3.95484935  8.94880253  3.87494515
   3.95484935  5.59300158  5.81241774
   3.95484935  2.23720064  7.74989032
   1.19486938  4.35665387 11.88736291
   7.11872882  6.71160190  0.00000000
   7.11872882  3.35580095  1.93747259
   7.11872882  0.00000000  3.87494515
   7.11872882 10.06740284  5.81241774
   7.11872882  6.71160190  7.74989032
   7.11872882  3.35580095  9.68736291
   0.40389950  2.11945323 11.88736291
   0.40389950  5.47525418 13.88847510
   0.40389950  8.83105513 15.88958729
   0.40389950 12.18685607 17.89069948
   0.40389950  2.11945323 19.89181167
   0.40389950  5.47525418 21.89292386
   3.56777898 11.06825576 11.88736291
   3.56777898  1.00085292 13.88847510
   3.56777898  4.35665387 15.88958729
   3.56777898  7.71245482 17.89069948
   3.56777898 11.06825576 19.89181167
   3.56777898  1.00085292 21.89292386
   0.79096987  1.11860031  9.68736291
   6.73165846  9.94965544 13.88847510
   6.73165846 13.30545639 15.88958729
   6.73165846  3.23805354 17.89069948
   6.73165846  6.59385449 19.89181167
   0.79096987  4.47440126  0.00000000
   3.16387947  7.83020221  9.68736291
   0.40389950 12.18685607 13.88847510
   0.40389950  2.11945323 15.88958729
   0.40389950  5.47525418 17.89069948
   0.40389950  8.83105513 19.89181167
   3.16387947 11.18600315  0.00000000
   3.16387947  1.11860031  9.68736291
   3.56777898  7.71245482 13.88847510
   3.56777898 11.06825576 15.88958729
   3.56777898  1.00085292 17.89069948
   3.56777898  4.35665387 19.89181167
   3.16387947  4.47440126  0.00000000
   6.32775895  2.23720064  7.74989032
   6.73165846  3.23805354 13.88847510
   6.73165846  6.59385449 15.88958729
   6.73165846  9.94965544 17.89069948
   6.73165846 13.30545639 19.89181167
   6.32775895  5.59300158  1.93747259
   0.00000000 10.06740284  9.68736291
   1.19486938  1.00085292 13.88847510
   1.19486938  4.35665387 15.88958729
   1.19486938  7.71245482 17.89069948
   1.19486938 11.06825576 19.89181167
   0.00000000  0.00000000  0.00000000
   4.35874885  6.59385449 11.88736291
   4.35874885  9.94965544 13.88847510
   4.35874885 13.30545639 15.88958729
   4.35874885  3.23805354 17.89069948
   4.35874885  6.59385449 19.89181167
   4.35874885  9.94965544 21.89292386
   7.52262832  2.11945323 11.88736291
   7.52262832  5.47525418 13.88847510
   7.52262832  8.83105513 15.88958729
   7.52262832 12.18685607 17.89069948
   7.52262832  2.11945323 19.89181167
   7.52262832  5.47525418 21.89292386
   3.95484935 12.30460348  9.68736291
   1.19486938  7.71245482 13.88847510
   1.19486938 11.06825576 15.88958729
   1.19486938  1.00085292 17.89069948
   1.19486938  4.35665387 19.89181167
   3.95484935  2.23720064  0.00000000
   4.35874885 13.30545639 11.88736291
   4.35874885  3.23805354 13.88847510
   4.35874885  6.59385449 15.88958729
   4.35874885  9.94965544 17.89069948
   4.35874885 13.30545639 19.89181167
   4.35874885  3.23805354 21.89292386
   7.52262832  8.83105513 11.88736291
   7.52262832 12.18685607 13.88847510
   7.52262832  2.11945323 15.88958729
   7.52262832  5.47525418 17.89069948
   7.52262832  8.83105513 19.89181167
   7.52262832 12.18685607 21.89292386
 


--------------------------------------------------------------------------------------------------------


 k-point     1 :   0.0000 0.0000 0.0000  plane waves:  129107
 k-point     2 :   0.3333 0.0000 0.0000  plane waves:  129083
 k-point     3 :   0.0000 0.5000 0.0000  plane waves:  129106
 k-point     4 :   0.3333 0.5000 0.0000  plane waves:  129070

 maximum and minimum number of plane-waves per node :      8102     8035

 maximum number of plane-waves:    129107
 maximum index in each direction: 
   IXMAX=   20   IYMAX=   28   IZMAX=   51
   IXMIN=  -20   IYMIN=  -29   IZMIN=  -51


 real space projection operators:
  total allocation   :      24085.40 KBytes
  max/ min on nodes  :       1534.10       1453.02


 parallel 3D FFT for wavefunctions:
    minimum data exchange during FFTs selected (reduces bandwidth)
 parallel 3D FFT for charge:
    minimum data exchange during FFTs selected (reduces bandwidth)


 total amount of memory used by VASP MPI-rank0   511241. kBytes
=======================================================================

   base      :      30000. kBytes
   nonlr-proj:       7836. kBytes
   fftplans  :      69092. kBytes
   grid      :      42335. kBytes
   one-center:        146. kBytes
   wavefun   :     361832. kBytes
 
     INWAV:  cpu time      0.0001: real time      0.0002
 Broyden mixing: mesh for mixing (old mesh)
   NGX = 41   NGY = 57   NGZ =103
  (NGX  =128   NGY  =180   NGZ  =320)
  gives a total of 240711 points

 initial charge density was supplied:
 charge density of overlapping atoms calculated
 number of electron     576.0000000 magnetization       1.0000000
 keeping initial charge density in first step


--------------------------------------------------------------------------------------------------------


 Maximum index for non-local projection operator          217
 Maximum index for augmentation-charges         8108 (set IRDMAX)


--------------------------------------------------------------------------------------------------------


 First call to EWALD:  gamma=   0.122
 Maximum number of real-space cells 4x 3x 2
 Maximum number of reciprocal cells 2x 3x 4

    FEWALD:  cpu time      0.0063: real time      0.0063


--------------------------------------- Ionic step        1  -------------------------------------------




--------------------------------------- Iteration      1(   1)  ---------------------------------------


    POTLOK:  cpu time      0.8462: real time      0.8542
    SETDIJ:  cpu time      4.3544: real time      4.3774
     EDDAV:  cpu time     61.1647: real time     61.7052
       DOS:  cpu time      0.0032: real time      0.0032
    --------------------------------------------
      LOOP:  cpu time     66.3685: real time     66.9400

 eigenvalue-minimisations  :  5536
 total energy-change (2. order) : 0.2451551E+04  (-0.2584905E+05)
 number of electron     576.0000000 magnetization       1.0000000
 augmentation part      576.0000000 magnetization       1.0000000

 Free energy of the ion-electron system (eV)
  ---------------------------------------------------
  alpha Z        PSCENC =       759.26891756
  Ewald energy   TEWEN  =    -15880.93019074
  -Hartree energ DENC   =     -1041.83108281
  -exchange      EXHF   =         0.00000000
  -V(xc)+E(xc)   XCENC  =     -1208.97508887
  PAW double counting   =     12691.36703575   -10381.54560829
  entropy T*S    EENTRO =        -0.00265439
  eigenvalues    EBANDS =      2533.69678535
  atomic energy  EATOM  =     14980.50241411
  Solvation  Ediel_sol  =         0.00000000
  ---------------------------------------------------
  free energy    TOTEN  =      2451.55052767 eV

  energy without entropy =     2451.55318205  energy(sigma->0) =     2451.55185486


--------------------------------------------------------------------------------------------------------




--------------------------------------- Iteration      1(   2)  ---------------------------------------


     EDDAV:  cpu time     68.9937: real time     69.5423
       DOS:  cpu time      0.0033: real time      0.0033
    --------------------------------------------
      LOOP:  cpu time     68.9970: real time     69.5456

 eigenvalue-minimisations  :  6480
 total energy-change (2. order) :-0.2868368E+04  (-0.2764195E+04)
 number of electron     576.0000000 magnetization       1.0000000
 augmentation part      576.0000000 magnetization       1.0000000

 Free energy of the ion-electron system (eV)
  ---------------------------------------------------
  alpha Z        PSCENC =       759.26891756
  Ewald energy   TEWEN  =    -15880.93019074
  -Hartree energ DENC   =     -1041.83108281
  -exchange      EXHF   =         0.00000000
  -V(xc)+E(xc)   XCENC  =     -1208.97508887
  PAW double counting   =     12691.36703575   -10381.54560829
  entropy T*S    EENTRO =        -0.00253498
  eigenvalues    EBANDS =      -334.67156828
  atomic energy  EATOM  =     14980.50241411
  Solvation  Ediel_sol  =         0.00000000
  ---------------------------------------------------
  free energy    TOTEN  =      -416.81770655 eV

  energy without entropy =     -416.81517157  energy(sigma->0) =     -416.81643906


--------------------------------------------------------------------------------------------------------




--------------------------------------- Iteration      1(   3)  ---------------------------------------


     EDDAV:  cpu time     71.5894: real time     72.2385
       DOS:  cpu time      0.0012: real time      0.0012
    --------------------------------------------
      LOOP:  cpu time     71.5906: real time     72.2397

 eigenvalue-minimisations  :  6768
 total energy-change (2. order) :-0.2712494E+03  (-0.2644337E+03)
 number of electron     576.0000000 magnetization       1.0000000
 augmentation part      576.0000000 magnetization       1.0000000

 Free energy of the ion-electron system (eV)
  ---------------------------------------------------
  alpha Z        PSCENC =       759.26891756
  Ewald energy   TEWEN  =    -15880.93019074
  -Hartree energ DENC   =     -1041.83108281
  -exchange      EXHF   =         0.00000000
  -V(xc)+E(xc)   XCENC  =     -1208.97508887
  PAW double counting   =     12691.36703575   -10381.54560829
  entropy T*S    EENTRO =        -0.00121152
  eigenvalues    EBANDS =      -605.92224692
  atomic energy  EATOM  =     14980.50241411
  Solvation  Ediel_sol  =         0.00000000
  ---------------------------------------------------
  free energy    TOTEN  =      -688.06706173 eV

  energy without entropy =     -688.06585021  energy(sigma->0) =     -688.06645597


--------------------------------------------------------------------------------------------------------




--------------------------------------- Iteration      1(   4)  ---------------------------------------


     EDDAV:  cpu time     68.8025: real time     69.3908
       DOS:  cpu time      0.0028: real time      0.0028
    --------------------------------------------
      LOOP:  cpu time     68.8052: real time     69.3936

 eigenvalue-minimisations  :  6496
 total energy-change (2. order) :-0.9202736E+01  (-0.9086731E+01)
 number of electron     576.0000000 magnetization       1.0000000
 augmentation part      576.0000000 magnetization       1.0000000

 Free energy of the ion-electron system (eV)
  ---------------------------------------------------
  alpha Z        PSCENC =       759.26891756
  Ewald energy   TEWEN  =    -15880.93019074
  -Hartree energ DENC   =     -1041.83108281
  -exchange      EXHF   =         0.00000000
  -V(xc)+E(xc)   XCENC  =     -1208.97508887
  PAW double counting   =     12691.36703575   -10381.54560829
  entropy T*S    EENTRO =        -0.00230718
  eigenvalues    EBANDS =      -615.12388772
  atomic energy  EATOM  =     14980.50241411
  Solvation  Ediel_sol  =         0.00000000
  ---------------------------------------------------
  free energy    TOTEN  =      -697.26979820 eV

  energy without entropy =     -697.26749102  energy(sigma->0) =     -697.26864461


--------------------------------------------------------------------------------------------------------




--------------------------------------- Iteration      1(   5)  ---------------------------------------


     EDDAV:  cpu time     75.9996: real time     76.5911
       DOS:  cpu time      0.0037: real time      0.0037
    CHARGE:  cpu time      3.2227: real time      3.2466
    MIXING:  cpu time      0.0198: real time      0.0199
    --------------------------------------------
      LOOP:  cpu time     79.2457: real time     79.8614

 eigenvalue-minimisations  :  7352
 total energy-change (2. order) :-0.3520575E+00  (-0.3508581E+00)
 number of electron     575.9999996 magnetization       1.0000000
 augmentation part      -64.1576623 magnetization      -0.0967820

 Broyden mixing:
  rms(total) = 0.33654E+01    rms(broyden)= 0.33654E+01
  rms(prec ) = 0.34635E+01
  weight for this iteration     100.00

 Free energy of the ion-electron system (eV)
  ---------------------------------------------------
  alpha Z        PSCENC =       759.26891756
  Ewald energy   TEWEN  =    -15880.93019074
  -Hartree energ DENC   =     -1041.83108281
  -exchange      EXHF   =         0.00000000
  -V(xc)+E(xc)   XCENC  =     -1208.97508887
  PAW double counting   =     12691.36703575   -10381.54560829
  entropy T*S    EENTRO =        -0.00219127
  eigenvalues    EBANDS =      -615.47606113
  atomic energy  EATOM  =     14980.50241411
  Solvation  Ediel_sol  =         0.00000000
  ---------------------------------------------------
  free energy    TOTEN  =      -697.62185569 eV

  energy without entropy =     -697.61966442  energy(sigma->0) =     -697.62076006


--------------------------------------------------------------------------------------------------------




--------------------------------------- Iteration      1(   6)  ---------------------------------------


    POTLOK:  cpu time      0.8441: real time      0.8518
    SETDIJ:  cpu time      4.3646: real time      4.3878
     EDDAV:  cpu time     69.1334: real time     69.6726
       DOS:  cpu time      0.0036: real time      0.0036
    CHARGE:  cpu time      3.2002: real time      3.2233
    MIXING:  cpu time      0.0205: real time      0.0206
    --------------------------------------------
      LOOP:  cpu time     77.5664: real time     78.1598

 eigenvalue-minimisations  :  6488
 total energy-change (2. order) : 0.9516857E+01  (-0.1191334E+01)
 number of electron     575.9999996 magnetization       1.0000000
 augmentation part      -63.4807308 magnetization      -0.0984374

 Broyden mixing:
  rms(total) = 0.15516E+01    rms(broyden)= 0.15516E+01
  rms(prec ) = 0.15862E+01
  weight for this iteration     100.00

 eigenvalues of (default mixing * dielectric matrix)
  average eigenvalue GAMMA=   1.7746
  1.7746

 Free energy of the ion-electron system (eV)
  ---------------------------------------------------
  alpha Z        PSCENC =       759.26891756
  Ewald energy   TEWEN  =    -15880.93019074
  -Hartree energ DENC   =     -1188.48329868
  -exchange      EXHF   =         0.00000000
  -V(xc)+E(xc)   XCENC  =     -1185.63912333
  PAW double counting   =     26300.39441657   -24002.23587090
  entropy T*S    EENTRO =        -0.00046974
  eigenvalues    EBANDS =      -470.98179333
  atomic energy  EATOM  =     14980.50241411
  Solvation  Ediel_sol  =         0.00000000
  ---------------------------------------------------
  free energy    TOTEN  =      -688.10499848 eV

  energy without entropy =     -688.10452874  energy(sigma->0) =     -688.10476361


--------------------------------------------------------------------------------------------------------




--------------------------------------- Iteration      1(   7)  ---------------------------------------


    POTLOK:  cpu time      0.8455: real time      0.8524
    SETDIJ:  cpu time      4.3587: real time      4.3810
     EDDAV:  cpu time     68.8699: real time     69.4098
       DOS:  cpu time      0.0047: real time      0.0047
    CHARGE:  cpu time      3.1970: real time      3.2216
    MIXING:  cpu time      0.0213: real time      0.0215
    --------------------------------------------
      LOOP:  cpu time     77.2971: real time     77.8910

 eigenvalue-minimisations  :  6464
 total energy-change (2. order) : 0.6951115E+00  (-0.7966160E+00)
 number of electron     575.9999996 magnetization       1.0000000
 augmentation part      -63.2963856 magnetization      -0.0891365

 Broyden mixing:
  rms(total) = 0.39558E+00    rms(broyden)= 0.39558E+00
  rms(prec ) = 0.43093E+00
  weight for this iteration     100.00

 eigenvalues of (default mixing * dielectric matrix)
  average eigenvalue GAMMA=   1.2525
  1.8612  0.6437

 Free energy of the ion-electron system (eV)
  ---------------------------------------------------
  alpha Z        PSCENC =       759.26891756
  Ewald energy   TEWEN  =    -15880.93019074
  -Hartree energ DENC   =     -1290.65081848
  -exchange      EXHF   =         0.00000000
  -V(xc)+E(xc)   XCENC  =     -1166.50571087
  PAW double counting   =     42671.48597293   -40382.24006467
  entropy T*S    EENTRO =        -0.00138461
  eigenvalues    EBANDS =      -378.33902220
  atomic energy  EATOM  =     14980.50241411
  Solvation  Ediel_sol  =         0.00000000
  ---------------------------------------------------
  free energy    TOTEN  =      -687.40988697 eV

  energy without entropy =     -687.40850236  energy(sigma->0) =     -687.40919466


--------------------------------------------------------------------------------------------------------




--------------------------------------- Iteration      1(   8)  ---------------------------------------


    POTLOK:  cpu time      0.8446: real time      0.8526
    SETDIJ:  cpu time      4.3564: real time      4.3800
     EDDAV:  cpu time     69.2686: real time     69.8131
       DOS:  cpu time      0.0049: real time      0.0050
    CHARGE:  cpu time      3.1882: real time      3.2108
    MIXING:  cpu time      0.0222: real time      0.0224
    --------------------------------------------
      LOOP:  cpu time     77.6849: real time     78.2838

 eigenvalue-minimisations  :  6520
 total energy-change (2. order) : 0.2321616E-01  (-0.1336216E+00)
 number of electron     575.9999996 magnetization       1.0000000
 augmentation part      -63.1098196 magnetization      -0.0912688

 Broyden mixing:
  rms(total) = 0.14880E+00    rms(broyden)= 0.14880E+00
  rms(prec ) = 0.15439E+00
  weight for this iteration     100.00

 eigenvalues of (default mixing * dielectric matrix)
  average eigenvalue GAMMA=   1.2381
  1.8732  1.1777  0.6633

 Free energy of the ion-electron system (eV)
  ---------------------------------------------------
  alpha Z        PSCENC =       759.26891756
  Ewald energy   TEWEN  =    -15880.93019074
  -Hartree energ DENC   =     -1293.10432107
  -exchange      EXHF   =         0.00000000
  -V(xc)+E(xc)   XCENC  =     -1165.98579729
  PAW double counting   =     45020.70741958   -42731.84046619
  entropy T*S    EENTRO =        -0.00130155
  eigenvalues    EBANDS =      -376.00334521
  atomic energy  EATOM  =     14980.50241411
  Solvation  Ediel_sol  =         0.00000000
  ---------------------------------------------------
  free energy    TOTEN  =      -687.38667081 eV

  energy without entropy =     -687.38536926  energy(sigma->0) =     -687.38602004


--------------------------------------------------------------------------------------------------------




--------------------------------------- Iteration      1(   9)  ---------------------------------------


    POTLOK:  cpu time      0.8453: real time      0.8541
    SETDIJ:  cpu time      4.3635: real time      4.3860
     EDDAV:  cpu time     67.3319: real time     67.8593
       DOS:  cpu time      0.0051: real time      0.0051
    CHARGE:  cpu time      3.1875: real time      3.2114
    MIXING:  cpu time      0.0225: real time      0.0229
    --------------------------------------------
      LOOP:  cpu time     75.7557: real time     76.3387

 eigenvalue-minimisations  :  6304
 total energy-change (2. order) : 0.1221106E-01  (-0.2588224E-01)
 number of electron     575.9999996 magnetization       1.0000000
 augmentation part      -63.1442387 magnetization      -0.0972315

 Broyden mixing:
  rms(total) = 0.83568E-01    rms(broyden)= 0.83568E-01
  rms(prec ) = 0.85961E-01
  weight for this iteration     100.00

 eigenvalues of (default mixing * dielectric matrix)
  average eigenvalue GAMMA=   1.1886
  1.8167  1.5652  0.8306  0.5418

 Free energy of the ion-electron system (eV)
  ---------------------------------------------------
  alpha Z        PSCENC =       759.26891756
  Ewald energy   TEWEN  =    -15880.93019074
  -Hartree energ DENC   =     -1285.01272171
  -exchange      EXHF   =         0.00000000
  -V(xc)+E(xc)   XCENC  =     -1166.75621988
  PAW double counting   =     45791.17910278   -43502.05497541
  entropy T*S    EENTRO =        -0.00079998
  eigenvalues    EBANDS =      -383.56998648
  atomic energy  EATOM  =     14980.50241411
  Solvation  Ediel_sol  =         0.00000000
  ---------------------------------------------------
  free energy    TOTEN  =      -687.37445976 eV

  energy without entropy =     -687.37365978  energy(sigma->0) =     -687.37405977


--------------------------------------------------------------------------------------------------------




--------------------------------------- Iteration      1(  10)  ---------------------------------------


    POTLOK:  cpu time      0.8464: real time      0.8536
    SETDIJ:  cpu time      4.3662: real time      4.3896
     EDDAV:  cpu time     66.7440: real time     67.2794
       DOS:  cpu time      0.0042: real time      0.0043
    CHARGE:  cpu time      3.1783: real time      3.2015
    MIXING:  cpu time      0.0239: real time      0.0241
    --------------------------------------------
      LOOP:  cpu time     75.1630: real time     75.7524

 eigenvalue-minimisations  :  6240
 total energy-change (2. order) :-0.4667898E-02  (-0.7346999E-02)
 number of electron     575.9999996 magnetization       1.0000000
 augmentation part      -63.1487078 magnetization      -0.0950256

 Broyden mixing:
  rms(total) = 0.42189E-01    rms(broyden)= 0.42189E-01
  rms(prec ) = 0.43854E-01
  weight for this iteration     100.00

 eigenvalues of (default mixing * dielectric matrix)
  average eigenvalue GAMMA=   1.1358
  1.7513  1.7513  1.0721  0.5520  0.5520

 Free energy of the ion-electron system (eV)
  ---------------------------------------------------
  alpha Z        PSCENC =       759.26891756
  Ewald energy   TEWEN  =    -15880.93019074
  -Hartree energ DENC   =     -1282.25351514
  -exchange      EXHF   =         0.00000000
  -V(xc)+E(xc)   XCENC  =     -1167.03466955
  PAW double counting   =     46049.69691834   -43760.47460759
  entropy T*S    EENTRO =        -0.00095520
  eigenvalues    EBANDS =      -386.15343943
  atomic energy  EATOM  =     14980.50241411
  Solvation  Ediel_sol  =         0.00000000
  ---------------------------------------------------
  free energy    TOTEN  =      -687.37912765 eV

  energy without entropy =     -687.37817245  energy(sigma->0) =     -687.37865005


--------------------------------------------------------------------------------------------------------




--------------------------------------- Iteration      1(  11)  ---------------------------------------


    POTLOK:  cpu time      0.8444: real time      0.8535
[...]
   0.148E+01 -.248E+00 -.162E+02   -.174E+01 0.668E-01 0.161E+02   0.209E+00 0.517E-01 0.215E+00   -.152E-04 -.513E-04 -.988E-04
   -.611E-01 0.204E+01 0.191E+01   -.392E-01 -.203E+01 -.206E+01   0.259E+00 -.352E+00 0.728E-01   0.104E-03 -.313E-04 0.237E-03
   -.172E+01 0.215E+01 0.446E+00   0.154E+01 -.199E+01 -.375E+00   0.328E+00 -.444E+00 -.936E-01   0.158E-04 0.184E-04 0.258E-03
   -.172E+01 0.215E+01 -.450E+00   0.154E+01 -.199E+01 0.375E+00   0.326E+00 -.435E+00 0.111E+00   -.158E-04 0.310E-04 0.268E-03
   -.662E-01 0.202E+01 -.189E+01   -.392E-01 -.203E+01 0.206E+01   0.282E+00 -.335E+00 -.811E-01   -.104E-03 -.262E-05 0.222E-03
   0.149E+01 -.245E+00 0.162E+02   -.174E+01 0.668E-01 -.161E+02   0.233E+00 0.513E-01 -.185E+00   -.550E-04 -.276E-04 -.302E-03
   -.264E+01 -.210E+02 -.791E+01   0.238E+01 0.211E+02 0.620E+01   0.771E+00 0.177E+01 0.623E+00   -.133E-03 0.633E-04 0.241E-04
   0.104E+01 -.139E+00 0.110E+01   -.115E+01 0.349E+00 -.153E+01   -.167E+00 -.562E-01 0.515E+00   -.515E-04 -.354E-04 0.214E-03
   0.147E+01 -.222E+01 0.436E+00   -.143E+01 0.215E+01 -.438E+00   -.287E+00 0.300E+00 -.730E-01   -.478E-04 0.811E-05 0.320E-03
   0.146E+01 -.222E+01 -.419E+00   -.143E+01 0.215E+01 0.438E+00   -.285E+00 0.283E+00 0.663E-01   -.234E-04 0.111E-04 0.199E-03
   0.834E+00 0.155E+00 -.582E+00   -.115E+01 0.349E+00 0.153E+01   -.158E+00 -.611E-01 -.551E+00   0.994E-05 0.707E-04 0.123E-03
   -.265E+01 -.210E+02 0.790E+01   0.238E+01 0.211E+02 -.620E+01   0.783E+00 0.176E+01 -.605E+00   -.572E-04 0.584E-04 -.219E-03
   0.534E+01 -.214E+02 -.155E+02   -.482E+01 0.212E+02 0.171E+02   -.806E+00 0.194E+01 0.867E-01   0.172E-03 0.150E-03 0.333E-03
   0.125E+01 -.116E+01 0.473E+01   -.101E+01 0.573E+00 -.404E+01   -.294E+00 0.795E+00 -.522E+00   0.520E-04 0.131E-04 0.286E-03
   0.148E+01 -.222E+01 0.851E-01   -.144E+01 0.213E+01 -.170E+00   -.265E+00 0.482E+00 0.104E+00   0.118E-04 -.254E-04 0.326E-03
   0.148E+01 -.222E+01 -.901E-01   -.144E+01 0.213E+01 0.170E+00   -.268E+00 0.492E+00 -.835E-01   -.674E-05 -.515E-04 0.312E-03
   0.112E+01 -.973E+00 -.434E+01   -.101E+01 0.573E+00 0.404E+01   -.315E+00 0.879E+00 0.577E+00   0.119E-04 -.385E-04 0.157E-03
   0.532E+01 -.214E+02 0.156E+02   -.482E+01 0.212E+02 -.171E+02   -.793E+00 0.194E+01 -.118E+00   0.744E-04 0.115E-03 -.776E-04
   0.150E+02 -.133E+01 -.476E+01   -.151E+02 0.107E+01 0.459E+01   -.111E+01 0.610E+00 -.480E+00   0.312E-04 -.574E-04 0.494E-04
   0.336E-01 -.225E+01 0.245E+01   0.154E+00 0.211E+01 -.258E+01   -.560E+00 0.555E+00 -.318E+00   0.490E-04 0.381E-04 0.234E-03
   0.177E+01 -.216E+01 0.371E+00   -.155E+01 0.198E+01 -.329E+00   -.418E+00 0.466E+00 0.113E-01   0.386E-04 0.234E-05 0.254E-03
   0.176E+01 -.215E+01 -.379E+00   -.155E+01 0.198E+01 0.329E+00   -.443E+00 0.492E+00 -.112E-02   0.166E-05 0.488E-06 0.274E-03
   0.332E-01 -.225E+01 -.247E+01   0.154E+00 0.211E+01 0.258E+01   -.576E+00 0.571E+00 0.330E+00   -.584E-04 -.376E-04 0.216E-03
   0.150E+02 -.133E+01 0.476E+01   -.151E+02 0.107E+01 -.459E+01   -.110E+01 0.627E+00 0.463E+00   -.519E-05 -.332E-04 0.111E-03
   0.112E+02 0.123E+02 -.295E+01   -.108E+02 -.129E+02 0.742E+00   -.469E+00 -.146E+01 -.235E-01   0.243E-04 0.221E-03 0.483E-04
   0.832E+00 0.159E+00 0.577E+00   -.115E+01 0.349E+00 -.153E+01   -.157E+00 -.773E-01 0.555E+00   -.835E-04 0.418E-04 0.306E-03
   0.147E+01 -.223E+01 0.429E+00   -.143E+01 0.215E+01 -.438E+00   -.282E+00 0.307E+00 -.725E-01   -.319E-04 -.344E-05 0.305E-03
   0.148E+01 -.223E+01 -.448E+00   -.143E+01 0.215E+01 0.438E+00   -.284E+00 0.289E+00 0.843E-01   0.182E-04 -.343E-04 0.268E-03
   0.104E+01 -.136E+00 -.110E+01   -.115E+01 0.349E+00 0.153E+01   -.167E+00 -.405E-01 -.512E+00   0.134E-04 -.294E-04 0.179E-03
   0.112E+02 0.123E+02 0.295E+01   -.108E+02 -.129E+02 -.742E+00   -.438E+00 -.145E+01 0.338E-01   -.196E-04 0.871E-04 -.303E-03
   0.545E+01 -.208E+02 -.151E+02   -.482E+01 0.212E+02 0.171E+02   -.673E+00 0.205E+01 0.599E-01   0.231E-04 0.185E-04 0.105E-04
   0.111E+01 -.961E+00 0.436E+01   -.101E+01 0.573E+00 -.404E+01   -.322E+00 0.864E+00 -.585E+00   0.646E-04 -.991E-04 0.323E-03
   0.149E+01 -.225E+01 0.109E+00   -.144E+01 0.213E+01 -.170E+00   -.269E+00 0.518E+00 0.896E-01   -.526E-05 0.348E-04 0.301E-03
   0.148E+01 -.225E+01 -.114E+00   -.144E+01 0.213E+01 0.170E+00   -.260E+00 0.518E+00 -.604E-01   -.116E-04 0.595E-04 0.278E-03
   0.124E+01 -.114E+01 -.475E+01   -.101E+01 0.573E+00 0.404E+01   -.264E+00 0.781E+00 0.529E+00   -.312E-04 0.477E-04 0.248E-03
   0.548E+01 -.208E+02 0.150E+02   -.482E+01 0.212E+02 -.171E+02   -.714E+00 0.211E+01 -.180E-01   -.481E-04 -.150E-03 0.206E-03
   0.157E+02 -.135E+01 -.477E+01   -.151E+02 0.107E+01 0.459E+01   -.116E+01 0.589E+00 -.427E+00   0.551E-04 0.166E-04 0.128E-03
   0.333E-01 -.225E+01 0.246E+01   0.154E+00 0.211E+01 -.258E+01   -.567E+00 0.560E+00 -.324E+00   0.358E-05 -.117E-05 0.190E-03
   0.176E+01 -.215E+01 0.356E+00   -.155E+01 0.198E+01 -.329E+00   -.409E+00 0.458E+00 0.183E-01   0.401E-04 -.224E-04 0.275E-03
   0.176E+01 -.215E+01 -.351E+00   -.155E+01 0.198E+01 0.329E+00   -.437E+00 0.492E+00 -.165E-01   0.348E-04 0.137E-05 0.235E-03
   0.363E-01 -.225E+01 -.244E+01   0.154E+00 0.211E+01 0.258E+01   -.565E+00 0.561E+00 0.313E+00   0.216E-06 0.410E-04 0.163E-03
   0.157E+02 -.135E+01 0.477E+01   -.151E+02 0.107E+01 -.459E+01   -.115E+01 0.609E+00 0.409E+00   -.283E-04 0.465E-04 0.317E-04
 -----------------------------------------------------------------------------------------------
   0.158E+00 0.795E+00 0.124E+00   -.203E-12 0.195E-13 -.469E-12   -.655E-01 -.863E+00 -.550E-01   -.439E-04 0.100E-04 -.448E-03
 
 
 POSITION                                       TOTAL-FORCE (eV/Angst)
 -----------------------------------------------------------------------------------
      1.19487      1.00085     21.89292        -0.625912     -0.624386      0.724458
      0.00000     10.06740      1.93747        -0.233264     -0.160777      0.004947
      0.00000      6.71160      3.87495        -0.044945      0.019738      0.024656
      0.00000      3.35580      5.81242        -0.044124      0.012593     -0.032381
      0.00000      0.00000      7.74989        -0.415572     -0.447299     -0.432674
      1.19487     11.06826     11.88736        -0.626733     -0.622992     -0.729800
      3.56778      7.71245     21.89292        -0.793210     -0.012873      1.332247
      3.16388      1.11860      1.93747        -0.170472     -0.546444      0.553834
      3.16388     11.18600      3.87495        -0.006831     -0.109631     -0.096788
      3.16388      7.83020      5.81242        -0.000867     -0.109102      0.081801
      3.16388      4.47440      7.74989         0.023259     -0.245040     -0.014073
      3.56778      4.35665     11.88736        -0.787809      0.001778     -1.342883
      6.32776      8.94880      0.00000         0.413160     -0.111069     -0.275988
      6.73166      3.23805     21.89292        -0.032414     -0.279696      0.709245
      6.32776      2.23720      3.87495        -0.039338     -0.048959      0.006578
      6.32776     12.30460      5.81242        -0.048715     -0.056353     -0.012087
      6.32776      8.94880      7.74989        -0.030265     -0.127644      0.069987
      6.32776      5.59300      9.68736         0.417069     -0.115217      0.281327
      0.00000      6.71160      0.00000         0.306644      2.192138      1.238801
      0.00000      3.35580      1.93747        -0.411180     -0.447269      0.434388
      0.00000      0.00000      3.87495        -0.031559      0.011269      0.010442
      0.00000     10.06740      5.81242        -0.031196      0.014361     -0.018825
      0.00000      6.71160      7.74989        -0.233209     -0.158743     -0.004924
      0.00000      3.35580      9.68736         0.300522      2.189268     -1.237855
      0.40390     12.18686     21.89292         0.592940     -1.110461     -0.989148
      3.16388      7.83020      1.93747         0.016733     -0.241788      0.023738
      3.16388      4.47440      3.87495         0.003490     -0.099675     -0.094185
      3.16388      1.11860      5.81242         0.004179     -0.099998      0.089668
      3.16388     11.18600      7.74989        -0.179143     -0.547061     -0.551316
      0.40390      8.83106     11.88736         0.601037     -1.105516      0.997211
      6.32776      2.23720      0.00000         1.037834     -0.139217     -0.241244
      6.32776     12.30460      1.93747        -0.031709     -0.130322     -0.066999
      6.32776      8.94880      3.87495        -0.049066     -0.054457      0.016597
      6.32776      5.59300      5.81242        -0.045764     -0.047892     -0.029437
      6.73166     13.30546     11.88736        -0.027255     -0.277291     -0.703471
      6.32776     12.30460      9.68736         1.037750     -0.139241      0.247941
      6.73166      9.94966     21.89292        -0.026827     -0.297761      0.706327
      0.79097      1.11860      1.93747         0.329901      0.396876      0.400544
      0.79097     11.18600      3.87495         0.078426      0.142095     -0.141471
      0.79097      7.83020      5.81242         0.083752      0.141621      0.131542
      0.79097      4.47440      7.74989         0.092772      0.105279      0.120519
      6.73166      6.59385     11.88736        -0.024932     -0.292035     -0.713231
      3.95485      8.94880      0.00000         0.000829     -1.874237      1.363585
      3.95485      5.59300      1.93747        -0.117481      0.261193      0.439789
      3.95485      2.23720      3.87495         0.034575     -0.011395     -0.033585
      3.95485     12.30460      5.81242         0.036544     -0.000031      0.014168
      3.95485      8.94880      7.74989         0.430258      0.285569     -0.440864
      3.95485      5.59300      9.68736        -0.001294     -1.883824     -1.372064
      7.11873      0.00000      0.00000        -0.299923     -0.103288     -0.534522
      7.11873     10.06740      1.93747         0.095914      0.031830     -0.060237
      7.11873      6.71160      3.87495         0.261040      0.314338      0.421435
      7.11873      3.35580      5.81242         0.262395      0.317317     -0.431355
      7.11873      0.00000      7.74989         0.282385     -0.488760      0.055893
      7.11873     10.06740      9.68736        -0.299932     -0.103346      0.533925
      0.79097     11.18600      0.00000         0.307113     -0.130501     -0.913699
      0.79097      7.83020      1.93747         0.091408      0.104350     -0.113757
      0.79097      4.47440      3.87495         0.075213      0.140508     -0.146634
      0.79097      1.11860      5.81242         0.076251      0.142517      0.137180
      0.79097     11.18600      7.74989         0.328997      0.395297     -0.397026
      0.79097      7.83020      9.68736         0.302905     -0.131228      0.923461
      1.19487      7.71245     21.89292         0.050216      0.001521      1.097210
      3.95485     12.30460      1.93747         0.422073      0.290916      0.445612
      3.95485      8.94880      3.87495         0.035704      0.006032     -0.003303
      3.95485      5.59300      5.81242         0.027808      0.000976      0.001569
      3.95485      2.23720      7.74989        -0.130620      0.262656     -0.436994
      1.19487      4.35665     11.88736         0.059542      0.002646     -1.095719
      7.11873      6.71160      0.00000         0.494344      0.158993     -0.958432
      7.11873      3.35580      1.93747         0.280362     -0.485978     -0.061651
      7.11873      0.00000      3.87495         0.067800      0.056548     -0.025846
      7.11873     10.06740      5.81242         0.065567      0.056836      0.019620
      7.11873      6.71160      7.74989         0.095373      0.033222      0.063432
      7.11873      3.35580      9.68736         0.493968      0.162740      0.959807
      0.40390      2.11945     11.88736         0.591414     -1.111626      1.625652
      0.40390      5.47525     13.88848         0.197976     -0.622115     -0.427524
      0.40390      8.83106     15.88959         0.248968     -0.406033     -0.017697
      0.40390     12.18686     17.89070         0.221957     -0.365299      0.022111
      0.40390      2.11945     19.89181         0.185939     -0.587844      0.432202
      0.40390      5.47525     21.89292         0.609490     -1.095302     -1.650772
      3.56778     11.06826     11.88736        -0.678114     -0.727970     -0.977566
      3.56778      1.00085     13.88848         0.150179     -0.265057     -0.027361
      3.56778      4.35665     15.88959         0.190928     -0.225105     -0.133677
      3.56778      7.71245     17.89070         0.194376     -0.224658      0.121466
      3.56778     11.06826     19.89181         0.128308     -0.269286      0.052370
      3.56778      1.00085     21.89292        -0.691280     -0.718952      1.005959
      0.79097      1.11860      9.68736        -0.022414     -0.250104      0.271405
      6.73166      9.94966     13.88848         0.160335     -0.341148     -0.088586
      6.73166     13.30546     15.88959         0.152849     -0.285139     -0.017089
      6.73166      3.23805     17.89070         0.154112     -0.274250      0.034226
      6.73166      6.59385     19.89181         0.175667     -0.340392      0.074330
      0.79097      4.47440      0.00000        -0.047550     -0.249234     -0.287562
      3.16388      7.83020      9.68736         0.157078     -0.051044      0.806777
      0.40390     12.18686     13.88848         0.190626     -0.595728     -0.432889
      0.40390      2.11945     15.88959         0.239723     -0.392970     -0.011685
      0.40390      5.47525     17.89070         0.221261     -0.366472      0.010250
      0.40390      8.83106     19.89181         0.191667     -0.621609      0.411975
      3.16388     11.18600      0.00000         0.139679     -0.050718     -0.800556
      3.16388      1.11860      9.68736         0.599193      0.691713      0.932368
      3.56778      7.71245     13.88848         0.133013     -0.283295     -0.041777
      3.56778     11.06826     15.88959         0.185089     -0.219585     -0.123440
      3.56778      1.00085     17.89070         0.187496     -0.229036      0.135297
      3.56778      4.35665     19.89181         0.144808     -0.261107      0.035546
      3.16388      4.47440      0.00000         0.580733      0.682986     -0.948087
      6.32776      2.23720      7.74989        -0.042574     -0.129593      0.082332
      6.73166      3.23805     13.88848         0.158647     -0.337387     -0.078034
      6.73166      6.59385     15.88959         0.151082     -0.283678     -0.022157
      6.73166      9.94966     17.89070         0.151935     -0.276331      0.035070
      6.73166     13.30546     19.89181         0.176270     -0.347795      0.087395
      6.32776      5.59300      1.93747        -0.012212     -0.126242     -0.046545
      0.00000     10.06740      9.68736         0.509149      1.857624     -1.085176
      1.19487      1.00085     13.88848        -0.272772      0.154877      0.083764
      1.19487      4.35665     15.88959        -0.247869      0.223451     -0.074794
      1.19487      7.71245     17.89070        -0.252715      0.212545      0.085298
      1.19487     11.06826     19.89181        -0.471901      0.443650      0.396782
      0.00000      0.00000      0.00000         0.516492      1.850197      1.092942
      4.35875      6.59385     11.88736        -0.289159      1.696778      1.658575
      4.35875      9.94966     13.88848        -0.056361      0.206855      0.172861
      4.35875     13.30546     15.88959        -0.232176      0.391297      0.018778
      4.35875      3.23805     17.89070        -0.234463      0.398143     -0.003498
      4.35875      6.59385     19.89181        -0.207561      0.480052      0.276871
      4.35875      9.94966     21.89292        -0.297820      1.717389     -1.662014
      7.52263      2.11945     11.88736        -1.201184      0.353855     -0.650374
      7.52263      5.47525     13.88848        -0.372430      0.414204     -0.452120
      7.52263      8.83106     15.88959        -0.200909      0.292479      0.053219
      7.52263     12.18686     17.89070        -0.228609      0.320865     -0.051256
      7.52263      2.11945     19.89181        -0.389391      0.431020      0.440167
      7.52263      5.47525     21.89292        -1.190240      0.373444      0.631441
      3.95485     12.30460      9.68736        -0.077147     -2.057400     -2.229676
      1.19487      7.71245     13.88848        -0.473158      0.431909     -0.397924
      1.19487     11.06826     15.88959        -0.242017      0.225144     -0.081544
      1.19487      1.00085     17.89070        -0.238503      0.202959      0.073909
      1.19487      4.35665     19.89181        -0.277330      0.173306     -0.078635
      3.95485      2.23720      0.00000        -0.066055     -2.069736      2.240900
      4.35875     13.30546     11.88736        -0.042884      2.486142      2.087601
      4.35875      3.23805     13.88848        -0.222565      0.477247     -0.267051
      4.35875      6.59385     15.88959        -0.229311      0.395550      0.028143
      4.35875      9.94966     17.89070        -0.223269      0.398439     -0.004472
      4.35875     13.30546     19.89181        -0.039834      0.213107     -0.183032
      4.35875      3.23805     21.89292        -0.053589      2.523815     -2.093145
      7.52263      8.83106     11.88736        -0.587870      0.314625     -0.607141
      7.52263     12.18686     13.88848        -0.379785      0.422948     -0.445078
      7.52263      2.11945     15.88959        -0.200435      0.290444      0.045587
      7.52263      5.47525     17.89070        -0.225523      0.321297     -0.039117
      7.52263      8.83106     19.89181        -0.374659      0.421198      0.454912
      7.52263     12.18686     21.89292        -0.579285      0.333462      0.591553
 -----------------------------------------------------------------------------------
    total drift:                                0.092899     -0.067697      0.068180


--------------------------------------------------------------------------------------------------------



  FREE ENERGIE OF THE ION-ELECTRON SYSTEM (eV)
  ---------------------------------------------------
  free  energy   TOTEN  =      -687.38148125 eV

  energy  without entropy=     -687.38054062  energy(sigma->0) =     -687.38101094
 


--------------------------------------------------------------------------------------------------------


    POTLOK:  cpu time      5.2141: real time      5.2450


--------------------------------------------------------------------------------------------------------


     LOOP+:  cpu time   1578.3102: real time   1591.9165
    4ORBIT:  cpu time      0.0000: real time      0.0000

 total amount of memory used by VASP MPI-rank0   511241. kBytes
=======================================================================

   base      :      30000. kBytes
   nonlr-proj:       7836. kBytes
   fftplans  :      69092. kBytes
   grid      :      42335. kBytes
   one-center:        146. kBytes
   wavefun   :     361832. kBytes
 
  
  
 General timing and accounting informations for this job:
 ========================================================
  
                  Total CPU time used (sec):     1643.993
                            User time (sec):     1574.527
                          System time (sec):       69.466
                         Elapsed time (sec):     1662.423
  
                   Maximum memory used (kb):      789668.
                   Average memory used (kb):          N/A
  
                          Minor page faults:       206046
                          Major page faults:           45
                 Voluntary context switches:         1438
