 120 120   0   0
  0.2169524E+02  0.7680595E-09  0.1629300E-08  0.2080414E-08  0.5000000E-15
  1.000000000000000E-004
  CAR 
 Si and Ge interface calculation         
      7.90201245     -8.55885610  301      4.85480019      1.00000000
     -8.559  0.0000E+00  0.0000E+00  0.0000E+00  0.0000E+00
     -8.504  0.0000E+00  0.0000E+00  0.0000E+00  0.0000E+00
     -8.449  0.0000E+00  0.0000E+00  0.0000E+00  0.0000E+00
     -8.394  0.0000E+00  0.0000E+00  0.0000E+00  0.0000E+00
     -8.339  0.0000E+00  0.0000E+00  0.0000E+00  0.0000E+00
     -8.285  0.0000E+00  0.0000E+00  0.0000E+00  0.0000E+00
     -8.230  0.0000E+00  0.0000E+00  0.0000E+00  0.0000E+00
     -8.175  0.0000E+00  0.0000E+00  0.0000E+00  0.0000E+00
     -8.120  0.0000E+00  0.0000E+00  0.0000E+00  0.0000E+00
     -8.065  0.0000E+00  0.0000E+00  0.0000E+00  0.0000E+00
     -8.010  0.0000E+00  0.0000E+00  0.0000E+00  0.0000E+00
     -7.955  0.0000E+00  0.0000E+00  0.0000E+00  0.0000E+00
     -7.900  0.0000E+00  0.0000E+00  0.0000E+00  0.0000E+00
     -7.846  0.8990E-06  0.4715E-08  0.4933E-07  0.2587E-09
     -7.791  0.4119E+01  0.3273E+01  0.2260E+00  0.1796E+00
     -7.736  0.4575E+00  0.1284E+01  0.2511E+00  0.2500E+00
     -7.681  0.1010E+02  0.9301E+01  0.8053E+00  0.7604E+00
     -7.626  0.9697E+01  0.9884E+01  0.1337E+01  0.1303E+01
     -7.571  0.1599E+02  0.1132E+02  0.2215E+01  0.1924E+01
     -7.516  0.5242E+01  0.1051E+02  0.2503E+01  0.2500E+01
     -7.461  0.1148E+02  0.1062E+02  0.3133E+01  0.3083E+01
     -7.407  0.6707E+01  0.7599E+01  0.3501E+01  0.3500E+01
     -7.352  0.9313E+01  0.8046E+01  0.4012E+01  0.3942E+01
     -7.297  0.2610E+02  0.2595E+02  0.5444E+01  0.5366E+01
     -7.242  0.2747E+02  0.2666E+02  0.6951E+01  0.6829E+01
     -7.187  0.1596E+02  0.1233E+02  0.7827E+01  0.7505E+01
     -7.132  0.2018E+02  0.2195E+02  0.8934E+01  0.8710E+01
     -7.077  0.2202E+02  0.2454E+02  0.1014E+02  0.1006E+02
     -7.023  0.1626E+02  0.1660E+02  0.1103E+02  0.1097E+02
     -6.968  0.1508E+02  0.1560E+02  0.1186E+02  0.1182E+02
     -6.913  0.2615E+02  0.2512E+02  0.1330E+02  0.1320E+02
     -6.858  0.1585E+02  0.1626E+02  0.1417E+02  0.1409E+02
     -6.803  0.2771E+02  0.2070E+02  0.1569E+02  0.1523E+02
     -6.748  0.1688E+02  0.2124E+02  0.1661E+02  0.1639E+02
     -6.693  0.2045E+02  0.2304E+02  0.1773E+02  0.1766E+02
     -6.638  0.1604E+02  0.1612E+02  0.1861E+02  0.1854E+02
     -6.584  0.3296E+02  0.3302E+02  0.2042E+02  0.2036E+02
     -6.529  0.2462E+02  0.2417E+02  0.2177E+02  0.2168E+02
     -6.474  0.2608E+02  0.2361E+02  0.2321E+02  0.2298E+02
     -6.419  0.4610E+02  0.4621E+02  0.2574E+02  0.2551E+02
     -6.364  0.1638E+02  0.1806E+02  0.2663E+02  0.2650E+02
     -6.309  0.2039E+02  0.1951E+02  0.2775E+02  0.2757E+02
     -6.254  0.5219E+02  0.5422E+02  0.3062E+02  0.3055E+02
     -6.199  0.2353E+02  0.2041E+02  0.3191E+02  0.3167E+02
     -6.145  0.2348E+02  0.2550E+02  0.3320E+02  0.3307E+02
     -6.090  0.3459E+02  0.3331E+02  0.3509E+02  0.3490E+02
     -6.035  0.4260E+02  0.3993E+02  0.3743E+02  0.3709E+02
     -5.980  0.2804E+02  0.3074E+02  0.3897E+02  0.3877E+02
     -5.925  0.3573E+02  0.3438E+02  0.4093E+02  0.4066E+02
     -5.870  0.3333E+02  0.3338E+02  0.4276E+02  0.4249E+02
     -5.815  0.2915E+02  0.3175E+02  0.4436E+02  0.4423E+02
     -5.761  0.3887E+02  0.3770E+02  0.4649E+02  0.4630E+02
     -5.706  0.4105E+02  0.3788E+02  0.4874E+02  0.4838E+02
     -5.651  0.3599E+02  0.3975E+02  0.5072E+02  0.5056E+02
     -5.596  0.2601E+02  0.2690E+02  0.5215E+02  0.5204E+02
     -5.541  0.5120E+02  0.4519E+02  0.5496E+02  0.5452E+02
     -5.486  0.4529E+02  0.4962E+02  0.5744E+02  0.5724E+02
     -5.431  0.4515E+02  0.4442E+02  0.5992E+02  0.5968E+02
     -5.376  0.5271E+02  0.5200E+02  0.6281E+02  0.6253E+02
     -5.322  0.4020E+02  0.3946E+02  0.6502E+02  0.6470E+02
     -5.267  0.2895E+02  0.3233E+02  0.6660E+02  0.6647E+02
     -5.212  0.3966E+02  0.3943E+02  0.6878E+02  0.6863E+02
     -5.157  0.4248E+02  0.4213E+02  0.7111E+02  0.7094E+02
     -5.102  0.4780E+02  0.4541E+02  0.7373E+02  0.7344E+02
     -5.047  0.6039E+02  0.6041E+02  0.7705E+02  0.7675E+02
     -4.992  0.3684E+02  0.3578E+02  0.7907E+02  0.7871E+02
     -4.937  0.3790E+02  0.4053E+02  0.8115E+02  0.8094E+02
     -4.883  0.3041E+02  0.2960E+02  0.8282E+02  0.8256E+02
     -4.828  0.3732E+02  0.3692E+02  0.8486E+02  0.8459E+02
     -4.773  0.2355E+02  0.2783E+02  0.8616E+02  0.8611E+02
     -4.718  0.4276E+02  0.3634E+02  0.8850E+02  0.8811E+02
     -4.663  0.3093E+02  0.3542E+02  0.9020E+02  0.9005E+02
     -4.608  0.3516E+02  0.3507E+02  0.9213E+02  0.9198E+02
     -4.553  0.3800E+02  0.3778E+02  0.9421E+02  0.9405E+02
     -4.499  0.3438E+02  0.3234E+02  0.9610E+02  0.9582E+02
     -4.444  0.3813E+02  0.3675E+02  0.9819E+02  0.9784E+02
     -4.389  0.4877E+02  0.5172E+02  0.1009E+03  0.1007E+03
     -4.334  0.2402E+02  0.2612E+02  0.1022E+03  0.1021E+03
     -4.279  0.4391E+02  0.4115E+02  0.1046E+03  0.1044E+03
     -4.224  0.1983E+02  0.2155E+02  0.1057E+03  0.1056E+03
     -4.169  0.3391E+02  0.3226E+02  0.1075E+03  0.1073E+03
     -4.114  0.1849E+02  0.1962E+02  0.1086E+03  0.1084E+03
     -4.060  0.2836E+02  0.3066E+02  0.1101E+03  0.1101E+03
     -4.005  0.1381E+02  0.1420E+02  0.1109E+03  0.1109E+03
     -3.950  0.6912E+01  0.6330E+01  0.1113E+03  0.1112E+03
     -3.895  0.3273E+02  0.2851E+02  0.1130E+03  0.1128E+03
     -3.840  0.1425E+02  0.1822E+02  0.1138E+03  0.1138E+03
     -3.785  0.1454E+02  0.1555E+02  0.1146E+03  0.1146E+03
     -3.730  0.6846E+01  0.6189E+01  0.1150E+03  0.1150E+03
     -3.675  0.2835E+02  0.1881E+02  0.1166E+03  0.1160E+03
     -3.621  0.1551E+02  0.2465E+02  0.1174E+03  0.1173E+03
     -3.566  0.1754E+02  0.1449E+02  0.1184E+03  0.1181E+03
     -3.511  0.2771E+02  0.2777E+02  0.1199E+03  0.1197E+03
     -3.456  0.1732E+02  0.1957E+02  0.1208E+03  0.1207E+03
     -3.401  0.1129E+02  0.1060E+02  0.1215E+03  0.1213E+03
     -3.346  0.2078E+02  0.2140E+02  0.1226E+03  0.1225E+03
     -3.291  0.2273E+02  0.2375E+02  0.1239E+03  0.1238E+03
     -3.237  0.1019E+02  0.9638E+01  0.1244E+03  0.1243E+03
     -3.182  0.2499E+02  0.2485E+02  0.1258E+03  0.1257E+03
     -3.127  0.2793E+02  0.2551E+02  0.1273E+03  0.1271E+03
     -3.072  0.3563E+02  0.3662E+02  0.1293E+03  0.1291E+03
     -3.017  0.1606E+02  0.1820E+02  0.1301E+03  0.1301E+03
     -2.962  0.2998E+02  0.2354E+02  0.1318E+03  0.1314E+03
     -2.907  0.2234E+02  0.2794E+02  0.1330E+03  0.1329E+03
     -2.852  0.3331E+02  0.3129E+02  0.1348E+03  0.1346E+03
     -2.798  0.2707E+02  0.2854E+02  0.1363E+03  0.1362E+03
     -2.743  0.3271E+02  0.2663E+02  0.1381E+03  0.1377E+03
     -2.688  0.4530E+02  0.4874E+02  0.1406E+03  0.1403E+03
     -2.633  0.2786E+02  0.2608E+02  0.1421E+03  0.1418E+03
     -2.578  0.4417E+02  0.4458E+02  0.1446E+03  0.1442E+03
     -2.523  0.3666E+02  0.3742E+02  0.1466E+03  0.1463E+03
     -2.468  0.4537E+02  0.4307E+02  0.1491E+03  0.1486E+03
     -2.413  0.5628E+02  0.6112E+02  0.1522E+03  0.1520E+03
     -2.359  0.6916E+02  0.6462E+02  0.1560E+03  0.1555E+03
     -2.304  0.5904E+02  0.6175E+02  0.1592E+03  0.1589E+03
     -2.249  0.4788E+02  0.4835E+02  0.1618E+03  0.1616E+03
     -2.194  0.6754E+02  0.6291E+02  0.1655E+03  0.1650E+03
     -2.139  0.5580E+02  0.6149E+02  0.1686E+03  0.1684E+03
     -2.084  0.2284E+02  0.2351E+02  0.1698E+03  0.1697E+03
     -2.029  0.4003E+02  0.3763E+02  0.1720E+03  0.1718E+03
     -1.975  0.4514E+02  0.4556E+02  0.1745E+03  0.1743E+03
     -1.920  0.4537E+02  0.4310E+02  0.1770E+03  0.1766E+03
     -1.865  0.3425E+02  0.3795E+02  0.1789E+03  0.1787E+03
     -1.810  0.3425E+02  0.3135E+02  0.1808E+03  0.1804E+03
     -1.755  0.2611E+02  0.2879E+02  0.1822E+03  0.1820E+03
     -1.700  0.3415E+02  0.3563E+02  0.1841E+03  0.1840E+03
     -1.645  0.2278E+02  0.2200E+02  0.1853E+03  0.1852E+03
     -1.590  0.3529E+02  0.3226E+02  0.1873E+03  0.1869E+03
     -1.536  0.3660E+02  0.3917E+02  0.1893E+03  0.1891E+03
     -1.481  0.2916E+02  0.2807E+02  0.1909E+03  0.1906E+03
     -1.426  0.4133E+02  0.3722E+02  0.1931E+03  0.1927E+03
     -1.371  0.4383E+02  0.4744E+02  0.1955E+03  0.1953E+03
     -1.316  0.3088E+02  0.3344E+02  0.1972E+03  0.1971E+03
     -1.261  0.1360E+02  0.1466E+02  0.1980E+03  0.1979E+03
     -1.206  0.1162E+02  0.1077E+02  0.1986E+03  0.1985E+03
     -1.151  0.1852E+02  0.1879E+02  0.1996E+03  0.1995E+03
     -1.097  0.1344E+02  0.1306E+02  0.2004E+03  0.2002E+03
     -1.042  0.2791E+02  0.2902E+02  0.2019E+03  0.2018E+03
     -0.987  0.2157E+02  0.1835E+02  0.2031E+03  0.2028E+03
     -0.932  0.3103E+02  0.3152E+02  0.2048E+03  0.2046E+03
     -0.877  0.2172E+02  0.2347E+02  0.2060E+03  0.2059E+03
     -0.822  0.1406E+02  0.1236E+02  0.2067E+03  0.2065E+03
     -0.767  0.1986E+02  0.2172E+02  0.2078E+03  0.2077E+03
     -0.713  0.1633E+02  0.1641E+02  0.2087E+03  0.2086E+03
     -0.658  0.1432E+02  0.1391E+02  0.2095E+03  0.2094E+03
     -0.603  0.2377E+02  0.2447E+02  0.2108E+03  0.2107E+03
     -0.548  0.1673E+02  0.1281E+02  0.2117E+03  0.2114E+03
     -0.493  0.3887E+02  0.3628E+02  0.2139E+03  0.2134E+03
     -0.438  0.3773E+02  0.4097E+02  0.2159E+03  0.2157E+03
     -0.383  0.2077E+02  0.2114E+02  0.2171E+03  0.2168E+03
     -0.328  0.2156E+02  0.2090E+02  0.2183E+03  0.2180E+03
     -0.274  0.1144E+02  0.1471E+02  0.2189E+03  0.2188E+03
     -0.219  0.9368E+01  0.8911E+01  0.2194E+03  0.2193E+03
     -0.164  0.2853E+02  0.2751E+02  0.2210E+03  0.2208E+03
     -0.109  0.1106E+02  0.1157E+02  0.2216E+03  0.2214E+03
     -0.054  0.1002E+02  0.1258E+02  0.2221E+03  0.2221E+03
      0.001  0.1374E+02  0.1114E+02  0.2229E+03  0.2227E+03
      0.056  0.2448E+02  0.2483E+02  0.2242E+03  0.2241E+03
      0.111  0.6815E+01  0.6971E+01  0.2246E+03  0.2245E+03
      0.165  0.2078E+02  0.1895E+02  0.2257E+03  0.2255E+03
      0.220  0.3815E+02  0.3865E+02  0.2278E+03  0.2276E+03
      0.275  0.4192E+02  0.4059E+02  0.2301E+03  0.2299E+03
      0.330  0.6836E+02  0.6931E+02  0.2339E+03  0.2337E+03
      0.385  0.3332E+02  0.3205E+02  0.2357E+03  0.2354E+03
      0.440  0.3441E+02  0.3560E+02  0.2376E+03  0.2374E+03
      0.495  0.5555E+02  0.5232E+02  0.2406E+03  0.2403E+03
      0.549  0.4645E+02  0.4878E+02  0.2432E+03  0.2429E+03
      0.604  0.7120E+02  0.7089E+02  0.2471E+03  0.2468E+03
      0.659  0.4489E+02  0.4053E+02  0.2496E+03  0.2490E+03
      0.714  0.5326E+02  0.6115E+02  0.2525E+03  0.2524E+03
      0.769  0.5863E+02  0.5313E+02  0.2557E+03  0.2553E+03
      0.824  0.8953E+02  0.8438E+02  0.2606E+03  0.2599E+03
      0.879  0.7256E+02  0.7862E+02  0.2646E+03  0.2643E+03
      0.934  0.6636E+02  0.6360E+02  0.2682E+03  0.2677E+03
      0.988  0.4638E+02  0.4987E+02  0.2708E+03  0.2705E+03
      1.043  0.4942E+02  0.5093E+02  0.2735E+03  0.2733E+03
      1.098  0.7030E+02  0.6468E+02  0.2774E+03  0.2768E+03
      1.153  0.7290E+02  0.7404E+02  0.2814E+03  0.2809E+03
      1.208  0.6288E+02  0.6518E+02  0.2848E+03  0.2845E+03
      1.263  0.8689E+02  0.8194E+02  0.2896E+03  0.2890E+03
      1.318  0.6798E+02  0.6724E+02  0.2933E+03  0.2926E+03
      1.373  0.8634E+02  0.8908E+02  0.2980E+03  0.2975E+03
      1.427  0.5301E+02  0.5828E+02  0.3009E+03  0.3007E+03
      1.482  0.7284E+02  0.5923E+02  0.3049E+03  0.3040E+03
      1.537  0.8689E+02  0.9678E+02  0.3097E+03  0.3093E+03
      1.592  0.3759E+02  0.4106E+02  0.3118E+03  0.3115E+03
      1.647  0.8211E+02  0.7869E+02  0.3163E+03  0.3159E+03
      1.702  0.7821E+02  0.7406E+02  0.3206E+03  0.3199E+03
      1.757  0.7573E+02  0.7866E+02  0.3247E+03  0.3242E+03
      1.811  0.8523E+02  0.8446E+02  0.3294E+03  0.3289E+03
      1.866  0.9836E+02  0.9912E+02  0.3348E+03  0.3343E+03
      1.921  0.8092E+02  0.8154E+02  0.3392E+03  0.3388E+03
      1.976  0.6944E+02  0.7063E+02  0.3431E+03  0.3427E+03
      2.031  0.7431E+02  0.7253E+02  0.3471E+03  0.3466E+03
      2.086  0.6574E+02  0.6825E+02  0.3507E+03  0.3504E+03
      2.141  0.5399E+02  0.5180E+02  0.3537E+03  0.3532E+03
      2.196  0.7702E+02  0.7652E+02  0.3579E+03  0.3574E+03
      2.250  0.6180E+02  0.5831E+02  0.3613E+03  0.3606E+03
      2.305  0.9797E+02  0.1008E+03  0.3667E+03  0.3662E+03
      2.360  0.5147E+02  0.5351E+02  0.3695E+03  0.3691E+03
      2.415  0.6802E+02  0.7068E+02  0.3732E+03  0.3730E+03
      2.470  0.6244E+02  0.6058E+02  0.3767E+03  0.3763E+03
      2.525  0.8545E+02  0.7682E+02  0.3814E+03  0.3805E+03
      2.580  0.7736E+02  0.8113E+02  0.3856E+03  0.3850E+03
      2.635  0.6492E+02  0.7014E+02  0.3892E+03  0.3888E+03
      2.689  0.6875E+02  0.6653E+02  0.3929E+03  0.3925E+03
      2.744  0.6410E+02  0.6378E+02  0.3965E+03  0.3960E+03
      2.799  0.4203E+02  0.4398E+02  0.3988E+03  0.3984E+03
      2.854  0.6236E+02  0.6723E+02  0.4022E+03  0.4021E+03
      2.909  0.4477E+02  0.4125E+02  0.4046E+03  0.4043E+03
      2.964  0.6663E+02  0.6220E+02  0.4083E+03  0.4077E+03
      3.019  0.7591E+02  0.7601E+02  0.4125E+03  0.4119E+03
      3.073  0.6384E+02  0.6512E+02  0.4160E+03  0.4155E+03
      3.128  0.6732E+02  0.6745E+02  0.4197E+03  0.4192E+03
      3.183  0.7429E+02  0.7454E+02  0.4237E+03  0.4233E+03
      3.238  0.5408E+02  0.5491E+02  0.4267E+03  0.4263E+03
      3.293  0.6387E+02  0.6016E+02  0.4302E+03  0.4296E+03
      3.348  0.6931E+02  0.7438E+02  0.4340E+03  0.4337E+03
      3.403  0.7120E+02  0.7070E+02  0.4379E+03  0.4376E+03
      3.458  0.5796E+02  0.5314E+02  0.4411E+03  0.4405E+03
      3.512  0.5057E+02  0.5095E+02  0.4439E+03  0.4433E+03
      3.567  0.5195E+02  0.5869E+02  0.4467E+03  0.4465E+03
      3.622  0.4068E+02  0.3173E+02  0.4490E+03  0.4482E+03
      3.677  0.4859E+02  0.5540E+02  0.4516E+03  0.4513E+03
      3.732  0.4361E+02  0.3922E+02  0.4540E+03  0.4534E+03
      3.787  0.3483E+02  0.4004E+02  0.4559E+03  0.4556E+03
      3.842  0.4313E+02  0.4248E+02  0.4583E+03  0.4579E+03
      3.897  0.2068E+02  0.2432E+02  0.4594E+03  0.4593E+03
      3.951  0.3109E+02  0.2889E+02  0.4611E+03  0.4609E+03
      4.006  0.3563E+02  0.3435E+02  0.4631E+03  0.4628E+03
      4.061  0.3578E+02  0.3749E+02  0.4651E+03  0.4648E+03
      4.116  0.3044E+02  0.3190E+02  0.4667E+03  0.4666E+03
      4.171  0.2122E+02  0.1576E+02  0.4679E+03  0.4674E+03
      4.226  0.1997E+02  0.1963E+02  0.4690E+03  0.4685E+03
      4.281  0.3282E+02  0.2596E+02  0.4708E+03  0.4699E+03
      4.335  0.1534E+02  0.2869E+02  0.4716E+03  0.4715E+03
      4.390  0.2138E+02  0.2012E+02  0.4728E+03  0.4726E+03
      4.445  0.9604E+01  0.4938E+01  0.4733E+03  0.4729E+03
      4.500  0.2277E+02  0.1560E+02  0.4746E+03  0.4737E+03
      4.555  0.1650E+02  0.2192E+02  0.4755E+03  0.4749E+03
      4.610  0.1169E+02  0.1026E+02  0.4761E+03  0.4755E+03
      4.665  0.7648E+01  0.1239E+02  0.4765E+03  0.4762E+03
      4.720  0.1585E+02  0.9277E+01  0.4774E+03  0.4767E+03
      4.774  0.1219E+02  0.1348E+02  0.4781E+03  0.4774E+03
      4.829  0.3703E+02  0.1062E+02  0.4801E+03  0.4780E+03
      4.884  0.2018E+02  0.4441E+02  0.4812E+03  0.4804E+03
      4.939  0.2491E+02  0.2395E+02  0.4826E+03  0.4818E+03
      4.994  0.2983E+02  0.2350E+02  0.4842E+03  0.4830E+03
      5.049  0.3143E+02  0.2663E+02  0.4859E+03  0.4845E+03
      5.104  0.3043E+02  0.2799E+02  0.4876E+03  0.4860E+03
      5.159  0.2958E+02  0.3652E+02  0.4892E+03  0.4880E+03
      5.213  0.4418E+02  0.3648E+02  0.4917E+03  0.4901E+03
      5.268  0.2792E+02  0.4371E+02  0.4932E+03  0.4924E+03
      5.323  0.2999E+02  0.2777E+02  0.4948E+03  0.4940E+03
      5.378  0.3892E+02  0.4046E+02  0.4970E+03  0.4962E+03
      5.433  0.3104E+02  0.3718E+02  0.4987E+03  0.4982E+03
      5.488  0.3209E+02  0.2784E+02  0.5004E+03  0.4998E+03
      5.543  0.3781E+02  0.3702E+02  0.5025E+03  0.5018E+03
      5.597  0.4180E+02  0.4203E+02  0.5048E+03  0.5041E+03
      5.652  0.5383E+02  0.5767E+02  0.5078E+03  0.5073E+03
      5.707  0.3521E+02  0.3656E+02  0.5097E+03  0.5093E+03
      5.762  0.3719E+02  0.3043E+02  0.5117E+03  0.5109E+03
      5.817  0.5962E+02  0.6128E+02  0.5150E+03  0.5143E+03
      5.872  0.5253E+02  0.5899E+02  0.5179E+03  0.5175E+03
      5.927  0.4456E+02  0.3833E+02  0.5203E+03  0.5196E+03
      5.982  0.6623E+02  0.5951E+02  0.5240E+03  0.5229E+03
      6.036  0.5804E+02  0.6778E+02  0.5272E+03  0.5266E+03
      6.091  0.3343E+02  0.3736E+02  0.5290E+03  0.5287E+03
      6.146  0.5003E+02  0.4851E+02  0.5317E+03  0.5313E+03
      6.201  0.4008E+02  0.3377E+02  0.5339E+03  0.5332E+03
      6.256  0.5791E+02  0.6035E+02  0.5371E+03  0.5365E+03
      6.311  0.5516E+02  0.5319E+02  0.5401E+03  0.5394E+03
      6.366  0.4613E+02  0.5098E+02  0.5427E+03  0.5422E+03
      6.421  0.4193E+02  0.4324E+02  0.5450E+03  0.5446E+03
      6.475  0.6885E+02  0.6744E+02  0.5487E+03  0.5483E+03
      6.530  0.4761E+02  0.4655E+02  0.5514E+03  0.5508E+03
      6.585  0.6574E+02  0.6531E+02  0.5550E+03  0.5544E+03
      6.640  0.6039E+02  0.6411E+02  0.5583E+03  0.5579E+03
      6.695  0.5186E+02  0.4410E+02  0.5611E+03  0.5604E+03
      6.750  0.4630E+02  0.4941E+02  0.5637E+03  0.5631E+03
      6.805  0.4281E+02  0.4814E+02  0.5660E+03  0.5657E+03
      6.859  0.4738E+02  0.4543E+02  0.5686E+03  0.5682E+03
      6.914  0.4611E+02  0.4720E+02  0.5711E+03  0.5708E+03
      6.969  0.3923E+02  0.3776E+02  0.5733E+03  0.5729E+03
      7.024  0.1729E+02  0.2482E+02  0.5742E+03  0.5742E+03
      7.079  0.1039E+02  0.8578E+01  0.5748E+03  0.5747E+03
      7.134  0.1801E+02  0.1861E+02  0.5758E+03  0.5757E+03
      7.189  0.3561E+01  0.4989E+01  0.5760E+03  0.5760E+03
      7.244  0.0000E+00  0.0000E+00  0.5760E+03  0.5760E+03
      7.298  0.0000E+00  0.0000E+00  0.5760E+03  0.5760E+03
      7.353  0.0000E+00  0.0000E+00  0.5760E+03  0.5760E+03
      7.408  0.0000E+00  0.0000E+00  0.5760E+03  0.5760E+03
      7.463  0.0000E+00  0.0000E+00  0.5760E+03  0.5760E+03
      7.518  0.0000E+00  0.0000E+00  0.5760E+03  0.5760E+03
      7.573  0.0000E+00  0.0000E+00  0.5760E+03  0.5760E+03
      7.628  0.0000E+00  0.0000E+00  0.5760E+03  0.5760E+03
      7.683  0.0000E+00  0.0000E+00  0.5760E+03  0.5760E+03
      7.737  0.0000E+00  0.0000E+00  0.5760E+03  0.5760E+03
      7.792  0.0000E+00  0.0000E+00  0.5760E+03  0.5760E+03
      7.847  0.0000E+00  0.0000E+00  0.5760E+03  0.5760E+03
      7.902  0.0000E+00  0.0000E+00  0.5760E+03  0.5760E+03
