 120 120   0   0
  0.1318225E+02  0.1629300E-08  0.1629300E-08  0.7994750E-09  0.5000000E-15
  1.000000000000000E-004
  CAR 
 Si and Ge interface calculation         
      7.76435026    -14.89415542  301      4.28631200      1.00000000
    -14.894  0.0000E+00  0.0000E+00  0.0000E+00  0.0000E+00
    -14.819  0.0000E+00  0.0000E+00  0.0000E+00  0.0000E+00
    -14.743  0.0000E+00  0.0000E+00  0.0000E+00  0.0000E+00
    -14.668  0.0000E+00  0.0000E+00  0.0000E+00  0.0000E+00
    -14.592  0.0000E+00  0.0000E+00  0.0000E+00  0.0000E+00
    -14.517  0.0000E+00  0.0000E+00  0.0000E+00  0.0000E+00
    -14.441  0.0000E+00  0.0000E+00  0.0000E+00  0.0000E+00
    -14.365  0.0000E+00  0.0000E+00  0.0000E+00  0.0000E+00
    -14.290  0.0000E+00  0.0000E+00  0.0000E+00  0.0000E+00
    -14.214  0.0000E+00  0.0000E+00  0.0000E+00  0.0000E+00
    -14.139  0.0000E+00  0.0000E+00  0.0000E+00  0.0000E+00
    -14.063  0.0000E+00  0.0000E+00  0.0000E+00  0.0000E+00
    -13.988  0.0000E+00  0.0000E+00  0.0000E+00  0.0000E+00
    -13.912  0.9179E-11  0.7350E-15  0.6933E-12  0.5551E-16
    -13.837  0.2949E+01  0.2926E+01  0.2228E+00  0.2210E+00
    -13.761  0.1764E+02  0.1748E+02  0.1555E+01  0.1543E+01
    -13.686  0.5882E+01  0.5686E+01  0.2000E+01  0.1985E+01
    -13.610  0.1250E+02  0.1182E+02  0.2944E+01  0.2893E+01
    -13.535  0.1690E+02  0.1716E+02  0.4221E+01  0.4189E+01
    -13.459  0.1262E+02  0.1188E+02  0.5175E+01  0.5120E+01
    -13.384  0.1416E+02  0.1427E+02  0.6245E+01  0.6198E+01
    -13.308  0.8147E+01  0.6877E+01  0.6861E+01  0.6743E+01
    -13.233  0.3381E+01  0.4895E+01  0.7144E+01  0.7113E+01
    -13.157  0.2684E+02  0.2643E+02  0.9172E+01  0.9109E+01
    -13.081  0.1240E+02  0.1025E+02  0.1011E+02  0.9890E+01
    -13.006  0.1034E+02  0.1322E+02  0.1089E+02  0.1089E+02
    -12.930  0.3491E+01  0.5762E+00  0.1115E+02  0.1093E+02
    -12.855  0.2005E+02  0.2294E+02  0.1267E+02  0.1267E+02
    -12.779  0.9884E+01  0.6305E+01  0.1341E+02  0.1314E+02
    -12.704  0.1954E+02  0.2312E+02  0.1489E+02  0.1489E+02
    -12.628  0.2502E+02  0.2059E+02  0.1678E+02  0.1644E+02
    -12.553  0.7649E+01  0.1184E+02  0.1747E+02  0.1734E+02
    -12.477  0.9993E+01  0.1125E+02  0.1822E+02  0.1820E+02
    -12.402  0.1595E+02  0.1142E+02  0.1943E+02  0.1908E+02
    -12.326  0.5473E+01  0.8264E+01  0.1985E+02  0.1979E+02
    -12.251  0.1076E+02  0.1157E+02  0.2067E+02  0.2067E+02
    -12.175  0.1630E+02  0.1455E+02  0.2190E+02  0.2177E+02
    -12.100  0.1605E+02  0.1747E+02  0.2311E+02  0.2311E+02
    -12.024  0.1749E+02  0.1620E+02  0.2443E+02  0.2433E+02
    -11.949  0.6925E-04  0.2085E-06  0.2444E+02  0.2444E+02
    -11.873  0.1381E+02  0.1198E+02  0.2549E+02  0.2535E+02
    -11.797  0.4709E+01  0.5782E+01  0.2584E+02  0.2579E+02
    -11.722  0.8332E+01  0.6746E+01  0.2647E+02  0.2630E+02
    -11.646  0.8469E+01  0.9292E+01  0.2711E+02  0.2700E+02
    -11.571  0.1116E+02  0.1328E+02  0.2800E+02  0.2800E+02
    -11.495  0.1611E-08  0.1564E-11  0.2800E+02  0.2800E+02
    -11.420  0.2942E+01  0.2942E+01  0.2822E+02  0.2822E+02
    -11.344  0.5855E+01  0.5528E+01  0.2866E+02  0.2864E+02
    -11.269  0.2956E+01  0.6909E+00  0.2889E+02  0.2872E+02
    -11.193  0.1750E+02  0.1869E+02  0.3021E+02  0.3013E+02
    -11.118  0.1857E+02  0.1553E+02  0.3162E+02  0.3132E+02
    -11.042  0.1072E+02  0.1498E+02  0.3255E+02  0.3245E+02
    -10.967  0.2515E+02  0.2581E+02  0.3445E+02  0.3440E+02
    -10.891  0.1599E+02  0.1385E+02  0.3566E+02  0.3549E+02
    -10.816  0.1120E+02  0.1280E+02  0.3650E+02  0.3646E+02
    -10.740  0.1925E+02  0.1784E+02  0.3796E+02  0.3780E+02
    -10.665  0.8810E+01  0.1141E+02  0.3867E+02  0.3867E+02
    -10.589  0.1121E+02  0.8921E+01  0.3951E+02  0.3934E+02
    -10.514  0.1321E+02  0.1493E+02  0.4055E+02  0.4047E+02
    -10.438  0.1845E+02  0.1722E+02  0.4195E+02  0.4177E+02
    -10.362  0.3856E+01  0.3675E+01  0.4229E+02  0.4211E+02
    -10.287  0.1379E+02  0.1558E+02  0.4333E+02  0.4329E+02
    -10.211  0.2922E+01  0.2942E+01  0.4356E+02  0.4356E+02
    -10.136  0.1444E+02  0.1310E+02  0.4465E+02  0.4454E+02
    -10.060  0.2325E-05  0.1303E+01  0.4467E+02  0.4467E+02
     -9.985  0.1762E+02  0.1715E+02  0.4600E+02  0.4596E+02
     -9.909  0.4389E+01  0.1490E+01  0.4633E+02  0.4611E+02
     -9.834  0.2666E+02  0.2763E+02  0.4840E+02  0.4820E+02
     -9.758  0.7063E+01  0.9127E+01  0.4898E+02  0.4890E+02
     -9.683  0.1096E+02  0.1115E+02  0.4981E+02  0.4974E+02
     -9.607  0.2019E+02  0.2057E+02  0.5133E+02  0.5133E+02
     -9.532  0.1479E+02  0.1471E+02  0.5245E+02  0.5244E+02
     -9.456  0.2068E+02  0.2059E+02  0.5401E+02  0.5400E+02
     -9.381  0.1584E+02  0.1253E+02  0.5521E+02  0.5495E+02
     -9.305  0.3872E+02  0.3504E+02  0.5815E+02  0.5759E+02
     -9.230  0.6060E+01  0.1224E+02  0.5868E+02  0.5867E+02
     -9.154  0.1410E+02  0.1106E+02  0.5974E+02  0.5950E+02
     -9.078  0.1443E+02  0.1482E+02  0.6086E+02  0.6068E+02
     -9.003  0.2078E+02  0.1799E+02  0.6243E+02  0.6205E+02
     -8.927  0.2265E+02  0.2324E+02  0.6417E+02  0.6380E+02
     -8.852  0.2496E+02  0.2530E+02  0.6607E+02  0.6581E+02
     -8.776  0.3852E+02  0.3600E+02  0.6901E+02  0.6853E+02
     -8.701  0.1495E+02  0.1854E+02  0.7021E+02  0.7001E+02
     -8.625  0.1210E+02  0.1439E+02  0.7112E+02  0.7111E+02
     -8.550  0.2856E+02  0.2262E+02  0.7328E+02  0.7282E+02
     -8.474  0.1483E+02  0.2020E+02  0.7444E+02  0.7438E+02
     -8.399  0.1056E+02  0.7433E+01  0.7524E+02  0.7495E+02
     -8.323  0.2777E+02  0.2936E+02  0.7738E+02  0.7719E+02
     -8.248  0.1511E+02  0.1483E+02  0.7854E+02  0.7836E+02
     -8.172  0.6273E+01  0.6981E+01  0.7902E+02  0.7890E+02
     -8.097  0.1109E+02  0.8806E+01  0.7986E+02  0.7957E+02
     -8.021  0.5808E+01  0.8836E+01  0.8032E+02  0.8023E+02
     -7.946  0.1430E+02  0.1350E+02  0.8140E+02  0.8125E+02
     -7.870  0.1314E+02  0.1576E+02  0.8244E+02  0.8244E+02
     -7.794  0.8165E-04  0.5176E-06  0.8244E+02  0.8244E+02
     -7.719  0.1177E+02  0.1174E+02  0.8333E+02  0.8333E+02
     -7.643  0.0000E+00  0.0000E+00  0.8333E+02  0.8333E+02
     -7.568  0.1861E-02  0.3633E-04  0.8333E+02  0.8333E+02
     -7.492  0.5883E+01  0.5884E+01  0.8378E+02  0.8378E+02
     -7.417  0.5884E+01  0.5884E+01  0.8422E+02  0.8422E+02
     -7.341  0.9242E+00  0.2629E+00  0.8429E+02  0.8424E+02
     -7.266  0.7902E+01  0.8563E+01  0.8489E+02  0.8489E+02
     -7.190  0.1112E-01  0.2308E-03  0.8489E+02  0.8489E+02
     -7.115  0.1492E+02  0.1198E+02  0.8602E+02  0.8579E+02
     -7.039  0.1094E+02  0.1293E+02  0.8688E+02  0.8680E+02
     -6.964  0.4242E+01  0.3168E+01  0.8721E+02  0.8707E+02
     -6.888  0.1076E+02  0.1217E+02  0.8808E+02  0.8799E+02
     -6.813  0.4942E+01  0.4766E+01  0.8849E+02  0.8840E+02
     -6.737  0.1255E+02  0.1370E+02  0.8945E+02  0.8944E+02
     -6.662  0.2140E+01  0.1932E+01  0.8961E+02  0.8959E+02
     -6.586  0.7561E+01  0.7648E+01  0.9018E+02  0.9017E+02
     -6.511  0.2417E+02  0.2008E+02  0.9201E+02  0.9168E+02
     -6.435  0.1646E+02  0.1921E+02  0.9328E+02  0.9318E+02
     -6.359  0.3104E+02  0.2806E+02  0.9564E+02  0.9530E+02
     -6.284  0.2757E+02  0.2973E+02  0.9777E+02  0.9758E+02
     -6.208  0.2523E+02  0.2472E+02  0.9969E+02  0.9945E+02
     -6.133  0.2328E+02  0.2238E+02  0.1015E+03  0.1012E+03
     -6.057  0.2348E+02  0.2401E+02  0.1033E+03  0.1030E+03
     -5.982  0.1370E+02  0.1525E+02  0.1044E+03  0.1042E+03
     -5.906  0.2648E+02  0.2672E+02  0.1064E+03  0.1062E+03
     -5.831  0.2686E+02  0.2516E+02  0.1085E+03  0.1081E+03
     -5.755  0.3909E+02  0.3781E+02  0.1114E+03  0.1110E+03
     -5.680  0.2305E+02  0.2409E+02  0.1132E+03  0.1129E+03
     -5.604  0.3805E+02  0.3660E+02  0.1161E+03  0.1156E+03
     -5.529  0.2897E+02  0.2964E+02  0.1183E+03  0.1179E+03
     -5.453  0.2750E+02  0.2985E+02  0.1204E+03  0.1202E+03
     -5.378  0.2442E+02  0.2493E+02  0.1223E+03  0.1221E+03
     -5.302  0.2380E+02  0.2349E+02  0.1241E+03  0.1239E+03
     -5.227  0.2892E+02  0.2765E+02  0.1263E+03  0.1260E+03
     -5.151  0.2984E+02  0.3357E+02  0.1286E+03  0.1286E+03
     -5.075  0.3166E+02  0.2707E+02  0.1310E+03  0.1306E+03
     -5.000  0.3383E+02  0.3466E+02  0.1336E+03  0.1333E+03
     -4.924  0.2890E+02  0.3095E+02  0.1359E+03  0.1357E+03
     -4.849  0.2190E+02  0.2025E+02  0.1375E+03  0.1372E+03
     -4.773  0.3120E+02  0.3367E+02  0.1399E+03  0.1398E+03
     -4.698  0.2240E+02  0.2212E+02  0.1416E+03  0.1415E+03
     -4.622  0.3272E+02  0.3036E+02  0.1441E+03  0.1438E+03
     -4.547  0.2443E+02  0.2545E+02  0.1461E+03  0.1458E+03
     -4.471  0.3300E+02  0.3217E+02  0.1486E+03  0.1482E+03
     -4.396  0.2689E+02  0.2957E+02  0.1507E+03  0.1506E+03
     -4.320  0.3223E+02  0.2606E+02  0.1531E+03  0.1526E+03
     -4.245  0.2521E+02  0.3060E+02  0.1551E+03  0.1549E+03
     -4.169  0.3711E+02  0.3510E+02  0.1579E+03  0.1576E+03
     -4.094  0.2664E+02  0.2745E+02  0.1600E+03  0.1597E+03
     -4.018  0.2610E+02  0.2798E+02  0.1620E+03  0.1618E+03
     -3.943  0.1600E+02  0.1616E+02  0.1632E+03  0.1631E+03
     -3.867  0.2361E+02  0.2289E+02  0.1650E+03  0.1648E+03
     -3.791  0.2216E+02  0.2083E+02  0.1667E+03  0.1664E+03
     -3.716  0.3313E+02  0.3213E+02  0.1692E+03  0.1689E+03
     -3.640  0.2869E+02  0.2993E+02  0.1714E+03  0.1712E+03
     -3.565  0.3509E+02  0.3629E+02  0.1741E+03  0.1739E+03
     -3.489  0.3135E+02  0.2983E+02  0.1765E+03  0.1762E+03
     -3.414  0.2789E+02  0.2700E+02  0.1786E+03  0.1783E+03
     -3.338  0.2366E+02  0.2411E+02  0.1804E+03  0.1802E+03
     -3.263  0.2226E+02  0.2215E+02  0.1821E+03  0.1819E+03
     -3.187  0.2876E+02  0.2930E+02  0.1843E+03  0.1841E+03
     -3.112  0.3741E+02  0.3583E+02  0.1871E+03  0.1869E+03
     -3.036  0.2863E+02  0.2854E+02  0.1893E+03  0.1891E+03
     -2.961  0.2507E+02  0.2335E+02  0.1912E+03  0.1909E+03
     -2.885  0.2494E+02  0.2479E+02  0.1931E+03  0.1928E+03
     -2.810  0.2814E+02  0.2917E+02  0.1953E+03  0.1950E+03
     -2.734  0.1682E+02  0.1825E+02  0.1966E+03  0.1964E+03
     -2.659  0.1948E+02  0.1932E+02  0.1981E+03  0.1979E+03
     -2.583  0.3132E+02  0.2965E+02  0.2005E+03  0.2002E+03
     -2.508  0.2878E+02  0.2772E+02  0.2027E+03  0.2024E+03
     -2.432  0.3973E+02  0.3983E+02  0.2057E+03  0.2054E+03
     -2.356  0.2990E+02  0.3233E+02  0.2081E+03  0.2079E+03
     -2.281  0.2828E+02  0.2726E+02  0.2103E+03  0.2100E+03
     -2.205  0.3796E+02  0.3779E+02  0.2132E+03  0.2128E+03
     -2.130  0.2624E+02  0.2879E+02  0.2152E+03  0.2150E+03
     -2.054  0.4274E+02  0.3852E+02  0.2184E+03  0.2180E+03
     -1.979  0.3479E+02  0.3455E+02  0.2211E+03  0.2206E+03
     -1.903  0.4312E+02  0.4587E+02  0.2244E+03  0.2241E+03
     -1.828  0.2759E+02  0.2685E+02  0.2265E+03  0.2262E+03
     -1.752  0.3430E+02  0.3364E+02  0.2291E+03  0.2287E+03
     -1.677  0.3590E+02  0.3586E+02  0.2319E+03  0.2315E+03
     -1.601  0.3764E+02  0.3423E+02  0.2348E+03  0.2341E+03
     -1.526  0.3281E+02  0.3682E+02  0.2373E+03  0.2370E+03
     -1.450  0.3282E+02  0.3337E+02  0.2398E+03  0.2395E+03
     -1.375  0.4022E+02  0.4024E+02  0.2430E+03  0.2426E+03
     -1.299  0.3719E+02  0.3752E+02  0.2458E+03  0.2454E+03
     -1.224  0.3460E+02  0.3169E+02  0.2485E+03  0.2479E+03
     -1.148  0.4300E+02  0.4545E+02  0.2517E+03  0.2514E+03
     -1.072  0.5159E+02  0.4929E+02  0.2557E+03  0.2551E+03
     -0.997  0.3768E+02  0.3864E+02  0.2586E+03  0.2581E+03
     -0.921  0.4470E+02  0.4686E+02  0.2621E+03  0.2617E+03
     -0.846  0.3620E+02  0.3711E+02  0.2649E+03  0.2646E+03
     -0.770  0.3110E+02  0.3128E+02  0.2673E+03  0.2670E+03
     -0.695  0.3143E+02  0.3173E+02  0.2696E+03  0.2695E+03
     -0.619  0.3271E+02  0.3134E+02  0.2721E+03  0.2719E+03
     -0.544  0.3684E+02  0.3515E+02  0.2750E+03  0.2746E+03
     -0.468  0.4083E+02  0.4060E+02  0.2781E+03  0.2777E+03
     -0.393  0.3198E+02  0.3167E+02  0.2806E+03  0.2802E+03
     -0.317  0.3574E+02  0.3476E+02  0.2833E+03  0.2828E+03
     -0.242  0.3166E+02  0.3336E+02  0.2858E+03  0.2854E+03
     -0.166  0.3356E+02  0.3738E+02  0.2884E+03  0.2882E+03
     -0.091  0.3651E+02  0.3449E+02  0.2912E+03  0.2909E+03
     -0.015  0.3490E+02  0.3419E+02  0.2939E+03  0.2935E+03
      0.060  0.4154E+02  0.3993E+02  0.2970E+03  0.2966E+03
      0.136  0.3695E+02  0.3689E+02  0.2999E+03  0.2994E+03
      0.212  0.4180E+02  0.4442E+02  0.3031E+03  0.3028E+03
      0.287  0.2104E+02  0.2264E+02  0.3048E+03  0.3046E+03
      0.363  0.3794E+02  0.3408E+02  0.3076E+03  0.3072E+03
      0.438  0.4767E+02  0.4531E+02  0.3113E+03  0.3107E+03
      0.514  0.3930E+02  0.4267E+02  0.3143E+03  0.3140E+03
      0.589  0.3824E+02  0.3842E+02  0.3172E+03  0.3169E+03
      0.665  0.4420E+02  0.4400E+02  0.3206E+03  0.3203E+03
      0.740  0.2168E+02  0.2133E+02  0.3223E+03  0.3220E+03
      0.816  0.3334E+02  0.3466E+02  0.3249E+03  0.3246E+03
      0.891  0.4183E+02  0.4096E+02  0.3281E+03  0.3277E+03
      0.967  0.3829E+02  0.3839E+02  0.3310E+03  0.3306E+03
      1.042  0.2886E+02  0.2941E+02  0.3332E+03  0.3329E+03
      1.118  0.4001E+02  0.3829E+02  0.3362E+03  0.3358E+03
      1.193  0.4844E+02  0.4658E+02  0.3399E+03  0.3394E+03
      1.269  0.4879E+02  0.4639E+02  0.3436E+03  0.3429E+03
      1.344  0.5319E+02  0.5492E+02  0.3477E+03  0.3471E+03
      1.420  0.3795E+02  0.3854E+02  0.3506E+03  0.3501E+03
      1.495  0.4347E+02  0.4074E+02  0.3539E+03  0.3533E+03
      1.571  0.4872E+02  0.4577E+02  0.3576E+03  0.3568E+03
      1.647  0.4494E+02  0.4918E+02  0.3611E+03  0.3606E+03
      1.722  0.3401E+02  0.3404E+02  0.3637E+03  0.3633E+03
      1.798  0.3889E+02  0.3715E+02  0.3667E+03  0.3661E+03
      1.873  0.3943E+02  0.4129E+02  0.3698E+03  0.3693E+03
      1.949  0.4547E+02  0.4320E+02  0.3732E+03  0.3726E+03
      2.024  0.3688E+02  0.3974E+02  0.3761E+03  0.3756E+03
      2.100  0.4050E+02  0.3810E+02  0.3792E+03  0.3785E+03
      2.175  0.5021E+02  0.5149E+02  0.3831E+03  0.3825E+03
      2.251  0.3830E+02  0.3818E+02  0.3860E+03  0.3855E+03
      2.326  0.5346E+02  0.5252E+02  0.3901E+03  0.3895E+03
      2.402  0.4217E+02  0.4466E+02  0.3933E+03  0.3929E+03
      2.477  0.4563E+02  0.4422E+02  0.3968E+03  0.3963E+03
      2.553  0.4693E+02  0.4451E+02  0.4004E+03  0.3997E+03
      2.628  0.4201E+02  0.4250E+02  0.4036E+03  0.4029E+03
      2.704  0.4359E+02  0.4100E+02  0.4070E+03  0.4060E+03
      2.779  0.4742E+02  0.5007E+02  0.4106E+03  0.4098E+03
      2.855  0.4130E+02  0.4060E+02  0.4138E+03  0.4130E+03
      2.931  0.4615E+02  0.5007E+02  0.4174E+03  0.4168E+03
      3.006  0.4837E+02  0.4565E+02  0.4211E+03  0.4203E+03
      3.082  0.4254E+02  0.4528E+02  0.4244E+03  0.4238E+03
      3.157  0.5169E+02  0.4764E+02  0.4284E+03  0.4275E+03
      3.233  0.5031E+02  0.5213E+02  0.4322E+03  0.4315E+03
      3.308  0.4232E+02  0.3747E+02  0.4354E+03  0.4345E+03
      3.384  0.4408E+02  0.4913E+02  0.4389E+03  0.4382E+03
      3.459  0.3984E+02  0.4196E+02  0.4419E+03  0.4414E+03
      3.535  0.4611E+02  0.4427E+02  0.4454E+03  0.4448E+03
      3.610  0.4519E+02  0.4416E+02  0.4489E+03  0.4482E+03
      3.686  0.4552E+02  0.4511E+02  0.4524E+03  0.4516E+03
      3.761  0.4561E+02  0.4407E+02  0.4559E+03  0.4550E+03
      3.837  0.4494E+02  0.5094E+02  0.4593E+03  0.4588E+03
      3.912  0.3933E+02  0.3762E+02  0.4623E+03  0.4618E+03
      3.988  0.3888E+02  0.3171E+02  0.4653E+03  0.4642E+03
      4.063  0.4469E+02  0.4627E+02  0.4687E+03  0.4678E+03
      4.139  0.4163E+02  0.4174E+02  0.4719E+03  0.4710E+03
      4.215  0.5435E+02  0.4632E+02  0.4760E+03  0.4745E+03
      4.290  0.6418E+02  0.6263E+02  0.4810E+03  0.4793E+03
      4.366  0.4228E+02  0.5011E+02  0.4842E+03  0.4831E+03
      4.441  0.4652E+02  0.5002E+02  0.4877E+03  0.4869E+03
      4.517  0.4830E+02  0.4455E+02  0.4914E+03  0.4904E+03
      4.592  0.3650E+02  0.3980E+02  0.4942E+03  0.4935E+03
      4.668  0.3441E+02  0.3048E+02  0.4968E+03  0.4958E+03
      4.743  0.4757E+02  0.4896E+02  0.5004E+03  0.4995E+03
      4.819  0.3464E+02  0.3686E+02  0.5031E+03  0.5024E+03
      4.894  0.4611E+02  0.3992E+02  0.5066E+03  0.5054E+03
      4.970  0.3441E+02  0.3847E+02  0.5093E+03  0.5084E+03
      5.045  0.4313E+02  0.4124E+02  0.5126E+03  0.5115E+03
      5.121  0.5282E+02  0.5409E+02  0.5167E+03  0.5156E+03
      5.196  0.4511E+02  0.4739E+02  0.5201E+03  0.5193E+03
      5.272  0.4715E+02  0.4532E+02  0.5237E+03  0.5227E+03
      5.347  0.3817E+02  0.4195E+02  0.5266E+03  0.5260E+03
      5.423  0.4073E+02  0.3900E+02  0.5297E+03  0.5290E+03
      5.498  0.4331E+02  0.4293E+02  0.5330E+03  0.5323E+03
      5.574  0.3693E+02  0.3753E+02  0.5359E+03  0.5351E+03
      5.650  0.3506E+02  0.3325E+02  0.5386E+03  0.5376E+03
      5.725  0.3730E+02  0.4077E+02  0.5414E+03  0.5407E+03
      5.801  0.3768E+02  0.3651E+02  0.5443E+03  0.5436E+03
      5.876  0.3137E+02  0.2836E+02  0.5467E+03  0.5458E+03
      5.952  0.3567E+02  0.4186E+02  0.5495E+03  0.5490E+03
      6.027  0.4129E+02  0.3558E+02  0.5526E+03  0.5517E+03
      6.103  0.3243E+02  0.3588E+02  0.5551E+03  0.5545E+03
      6.178  0.3500E+02  0.3563E+02  0.5578E+03  0.5572E+03
      6.254  0.4161E+02  0.3811E+02  0.5610E+03  0.5601E+03
      6.329  0.3692E+02  0.3882E+02  0.5638E+03  0.5632E+03
      6.405  0.4075E+02  0.4038E+02  0.5669E+03  0.5662E+03
      6.480  0.3475E+02  0.3376E+02  0.5696E+03  0.5688E+03
      6.556  0.2737E+02  0.3103E+02  0.5717E+03  0.5712E+03
      6.631  0.3788E+02  0.3501E+02  0.5745E+03  0.5739E+03
      6.707  0.1760E+02  0.2421E+02  0.5759E+03  0.5757E+03
      6.782  0.1207E+01  0.2890E+01  0.5760E+03  0.5760E+03
      6.858  0.0000E+00  0.0000E+00  0.5760E+03  0.5760E+03
      6.934  0.0000E+00  0.0000E+00  0.5760E+03  0.5760E+03
      7.009  0.0000E+00  0.0000E+00  0.5760E+03  0.5760E+03
      7.085  0.0000E+00  0.0000E+00  0.5760E+03  0.5760E+03
      7.160  0.0000E+00  0.0000E+00  0.5760E+03  0.5760E+03
      7.236  0.0000E+00  0.0000E+00  0.5760E+03  0.5760E+03
      7.311  0.0000E+00  0.0000E+00  0.5760E+03  0.5760E+03
      7.387  0.0000E+00  0.0000E+00  0.5760E+03  0.5760E+03
      7.462  0.0000E+00  0.0000E+00  0.5760E+03  0.5760E+03
      7.538  0.0000E+00  0.0000E+00  0.5760E+03  0.5760E+03
      7.613  0.0000E+00  0.0000E+00  0.5760E+03  0.5760E+03
      7.689  0.0000E+00  0.0000E+00  0.5760E+03  0.5760E+03
      7.764  0.0000E+00  0.0000E+00  0.5760E+03  0.5760E+03
