       N       E                     dE             d eps       ncg     rms          rms(c)
DAV:   1     0.237912514375E+04    0.23791E+04   -0.25558E+05 21888   0.186E+03
DAV:   2    -0.514244870506E+03   -0.28934E+04   -0.27633E+04 26840   0.293E+02
DAV:   3    -0.826512918390E+03   -0.31227E+03   -0.29761E+03 27248   0.898E+01
DAV:   4    -0.842926232618E+03   -0.16413E+02   -0.15826E+02 29120   0.202E+01
DAV:   5    -0.843784102648E+03   -0.85787E+00   -0.84381E+00 31504   0.404E+00    0.406E+01
DAV:   6    -0.831027386361E+03    0.12757E+02   -0.38400E+02 29928   0.369E+01    0.339E+01
DAV:   7    -0.794614959225E+03    0.36412E+02   -0.17155E+02 29880   0.259E+01    0.127E+01
DAV:   8    -0.799165140429E+03   -0.45502E+01   -0.37504E+01 30504   0.126E+01    0.103E+01
DAV:   9    -0.796188469489E+03    0.29767E+01   -0.10984E+01 28784   0.919E+00    0.486E+00
DAV:  10    -0.795892092091E+03    0.29638E+00   -0.40899E+00 30336   0.438E+00    0.307E+00
DAV:  11    -0.795745064233E+03    0.14703E+00   -0.12463E+00 29144   0.247E+00    0.170E+00
DAV:  12    -0.795748120885E+03   -0.30567E-02   -0.30764E-01 27632   0.124E+00    0.118E+00
DAV:  13    -0.795744731026E+03    0.33899E-02   -0.11402E-01 28216   0.891E-01    0.794E-01
DAV:  14    -0.795738133197E+03    0.65978E-02   -0.52107E-02 28360   0.580E-01    0.410E-01
DAV:  15    -0.795735052174E+03    0.30810E-02   -0.16587E-02 28416   0.318E-01    0.173E-01
DAV:  16    -0.795734861955E+03    0.19022E-03   -0.58341E-03 28520   0.165E-01    0.103E-01
DAV:  17    -0.795734785902E+03    0.76053E-04   -0.17619E-03 28856   0.838E-02    0.600E-02
DAV:  18    -0.795734768077E+03    0.17825E-04   -0.43198E-04 29624   0.444E-02    0.344E-02
DAV:  19    -0.795734755986E+03    0.12091E-04   -0.15992E-04 29248   0.278E-02    0.180E-02
DAV:  20    -0.795734754283E+03    0.17029E-05   -0.58641E-05 29592   0.163E-02    0.957E-03
DAV:  21    -0.795734755582E+03   -0.12990E-05   -0.18873E-05 27944   0.887E-03    0.606E-03
DAV:  22    -0.795734756512E+03   -0.92935E-06   -0.56542E-06 28960   0.471E-03    0.430E-03
DAV:  23    -0.795734756959E+03   -0.44700E-06   -0.21495E-06 29048   0.296E-03    0.309E-03
DAV:  24    -0.795734757247E+03   -0.28848E-06   -0.12284E-06 28192   0.225E-03    0.237E-03
DAV:  25    -0.795734757400E+03   -0.15237E-06   -0.92489E-07 27008   0.179E-03    0.166E-03
DAV:  26    -0.795734757493E+03   -0.93667E-07   -0.56279E-07 21520   0.134E-03
   1 F= -.79573476E+03 E0= -.79573326E+03  d E =-.298529E-02  mag=     1.0000
