Si and Ge interface calculation         
           1
    16.293001    0.000000    0.000000
     0.000000   17.174330    0.000000
     0.000000    0.000000   18.072529
   Si   Ge
    72   144
Direct configuration=     1
   0.13037890  0.82620466  0.23757547
   0.96371245  0.07620391  0.00000003
   0.79704571  0.42620403  0.04751512
   0.63037908  0.77620417  0.09503019
   0.46371227  0.12620449  0.14254530
   0.29704553  0.47620463  0.19006039
   0.46371227  0.82620466  0.23757547
   0.29704580  0.07620391  0.00000003
   0.13037908  0.42620403  0.04751512
   0.96371239  0.77620417  0.09503019
   0.79704559  0.12620449  0.14254530
   0.63037884  0.47620463  0.19006039
   0.79704559  0.82620466  0.23757547
   0.63037914  0.07620391  0.00000003
   0.46371242  0.42620403  0.04751512
   0.29704577  0.77620417  0.09503019
   0.13037898  0.12620449  0.14254530
   0.96371222  0.47620463  0.19006039
   0.21371222  0.57620478  0.23757543
   0.04704577  0.82620400  0.00000000
   0.88037908  0.17620420  0.04751511
   0.71371233  0.52620447  0.09503016
   0.54704559  0.87620461  0.14254527
   0.38037896  0.22620463  0.19006033
   0.54704559  0.57620478  0.23757543
   0.38037908  0.82620400  0.00000000
   0.21371238  0.17620420  0.04751511
   0.04704569  0.52620447  0.09503016
   0.88037896  0.87620461  0.14254527
   0.71371233  0.22620463  0.19006033
   0.88037890  0.57620478  0.23757543
   0.71371239  0.82620400  0.00000000
   0.54704571  0.17620420  0.04751511
   0.38037899  0.52620447  0.09503016
   0.21371223  0.87620461  0.14254527
   0.04704558  0.22620463  0.19006033
   0.13037890  0.32620478  0.23757547
   0.96371239  0.57620400  0.00000001
   0.79704571  0.92620414  0.04751509
   0.63037902  0.27620423  0.09503016
   0.46371227  0.62620449  0.14254530
   0.29704565  0.97620463  0.19006033
   0.46371227  0.32620478  0.23757547
   0.29704577  0.57620400  0.00000001
   0.13037905  0.92620414  0.04751509
   0.96371239  0.27620423  0.09503016
   0.79704559  0.62620449  0.14254530
   0.63037896  0.97620463  0.19006033
   0.79704559  0.32620478  0.23757547
   0.63037914  0.57620400  0.00000001
   0.46371239  0.92620414  0.04751509
   0.29704574  0.27620423  0.09503016
   0.13037898  0.62620449  0.14254530
   0.96371233  0.97620463  0.19006033
   0.21371222  0.07620478  0.23757541
   0.04704577  0.32620391  0.00000003
   0.88037908  0.67620403  0.04751510
   0.71371239  0.02620423  0.09503017
   0.54704559  0.37620449  0.14254527
   0.38037884  0.72620475  0.19006033
   0.54704559  0.07620478  0.23757541
   0.38037911  0.32620391  0.00000003
   0.21371241  0.67620403  0.04751510
   0.04704573  0.02620423  0.09503017
   0.88037896  0.37620449  0.14254527
   0.71371222  0.72620475  0.19006033
   0.88037896  0.07620478  0.23757541
   0.71371245  0.32620391  0.00000003
   0.54704577  0.67620403  0.04751510
   0.38037908  0.02620423  0.09503017
   0.21371229  0.37620449  0.14254527
   0.04704554  0.72620475  0.19006033
   0.44647932  0.15584290  0.34207848
   0.32147932  0.98917627  0.45276216
   0.19647932  0.82250959  0.56344593
   0.07147932  0.65584290  0.67412955
   0.94647944  0.48917621  0.78481323
   0.82147932  0.32250953  0.89549702
   0.44647932  0.48917627  0.34207848
   0.32147932  0.32250959  0.45276216
   0.19647932  0.15584290  0.56344593
   0.07147932  0.98917621  0.67412955
   0.94647944  0.82250959  0.78481323
   0.82147932  0.65584284  0.89549702
   0.44647932  0.82250965  0.34207848
   0.32147932  0.65584296  0.45276216
   0.19647932  0.48917621  0.56344593
   0.07147932  0.32250959  0.67412955
   0.94647944  0.15584290  0.78481323
   0.82147932  0.98917621  0.89549702
   0.94647932  0.15584290  0.34207848
   0.82147932  0.98917627  0.45276219
   0.69647932  0.82250959  0.56344593
   0.57147932  0.65584290  0.67412960
   0.44647932  0.48917621  0.78481323
   0.32147932  0.32250953  0.89549691
   0.94647932  0.48917627  0.34207848
   0.82147932  0.32250959  0.45276219
   0.69647932  0.15584290  0.56344593
   0.57147932  0.98917621  0.67412960
   0.44647932  0.82250959  0.78481323
   0.32147932  0.65584284  0.89549691
   0.94647932  0.82250965  0.34207848
   0.82147932  0.65584296  0.45276219
   0.69647932  0.48917621  0.56344593
   0.57147932  0.32250959  0.67412960
   0.44647932  0.15584290  0.78481323
   0.32147932  0.98917621  0.89549691
   0.69647932  0.15584290  0.34207848
   0.57147932  0.98917627  0.45276219
   0.44647932  0.82250959  0.56344593
   0.32147932  0.65584290  0.67412960
   0.19647932  0.48917621  0.78481323
   0.07147932  0.32250953  0.89549702
   0.69647932  0.48917627  0.34207848
   0.57147932  0.32250959  0.45276219
   0.44647932  0.15584290  0.56344593
   0.32147932  0.98917621  0.67412960
   0.19647932  0.82250959  0.78481323
   0.07147932  0.65584284  0.89549702
   0.69647932  0.82250965  0.34207848
   0.57147932  0.65584296  0.45276219
   0.44647932  0.48917621  0.56344593
   0.32147932  0.32250959  0.67412960
   0.19647932  0.15584290  0.78481323
   0.07147932  0.98917621  0.89549702
   0.19647932  0.15584290  0.34207845
   0.07147932  0.98917627  0.45276219
   0.94647932  0.82250959  0.56344587
   0.82147932  0.65584290  0.67412960
   0.69647938  0.48917621  0.78481323
   0.57147932  0.32250953  0.89549691
   0.19647932  0.48917627  0.34207845
   0.07147932  0.32250959  0.45276219
   0.94647932  0.15584290  0.56344587
   0.82147932  0.98917621  0.67412960
   0.69647938  0.82250959  0.78481323
   0.57147932  0.65584284  0.89549691
   0.19647932  0.82250965  0.34207845
   0.07147932  0.65584296  0.45276219
   0.94647932  0.48917621  0.56344587
   0.82147932  0.32250959  0.67412960
   0.69647938  0.15584290  0.78481323
   0.57147932  0.98917621  0.89549691
   0.82147932  0.40584296  0.34207845
   0.69647932  0.23917626  0.45276216
   0.57147932  0.07250953  0.56344587
   0.44647932  0.90584284  0.67412960
   0.32147932  0.73917621  0.78481323
   0.19647932  0.57250953  0.89549702
   0.82147932  0.73917633  0.34207845
   0.69647932  0.57250965  0.45276216
   0.57147932  0.40584293  0.56344587
   0.44647932  0.23917624  0.67412960
   0.32147932  0.07250953  0.78481323
   0.19647932  0.90584284  0.89549702
   0.82147932  0.07250965  0.34207845
   0.69647932  0.90584296  0.45276216
   0.57147932  0.73917621  0.56344587
   0.44647932  0.57250953  0.67412960
   0.32147932  0.40584290  0.78481323
   0.19647932  0.23917618  0.89549702
   0.32147944  0.40584296  0.34207845
   0.19647944  0.23917626  0.45276216
   0.07147944  0.07250953  0.56344587
   0.94647944  0.90584284  0.67412955
   0.82147944  0.73917621  0.78481323
   0.69647944  0.57250953  0.89549691
   0.32147944  0.73917633  0.34207845
   0.19647944  0.57250965  0.45276216
   0.07147944  0.40584293  0.56344587
   0.94647944  0.23917624  0.67412955
   0.82147944  0.07250953  0.78481323
   0.69647944  0.90584284  0.89549691
   0.32147944  0.07250965  0.34207845
   0.19647944  0.90584296  0.45276216
   0.07147944  0.73917621  0.56344587
   0.94647944  0.57250953  0.67412955
   0.82147944  0.40584290  0.78481323
   0.69647944  0.23917618  0.89549691
   0.57147932  0.40584296  0.34207848
   0.44647932  0.23917626  0.45276219
   0.32147932  0.07250953  0.56344587
   0.19647932  0.90584284  0.67412960
   0.07147932  0.73917621  0.78481323
   0.94647932  0.57250953  0.89549691
   0.57147932  0.73917633  0.34207848
   0.44647932  0.57250965  0.45276219
   0.32147932  0.40584293  0.56344587
   0.19647932  0.23917624  0.67412960
   0.07147932  0.07250953  0.78481323
   0.94647932  0.90584284  0.89549691
   0.57147932  0.07250965  0.34207848
   0.44647932  0.90584296  0.45276219
   0.32147932  0.73917621  0.56344587
   0.19647932  0.57250953  0.67412960
   0.07147932  0.40584290  0.78481323
   0.94647932  0.23917618  0.89549691
   0.07147932  0.40584296  0.34207845
   0.94647932  0.23917626  0.45276219
   0.82147932  0.07250953  0.56344587
   0.69647932  0.90584284  0.67412960
   0.57147938  0.73917621  0.78481323
   0.44647932  0.57250953  0.89549691
   0.07147932  0.73917633  0.34207845
   0.94647932  0.57250965  0.45276219
   0.82147932  0.40584293  0.56344587
   0.69647932  0.23917624  0.67412960
   0.57147938  0.07250953  0.78481323
   0.44647932  0.90584284  0.89549691
   0.07147932  0.07250965  0.34207845
   0.94647932  0.90584296  0.45276219
   0.82147932  0.73917621  0.56344587
   0.69647932  0.57250953  0.67412960
   0.57147938  0.40584290  0.78481323
   0.44647932  0.23917618  0.89549691
