Si and Ge interface calculation         
           1
    19.467600    0.000000    0.000000
     0.000000   19.467600    0.000000
     0.000000    0.000000   19.300253
   Sn   Si
   108   156
Direct configuration=     1
   0.99503511  0.66666669  0.00000000
   0.88149953  0.25519213  0.88601178
   0.66170174  0.66666669  0.33622354
   0.99503511  0.33333334  0.00000000
   0.57380748  0.71673053  0.88601178
   0.66170174  0.33333334  0.33622354
   0.41996121  0.94749975  0.88601178
   0.82836843  0.00000000  0.16811179
   0.97765356  0.23596150  0.53426754
   0.32836846  0.66666669  0.00000000
   0.99688429  0.83211523  0.88601178
   0.99503511  0.66666669  0.33622354
   0.76611495  0.67826903  0.88601178
   0.53534579  0.52442288  0.88601178
   0.99503511  0.33333334  0.33622354
   0.32836846  0.00000000  0.00000000
   0.61226893  0.90903825  0.88601178
   0.99503511  0.00000000  0.33622354
   0.93919194  0.04365373  0.81566292
   0.68919182  0.29365367  0.88601178
   0.32836846  0.66666669  0.33622354
   0.80457652  0.87057674  0.88601178
   0.03534579  0.02442288  0.88601178
   0.32836846  0.33333334  0.33622354
   0.66170180  0.00000000  0.00000000
   0.49503511  0.00000000  0.16811179
   0.32836846  0.00000000  0.33622354
   0.07836843  0.91666675  0.08405589
   0.74688435  0.08211532  0.53426754
   0.74503505  0.91666675  0.42027944
   0.07836843  0.58333343  0.08405589
   0.28534591  0.77442300  0.53426754
   0.74503505  0.58333343  0.42027944
   0.07836843  0.25000000  0.08405589
   0.36226893  0.15903835  0.53426754
   0.16996121  0.19749993  0.53426754
   0.41170177  0.91666675  0.08405589
   0.43919206  0.54365373  0.53426754
   0.07836838  0.91666675  0.42027944
   0.41170177  0.58333343  0.08405589
   0.78534591  0.27442294  0.53426754
   0.51611519  0.92826909  0.53426754
   0.41170177  0.25000000  0.08405589
   0.24503510  0.25000000  0.25216761
   0.07836838  0.25000000  0.42027944
   0.74503517  0.91666675  0.08405589
   0.63149977  0.50519222  0.53426754
   0.68919206  0.29365376  0.60461640
   0.74503517  0.58333343  0.08405589
   0.32380748  0.96673077  0.53426754
   0.55457663  0.12057686  0.53426754
   0.74503517  0.25000000  0.08405589
   0.57836855  0.25000000  0.25216761
   0.41170180  0.25000000  0.42027944
   0.16170177  0.83333331  0.00000000
   0.38149977  0.75519222  0.88601178
   0.82836843  0.83333331  0.33622354
   0.26611507  0.17826901  0.88601178
   0.91996121  0.44749984  0.88601178
   0.82836843  0.50000000  0.33622354
   0.16170177  0.16666667  0.00000000
   0.95842272  0.63980752  0.88601178
   0.82836843  0.16666667  0.33622354
   0.49503511  0.83333331  0.00000000
   0.32836843  0.83333331  0.16811179
   0.16170175  0.83333331  0.33622354
   0.49503511  0.50000000  0.00000000
   0.01611507  0.42826906  0.81566292
   0.16170175  0.50000000  0.33622354
   0.84303808  0.06288444  0.88601178
   0.32836843  0.16666667  0.16811179
   0.16170175  0.16666667  0.33622354
   0.82836855  0.83333331  0.00000000
   0.72765350  0.48596138  0.88601178
   0.49503520  0.83333331  0.33622354
   0.82836855  0.50000000  0.00000000
   0.66170186  0.50000000  0.16811179
   0.49503520  0.50000000  0.33622354
   0.82836855  0.16666667  0.00000000
   0.66170186  0.16666667  0.16811179
   0.49503520  0.16666667  0.33622354
   0.24503510  0.75000006  0.08405589
   0.76611519  0.67826915  0.60461640
   0.01611507  0.42826921  0.53426754
   0.24503510  0.41666672  0.08405589
   0.07836843  0.41666672  0.25216761
   0.91170174  0.41666672  0.42027944
   0.24503510  0.08333334  0.08405589
   0.07836843  0.08333334  0.25216761
   0.91170174  0.08333334  0.42027944
   0.57836848  0.75000006  0.08405589
   0.41170186  0.75000006  0.25216761
   0.24503513  0.75000006  0.42027944
   0.57836848  0.41666672  0.08405589
   0.41170186  0.41666672  0.25216761
   0.59303832  0.31288454  0.53426754
   0.57836848  0.08333334  0.08405589
   0.47765362  0.73596144  0.53426754
   0.24503513  0.08333334  0.42027944
   0.22765350  0.98596126  0.88601178
   0.66996133  0.69749987  0.53426754
   0.57836837  0.75000006  0.42027944
   0.91170174  0.41666672  0.08405589
   0.70842290  0.88980758  0.53426754
   0.57836837  0.41666672  0.42027944
   0.91170174  0.08333334  0.08405589
   0.13149977  0.00519216  0.53426754
   0.57836837  0.08333334  0.42027944
   0.93919206  0.04365373  0.53426754
   0.82380736  0.96673060  0.67496520
   0.70842266  0.88980746  0.81566292
   0.91170174  0.75000006  0.42027944
   0.90073037  0.35134605  0.67496520
   0.78534579  0.27442291  0.81566292
   0.74503505  0.25000000  0.42027944
   0.05457663  0.12057680  0.67496520
   0.66170180  0.66666669  0.00000000
   0.09303820  0.81288457  0.53426754
   0.97765350  0.73596144  0.67496520
   0.86226893  0.65903831  0.81566292
   0.24688435  0.58211529  0.53426754
   0.13149977  0.50519216  0.67496520
   0.32836843  0.50000000  0.16811179
   0.40073061  0.35134610  0.53426754
   0.28534579  0.27442294  0.67496520
   0.16996121  0.19749983  0.81566292
   0.41170180  0.58333343  0.42027944
   0.43919206  0.04365373  0.67496520
   0.32380736  0.96673053  0.81566292
   0.57836855  0.58333343  0.25216761
   0.20842290  0.88980764  0.67496520
   0.09303820  0.81288445  0.81566292
   0.41170186  0.08333334  0.25216761
   0.36226893  0.65903831  0.67496520
   0.24688423  0.58211517  0.81566292
   0.57836855  0.91666675  0.25216761
   0.51611507  0.42826912  0.67496520
   0.40073037  0.35134599  0.81566292
   0.24503510  0.58333343  0.25216761
   0.66996121  0.19749980  0.67496520
   0.55457663  0.12057667  0.81566292
   0.74503505  0.41666672  0.25216761
   0.59303832  0.81288445  0.67496520
   0.47765350  0.73596132  0.81566292
   0.86226904  0.65903837  0.53426754
   0.74688435  0.58211523  0.67496520
   0.63149977  0.50519210  0.81566292
   0.95842284  0.63980758  0.60461640
   0.84303820  0.56288445  0.74531406
   0.66170186  0.83333331  0.16811179
   0.11226893  0.40903842  0.60461640
   0.99688429  0.33211529  0.74531406
   0.82836843  0.66666669  0.16811179
   0.26611519  0.17826916  0.60461640
   0.15073049  0.10134602  0.74531406
   0.49503511  0.33333334  0.16811179
   0.03534591  0.02442300  0.60461640
   0.91996121  0.94749987  0.74531406
   0.66170180  0.33333334  0.00000000
   0.18919206  0.79365379  0.60461640
   0.07380736  0.71673065  0.74531406
   0.99503505  0.16666667  0.16811179
   0.34303832  0.56288457  0.60461640
   0.22765362  0.48596144  0.74531406
   0.11226893  0.40903831  0.88601178
   0.49688435  0.33211529  0.60461640
   0.38149977  0.25519213  0.74531406
   0.16170177  0.50000000  0.00000000
   0.65073061  0.10134605  0.60461640
   0.53534579  0.02442288  0.74531406
   0.99503511  0.00000000  0.00000000
   0.41996145  0.94749993  0.60461640
   0.30457663  0.87057680  0.74531406
   0.18919206  0.79365367  0.88601178
   0.57380748  0.71673071  0.60461640
   0.45842290  0.63980752  0.74531406
   0.34303808  0.56288439  0.88601178
   0.72765374  0.48596147  0.60461640
   0.61226893  0.40903831  0.74531406
   0.49688435  0.33211517  0.88601178
   0.88149977  0.25519225  0.60461640
   0.76611519  0.17826910  0.74531406
   0.65073037  0.10134596  0.88601178
   0.80457687  0.87057686  0.60461640
   0.68919218  0.79365373  0.74531406
   0.82836843  0.33333334  0.16811179
   0.66170174  0.00000000  0.33622354
   0.86226893  0.15903835  0.67496520
   0.74688423  0.08211522  0.81566292
   0.05457663  0.62057680  0.53426754
   0.93919206  0.54365373  0.67496520
   0.82380724  0.46673060  0.81566292
   0.20842290  0.38980767  0.53426754
   0.09303820  0.31288454  0.67496520
   0.97765350  0.23596141  0.81566292
   0.91170180  0.25000000  0.25216761
   0.24688435  0.08211523  0.67496520
   0.13149965  0.00519204  0.81566292
   0.74503505  0.08333334  0.25216761
   0.01611507  0.92826903  0.67496520
   0.90073037  0.85134596  0.81566292
   0.91170180  0.58333343  0.25216761
   0.16996121  0.69749987  0.67496520
   0.05457652  0.62057674  0.81566292
   0.24503510  0.91666675  0.25216761
   0.32380748  0.46673062  0.67496520
   0.20842266  0.38980749  0.81566292
   0.24503513  0.41666672  0.42027944
   0.47765362  0.23596141  0.67496520
   0.36226893  0.15903828  0.81566292
   0.91170180  0.91666675  0.25216761
   0.63149977  0.00519216  0.67496520
   0.51611507  0.92826903  0.81566292
   0.07836838  0.58333343  0.42027944
   0.40073037  0.85134602  0.67496520
   0.28534579  0.77442282  0.81566292
   0.74503505  0.75000006  0.25216761
   0.55457663  0.62057674  0.67496520
   0.43919194  0.54365361  0.81566292
   0.82380748  0.46673074  0.53426754
   0.70842290  0.38980761  0.67496520
   0.59303808  0.31288448  0.81566292
   0.90073061  0.85134602  0.53426754
   0.78534591  0.77442288  0.67496520
   0.66996121  0.69749975  0.81566292
   0.07380748  0.21673071  0.60461640
   0.95842278  0.13980758  0.74531406
   0.49503511  0.16666667  0.00000000
   0.99688435  0.83211535  0.60461640
   0.88149977  0.75519216  0.74531406
   0.32836846  0.33333334  0.00000000
   0.15073049  0.60134614  0.60461640
   0.03534591  0.52442300  0.74531406
   0.99503505  0.50000000  0.16811179
   0.30457663  0.37057689  0.60461640
   0.18919206  0.29365376  0.74531406
   0.07380736  0.21673061  0.88601178
   0.45842290  0.13980760  0.60461640
   0.34303820  0.06288448  0.74531406
   0.91170174  0.75000006  0.08405589
   0.22765362  0.98596156  0.60461640
   0.11226893  0.90903837  0.74531406
   0.16170174  0.66666669  0.16811179
   0.38149977  0.75519234  0.60461640
   0.26611507  0.67826915  0.74531406
   0.15073037  0.60134602  0.88601178
   0.53534603  0.52442300  0.60461640
   0.41996121  0.44749990  0.74531406
   0.30457663  0.37057677  0.88601178
   0.41170180  0.91666675  0.42027944
   0.57380748  0.21673062  0.74531406
   0.45842278  0.13980748  0.88601178
   0.84303832  0.06288454  0.60461640
   0.72765350  0.98596138  0.74531406
   0.16170174  0.00000000  0.16811179
   0.61226916  0.90903848  0.60461640
   0.49688435  0.83211535  0.74531406
   0.99503505  0.83333331  0.16811179
   0.07836843  0.75000006  0.25216761
   0.65073061  0.60134602  0.74531406
   0.16170174  0.33333334  0.16811179
   0.91996121  0.44749999  0.60461640
   0.80457663  0.37057683  0.74531406
   0.49503511  0.66666669  0.16811179
