  96  96   0   0
  0.2276159E+02  0.1265123E-08  0.1265123E-08  0.1393391E-08  0.5000000E-15
  1.000000000000000E-004
  CAR 
 Si and Ge interface calculation         
      6.46056150    -11.34526685  301      3.58278546      1.00000000
    -11.345  0.0000E+00  0.0000E+00  0.0000E+00  0.0000E+00
    -11.286  0.0000E+00  0.0000E+00  0.0000E+00  0.0000E+00
    -11.227  0.0000E+00  0.0000E+00  0.0000E+00  0.0000E+00
    -11.167  0.0000E+00  0.0000E+00  0.0000E+00  0.0000E+00
    -11.108  0.0000E+00  0.0000E+00  0.0000E+00  0.0000E+00
    -11.049  0.0000E+00  0.0000E+00  0.0000E+00  0.0000E+00
    -10.989  0.0000E+00  0.0000E+00  0.0000E+00  0.0000E+00
    -10.930  0.0000E+00  0.0000E+00  0.0000E+00  0.0000E+00
    -10.870  0.0000E+00  0.0000E+00  0.0000E+00  0.0000E+00
    -10.811  0.0000E+00  0.0000E+00  0.0000E+00  0.0000E+00
    -10.752  0.0000E+00  0.0000E+00  0.0000E+00  0.0000E+00
    -10.692  0.0000E+00  0.0000E+00  0.0000E+00  0.0000E+00
    -10.633  0.0000E+00  0.0000E+00  0.0000E+00  0.0000E+00
    -10.574  0.1529E-06  0.4512E-10  0.9077E-08  0.2678E-11
    -10.514  0.3337E+02  0.2893E+02  0.1980E+01  0.1717E+01
    -10.455  0.3285E+00  0.4772E+01  0.2000E+01  0.2000E+01
    -10.396  0.0000E+00  0.0000E+00  0.2000E+01  0.2000E+01
    -10.336  0.0000E+00  0.0000E+00  0.2000E+01  0.2000E+01
    -10.277  0.0000E+00  0.0000E+00  0.2000E+01  0.2000E+01
    -10.218  0.0000E+00  0.0000E+00  0.2000E+01  0.2000E+01
    -10.158  0.4061E+00  0.1670E-01  0.2024E+01  0.2001E+01
    -10.099  0.1613E+02  0.1232E+02  0.2981E+01  0.2732E+01
    -10.040  0.3850E+02  0.3783E+02  0.5266E+01  0.4978E+01
     -9.980  0.1225E+02  0.1564E+02  0.5993E+01  0.5906E+01
     -9.921  0.1088E+01  0.1639E+01  0.6058E+01  0.6003E+01
     -9.861  0.3273E+02  0.3363E+02  0.8000E+01  0.8000E+01
     -9.802  0.1219E+02  0.3068E+01  0.8724E+01  0.8182E+01
     -9.743  0.1027E+02  0.1940E+02  0.9333E+01  0.9333E+01
     -9.683  0.4346E-11  0.2078E-15  0.9333E+01  0.9333E+01
     -9.624  0.1417E+02  0.4785E+01  0.1017E+02  0.9617E+01
     -9.565  0.8293E+01  0.1768E+02  0.1067E+02  0.1067E+02
     -9.505  0.0000E+00  0.0000E+00  0.1067E+02  0.1067E+02
     -9.446  0.0000E+00  0.0000E+00  0.1067E+02  0.1067E+02
     -9.387  0.0000E+00  0.0000E+00  0.1067E+02  0.1067E+02
     -9.327  0.2078E-15  0.0000E+00  0.1067E+02  0.1067E+02
     -9.268  0.4674E+01  0.6537E+00  0.1094E+02  0.1071E+02
     -9.209  0.1779E+02  0.2181E+02  0.1200E+02  0.1200E+02
     -9.149  0.2246E+02  0.2240E+02  0.1333E+02  0.1333E+02
     -9.090  0.1129E+00  0.6032E-01  0.1334E+02  0.1333E+02
     -9.031  0.1112E+02  0.1123E+02  0.1400E+02  0.1400E+02
     -8.971  0.0000E+00  0.0000E+00  0.1400E+02  0.1400E+02
     -8.912  0.2437E-08  0.2207E-12  0.1400E+02  0.1400E+02
     -8.852  0.2079E+02  0.1311E+02  0.1523E+02  0.1478E+02
     -8.793  0.1289E+02  0.2029E+02  0.1600E+02  0.1598E+02
     -8.734  0.3001E+00  0.3080E+00  0.1602E+02  0.1600E+02
     -8.674  0.2219E+02  0.2239E+02  0.1733E+02  0.1733E+02
     -8.615  0.1123E+02  0.1129E+02  0.1800E+02  0.1800E+02
     -8.556  0.3337E+01  0.5139E+00  0.1820E+02  0.1803E+02
     -8.496  0.2160E+02  0.1921E+02  0.1948E+02  0.1917E+02
     -8.437  0.2443E+02  0.2297E+02  0.2093E+02  0.2053E+02
     -8.378  0.1777E+02  0.2374E+02  0.2199E+02  0.2194E+02
     -8.318  0.5049E+01  0.3164E+01  0.2228E+02  0.2213E+02
     -8.259  0.1435E+02  0.1652E+02  0.2314E+02  0.2311E+02
     -8.200  0.2148E+02  0.1728E+02  0.2441E+02  0.2414E+02
     -8.140  0.1002E+02  0.1447E+02  0.2501E+02  0.2500E+02
     -8.081  0.1762E+02  0.1405E+02  0.2605E+02  0.2583E+02
     -8.022  0.2530E+02  0.2823E+02  0.2755E+02  0.2751E+02
     -7.962  0.2331E+02  0.2043E+02  0.2894E+02  0.2872E+02
     -7.903  0.1787E+02  0.1781E+02  0.3000E+02  0.2978E+02
     -7.843  0.1917E+02  0.1926E+02  0.3114E+02  0.3092E+02
     -7.784  0.2240E+02  0.2368E+02  0.3247E+02  0.3232E+02
     -7.725  0.1130E+02  0.1296E+02  0.3314E+02  0.3309E+02
     -7.665  0.3643E+02  0.3318E+02  0.3530E+02  0.3506E+02
     -7.606  0.1995E+02  0.2330E+02  0.3648E+02  0.3645E+02
     -7.547  0.1581E+02  0.1424E+02  0.3742E+02  0.3729E+02
     -7.487  0.1662E+02  0.1728E+02  0.3841E+02  0.3832E+02
     -7.428  0.1917E+02  0.1825E+02  0.3955E+02  0.3940E+02
     -7.369  0.3732E+02  0.3389E+02  0.4176E+02  0.4141E+02
     -7.309  0.2414E+02  0.2697E+02  0.4319E+02  0.4301E+02
     -7.250  0.2130E+02  0.1783E+02  0.4446E+02  0.4407E+02
     -7.191  0.2058E+02  0.2451E+02  0.4568E+02  0.4553E+02
     -7.131  0.2744E+02  0.2735E+02  0.4731E+02  0.4715E+02
     -7.072  0.2134E+02  0.2135E+02  0.4857E+02  0.4842E+02
     -7.013  0.3305E+02  0.2806E+02  0.5054E+02  0.5008E+02
     -6.953  0.2479E+02  0.2990E+02  0.5201E+02  0.5186E+02
     -6.894  0.3874E+02  0.3325E+02  0.5431E+02  0.5383E+02
     -6.834  0.2303E+02  0.2687E+02  0.5567E+02  0.5543E+02
     -6.775  0.3549E+02  0.3629E+02  0.5778E+02  0.5758E+02
     -6.716  0.2365E+02  0.2237E+02  0.5918E+02  0.5891E+02
     -6.656  0.3315E+02  0.3248E+02  0.6115E+02  0.6084E+02
     -6.597  0.2845E+02  0.3032E+02  0.6284E+02  0.6264E+02
     -6.538  0.3282E+02  0.3215E+02  0.6479E+02  0.6454E+02
     -6.478  0.2150E+02  0.2038E+02  0.6606E+02  0.6575E+02
     -6.419  0.2917E+02  0.2661E+02  0.6780E+02  0.6733E+02
     -6.360  0.2821E+02  0.3387E+02  0.6947E+02  0.6934E+02
     -6.300  0.3512E+02  0.3112E+02  0.7156E+02  0.7119E+02
     -6.241  0.2605E+02  0.2793E+02  0.7310E+02  0.7285E+02
     -6.182  0.4468E+02  0.4404E+02  0.7575E+02  0.7546E+02
     -6.122  0.2637E+02  0.2720E+02  0.7732E+02  0.7708E+02
     -6.063  0.2039E+02  0.2249E+02  0.7853E+02  0.7841E+02
     -6.004  0.1616E+02  0.1467E+02  0.7949E+02  0.7928E+02
     -5.944  0.2167E+02  0.2137E+02  0.8077E+02  0.8055E+02
     -5.885  0.3058E+02  0.2867E+02  0.8259E+02  0.8225E+02
     -5.825  0.2673E+02  0.2699E+02  0.8418E+02  0.8385E+02
     -5.766  0.2590E+02  0.2574E+02  0.8571E+02  0.8538E+02
     -5.707  0.2806E+02  0.2932E+02  0.8738E+02  0.8712E+02
     -5.647  0.3652E+02  0.3308E+02  0.8955E+02  0.8909E+02
     -5.588  0.2714E+02  0.2876E+02  0.9116E+02  0.9079E+02
     -5.529  0.2776E+02  0.3179E+02  0.9280E+02  0.9268E+02
     -5.469  0.2942E+02  0.2992E+02  0.9455E+02  0.9446E+02
     -5.410  0.1490E+02  0.1214E+02  0.9543E+02  0.9518E+02
     -5.351  0.2009E+02  0.2314E+02  0.9663E+02  0.9655E+02
     -5.291  0.2427E+02  0.1726E+02  0.9807E+02  0.9757E+02
     -5.232  0.2455E+02  0.3047E+02  0.9952E+02  0.9938E+02
     -5.173  0.1207E+02  0.1083E+02  0.1002E+03  0.1000E+03
     -5.113  0.3096E+02  0.3218E+02  0.1021E+03  0.1019E+03
     -5.054  0.1848E+02  0.1834E+02  0.1032E+03  0.1030E+03
     -4.995  0.1782E+02  0.1898E+02  0.1042E+03  0.1042E+03
     -4.935  0.2916E+02  0.2702E+02  0.1060E+03  0.1058E+03
     -4.876  0.1748E+02  0.2090E+02  0.1070E+03  0.1070E+03
     -4.816  0.2375E+02  0.1679E+02  0.1084E+03  0.1080E+03
     -4.757  0.2920E+02  0.3131E+02  0.1101E+03  0.1099E+03
     -4.698  0.4146E+02  0.3743E+02  0.1126E+03  0.1121E+03
     -4.638  0.3719E+02  0.4132E+02  0.1148E+03  0.1145E+03
     -4.579  0.1854E+02  0.2099E+02  0.1159E+03  0.1158E+03
     -4.520  0.3343E+02  0.3062E+02  0.1179E+03  0.1176E+03
     -4.460  0.1248E+02  0.1527E+02  0.1186E+03  0.1185E+03
     -4.401  0.2589E+02  0.2531E+02  0.1202E+03  0.1200E+03
     -4.342  0.2092E+02  0.1903E+02  0.1214E+03  0.1211E+03
     -4.282  0.1723E+02  0.1972E+02  0.1224E+03  0.1223E+03
     -4.223  0.3020E+02  0.2513E+02  0.1242E+03  0.1238E+03
     -4.164  0.1005E+02  0.1672E+02  0.1248E+03  0.1248E+03
     -4.104  0.3258E+02  0.2836E+02  0.1268E+03  0.1265E+03
     -4.045  0.3194E+02  0.3418E+02  0.1287E+03  0.1285E+03
     -3.986  0.1444E+02  0.1387E+02  0.1295E+03  0.1293E+03
     -3.926  0.1798E+02  0.1981E+02  0.1306E+03  0.1305E+03
     -3.867  0.3033E+02  0.2628E+02  0.1324E+03  0.1321E+03
     -3.807  0.1787E+02  0.2033E+02  0.1334E+03  0.1333E+03
     -3.748  0.2370E+02  0.2281E+02  0.1348E+03  0.1346E+03
     -3.689  0.1546E+02  0.1786E+02  0.1358E+03  0.1357E+03
     -3.629  0.1602E+02  0.1523E+02  0.1367E+03  0.1366E+03
     -3.570  0.2598E+02  0.2433E+02  0.1383E+03  0.1380E+03
     -3.511  0.2408E+02  0.2358E+02  0.1397E+03  0.1394E+03
     -3.451  0.2550E+02  0.2745E+02  0.1412E+03  0.1411E+03
     -3.392  0.2804E+02  0.2443E+02  0.1429E+03  0.1425E+03
     -3.333  0.3138E+02  0.3348E+02  0.1447E+03  0.1445E+03
     -3.273  0.2173E+02  0.2130E+02  0.1460E+03  0.1458E+03
     -3.214  0.2700E+02  0.2934E+02  0.1476E+03  0.1475E+03
     -3.155  0.1835E+02  0.1980E+02  0.1487E+03  0.1487E+03
     -3.095  0.2665E+02  0.1999E+02  0.1503E+03  0.1499E+03
     -3.036  0.3193E+02  0.3367E+02  0.1522E+03  0.1519E+03
     -2.977  0.2025E+02  0.2078E+02  0.1534E+03  0.1531E+03
     -2.917  0.2963E+02  0.3033E+02  0.1551E+03  0.1549E+03
     -2.858  0.2549E+02  0.2818E+02  0.1567E+03  0.1566E+03
     -2.798  0.2162E+02  0.1925E+02  0.1579E+03  0.1577E+03
     -2.739  0.2041E+02  0.2375E+02  0.1592E+03  0.1591E+03
     -2.680  0.3246E+02  0.3010E+02  0.1611E+03  0.1609E+03
     -2.620  0.1692E+02  0.1702E+02  0.1621E+03  0.1619E+03
     -2.561  0.1862E+02  0.1867E+02  0.1632E+03  0.1630E+03
     -2.502  0.2931E+02  0.2549E+02  0.1649E+03  0.1645E+03
     -2.442  0.3029E+02  0.3283E+02  0.1667E+03  0.1665E+03
     -2.383  0.2523E+02  0.2492E+02  0.1682E+03  0.1680E+03
     -2.324  0.2134E+02  0.2086E+02  0.1695E+03  0.1692E+03
     -2.264  0.2711E+02  0.2650E+02  0.1711E+03  0.1708E+03
     -2.205  0.1404E+02  0.1782E+02  0.1719E+03  0.1718E+03
     -2.146  0.2694E+02  0.2708E+02  0.1735E+03  0.1734E+03
     -2.086  0.1781E+02  0.1311E+02  0.1746E+03  0.1742E+03
     -2.027  0.1649E+02  0.2243E+02  0.1756E+03  0.1755E+03
     -1.968  0.2045E+02  0.2051E+02  0.1768E+03  0.1768E+03
     -1.908  0.1622E+02  0.1209E+02  0.1777E+03  0.1775E+03
     -1.849  0.1659E+02  0.1666E+02  0.1787E+03  0.1785E+03
     -1.789  0.2360E+02  0.2570E+02  0.1801E+03  0.1800E+03
     -1.730  0.3233E+02  0.3055E+02  0.1821E+03  0.1818E+03
     -1.671  0.2897E+02  0.2951E+02  0.1838E+03  0.1836E+03
     -1.611  0.2644E+02  0.2700E+02  0.1853E+03  0.1852E+03
     -1.552  0.2113E+02  0.2007E+02  0.1866E+03  0.1864E+03
     -1.493  0.2724E+02  0.2813E+02  0.1882E+03  0.1880E+03
     -1.433  0.2026E+02  0.2063E+02  0.1894E+03  0.1892E+03
     -1.374  0.3061E+02  0.3017E+02  0.1912E+03  0.1910E+03
     -1.315  0.2194E+02  0.2329E+02  0.1925E+03  0.1924E+03
     -1.255  0.7172E+01  0.8022E+01  0.1930E+03  0.1929E+03
     -1.196  0.1894E+02  0.1530E+02  0.1941E+03  0.1938E+03
     -1.137  0.3372E+02  0.3551E+02  0.1961E+03  0.1959E+03
     -1.077  0.1882E+02  0.1901E+02  0.1972E+03  0.1970E+03
     -1.018  0.3122E+02  0.3000E+02  0.1991E+03  0.1988E+03
     -0.959  0.9805E+01  0.1162E+02  0.1996E+03  0.1995E+03
     -0.899  0.2570E+02  0.2385E+02  0.2012E+03  0.2009E+03
     -0.840  0.2487E+02  0.2786E+02  0.2026E+03  0.2026E+03
     -0.780  0.2465E+02  0.2259E+02  0.2041E+03  0.2039E+03
     -0.721  0.4337E+02  0.4135E+02  0.2067E+03  0.2064E+03
     -0.662  0.3546E+02  0.3428E+02  0.2088E+03  0.2084E+03
     -0.602  0.4019E+02  0.3889E+02  0.2112E+03  0.2107E+03
     -0.543  0.3953E+02  0.4345E+02  0.2135E+03  0.2133E+03
     -0.484  0.2805E+02  0.2352E+02  0.2152E+03  0.2147E+03
     -0.424  0.4206E+02  0.4563E+02  0.2177E+03  0.2174E+03
     -0.365  0.2344E+02  0.2424E+02  0.2191E+03  0.2188E+03
     -0.306  0.3461E+02  0.3367E+02  0.2211E+03  0.2208E+03
     -0.246  0.4169E+02  0.3979E+02  0.2236E+03  0.2232E+03
     -0.187  0.3199E+02  0.3553E+02  0.2255E+03  0.2253E+03
     -0.128  0.4216E+02  0.3994E+02  0.2280E+03  0.2277E+03
     -0.068  0.4000E+02  0.3999E+02  0.2304E+03  0.2301E+03
     -0.009  0.5238E+02  0.5195E+02  0.2335E+03  0.2331E+03
      0.050  0.2959E+02  0.2847E+02  0.2352E+03  0.2348E+03
      0.110  0.4304E+02  0.4402E+02  0.2378E+03  0.2374E+03
      0.169  0.3827E+02  0.3922E+02  0.2401E+03  0.2398E+03
      0.229  0.4370E+02  0.4363E+02  0.2427E+03  0.2424E+03
      0.288  0.4205E+02  0.4235E+02  0.2452E+03  0.2449E+03
      0.347  0.4178E+02  0.3720E+02  0.2476E+03  0.2471E+03
      0.407  0.5127E+02  0.5595E+02  0.2507E+03  0.2504E+03
      0.466  0.2802E+02  0.3028E+02  0.2523E+03  0.2522E+03
      0.525  0.3807E+02  0.3572E+02  0.2546E+03  0.2543E+03
      0.585  0.5926E+02  0.5908E+02  0.2581E+03  0.2578E+03
      0.644  0.3321E+02  0.2813E+02  0.2601E+03  0.2595E+03
      0.703  0.5260E+02  0.5552E+02  0.2632E+03  0.2628E+03
      0.763  0.4312E+02  0.4747E+02  0.2658E+03  0.2656E+03
      0.822  0.3942E+02  0.3843E+02  0.2681E+03  0.2679E+03
      0.881  0.6071E+02  0.5758E+02  0.2717E+03  0.2713E+03
      0.941  0.4560E+02  0.4787E+02  0.2744E+03  0.2741E+03
      1.000  0.6146E+02  0.5881E+02  0.2781E+03  0.2776E+03
      1.059  0.4078E+02  0.4124E+02  0.2805E+03  0.2801E+03
      1.119  0.4324E+02  0.4336E+02  0.2831E+03  0.2827E+03
      1.178  0.4448E+02  0.4539E+02  0.2857E+03  0.2854E+03
      1.238  0.3856E+02  0.3824E+02  0.2880E+03  0.2876E+03
      1.297  0.5935E+02  0.5782E+02  0.2915E+03  0.2911E+03
      1.356  0.3523E+02  0.3810E+02  0.2936E+03  0.2933E+03
      1.416  0.5209E+02  0.4436E+02  0.2967E+03  0.2960E+03
      1.475  0.5009E+02  0.5750E+02  0.2997E+03  0.2994E+03
      1.534  0.4057E+02  0.3711E+02  0.3021E+03  0.3016E+03
      1.594  0.3789E+02  0.4061E+02  0.3043E+03  0.3040E+03
      1.653  0.4089E+02  0.4202E+02  0.3067E+03  0.3065E+03
      1.712  0.3392E+02  0.3193E+02  0.3088E+03  0.3084E+03
      1.772  0.4983E+02  0.4982E+02  0.3117E+03  0.3113E+03
      1.831  0.4046E+02  0.3347E+02  0.3141E+03  0.3133E+03
      1.890  0.4133E+02  0.5038E+02  0.3166E+03  0.3163E+03
      1.950  0.4190E+02  0.3630E+02  0.3191E+03  0.3185E+03
      2.009  0.4582E+02  0.4572E+02  0.3218E+03  0.3212E+03
      2.068  0.4958E+02  0.5249E+02  0.3247E+03  0.3243E+03
      2.128  0.3682E+02  0.4126E+02  0.3269E+03  0.3267E+03
      2.187  0.4189E+02  0.3928E+02  0.3294E+03  0.3291E+03
      2.247  0.4885E+02  0.4386E+02  0.3323E+03  0.3317E+03
      2.306  0.3844E+02  0.3992E+02  0.3346E+03  0.3340E+03
      2.365  0.4723E+02  0.4946E+02  0.3374E+03  0.3370E+03
      2.425  0.3784E+02  0.3885E+02  0.3396E+03  0.3393E+03
      2.484  0.3993E+02  0.3747E+02  0.3420E+03  0.3415E+03
      2.543  0.3123E+02  0.2985E+02  0.3439E+03  0.3433E+03
      2.603  0.3878E+02  0.3848E+02  0.3462E+03  0.3456E+03
      2.662  0.4071E+02  0.4401E+02  0.3486E+03  0.3482E+03
      2.721  0.3820E+02  0.3774E+02  0.3508E+03  0.3504E+03
      2.781  0.2547E+02  0.2712E+02  0.3523E+03  0.3520E+03
      2.840  0.4159E+02  0.3887E+02  0.3548E+03  0.3543E+03
      2.899  0.3314E+02  0.3512E+02  0.3568E+03  0.3564E+03
      2.959  0.3757E+02  0.3552E+02  0.3590E+03  0.3585E+03
      3.018  0.5611E+02  0.5376E+02  0.3623E+03  0.3617E+03
      3.077  0.3303E+02  0.3547E+02  0.3643E+03  0.3638E+03
      3.137  0.4069E+02  0.3828E+02  0.3667E+03  0.3661E+03
      3.196  0.4643E+02  0.4241E+02  0.3695E+03  0.3686E+03
      3.256  0.1809E+02  0.3077E+02  0.3705E+03  0.3704E+03
      3.315  0.4841E+02  0.4237E+02  0.3734E+03  0.3729E+03
      3.374  0.4196E+02  0.3862E+02  0.3759E+03  0.3752E+03
      3.434  0.3097E+02  0.3254E+02  0.3778E+03  0.3772E+03
      3.493  0.3825E+02  0.3969E+02  0.3800E+03  0.3795E+03
      3.552  0.4174E+02  0.4095E+02  0.3825E+03  0.3820E+03
      3.612  0.3758E+02  0.3397E+02  0.3847E+03  0.3840E+03
      3.671  0.5310E+02  0.5853E+02  0.3879E+03  0.3875E+03
      3.730  0.3240E+02  0.3340E+02  0.3898E+03  0.3894E+03
      3.790  0.4098E+02  0.3924E+02  0.3922E+03  0.3918E+03
      3.849  0.3916E+02  0.4103E+02  0.3946E+03  0.3942E+03
      3.908  0.4916E+02  0.4472E+02  0.3975E+03  0.3969E+03
      3.968  0.3678E+02  0.4008E+02  0.3997E+03  0.3992E+03
      4.027  0.4182E+02  0.4034E+02  0.4021E+03  0.4016E+03
      4.086  0.3759E+02  0.3475E+02  0.4044E+03  0.4037E+03
      4.146  0.3314E+02  0.3885E+02  0.4063E+03  0.4060E+03
      4.205  0.3538E+02  0.3256E+02  0.4084E+03  0.4079E+03
      4.265  0.4875E+02  0.4101E+02  0.4113E+03  0.4104E+03
      4.324  0.5012E+02  0.5441E+02  0.4143E+03  0.4136E+03
      4.383  0.5556E+02  0.5595E+02  0.4176E+03  0.4169E+03
      4.443  0.3159E+02  0.3848E+02  0.4195E+03  0.4192E+03
      4.502  0.3685E+02  0.3310E+02  0.4217E+03  0.4212E+03
      4.561  0.4546E+02  0.4555E+02  0.4244E+03  0.4239E+03
      4.621  0.4233E+02  0.4303E+02  0.4269E+03  0.4264E+03
      4.680  0.2998E+02  0.3169E+02  0.4287E+03  0.4283E+03
      4.739  0.3721E+02  0.3710E+02  0.4309E+03  0.4305E+03
      4.799  0.3991E+02  0.3465E+02  0.4332E+03  0.4326E+03
      4.858  0.4380E+02  0.4538E+02  0.4358E+03  0.4353E+03
      4.917  0.3971E+02  0.4525E+02  0.4382E+03  0.4379E+03
      4.977  0.2939E+02  0.3079E+02  0.4399E+03  0.4398E+03
      5.036  0.1925E+02  0.2022E+02  0.4411E+03  0.4410E+03
      5.095  0.4953E+02  0.4274E+02  0.4440E+03  0.4435E+03
      5.155  0.3757E+02  0.3831E+02  0.4463E+03  0.4458E+03
      5.214  0.4752E+02  0.4385E+02  0.4491E+03  0.4484E+03
      5.274  0.3053E+02  0.3769E+02  0.4509E+03  0.4506E+03
      5.333  0.3646E+02  0.3507E+02  0.4531E+03  0.4527E+03
      5.392  0.5472E+02  0.5309E+02  0.4563E+03  0.4558E+03
      5.452  0.3662E+02  0.3648E+02  0.4585E+03  0.4580E+03
      5.511  0.4566E+02  0.4625E+02  0.4612E+03  0.4608E+03
      5.570  0.2369E+02  0.2798E+02  0.4626E+03  0.4624E+03
      5.630  0.2205E+02  0.2289E+02  0.4639E+03  0.4638E+03
      5.689  0.1693E+01  0.3740E+01  0.4640E+03  0.4640E+03
      5.748  0.0000E+00  0.0000E+00  0.4640E+03  0.4640E+03
      5.808  0.0000E+00  0.0000E+00  0.4640E+03  0.4640E+03
      5.867  0.0000E+00  0.0000E+00  0.4640E+03  0.4640E+03
      5.926  0.0000E+00  0.0000E+00  0.4640E+03  0.4640E+03
      5.986  0.0000E+00  0.0000E+00  0.4640E+03  0.4640E+03
      6.045  0.0000E+00  0.0000E+00  0.4640E+03  0.4640E+03
      6.104  0.0000E+00  0.0000E+00  0.4640E+03  0.4640E+03
      6.164  0.0000E+00  0.0000E+00  0.4640E+03  0.4640E+03
      6.223  0.0000E+00  0.0000E+00  0.4640E+03  0.4640E+03
      6.283  0.0000E+00  0.0000E+00  0.4640E+03  0.4640E+03
      6.342  0.0000E+00  0.0000E+00  0.4640E+03  0.4640E+03
      6.401  0.0000E+00  0.0000E+00  0.4640E+03  0.4640E+03
      6.461  0.0000E+00  0.0000E+00  0.4640E+03  0.4640E+03
