 168 168   0   0
  0.2743752E+02  0.1123962E-08  0.1589523E-08  0.2580094E-08  0.5000000E-15
  1.000000000000000E-004
  CAR 
 Si and Ge interface calculation         
      6.49750091     -9.84761770  301      3.45917458      1.00000000
     -9.848  0.0000E+00  0.0000E+00  0.0000E+00  0.0000E+00
     -9.793  0.0000E+00  0.0000E+00  0.0000E+00  0.0000E+00
     -9.739  0.0000E+00  0.0000E+00  0.0000E+00  0.0000E+00
     -9.684  0.0000E+00  0.0000E+00  0.0000E+00  0.0000E+00
     -9.630  0.0000E+00  0.0000E+00  0.0000E+00  0.0000E+00
     -9.575  0.0000E+00  0.0000E+00  0.0000E+00  0.0000E+00
     -9.521  0.0000E+00  0.0000E+00  0.0000E+00  0.0000E+00
     -9.466  0.0000E+00  0.0000E+00  0.0000E+00  0.0000E+00
     -9.412  0.0000E+00  0.0000E+00  0.0000E+00  0.0000E+00
     -9.357  0.0000E+00  0.0000E+00  0.0000E+00  0.0000E+00
     -9.303  0.0000E+00  0.0000E+00  0.0000E+00  0.0000E+00
     -9.248  0.0000E+00  0.0000E+00  0.0000E+00  0.0000E+00
     -9.194  0.0000E+00  0.0000E+00  0.0000E+00  0.0000E+00
     -9.139  0.2883E-05  0.3056E-07  0.1571E-06  0.1665E-08
     -9.085  0.6102E+01  0.5970E+01  0.3325E+00  0.3253E+00
     -9.030  0.1563E-01  0.1479E+00  0.3333E+00  0.3333E+00
     -8.976  0.1929E+02  0.1539E+02  0.1384E+01  0.1172E+01
     -8.921  0.5182E+01  0.9080E+01  0.1667E+01  0.1667E+01
     -8.867  0.2081E+02  0.1459E+02  0.2800E+01  0.2462E+01
     -8.812  0.4307E+01  0.9998E+01  0.3035E+01  0.3007E+01
     -8.758  0.6278E+01  0.6104E+01  0.3377E+01  0.3339E+01
     -8.703  0.1149E+02  0.1213E+02  0.4003E+01  0.4000E+01
     -8.649  0.2162E+02  0.1781E+02  0.5181E+01  0.4970E+01
     -8.594  0.3935E+02  0.4255E+02  0.7325E+01  0.7289E+01
     -8.540  0.1769E+02  0.8092E+01  0.8289E+01  0.7730E+01
     -8.486  0.3874E+02  0.4533E+02  0.1040E+02  0.1020E+02
     -8.431  0.4904E+01  0.8571E+01  0.1067E+02  0.1067E+02
     -8.377  0.4337E+02  0.3975E+02  0.1303E+02  0.1283E+02
     -8.322  0.2970E+02  0.3179E+02  0.1465E+02  0.1456E+02
     -8.268  0.3181E+02  0.2591E+02  0.1638E+02  0.1598E+02
     -8.213  0.1145E+02  0.1880E+02  0.1700E+02  0.1700E+02
     -8.159  0.4367E+02  0.4087E+02  0.1938E+02  0.1923E+02
     -8.104  0.1358E+02  0.1249E+02  0.2012E+02  0.1991E+02
     -8.050  0.3022E+02  0.2878E+02  0.2177E+02  0.2148E+02
     -7.995  0.2897E+02  0.3416E+02  0.2335E+02  0.2334E+02
     -7.941  0.8260E+01  0.6909E+01  0.2380E+02  0.2371E+02
     -7.886  0.2204E+02  0.2361E+02  0.2500E+02  0.2500E+02
     -7.832  0.2181E+02  0.1357E+02  0.2619E+02  0.2574E+02
     -7.777  0.5113E+02  0.5731E+02  0.2897E+02  0.2886E+02
     -7.723  0.6594E+01  0.8621E+01  0.2933E+02  0.2933E+02
     -7.668  0.6380E+01  0.6174E+01  0.2968E+02  0.2967E+02
     -7.614  0.1510E+02  0.1304E+02  0.3050E+02  0.3038E+02
     -7.559  0.6787E+02  0.6126E+02  0.3420E+02  0.3372E+02
     -7.505  0.3171E+02  0.3749E+02  0.3593E+02  0.3576E+02
     -7.450  0.4619E+02  0.4750E+02  0.3845E+02  0.3835E+02
     -7.396  0.2852E+02  0.3026E+02  0.4000E+02  0.4000E+02
     -7.341  0.7141E+01  0.3414E+01  0.4039E+02  0.4018E+02
     -7.287  0.1856E+02  0.2127E+02  0.4140E+02  0.4134E+02
     -7.232  0.5143E+02  0.4655E+02  0.4420E+02  0.4388E+02
     -7.178  0.2673E+02  0.2881E+02  0.4566E+02  0.4545E+02
     -7.123  0.6713E+02  0.6555E+02  0.4932E+02  0.4902E+02
     -7.069  0.3897E+02  0.4240E+02  0.5144E+02  0.5133E+02
     -7.014  0.2550E+02  0.2581E+02  0.5283E+02  0.5273E+02
     -6.960  0.5589E+02  0.5121E+02  0.5587E+02  0.5552E+02
     -6.905  0.3322E+02  0.3866E+02  0.5768E+02  0.5763E+02
     -6.851  0.5371E+02  0.5143E+02  0.6061E+02  0.6043E+02
     -6.797  0.2377E+02  0.2383E+02  0.6191E+02  0.6173E+02
     -6.742  0.4783E+02  0.4810E+02  0.6451E+02  0.6435E+02
     -6.688  0.6067E+02  0.6069E+02  0.6782E+02  0.6766E+02
     -6.633  0.5007E+02  0.4414E+02  0.7054E+02  0.7006E+02
     -6.579  0.6130E+02  0.6700E+02  0.7388E+02  0.7371E+02
     -6.524  0.2163E+01  0.5253E+01  0.7400E+02  0.7400E+02
     -6.470  0.2968E+02  0.2602E+02  0.7562E+02  0.7542E+02
     -6.415  0.3368E+02  0.3078E+02  0.7745E+02  0.7709E+02
     -6.361  0.3744E+02  0.3620E+02  0.7949E+02  0.7907E+02
     -6.306  0.6679E+02  0.6823E+02  0.8313E+02  0.8278E+02
     -6.252  0.6191E+02  0.5936E+02  0.8651E+02  0.8602E+02
     -6.197  0.6045E+02  0.6712E+02  0.8980E+02  0.8967E+02
     -6.143  0.6501E+02  0.6198E+02  0.9334E+02  0.9305E+02
     -6.088  0.6756E+02  0.6670E+02  0.9702E+02  0.9669E+02
     -6.034  0.3623E+02  0.4191E+02  0.9900E+02  0.9897E+02
     -5.979  0.1238E+02  0.1282E+02  0.9967E+02  0.9967E+02
     -5.925  0.2729E+02  0.2379E+02  0.1012E+03  0.1010E+03
     -5.870  0.5530E+02  0.5191E+02  0.1042E+03  0.1038E+03
     -5.816  0.2439E+02  0.2953E+02  0.1055E+03  0.1054E+03
     -5.761  0.4574E+02  0.4568E+02  0.1080E+03  0.1079E+03
     -5.707  0.3687E+02  0.3872E+02  0.1100E+03  0.1100E+03
     -5.652  0.5366E+02  0.5003E+02  0.1129E+03  0.1127E+03
     -5.598  0.1196E+02  0.1315E+02  0.1136E+03  0.1134E+03
     -5.543  0.3136E+02  0.3215E+02  0.1153E+03  0.1152E+03
     -5.489  0.4465E+02  0.3948E+02  0.1177E+03  0.1173E+03
     -5.434  0.6351E+02  0.6605E+02  0.1212E+03  0.1209E+03
     -5.380  0.5873E+02  0.5802E+02  0.1244E+03  0.1241E+03
     -5.325  0.4980E+02  0.4852E+02  0.1271E+03  0.1267E+03
     -5.271  0.4175E+02  0.4410E+02  0.1294E+03  0.1292E+03
     -5.217  0.5905E+02  0.5650E+02  0.1326E+03  0.1322E+03
     -5.162  0.6469E+02  0.6734E+02  0.1361E+03  0.1359E+03
     -5.108  0.6134E+02  0.6147E+02  0.1394E+03  0.1392E+03
     -5.053  0.4313E+02  0.4480E+02  0.1418E+03  0.1417E+03
     -4.999  0.6106E+02  0.5779E+02  0.1451E+03  0.1448E+03
     -4.944  0.4359E+02  0.4551E+02  0.1475E+03  0.1473E+03
     -4.890  0.3834E+02  0.3445E+02  0.1496E+03  0.1492E+03
     -4.835  0.7005E+02  0.7198E+02  0.1534E+03  0.1531E+03
     -4.781  0.7701E+02  0.7855E+02  0.1576E+03  0.1574E+03
     -4.726  0.2150E+02  0.2136E+02  0.1588E+03  0.1586E+03
     -4.672  0.5617E+02  0.5645E+02  0.1618E+03  0.1616E+03
     -4.617  0.3138E+02  0.3290E+02  0.1635E+03  0.1634E+03
     -4.563  0.4214E+02  0.3410E+02  0.1658E+03  0.1653E+03
     -4.508  0.7971E+02  0.7903E+02  0.1702E+03  0.1696E+03
     -4.454  0.4820E+02  0.5754E+02  0.1728E+03  0.1727E+03
     -4.399  0.5237E+02  0.5114E+02  0.1757E+03  0.1755E+03
     -4.345  0.4966E+02  0.4009E+02  0.1784E+03  0.1777E+03
     -4.290  0.4863E+02  0.5184E+02  0.1810E+03  0.1805E+03
     -4.236  0.5654E+02  0.5607E+02  0.1841E+03  0.1836E+03
     -4.181  0.3479E+02  0.3754E+02  0.1860E+03  0.1856E+03
     -4.127  0.4765E+02  0.5052E+02  0.1886E+03  0.1884E+03
     -4.072  0.5243E+02  0.4995E+02  0.1914E+03  0.1911E+03
     -4.018  0.3963E+02  0.4145E+02  0.1936E+03  0.1934E+03
     -3.963  0.5992E+02  0.6048E+02  0.1969E+03  0.1966E+03
     -3.909  0.5143E+02  0.5361E+02  0.1997E+03  0.1996E+03
     -3.854  0.5528E+02  0.4813E+02  0.2027E+03  0.2022E+03
     -3.800  0.7296E+02  0.8052E+02  0.2067E+03  0.2066E+03
     -3.745  0.1533E+02  0.1461E+02  0.2075E+03  0.2074E+03
     -3.691  0.5182E+02  0.4774E+02  0.2103E+03  0.2100E+03
     -3.636  0.6503E+02  0.6754E+02  0.2139E+03  0.2137E+03
     -3.582  0.5296E+02  0.5233E+02  0.2167E+03  0.2165E+03
     -3.528  0.6663E+02  0.6448E+02  0.2204E+03  0.2200E+03
     -3.473  0.4800E+02  0.5377E+02  0.2230E+03  0.2229E+03
     -3.419  0.3181E+02  0.2518E+02  0.2247E+03  0.2243E+03
     -3.364  0.5056E+02  0.5393E+02  0.2275E+03  0.2273E+03
     -3.310  0.4766E+02  0.4783E+02  0.2301E+03  0.2299E+03
     -3.255  0.4143E+02  0.4523E+02  0.2323E+03  0.2323E+03
     -3.201  0.4533E+02  0.3943E+02  0.2348E+03  0.2345E+03
     -3.146  0.3696E+02  0.3925E+02  0.2368E+03  0.2366E+03
     -3.092  0.3933E+02  0.3581E+02  0.2390E+03  0.2386E+03
     -3.037  0.3065E+02  0.3578E+02  0.2406E+03  0.2405E+03
     -2.983  0.3894E+02  0.3688E+02  0.2428E+03  0.2425E+03
     -2.928  0.7811E+02  0.7445E+02  0.2470E+03  0.2466E+03
     -2.874  0.7357E+02  0.6680E+02  0.2510E+03  0.2502E+03
     -2.819  0.2424E+02  0.3743E+02  0.2523E+03  0.2523E+03
     -2.765  0.6072E+02  0.6077E+02  0.2556E+03  0.2556E+03
     -2.710  0.2263E+02  0.1611E+02  0.2569E+03  0.2565E+03
     -2.656  0.5093E+02  0.5745E+02  0.2597E+03  0.2596E+03
     -2.601  0.4133E+02  0.3821E+02  0.2619E+03  0.2617E+03
     -2.547  0.6369E+02  0.6274E+02  0.2654E+03  0.2651E+03
     -2.492  0.6591E+02  0.6699E+02  0.2690E+03  0.2687E+03
     -2.438  0.4731E+02  0.4821E+02  0.2715E+03  0.2714E+03
     -2.383  0.5680E+02  0.5767E+02  0.2746E+03  0.2745E+03
     -2.329  0.5278E+02  0.5188E+02  0.2775E+03  0.2773E+03
     -2.274  0.2954E+02  0.2873E+02  0.2791E+03  0.2789E+03
     -2.220  0.4654E+02  0.5003E+02  0.2817E+03  0.2816E+03
     -2.165  0.4695E+02  0.4047E+02  0.2842E+03  0.2838E+03
     -2.111  0.3712E+02  0.4151E+02  0.2862E+03  0.2861E+03
     -2.056  0.2515E+02  0.2580E+02  0.2876E+03  0.2875E+03
     -2.002  0.2223E+02  0.2229E+02  0.2888E+03  0.2887E+03
     -1.947  0.4001E+02  0.4213E+02  0.2910E+03  0.2910E+03
     -1.893  0.2236E+02  0.1993E+02  0.2922E+03  0.2921E+03
     -1.839  0.2750E+02  0.2920E+02  0.2937E+03  0.2937E+03
     -1.784  0.3654E+02  0.3668E+02  0.2957E+03  0.2957E+03
     -1.730  0.4819E+02  0.4870E+02  0.2983E+03  0.2983E+03
     -1.675  0.3524E+02  0.2992E+02  0.3003E+03  0.3000E+03
     -1.621  0.3875E+02  0.4372E+02  0.3024E+03  0.3023E+03
     -1.566  0.3663E+02  0.3537E+02  0.3044E+03  0.3043E+03
     -1.512  0.2677E+02  0.2607E+02  0.3058E+03  0.3057E+03
     -1.457  0.3377E+02  0.3030E+02  0.3077E+03  0.3073E+03
     -1.403  0.4680E+02  0.4915E+02  0.3102E+03  0.3100E+03
     -1.348  0.3251E+02  0.3487E+02  0.3120E+03  0.3119E+03
     -1.294  0.4385E+01  0.3525E+01  0.3122E+03  0.3121E+03
     -1.239  0.2140E+02  0.1676E+02  0.3134E+03  0.3130E+03
     -1.185  0.1130E+02  0.1797E+02  0.3140E+03  0.3140E+03
     -1.130  0.2166E+01  0.7340E+00  0.3141E+03  0.3140E+03
     -1.076  0.3042E+02  0.3003E+02  0.3158E+03  0.3157E+03
     -1.021  0.1652E+02  0.1820E+02  0.3167E+03  0.3167E+03
     -0.967  0.1255E+02  0.1229E+02  0.3174E+03  0.3173E+03
     -0.912  0.1245E+02  0.1230E+02  0.3180E+03  0.3180E+03
     -0.858  0.3098E+02  0.2679E+02  0.3197E+03  0.3195E+03
     -0.803  0.2950E+02  0.3415E+02  0.3213E+03  0.3213E+03
     -0.749  0.1408E+02  0.1292E+02  0.3221E+03  0.3220E+03
     -0.694  0.2714E+02  0.2645E+02  0.3236E+03  0.3235E+03
     -0.640  0.2886E+02  0.2289E+02  0.3252E+03  0.3247E+03
     -0.585  0.6786E+02  0.7273E+02  0.3288E+03  0.3287E+03
     -0.531  0.7332E+02  0.7183E+02  0.3328E+03  0.3326E+03
     -0.476  0.5045E+02  0.4668E+02  0.3356E+03  0.3351E+03
     -0.422  0.7352E+02  0.6914E+02  0.3396E+03  0.3389E+03
     -0.367  0.6568E+02  0.7403E+02  0.3432E+03  0.3429E+03
     -0.313  0.3781E+02  0.3639E+02  0.3452E+03  0.3449E+03
     -0.258  0.1066E+03  0.1049E+03  0.3510E+03  0.3506E+03
     -0.204  0.7411E+02  0.7361E+02  0.3551E+03  0.3546E+03
     -0.150  0.6051E+02  0.6212E+02  0.3584E+03  0.3580E+03
     -0.095  0.6672E+02  0.7091E+02  0.3620E+03  0.3619E+03
     -0.041  0.7356E+02  0.6198E+02  0.3660E+03  0.3653E+03
      0.014  0.6253E+02  0.7169E+02  0.3694E+03  0.3692E+03
      0.068  0.7613E+02  0.7074E+02  0.3736E+03  0.3730E+03
      0.123  0.6923E+02  0.7209E+02  0.3773E+03  0.3770E+03
      0.177  0.8536E+02  0.8305E+02  0.3820E+03  0.3815E+03
      0.232  0.7580E+02  0.7494E+02  0.3861E+03  0.3856E+03
      0.286  0.9582E+02  0.1014E+03  0.3914E+03  0.3911E+03
      0.341  0.9515E+02  0.9546E+02  0.3965E+03  0.3963E+03
      0.395  0.9378E+02  0.8482E+02  0.4016E+03  0.4009E+03
      0.450  0.1024E+03  0.1081E+03  0.4072E+03  0.4068E+03
      0.504  0.1080E+03  0.1066E+03  0.4131E+03  0.4126E+03
      0.559  0.9571E+02  0.9324E+02  0.4183E+03  0.4177E+03
      0.613  0.1236E+03  0.1261E+03  0.4251E+03  0.4246E+03
      0.668  0.1226E+03  0.1197E+03  0.4317E+03  0.4311E+03
      0.722  0.1610E+03  0.1584E+03  0.4405E+03  0.4397E+03
      0.777  0.1448E+03  0.1488E+03  0.4484E+03  0.4478E+03
      0.831  0.6330E+02  0.6763E+02  0.4518E+03  0.4515E+03
      0.886  0.1300E+03  0.1284E+03  0.4589E+03  0.4585E+03
      0.940  0.8620E+02  0.8646E+02  0.4636E+03  0.4632E+03
      0.995  0.1166E+03  0.1214E+03  0.4700E+03  0.4698E+03
      1.049  0.9244E+02  0.8724E+02  0.4750E+03  0.4746E+03
      1.104  0.5211E+02  0.5109E+02  0.4779E+03  0.4774E+03
      1.158  0.1295E+03  0.1293E+03  0.4849E+03  0.4844E+03
      1.213  0.1191E+03  0.1177E+03  0.4914E+03  0.4908E+03
      1.267  0.1052E+03  0.1102E+03  0.4971E+03  0.4968E+03
      1.322  0.1494E+03  0.1424E+03  0.5053E+03  0.5046E+03
      1.376  0.1241E+03  0.1258E+03  0.5120E+03  0.5114E+03
      1.431  0.8116E+02  0.8464E+02  0.5165E+03  0.5160E+03
      1.485  0.1275E+03  0.1241E+03  0.5234E+03  0.5228E+03
      1.539  0.1074E+03  0.1125E+03  0.5293E+03  0.5289E+03
      1.594  0.1218E+03  0.1157E+03  0.5359E+03  0.5352E+03
      1.648  0.1050E+03  0.1059E+03  0.5416E+03  0.5410E+03
      1.703  0.1137E+03  0.1149E+03  0.5478E+03  0.5473E+03
      1.757  0.9556E+02  0.9834E+02  0.5530E+03  0.5526E+03
      1.812  0.1169E+03  0.1140E+03  0.5594E+03  0.5588E+03
      1.866  0.1246E+03  0.1272E+03  0.5662E+03  0.5658E+03
      1.921  0.9066E+02  0.8969E+02  0.5711E+03  0.5707E+03
      1.975  0.8308E+02  0.8284E+02  0.5756E+03  0.5752E+03
      2.030  0.9688E+02  0.9121E+02  0.5809E+03  0.5801E+03
      2.084  0.8058E+02  0.8554E+02  0.5853E+03  0.5848E+03
      2.139  0.9733E+02  0.9837E+02  0.5906E+03  0.5902E+03
      2.193  0.8299E+02  0.8480E+02  0.5951E+03  0.5948E+03
      2.248  0.8794E+02  0.8057E+02  0.5999E+03  0.5992E+03
      2.302  0.8091E+02  0.8212E+02  0.6043E+03  0.6036E+03
      2.357  0.9395E+02  0.1015E+03  0.6094E+03  0.6092E+03
      2.411  0.6407E+02  0.6027E+02  0.6129E+03  0.6125E+03
      2.466  0.6747E+02  0.7281E+02  0.6166E+03  0.6164E+03
      2.520  0.6779E+02  0.6616E+02  0.6203E+03  0.6200E+03
      2.575  0.1001E+03  0.9550E+02  0.6258E+03  0.6252E+03
      2.629  0.6142E+02  0.6903E+02  0.6291E+03  0.6290E+03
      2.684  0.5911E+02  0.5178E+02  0.6323E+03  0.6318E+03
      2.738  0.7954E+02  0.7863E+02  0.6367E+03  0.6361E+03
      2.793  0.8042E+02  0.7594E+02  0.6410E+03  0.6402E+03
      2.847  0.3165E+02  0.3833E+02  0.6428E+03  0.6423E+03
      2.902  0.7783E+02  0.8430E+02  0.6470E+03  0.6469E+03
      2.956  0.4441E+02  0.3964E+02  0.6494E+03  0.6491E+03
      3.011  0.5346E+02  0.5187E+02  0.6523E+03  0.6519E+03
      3.065  0.3903E+02  0.4422E+02  0.6545E+03  0.6543E+03
      3.120  0.4670E+02  0.4610E+02  0.6570E+03  0.6568E+03
      3.174  0.3395E+02  0.3336E+02  0.6589E+03  0.6586E+03
      3.228  0.5205E+02  0.4513E+02  0.6617E+03  0.6611E+03
      3.283  0.3916E+02  0.4486E+02  0.6638E+03  0.6635E+03
      3.337  0.5253E+02  0.5056E+02  0.6667E+03  0.6663E+03
      3.392  0.4706E+02  0.4695E+02  0.6693E+03  0.6689E+03
      3.446  0.3015E+02  0.1759E+02  0.6709E+03  0.6698E+03
      3.501  0.2211E+02  0.3172E+02  0.6721E+03  0.6715E+03
      3.555  0.3251E+02  0.3214E+02  0.6739E+03  0.6733E+03
      3.610  0.1026E+02  0.1913E+02  0.6744E+03  0.6743E+03
      3.664  0.5608E+02  0.5095E+02  0.6775E+03  0.6771E+03
      3.719  0.2769E+02  0.3261E+02  0.6790E+03  0.6789E+03
      3.773  0.5474E+02  0.4801E+02  0.6820E+03  0.6815E+03
      3.828  0.2464E+02  0.3130E+02  0.6833E+03  0.6832E+03
      3.882  0.6668E+01  0.3946E+01  0.6837E+03  0.6834E+03
      3.937  0.8085E+01  0.1125E+02  0.6841E+03  0.6840E+03
      3.991  0.3838E+02  0.3440E+02  0.6862E+03  0.6859E+03
      4.046  0.2127E+01  0.7693E+01  0.6863E+03  0.6863E+03
      4.100  0.1835E+02  0.1834E+02  0.6873E+03  0.6873E+03
      4.155  0.3643E+02  0.3477E+02  0.6893E+03  0.6892E+03
      4.209  0.2504E+02  0.1426E+02  0.6907E+03  0.6900E+03
      4.264  0.4895E+02  0.6009E+02  0.6933E+03  0.6933E+03
      4.318  0.3421E+02  0.3146E+02  0.6952E+03  0.6950E+03
      4.373  0.2545E+02  0.2619E+02  0.6966E+03  0.6964E+03
      4.427  0.3569E+02  0.3356E+02  0.6985E+03  0.6982E+03
      4.482  0.4963E+02  0.5015E+02  0.7012E+03  0.7010E+03
      4.536  0.6559E+02  0.6502E+02  0.7048E+03  0.7045E+03
      4.591  0.7644E+02  0.8126E+02  0.7090E+03  0.7089E+03
      4.645  0.6318E+02  0.5842E+02  0.7124E+03  0.7121E+03
      4.700  0.4231E+02  0.4517E+02  0.7147E+03  0.7146E+03
      4.754  0.7996E+02  0.7922E+02  0.7191E+03  0.7189E+03
      4.809  0.8907E+02  0.8741E+02  0.7239E+03  0.7237E+03
      4.863  0.8146E+02  0.7936E+02  0.7284E+03  0.7280E+03
      4.917  0.7018E+02  0.7107E+02  0.7322E+03  0.7319E+03
      4.972  0.8722E+02  0.9113E+02  0.7370E+03  0.7368E+03
      5.026  0.7220E+02  0.6454E+02  0.7409E+03  0.7404E+03
      5.081  0.1127E+03  0.1185E+03  0.7470E+03  0.7468E+03
      5.135  0.1086E+03  0.1020E+03  0.7529E+03  0.7524E+03
      5.190  0.9653E+02  0.9896E+02  0.7582E+03  0.7578E+03
      5.244  0.8791E+02  0.8559E+02  0.7630E+03  0.7624E+03
      5.299  0.1084E+03  0.1071E+03  0.7689E+03  0.7682E+03
      5.353  0.9695E+02  0.1014E+03  0.7742E+03  0.7738E+03
      5.408  0.9837E+02  0.9483E+02  0.7795E+03  0.7789E+03
      5.462  0.1058E+03  0.1075E+03  0.7853E+03  0.7848E+03
      5.517  0.1121E+03  0.1119E+03  0.7914E+03  0.7909E+03
      5.571  0.1162E+03  0.1202E+03  0.7977E+03  0.7974E+03
      5.626  0.8899E+02  0.8604E+02  0.8026E+03  0.8021E+03
      5.680  0.4414E+02  0.4884E+02  0.8050E+03  0.8048E+03
      5.735  0.4275E+02  0.4202E+02  0.8073E+03  0.8071E+03
      5.789  0.1230E+02  0.1689E+02  0.8080E+03  0.8080E+03
      5.844  0.0000E+00  0.0000E+00  0.8080E+03  0.8080E+03
      5.898  0.0000E+00  0.0000E+00  0.8080E+03  0.8080E+03
      5.953  0.0000E+00  0.0000E+00  0.8080E+03  0.8080E+03
      6.007  0.0000E+00  0.0000E+00  0.8080E+03  0.8080E+03
      6.062  0.0000E+00  0.0000E+00  0.8080E+03  0.8080E+03
      6.116  0.0000E+00  0.0000E+00  0.8080E+03  0.8080E+03
      6.171  0.0000E+00  0.0000E+00  0.8080E+03  0.8080E+03
      6.225  0.0000E+00  0.0000E+00  0.8080E+03  0.8080E+03
      6.280  0.0000E+00  0.0000E+00  0.8080E+03  0.8080E+03
      6.334  0.0000E+00  0.0000E+00  0.8080E+03  0.8080E+03
      6.389  0.0000E+00  0.0000E+00  0.8080E+03  0.8080E+03
      6.443  0.0000E+00  0.0000E+00  0.8080E+03  0.8080E+03
      6.498  0.0000E+00  0.0000E+00  0.8080E+03  0.8080E+03
