Si and Ge interface calculation         
           1
    13.303180    0.000000    0.000000
    -6.651589   14.873406    0.000000
     0.000000    0.000000    8.390059
   Si   C 
    36    84
Direct configuration=     1
   0.99715096  0.98005658  0.00000000
   0.96381754  0.74672317  0.14474383
   0.93048412  0.51338983  0.28948766
   0.33048421  0.31338987  0.00000000
   0.29715079  0.08005647  0.14474383
   0.26381737  0.84672308  0.28948766
   0.66381747  0.64672315  0.00000000
   0.63048405  0.41338971  0.14474383
   0.59715062  0.18005633  0.28948766
   0.31381753  0.94672334  0.07237176
   0.28048411  0.71338999  0.21711558
   0.24715069  0.48005658  0.36185935
   0.64715082  0.28005657  0.07237176
   0.61381739  0.04672319  0.21711555
   0.58048397  0.81338978  0.36185938
   0.98048443  0.61338985  0.07237179
   0.94715101  0.38005647  0.21711555
   0.91381758  0.14672309  0.36185935
   0.16381757  0.64672309  0.00000000
   0.13048416  0.41338971  0.14474383
   0.09715075  0.18005632  0.28948766
   0.49715090  0.98005664  0.00000000
   0.46381742  0.74672317  0.14474377
   0.43048406  0.51338983  0.28948760
   0.83048415  0.31338987  0.00000000
   0.79715073  0.08005653  0.14474377
   0.76381731  0.84672308  0.28948760
   0.14715090  0.28005657  0.07237177
   0.11381748  0.04672317  0.21711558
   0.08048407  0.81338978  0.36185938
   0.48048422  0.61338991  0.07237177
   0.44715083  0.38005653  0.21711555
   0.41381741  0.14672317  0.36185938
   0.81381750  0.94672328  0.07237176
   0.78048414  0.71338987  0.21711555
   0.74715072  0.48005646  0.36185938
   0.59601378  0.95157731  0.75222486
   0.39601368  0.55157739  0.56210440
   0.49601373  0.25157735  0.65716469
   0.88172811  0.09443444  0.75222486
   0.68172789  0.69443452  0.56210440
   0.78172803  0.39443448  0.65716469
   0.16744232  0.23729152  0.75222486
   0.96744221  0.83729160  0.56210440
   0.06744230  0.53729159  0.65716469
   0.45315668  0.38014877  0.75222486
   0.25315651  0.98014885  0.56210440
   0.35315660  0.68014884  0.65716469
   0.73887098  0.52300590  0.75222486
   0.53887081  0.12300602  0.56210440
   0.63887083  0.82300597  0.65716469
   0.02458525  0.66586304  0.75222486
   0.82458502  0.26586315  0.56210440
   0.92458510  0.96586311  0.65716469
   0.31029940  0.80872011  0.75222486
   0.11029935  0.40872029  0.56210440
   0.21029937  0.10872024  0.65716469
   0.57458526  0.26586312  0.79975486
   0.37458509  0.86586326  0.60963446
   0.47458518  0.56586325  0.70469463
   0.71744233  0.83729166  0.79975486
   0.51744223  0.43729174  0.60963446
   0.61744225  0.13729170  0.70469463
   0.00315666  0.98014897  0.79975486
   0.80315638  0.58014905  0.60963446
   0.90315646  0.28014898  0.70469469
   0.28887093  0.12300607  0.79975480
   0.08887076  0.72300613  0.60963446
   0.18887091  0.42300609  0.70469469
   0.86029953  0.40872020  0.79975486
   0.66029942  0.00872040  0.60963446
   0.76029944  0.70872021  0.70469463
   0.14601374  0.55157751  0.79975486
   0.94601357  0.15157759  0.60963446
   0.04601359  0.85157752  0.70469463
   0.43172789  0.69443452  0.79975486
   0.23172784  0.29443467  0.60963446
   0.33172786  0.99443460  0.70469463
   0.66744244  0.23729149  0.75222486
   0.46744219  0.83729166  0.56210440
   0.56744230  0.53729159  0.65716469
   0.52458525  0.66586304  0.75222486
   0.32458508  0.26586312  0.56210440
   0.42458516  0.96586305  0.65716469
   0.81029946  0.80872011  0.75222486
   0.61029935  0.40872025  0.56210440
   0.71029937  0.10872021  0.65716469
   0.09601378  0.95157725  0.75222486
   0.89601356  0.55157733  0.56210440
   0.99601376  0.25157732  0.65716469
   0.38172805  0.09443437  0.75222486
   0.18172789  0.69443452  0.56210440
   0.28172791  0.39443442  0.65716469
   0.95315659  0.38014877  0.75222486
   0.75315642  0.98014885  0.56210440
   0.85315657  0.68014878  0.65716469
   0.23887086  0.52300584  0.75222486
   0.03887069  0.12300598  0.56210440
   0.13887083  0.82300592  0.65716469
   0.50315666  0.98014897  0.79975486
   0.30315647  0.58014905  0.60963446
   0.40315652  0.28014898  0.70469469
   0.78887093  0.12300605  0.79975486
   0.58887076  0.72300613  0.60963446
   0.68887091  0.42300609  0.70469469
   0.07458520  0.26586318  0.79975486
   0.87458503  0.86586326  0.60963446
   0.97458512  0.56586313  0.70469469
   0.64601380  0.55157757  0.79975486
   0.44601366  0.15157765  0.60963446
   0.54601371  0.85157758  0.70469463
   0.93172807  0.69443464  0.79975480
   0.73172790  0.29443473  0.60963446
   0.83172792  0.99443460  0.70469469
   0.21744227  0.83729160  0.79975480
   0.01744199  0.43729168  0.60963446
   0.11744213  0.13729167  0.70469463
   0.36029947  0.40872020  0.79975492
   0.16029930  0.00872040  0.60963446
   0.26029932  0.70872021  0.70469469
