 vasp.6.4.3 19Mar24 (build Oct 22 2024 11:23:12) complex                        
  
 executed on             LinuxIFC date 2025.04.30  07:43:23
 running   16 mpi-ranks, on    1 nodes
 distrk:  each k-point on   16 cores,    1 groups
 distr:  one band on NCORE=  16 cores,    1 groups


--------------------------------------------------------------------------------------------------------


 INCAR:
   SYSTEM = Si011 and Ge011 interface calculation
   ISTART = 0
   ICHARG = 2
   LWAVE = .FALSE.
   LREAL = AUTO
   ENCUT = 700
   ENAUG = 900
   ADDGRID = .TRUE.
   LMAXMIX = 6
   LASPH = .TRUE.
   LMIXTAU = .TRUE.
   NCORE = 16
   NELM = 100
   NBANDS = 346
   EDIFF = 1d-7
   AMIX = 0.6
   ISMEAR = 0
   SIGMA = 0.01
   NELECT = 576
   ISPIN = 2
   NUPDOWN = 1
   LVTOT = .FALSE.
   LVHAR = .TRUE.

 POTCAR:    PAW_PBE Si 05Jan2001                  
 POTCAR:    PAW_PBE Ge 05Jan2001                  
 -----------------------------------------------------------------------------
|                                                                             |
|           W    W    AA    RRRRR   N    N  II  N    N   GGGG   !!!           |
|           W    W   A  A   R    R  NN   N  II  NN   N  G    G  !!!           |
|           W    W  A    A  R    R  N N  N  II  N N  N  G       !!!           |
|           W WW W  AAAAAA  RRRRR   N  N N  II  N  N N  G  GGG   !            |
|           WW  WW  A    A  R   R   N   NN  II  N   NN  G    G                |
|           W    W  A    A  R    R  N    N  II  N    N   GGGG   !!!           |
|                                                                             |
|     You use a magnetic or noncollinear calculation, but did not specify     |
|     the initial magnetic moment with the MAGMOM tag. Note that a            |
|     default of 6.944e-3 will be used for all atoms. This ferromagnetic      |
|     setup may break the symmetry of the crystal, in particular it may       |
|     rule out finding an antiferromagnetic solution. Thence, we              |
|     recommend setting the initial magnetic moment manually or verifying     |
|     carefully that this magnetic setup is desired.                          |
|                                                                             |
 -----------------------------------------------------------------------------

 -----------------------------------------------------------------------------
|                                                                             |
|           W    W    AA    RRRRR   N    N  II  N    N   GGGG   !!!           |
|           W    W   A  A   R    R  NN   N  II  NN   N  G    G  !!!           |
|           W    W  A    A  R    R  N N  N  II  N N  N  G       !!!           |
|           W WW W  AAAAAA  RRRRR   N  N N  II  N  N N  G  GGG   !            |
|           WW  WW  A    A  R   R   N   NN  II  N   NN  G    G                |
|           W    W  A    A  R    R  N    N  II  N    N   GGGG   !!!           |
|                                                                             |
|     For optimal performance we recommend to set                             |
|       NCORE = 2 up to number-of-cores-per-socket                            |
|     NCORE specifies how many cores store one orbital (NPAR=cpu/NCORE).      |
|     This setting can greatly improve the performance of VASP for DFT.       |
|     The default, NCORE=1 might be grossly inefficient on modern             |
|     multi-core architectures or massively parallel machines. Do your        |
|     own testing! More info at https://www.vasp.at/wiki/index.php/NCORE      |
|     Unfortunately you need to use the default for GW and RPA                |
|     calculations (for HF NCORE is supported but not extensively tested      |
|     yet).                                                                   |
|                                                                             |
 -----------------------------------------------------------------------------

 POTCAR:    PAW_PBE Si 05Jan2001                  
   VRHFIN =Si: s2p2                                                                                 
   LEXCH  = PE                                                                                      
   EATOM  =   103.0669 eV,    7.5752 Ry                                                             
                                                                                                    
   TITEL  = PAW_PBE Si 05Jan2001                                                                    
   LULTRA =        F    use ultrasoft PP ?                                                          
   IUNSCR =        1    unscreen: 0-lin 1-nonlin 2-no                                               
   RPACOR =    1.500    partial core radius                                                         
   POMASS =   28.085; ZVAL   =    4.000    mass and valenz                                          
   RCORE  =    1.900    outmost cutoff radius                                                       
   RWIGS  =    2.480; RWIGS  =    1.312    wigner-seitz radius (au A)                               
   ENMAX  =  245.345; ENMIN  =  184.009 eV                                                          
   ICORE  =        2    local potential                                                             
   LCOR   =        T    correct aug charges                                                         
   LPAW   =        T    paw PP                                                                      
   EAUG   =  322.069                                                                                
   DEXC   =    0.000                                                                                
   RMAX   =    1.950    core radius for proj-oper                                                   
   RAUG   =    1.300    factor for augmentation sphere                                              
   RDEP   =    1.993    radius for radial grids                                                     
   RDEPT  =    1.837    core radius for aug-charge                                                  
                                                                                                    
   Atomic configuration                                                                             
    6 entries                                                                                       
     n  l   j            E        occ.                                                              
     1  0  0.50     -1785.8828   2.0000                                                             
     2  0  0.50      -139.4969   2.0000                                                             
     2  1  1.50       -95.5546   6.0000                                                             
     3  0  0.50       -10.8127   2.0000                                                             
     3  1  0.50        -4.0811   2.0000                                                             
     3  2  1.50        -4.0817   0.0000                                                             
   Description                                                                                      
     l       E           TYP  RCUT    TYP  RCUT                                                     
     0    -10.8127223     23  1.900                                                                 
     0     -7.6451159     23  1.900                                                                 
     1     -4.0811372     23  1.900                                                                 
     1      2.4879257     23  1.900                                                                 
     2     -4.0817478      7  1.900                                                                 
  local pseudopotential read in
  partial core-charges read in
  partial kinetic energy density read in
  atomic valenz-charges read in
  non local Contribution for L=           0  read in
    real space projection operators read in
  non local Contribution for L=           0  read in
    real space projection operators read in
  non local Contribution for L=           1  read in
    real space projection operators read in
  non local Contribution for L=           1  read in
    real space projection operators read in
    PAW grid and wavefunctions read in
 
   number of l-projection  operators is LMAX  =           4
   number of lm-projection operators is LMMAX =           8
 
 POTCAR:    PAW_PBE Ge 05Jan2001                  
   VRHFIN =Ge: s2p2                                                                                 
   LEXCH  = PE                                                                                      
   EATOM  =   104.9960 eV,    7.7170 Ry                                                             
                                                                                                    
   TITEL  = PAW_PBE Ge 05Jan2001                                                                    
   LULTRA =        F    use ultrasoft PP ?                                                          
   IUNSCR =        1    unscreen: 0-lin 1-nonlin 2-no                                               
   RPACOR =    2.170    partial core radius                                                         
   POMASS =   72.610; ZVAL   =    4.000    mass and valenz                                          
   RCORE  =    2.300    outmost cutoff radius                                                       
   RWIGS  =    2.300; RWIGS  =    1.217    wigner-seitz radius (au A)                               
   ENMAX  =  173.807; ENMIN  =  130.355 eV                                                          
   ICORE  =        3    local potential                                                             
   LCOR   =        T    correct aug charges                                                         
   LPAW   =        T    paw PP                                                                      
   EAUG   =  385.843                                                                                
   DEXC   =    0.000                                                                                
   RMAX   =    2.342    core radius for proj-oper                                                   
   RAUG   =    1.300    factor for augmentation sphere                                              
   RDEP   =    2.318    radius for radial grids                                                     
   RDEPT  =    2.103    core radius for aug-charge                                                  
                                                                                                    
   Atomic configuration                                                                             
   10 entries                                                                                       
     n  l   j            E        occ.                                                              
     1  0  0.50    -10959.8463   2.0000                                                             
     2  0  0.50     -1371.6056   2.0000                                                             
     2  1  1.50     -1198.4791   6.0000                                                             
     3  0  0.50      -168.4733   2.0000                                                             
     3  1  1.50      -115.6019   6.0000                                                             
     3  2  2.50       -29.3106  10.0000                                                             
     4  0  0.50       -11.7309   2.0000                                                             
     4  1  0.50        -3.8952   2.0000                                                             
     4  2  1.50        -4.0817   0.0000                                                             
     4  3  2.50        -4.0817   0.0000                                                             
   Description                                                                                      
     l       E           TYP  RCUT    TYP  RCUT                                                     
     0    -11.7309493     23  2.300                                                                 
     0     -7.4578696     23  2.300                                                                 
     1     -3.8952261     23  2.300                                                                 
     1      6.1178114     23  2.300                                                                 
     2     -4.0817478     23  2.300                                                                 
     3     -1.3605826      7  2.300                                                                 
  local pseudopotential read in
  partial core-charges read in
  partial kinetic energy density read in
  atomic valenz-charges read in
  non local Contribution for L=           0  read in
    real space projection operators read in
  non local Contribution for L=           0  read in
    real space projection operators read in
  non local Contribution for L=           1  read in
    real space projection operators read in
  non local Contribution for L=           1  read in
    real space projection operators read in
  non local Contribution for L=           2  read in
    real space projection operators read in
    PAW grid and wavefunctions read in
 
   number of l-projection  operators is LMAX  =           5
   number of lm-projection operators is LMMAX =          13
 
 Optimization of the real space projectors (new method)

 maximal supplied QI-value         = 19.84
 optimisation between [QCUT,QGAM] = [ 13.49, 26.99] = [ 50.98,203.92] Ry 
 Optimized for a Real-space Cutoff    1.07 Angstroem

   l    n(q)    QCUT    max X(q) W(low)/X(q) W(high)/X(q)  e(spline) 
   0      9    13.493   159.560    0.22E-03    0.15E-03    0.72E-07
   0      9    13.493   115.863    0.21E-03    0.15E-03    0.71E-07
   1      8    13.493    88.339    0.15E-03    0.11E-03    0.13E-06
   1      8    13.493    48.592    0.15E-03    0.10E-03    0.13E-06
 Optimization of the real space projectors (new method)

 maximal supplied QI-value         = 16.25
 optimisation between [QCUT,QGAM] = [ 13.49, 26.98] = [ 50.95,203.80] Ry 
 Optimized for a Real-space Cutoff    1.25 Angstroem

   l    n(q)    QCUT    max X(q) W(low)/X(q) W(high)/X(q)  e(spline) 
   0     10    13.489    65.336    0.91E-04    0.11E-03    0.34E-06
   0     10    13.489    52.220    0.89E-04    0.11E-03    0.34E-06
   1     10    13.489    36.409    0.22E-03    0.27E-03    0.14E-06
   1     10    13.489    21.334    0.21E-03    0.27E-03    0.14E-06
   2      9    13.489     4.673    0.11E-03    0.12E-03    0.19E-06
  PAW_PBE Si 05Jan2001                  :
 energy of atom  1       EATOM= -103.0669
 kinetic energy error for atom=    0.0003 (will be added to EATOM!!)
  PAW_PBE Ge 05Jan2001                  :
 energy of atom  2       EATOM= -104.9960
 kinetic energy error for atom=    0.0001 (will be added to EATOM!!)
 
 
 POSCAR: fcc Si+fcc Ge
  positions in direct lattice
  No initial velocities read in


 exchange-correlation table for PE
   RHO(1)=    0.500       N(1)  =     2000
   RHO(2)=  100.500       N(2)  =     4000
 


--------------------------------------------------------------------------------------------------------


 ion  position               nearest neighbor table
   1  0.000  0.000  0.000-  49 2.37  38 2.37  55 2.37  96 2.59 114 2.62
   2  0.000  0.750  0.080-  39 2.37  50 2.37  55 2.37  56 2.37
   3  0.000  0.500  0.161-  56 2.37  51 2.37  40 2.37  57 2.37
   4  0.000  0.250  0.241-  52 2.37  41 2.37  57 2.37  58 2.37
   5  0.000  0.000  0.322-  53 2.37  42 2.37  58 2.37  59 2.37
   6  0.000  0.750  0.402-  54 2.37  59 2.37  60 2.37  91 2.59 109 2.62
   7  0.333  0.333  0.000-  61 2.37  37 2.37  44 2.37 138 2.80
   8  0.333  0.083  0.080-  45 2.37  62 2.37  38 2.37  61 2.37
   9  0.333  0.833  0.161-  62 2.37  63 2.37  39 2.37  46 2.37
  10  0.333  0.583  0.241-  64 2.37  40 2.37  63 2.37  47 2.37
  11  0.333  0.333  0.322-  65 2.37  41 2.37  64 2.37  48 2.37
  12  0.333  0.083  0.402-  66 2.37  42 2.37  65 2.37 133 2.80
  13  0.667  0.667  0.000-  43 2.37  50 2.37  67 2.37  90 2.40
  14  0.667  0.417  0.080-  51 2.37  44 2.37  67 2.37  68 2.37
  15  0.667  0.167  0.161-  68 2.37  45 2.37  52 2.37  69 2.37
  16  0.667  0.917  0.241-  46 2.37  53 2.37  69 2.37  70 2.37
  17  0.667  0.667  0.322-  47 2.37  54 2.37  70 2.37  71 2.37
  18  0.667  0.417  0.402-  48 2.37  71 2.37  72 2.37  85 2.40
  19  0.000  0.500  0.000-  67 2.37  56 2.37  37 2.37  78 2.59 132 2.62
  20  0.000  0.250  0.080-  57 2.37  68 2.37  37 2.37  38 2.37
  21  0.000  0.000  0.161-  38 2.37  69 2.37  58 2.37  39 2.37
  22  0.000  0.750  0.241-  70 2.37  59 2.37  39 2.37  40 2.37
  23  0.000  0.500  0.322-  71 2.37  60 2.37  40 2.37  41 2.37
  24  0.000  0.250  0.402-  72 2.37  41 2.37  42 2.37  73 2.59 127 2.62
  25  0.333  0.833  0.000-  43 2.37  55 2.37  62 2.37 120 2.80
  26  0.333  0.583  0.080-  63 2.37  44 2.37  56 2.37  43 2.37
  27  0.333  0.333  0.161-  44 2.37  45 2.37  57 2.37  64 2.37
  28  0.333  0.083  0.241-  46 2.37  58 2.37  45 2.37  65 2.37
  29  0.333  0.833  0.322-  47 2.37  59 2.37  46 2.37  66 2.37
  30  0.333  0.583  0.402-  48 2.37  60 2.37  47 2.37 115 2.80
  31  0.667  0.167  0.000-  61 2.37  68 2.37  49 2.37 108 2.40
  32  0.667  0.917  0.080-  69 2.37  62 2.37  49 2.37  50 2.37
  33  0.667  0.667  0.161-  50 2.37  63 2.37  70 2.37  51 2.37
  34  0.667  0.417  0.241-  64 2.37  51 2.37  71 2.37  52 2.37
  35  0.667  0.167  0.322-  65 2.37  52 2.37  72 2.37  53 2.37
  36  0.667  0.917  0.402-  66 2.37  53 2.37  54 2.37 103 2.40
  37  0.083  0.333  0.000-   7 2.37  20 2.37  19 2.37  78 2.43
  38  0.083  0.083  0.080-  21 2.37   8 2.37   1 2.37  20 2.37
  39  0.083  0.833  0.161-   2 2.37   9 2.37  22 2.37  21 2.37
  40  0.083  0.583  0.241-  10 2.37   3 2.37  23 2.37  22 2.37
  41  0.083  0.333  0.322-  11 2.37   4 2.37  24 2.37  23 2.37
  42  0.083  0.083  0.402-  12 2.37   5 2.37  24 2.37  73 2.43
  43  0.417  0.667  0.000-  25 2.37  13 2.37  26 2.37 120 2.40 102 2.62
  44  0.417  0.417  0.080-  27 2.37  26 2.37  14 2.37   7 2.37
  45  0.417  0.167  0.161-   8 2.37  27 2.37  15 2.37  28 2.37
  46  0.417  0.917  0.241-  28 2.37  16 2.37   9 2.37  29 2.37
  47  0.417  0.667  0.322-  29 2.37  17 2.37  10 2.37  30 2.37
  48  0.417  0.417  0.402-  30 2.37  18 2.37  11 2.37 115 2.40  97 2.62
  49  0.750  0.000  0.000-   1 2.37  32 2.37  31 2.37 144 2.59
  50  0.750  0.750  0.080-  33 2.37   2 2.37  13 2.37  32 2.37
  51  0.750  0.500  0.161-  14 2.37   3 2.37  34 2.37  33 2.37
  52  0.750  0.250  0.241-   4 2.37  15 2.37  35 2.37  34 2.37
  53  0.750  0.000  0.322-   5 2.37  16 2.37  36 2.37  35 2.37
  54  0.750  0.750  0.402-   6 2.37  17 2.37  36 2.37 139 2.59
  55  0.083  0.833  0.000-  25 2.37   2 2.37   1 2.37  96 2.43
  56  0.083  0.583  0.080-   3 2.37  26 2.37  19 2.37   2 2.37
  57  0.083  0.333  0.161-  20 2.37  27 2.37   4 2.37   3 2.37
  58  0.083  0.083  0.241-  28 2.37  21 2.37   5 2.37   4 2.37
  59  0.083  0.833  0.322-  29 2.37  22 2.37   6 2.37   5 2.37
  60  0.083  0.583  0.402-  30 2.37  23 2.37   6 2.37  91 2.43
  61  0.417  0.167  0.000-   7 2.37  31 2.37   8 2.37 138 2.40  84 2.62
  62  0.417  0.917  0.080-   9 2.37   8 2.37  32 2.37  25 2.37
  63  0.417  0.667  0.161-  26 2.37   9 2.37  33 2.37  10 2.37
  64  0.417  0.417  0.241-  10 2.37  34 2.37  27 2.37  11 2.37
  65  0.417  0.167  0.322-  11 2.37  35 2.37  28 2.37  12 2.37
  66  0.417  0.917  0.402-  12 2.37  36 2.37  29 2.37 133 2.40  79 2.62
  67  0.750  0.500  0.000-  19 2.37  14 2.37  13 2.37 126 2.59
  68  0.750  0.250  0.080-  15 2.37  20 2.37  31 2.37  14 2.37
  69  0.750  0.000  0.161-  32 2.37  21 2.37  16 2.37  15 2.37
  70  0.750  0.750  0.241-  22 2.37  17 2.37  33 2.37  16 2.37
  71  0.750  0.500  0.322-  23 2.37  18 2.37  34 2.37  17 2.37
  72  0.750  0.250  0.402-  24 2.37  35 2.37  18 2.37 121 2.59
  73  0.032  0.150  0.493- 121 2.37 127 2.37 110 2.43  42 2.43  24 2.59
  74  0.032  0.400  0.576- 122 2.37 128 2.37 127 2.43 111 2.43
  75  0.032  0.650  0.660- 123 2.37 129 2.37 128 2.43 112 2.43
  76  0.032  0.900  0.743- 124 2.37 130 2.37 113 2.43 129 2.43
  77  0.032  0.150  0.826- 125 2.37 131 2.37 130 2.43 114 2.43
  78  0.032  0.400  0.909- 126 2.37 132 2.37 131 2.43  37 2.43  19 2.59
  79  0.365  0.817  0.493- 133 2.37 109 2.37 116 2.43  66 2.62
  80  0.365  0.067  0.576- 134 2.37 110 2.37 133 2.43 117 2.43
  81  0.365  0.317  0.660- 135 2.37 111 2.37 134 2.43 118 2.43
  82  0.365  0.567  0.743- 136 2.37 112 2.37 119 2.43 135 2.43
  83  0.365  0.817  0.826- 137 2.37 113 2.37 136 2.43 120 2.43
  84  0.365  0.067  0.909- 138 2.37 114 2.37 137 2.43  61 2.62
  85  0.699  0.484  0.493- 115 2.37 139 2.37  18 2.40 122 2.43
  86  0.699  0.734  0.576- 116 2.37 140 2.37 139 2.43 123 2.43
  87  0.699  0.984  0.660- 117 2.37 141 2.37 140 2.43 124 2.43
  88  0.699  0.234  0.743- 118 2.37 142 2.37 125 2.43 141 2.43
  89  0.699  0.484  0.826- 119 2.37 143 2.37 142 2.43 126 2.43
  90  0.699  0.734  0.909- 120 2.37 144 2.37  13 2.40 143 2.43
  91  0.032  0.650  0.493- 139 2.37 109 2.37 128 2.43  60 2.43   6 2.59
  92  0.032  0.900  0.576- 140 2.37 110 2.37 129 2.43 109 2.43
  93  0.032  0.150  0.660- 141 2.37 111 2.37 130 2.43 110 2.43
  94  0.032  0.400  0.743- 142 2.37 112 2.37 131 2.43 111 2.43
  95  0.032  0.650  0.826- 143 2.37 113 2.37 112 2.43 132 2.43
  96  0.032  0.900  0.909- 144 2.37 114 2.37 113 2.43  55 2.43   1 2.59
  97  0.365  0.317  0.493- 115 2.37 127 2.37 134 2.43  48 2.62
  98  0.365  0.567  0.576- 116 2.37 128 2.37 115 2.43 135 2.43
  99  0.365  0.817  0.660- 117 2.37 129 2.37 116 2.43 136 2.43
 100  0.365  0.067  0.743- 118 2.37 130 2.37 137 2.43 117 2.43
 101  0.365  0.317  0.826- 119 2.37 131 2.37 118 2.43 138 2.43
 102  0.365  0.567  0.909- 120 2.37 132 2.37 119 2.43  43 2.62
 103  0.699  0.984  0.493- 133 2.37 121 2.37  36 2.40 140 2.43
 104  0.699  0.234  0.576- 134 2.37 122 2.37 121 2.43 141 2.43
 105  0.699  0.484  0.660- 135 2.37 123 2.37 122 2.43 142 2.43
 106  0.699  0.734  0.743- 136 2.37 124 2.37 143 2.43 123 2.43
 107  0.699  0.984  0.826- 137 2.37 125 2.37 124 2.43 144 2.43
 108  0.699  0.234  0.909- 138 2.37 126 2.37  31 2.40 125 2.43
 109  0.115  0.817  0.493-  79 2.37  91 2.37  92 2.43   6 2.62
 110  0.115  0.067  0.576-  80 2.37  92 2.37  73 2.43  93 2.43
 111  0.115  0.317  0.660-  81 2.37  93 2.37  74 2.43  94 2.43
 112  0.115  0.567  0.743-  82 2.37  94 2.37  95 2.43  75 2.43
 113  0.115  0.817  0.826-  83 2.37  95 2.37  76 2.43  96 2.43
 114  0.115  0.067  0.909-  84 2.37  96 2.37  77 2.43   1 2.62
 115  0.449  0.484  0.493-  97 2.37  85 2.37  48 2.40  98 2.43  30 2.80
 116  0.449  0.734  0.576-  98 2.37  86 2.37  79 2.43  99 2.43
 117  0.449  0.984  0.660-  99 2.37  87 2.37  80 2.43 100 2.43
 118  0.449  0.234  0.743- 100 2.37  88 2.37 101 2.43  81 2.43
 119  0.449  0.484  0.826- 101 2.37  89 2.37  82 2.43 102 2.43
 120  0.449  0.734  0.909- 102 2.37  90 2.37  43 2.40  83 2.43  25 2.80
 121  0.782  0.150  0.493-  73 2.37 103 2.37 104 2.43  72 2.59
 122  0.782  0.400  0.576-  74 2.37 104 2.37  85 2.43 105 2.43
 123  0.782  0.650  0.660-  75 2.37 105 2.37  86 2.43 106 2.43
 124  0.782  0.900  0.743-  76 2.37 106 2.37 107 2.43  87 2.43
 125  0.782  0.150  0.826-  77 2.37 107 2.37  88 2.43 108 2.43
 126  0.782  0.400  0.909-  78 2.37 108 2.37  89 2.43  67 2.59
 127  0.115  0.317  0.493-  97 2.37  73 2.37  74 2.43  24 2.62
 128  0.115  0.567  0.576-  98 2.37  74 2.37  91 2.43  75 2.43
 129  0.115  0.817  0.660-  99 2.37  75 2.37  92 2.43  76 2.43
 130  0.115  0.067  0.743- 100 2.37  76 2.37  77 2.43  93 2.43
 131  0.115  0.317  0.826- 101 2.37  77 2.37  94 2.43  78 2.43
 132  0.115  0.567  0.909- 102 2.37  78 2.37  95 2.43  19 2.62
 133  0.449  0.984  0.493-  79 2.37 103 2.37  66 2.40  80 2.43  12 2.80
 134  0.449  0.234  0.576-  80 2.37 104 2.37  97 2.43  81 2.43
 135  0.449  0.484  0.660-  81 2.37 105 2.37  98 2.43  82 2.43
 136  0.449  0.734  0.743-  82 2.37 106 2.37  83 2.43  99 2.43
 137  0.449  0.984  0.826-  83 2.37 107 2.37 100 2.43  84 2.43
 138  0.449  0.234  0.909-  84 2.37 108 2.37  61 2.40 101 2.43   7 2.80
 139  0.782  0.650  0.493-  91 2.37  85 2.37  86 2.43  54 2.59
 140  0.782  0.900  0.576-  92 2.37  86 2.37  87 2.43 103 2.43
 141  0.782  0.150  0.660-  93 2.37  87 2.37  88 2.43 104 2.43
 142  0.782  0.400  0.743-  94 2.37  88 2.37  89 2.43 105 2.43
 143  0.782  0.650  0.826-  95 2.37  89 2.37 106 2.43  90 2.43
 144  0.782  0.900  0.909-  96 2.37  90 2.37 107 2.43  49 2.59
 
  LATTYP: Found a simple orthorhombic cell.
 ALAT       =     9.4916384250
 B/A-ratio  =     1.4142135624
 C/A-ratio  =     2.5383314005
  
  Lattice vectors:
  
 A1 = (   9.4916384250,   0.0000000000,   0.0000000000)
 A2 = (   0.0000000000,  13.4232037900,   0.0000000000)
 A3 = (   0.0000000000,   0.0000000000,  24.0929238560)


Analysis of symmetry for initial positions (statically):
=====================================================================
 Subroutine PRICEL returns following result:
 
  LATTYP: Found a simple orthorhombic cell.
 ALAT       =     6.7116018950
 B/A-ratio  =     1.4142135623
 C/A-ratio  =     3.5897426923
  
  Lattice vectors:
  
 A1 = (   0.0000000000,  -6.7116018950,   0.0000000000)
 A2 = (   9.4916384250,   0.0000000000,   0.0000000000)
 A3 = (   0.0000000000,   0.0000000000,  24.0929238560)
 
   2 primitive cells build up your supercell.
 

 Routine SETGRP: Setting up the symmetry group for a 
 simple orthorhombic supercell.


 Subroutine GETGRP returns: Found  2 space group operations
 (whereof  1 operations were pure point group operations)
 out of a pool of  8 trial point group operations.


The static configuration has the point symmetry C_1 .
 The point group associated with its full space group is C_1h.


Analysis of symmetry for dynamics (positions and initial velocities):
=====================================================================
 Subroutine PRICEL returns following result:
 
  LATTYP: Found a simple orthorhombic cell.
 ALAT       =     6.7116018950
 B/A-ratio  =     1.4142135623
 C/A-ratio  =     3.5897426923
  
  Lattice vectors:
  
 A1 = (   0.0000000000,  -6.7116018950,   0.0000000000)
 A2 = (   9.4916384250,   0.0000000000,   0.0000000000)
 A3 = (   0.0000000000,   0.0000000000,  24.0929238560)
 
   2 primitive cells build up your supercell.
 

 Routine SETGRP: Setting up the symmetry group for a 
 simple orthorhombic supercell.


 Subroutine GETGRP returns: Found  2 space group operations
 (whereof  1 operations were pure point group operations)
 out of a pool of  8 trial point group operations.


The dynamic configuration has the point symmetry C_1 .
 The point group associated with its full space group is C_1h.


Analysis of structural, dynamic, and magnetic symmetry:
=====================================================================
 Subroutine PRICEL returns following result:
 
  LATTYP: Found a simple orthorhombic cell.
 ALAT       =     6.7116018950
 B/A-ratio  =     1.4142135623
 C/A-ratio  =     3.5897426923
  
  Lattice vectors:
  
 A1 = (   0.0000000000,  -6.7116018950,   0.0000000000)
 A2 = (   9.4916384250,   0.0000000000,   0.0000000000)
 A3 = (   0.0000000000,   0.0000000000,  24.0929238560)
 
   2 primitive cells build up your supercell.
 

 Routine SETGRP: Setting up the symmetry group for a 
 simple orthorhombic supercell.


 Subroutine GETGRP returns: Found  2 space group operations
 (whereof  1 operations were pure point group operations)
 out of a pool of  8 trial point group operations.


The overall configuration has the point symmetry C_1 .
 The point group associated with its full space group is C_1h.


 Subroutine INISYM returns: Found  2 space group operations
 (whereof  1 operations are pure point group operations),
 and found     2 'primitive' translations


----------------------------------------------------------------------------------------

                                     Primitive cell                                     

  volume of cell :    1534.8180

  direct lattice vectors                    reciprocal lattice vectors
     0.000000000 -6.711601895  0.000000000     0.000000000 -0.148995726  0.000000000
     9.491638425  0.000000000  0.000000000     0.105355889  0.000000000  0.000000000
     0.000000000  0.000000000 24.092923856     0.000000000  0.000000000  0.041505963

  length of vectors
     6.711601895  9.491638425 24.092923856     0.148995726  0.105355889  0.041505963

  position of ions in fractional coordinates (direct lattice)
     0.000000000  0.000000000  0.000000000
     0.500000000  0.000000000  0.080416665
     0.000000000  0.000000000  0.160833329
     0.500000000  0.000000000  0.241249994
     0.000000000  0.000000000  0.321666659
     0.500000000  0.000000000  0.402083324
     0.333333334  0.333333333  0.000000000
     0.833333334  0.333333333  0.080416665
     0.333333334  0.333333333  0.160833329
     0.833333334  0.333333333  0.241249994
     0.333333334  0.333333333  0.321666659
     0.833333334  0.333333333  0.402083324
     0.666666666  0.666666667  0.000000000
     0.166666666  0.666666667  0.080416665
     0.666666666  0.666666667  0.160833329
     0.166666666  0.666666667  0.241249994
     0.666666666  0.666666667  0.321666659
     0.166666666  0.666666667  0.402083324
     0.333333334  0.083333333  0.000000000
     0.833333334  0.083333333  0.080416665
     0.333333334  0.083333333  0.160833329
     0.833333334  0.083333333  0.241249994
     0.333333334  0.083333333  0.321666659
     0.833333334  0.083333333  0.402083324
     0.666666666  0.416666667  0.000000000
     0.166666666  0.416666667  0.080416665
     0.666666666  0.416666667  0.160833329
     0.166666666  0.416666667  0.241249994
     0.666666666  0.416666667  0.321666659
     0.166666666  0.416666667  0.402083324
     0.000000000  0.750000000  0.000000000
     0.500000000  0.750000000  0.080416665
     0.000000000  0.750000000  0.160833329
     0.500000000  0.750000000  0.241249994
     0.000000000  0.750000000  0.321666659
     0.500000000  0.750000000  0.402083324
     0.699248120  0.031914894  0.493396442
     0.199248120  0.031914894  0.576454530
     0.699248120  0.031914894  0.659512618
     0.199248120  0.031914894  0.742570706
     0.699248120  0.031914894  0.825628794
     0.199248120  0.031914894  0.908686882
     0.365914786  0.365248227  0.493396442
     0.865914786  0.365248227  0.576454530
     0.365914786  0.365248227  0.659512618
     0.865914786  0.365248227  0.742570706
     0.365914786  0.365248227  0.825628794
     0.865914786  0.365248227  0.908686882
     0.032581454  0.698581560  0.493396442
     0.532581454  0.698581560  0.576454530
     0.032581454  0.698581560  0.659512618
     0.532581454  0.698581560  0.742570706
     0.032581454  0.698581560  0.825628794
     0.532581454  0.698581560  0.908686882
     0.365914786  0.115248227  0.493396442
     0.865914786  0.115248227  0.576454530
     0.365914786  0.115248227  0.659512618
     0.865914786  0.115248227  0.742570706
     0.365914786  0.115248227  0.825628794
     0.865914786  0.115248227  0.908686882
     0.032581454  0.448581560  0.493396442
     0.532581454  0.448581560  0.576454530
     0.032581454  0.448581560  0.659512618
     0.532581454  0.448581560  0.742570706
     0.032581454  0.448581560  0.825628794
     0.532581454  0.448581560  0.908686882
     0.699248120  0.781914894  0.493396442
     0.199248120  0.781914894  0.576454530
     0.699248120  0.781914894  0.659512618
     0.199248120  0.781914894  0.742570706
     0.699248120  0.781914894  0.825628794
     0.199248120  0.781914894  0.908686882

  ion indices of the primitive-cell ions
   primitive index   ion index
                 1           1
                 2           2
                 3          21
                 4           4
                 5           5
                 6           6
                 7          25
                 8           8
                 9           9
                10          28
                11          29
                12          12
                13          31
                14          32
                15          15
                16          16
                17          35
                18          36
                19          55
                20          38
                21          39
                22          58
                23          59
                24          42
                25          61
                26          62
                27          45
                28          46
                29          65
                30          66
                31          49
                32          50
                33          69
                34          52
                35          53
                36          54
                37          73
                38          92
                39          93
                40          76
                41          77
                42          96
                43          79
                44          80
                45          99
                46         100
                47          83
                48          84
                49         103
                50         104
                51          87
                52          88
                53         107
                54         108
                55         109
                56         110
                57         129
                58         130
                59         113
                60         114
                61         133
                62         134
                63         117
                64         118
                65         137
                66         138
                67         121
                68         140
                69         141
                70         124
                71         125
                72         144

----------------------------------------------------------------------------------------

 
 
 KPOINTS: Automatic KPOINTS generated             

Automatic generation of k-mesh.
 Grid dimensions read from file:
 generate k-points for:    3    2    1

 Generating k-lattice:

  Cartesian coordinates                     Fractional coordinates (reciprocal lattice)
     0.035118630  0.000000000  0.000000000     0.333333333  0.000000000  0.000000000
     0.000000000  0.037248932  0.000000000     0.000000000  0.500000000  0.000000000
     0.000000000  0.000000000  0.041505963     0.000000000  0.000000000  1.000000000

  Length of vectors
     0.035118630  0.037248932  0.041505963

  Shift w.r.t. Gamma in fractional coordinates (k-lattice)
     0.000000000  0.000000000  0.000000000

 
 Subroutine IBZKPT returns following result:
 ===========================================
 
 Found      4 irreducible k-points:
 
 Following reciprocal coordinates:
            Coordinates               Weight
  0.000000  0.000000  0.000000      1.000000
  0.333333  0.000000  0.000000      2.000000
  0.000000  0.500000  0.000000      1.000000
  0.333333  0.500000  0.000000      2.000000
 
 Following cartesian coordinates:
            Coordinates               Weight
  0.000000  0.000000  0.000000      1.000000
  0.035119  0.000000  0.000000      2.000000
  0.000000  0.037249  0.000000      1.000000
  0.035119  0.037249  0.000000      2.000000
 


--------------------------------------------------------------------------------------------------------




 Dimension of arrays:
   k-points           NKPTS =      4   k-points in BZ     NKDIM =      4   number of bands    NBANDS=    346
   number of dos      NEDOS =    301   number of ions     NIONS =    144
   non local maximal  LDIM  =      5   non local SUM 2l+1 LMDIM =     13
   total plane-waves  NPLWV = 921600
   max r-space proj   IRMAX =   2483   max aug-charges    IRDMAX= 130725
   dimension x,y,z NGX =    64 NGY =   90 NGZ =  160
   dimension x,y,z NGXF=   128 NGYF=  180 NGZF=  320
   support grid    NGXF=   256 NGYF=  360 NGZF=  640
   ions per type =              72  72
   NGX,Y,Z   is equivalent  to a cutoff of  11.21, 11.15, 11.04 a.u.
   NGXF,Y,Z  is equivalent  to a cutoff of  22.42, 22.29, 22.08 a.u.

 SYSTEM =  Si011 and Ge011 interface calculation   
 POSCAR =  fcc Si+fcc Ge                           

 Startparameter for this run:
   NWRITE =      2    write-flag & timer
   PREC   = normal    normal or accurate (medium, high low for compatibility)
   ISTART =      0    job   : 0-new  1-cont  2-samecut
   ICHARG =      2    charge: 1-file 2-atom 10-const
   ISPIN  =      2    spin polarized calculation?
   LNONCOLLINEAR =      F non collinear calculations
   LSORBIT =      F    spin-orbit coupling
   INIWAV =      1    electr: 0-lowe 1-rand  2-diag
   LASPH  =      T    aspherical Exc in radial PAW
 Electronic Relaxation 1
   ENCUT  =  700.0 eV  51.45 Ry    7.17 a.u.  20.48 28.96 51.98*2*pi/ulx,y,z
   ENINI  =  700.0     initial cutoff
   ENAUG  =  900.0 eV  augmentation charge cutoff
   NELM   =    100;   NELMIN=  2; NELMDL= -5     # of ELM steps 
   EDIFF  = 0.1E-06   stopping-criterion for ELM
   LREAL  =      T    real-space projection
   NLSPLINE    = F    spline interpolate recip. space projectors
   LCOMPAT=      F    compatible to vasp.4.4
   GGA_COMPAT  = T    GGA compatible to vasp.4.4-vasp.4.6
   LMAXPAW     = -100 max onsite density
   LMAXMIX     =    6 max onsite mixed and CHGCAR
   VOSKOWN=      0    Vosko Wilk Nusair interpolation
   ROPT   =   -0.00050  -0.00050
 Ionic relaxation
   EDIFFG = 0.1E-05   stopping-criterion for IOM
   NSW    =      0    number of steps for IOM
   NBLOCK =      1;   KBLOCK =      1    inner block; outer block 
   IBRION =     -1    ionic relax: 0-MD 1-quasi-New 2-CG
   NFREE  =      0    steps in history (QN), initial steepest desc. (CG)
   ISIF   =      2    stress and relaxation
   IWAVPR =     10    prediction:  0-non 1-charg 2-wave 3-comb
   ISYM   =      2    0-nonsym 1-usesym 2-fastsym
   LCORR  =      T    Harris-Foulkes like correction to forces

   POTIM  = 0.5000    time-step for ionic-motion
   TEIN   =    0.0    initial temperature
   TEBEG  =    0.0;   TEEND  =   0.0 temperature during run
   SMASS  =  -3.00    Nose mass-parameter (am)
   estimated Nose-frequenzy (Omega)   =  0.10E-29 period in steps = 0.13E+47 mass=  -0.206E-26a.u.
   SCALEE = 1.0000    scale energy and forces
   NPACO  =    256;   APACO  = 10.0  distance and # of slots for P.C.
   PSTRESS=    0.0 pullay stress

  Mass of Ions in am
   POMASS =  28.09 72.61
  Ionic Valenz
   ZVAL   =   4.00  4.00
  Atomic Wigner-Seitz radii
   RWIGS  =  -1.00 -1.00
  virtual crystal weights 
   VCA    =   1.00  1.00
   NELECT =     576.0000    total number of electrons
   NUPDOWN=       1.0000    fix difference up-down

 DOS related values:
   EMIN   =  10.00;   EMAX   =-10.00  energy-range for DOS
   EFERMI =   0.00;   METHOD = LEGACY      
   ISMEAR =     0;   SIGMA  =   0.01  broadening in eV -4-tet -1-fermi 0-gaus

 Electronic relaxation 2 (details)
   IALGO  =     38    algorithm
   LDIAG  =      T    sub-space diagonalisation (order eigenvalues)
   LSUBROT=      F    optimize rotation matrix (better conditioning)
   TURBO    =      0    0=normal 1=particle mesh
   IRESTART =      0    0=no restart 2=restart with 2 vectors
   NREBOOT  =      0    no. of reboots
   NMIN     =      0    reboot dimension
   EREF     =   0.00    reference energy to select bands
   IMIX   =      4    mixing-type and parameters
     AMIX     =   0.60;   BMIX     =  1.00
     AMIX_MAG =   2.40;   BMIX_MAG =  1.00
     AMIN     =   0.10
     WC   =   100.;   INIMIX=   1;  MIXPRE=   1;  MAXMIX= -45

 Intra band minimization:
   WEIMIN = 0.0000     energy-eigenvalue tresh-hold
   EBREAK =  0.72E-10  absolut break condition
   DEPER  =   0.30     relativ break condition  

   TIME   =   0.40     timestep for ELM

  volume/ion in A,a.u.               =      21.32       143.85
  Fermi-wavevector in a.u.,A,eV,Ry     =   0.937246  1.771137 11.951754  0.878429
  Thomas-Fermi vector in A             =   2.064337
 
 Write flags
   LWAVE        =      F    write WAVECAR
   LDOWNSAMPLE  =      F    k-point downsampling of WAVECAR
   LCHARG       =      T    write CHGCAR
   LVTOT        =      F    write LOCPOT, total local potential
   LVHAR        =      T    write LOCPOT, Hartree potential only
   WRT_POTENTIAL=  hartree ionic  ! write potential to hdf5 file
   LELF         =      F    write electronic localiz. function (ELF)
   LORBIT       =      0    0 simple, 1 ext, 2 COOP (PROOUT), +10 PAW based schemes


 Dipole corrections
   LMONO      =      F    monopole corrections only (constant potential shift)
   LDIPOL     =      F    correct potential (dipole corrections)
   IDIPOL     =      0    1-x, 2-y, 3-z, 4-all directions 
   EPSILON    =  1.0000000 bulk dielectric constant
   LVACPOTAV  =      F  vacuum potentials using an averaging scheme for the charge density
   VACPOTFLAT =  0.1000000 required flatness to determine vacuum potential
 Exchange correlation treatment:
   GGA     = PE    functional components
   XC_C    = 1    coefficients multiplying the functional components
   LIBXC   =     F    Libxc                    
   VOSKOWN =     0    Vosko Wilk Nusair interpolation
   LHFCALC =     F    Hartree Fock is set to
   LHFONE  =     F    Hartree Fock one center treatment
   AEXX    =    0.0000 exact exchange contribution

 Parameters of functionals:
   PE:
     No parameter
 
 Van der Waals corrections
   IVDW    =     0    specifies the selected vdW correction

 Linear response parameters
   LEPSILON=     F    determine dielectric tensor
   LRPA    =     F    only Hartree local field effects (RPA)
   LNABLA  =     F    use nabla operator in PAW spheres
   LVEL    =     F    velocity operator in full k-point grid
   CSHIFT  =0.1000    complex shift for real part using Kramers Kronig
   OMEGAMAX=  -1.0    maximum frequency
   DEG_THRESHOLD= 0.2000000E-02 threshold for treating states as degnerate
   RTIME   =   -0.100 relaxation time in fs
  (WPLASMAI=    0.000 imaginary part of plasma frequency in eV, 0.658/RTIME)
   DFIELD  = 0.0000000 0.0000000 0.0000000 field for delta impulse in time
 
  Optional k-point grid parameters
   LKPOINTS_OPT  =     F    use optional k-point grid
   KPOINTS_OPT_MODE=     1    mode for optional k-point grid
 
 Orbital magnetization related:
   ORBITALMAG=     F  switch on orbital magnetization
   LCHIMAG   =     F  perturbation theory with respect to B field
   DQ        =  0.001000  dq finite difference perturbation B field
   LLRAUG    =     F  two centre corrections for induced B field
   LBONE     =     F  B-component reconstruction in AE one-centre
   LVGVCALC  =     T  calculate vGv susceptibility
   LVGVAPPL  =     F  apply vGv susceptibility instead of pGv for G=0

 Random number generation:
   RANDOM_GENERATOR = DEFAULT
   PCG_SEED         = not used


--------------------------------------------------------------------------------------------------------


 Static calculation
 charge density and potential will be updated during run
 spin polarized calculation
 Variant of blocked Davidson
 Davidson routine will perform the subspace rotation
 perform sub-space diagonalisation
    after iterative eigenvector-optimisation
 modified Broyden-mixing scheme, WC =      100.0
 initial mixing is a Kerker type mixing with AMIX =  0.6000 and BMIX =      1.0000
 Hartree-type preconditioning will be used
 using additional bands           58
 real space projection scheme for non local part
 use partial core corrections
 calculate Harris-corrections to forces 
   (improved forces if not selfconsistent)
 use gradient corrections 
 use of overlap-Matrix (Vanderbilt PP)
 Gauss-broadening in eV      SIGMA  =   0.01


--------------------------------------------------------------------------------------------------------


  energy-cutoff  :      700.00
  volume of cell :     3069.64
      direct lattice vectors                 reciprocal lattice vectors
     9.491638425  0.000000000  0.000000000     0.105355889  0.000000000  0.000000000
     0.000000000 13.423203790  0.000000000     0.000000000  0.074497863  0.000000000
     0.000000000  0.000000000 24.092923856     0.000000000  0.000000000  0.041505963

  length of vectors
     9.491638425 13.423203790 24.092923856     0.105355889  0.074497863  0.041505963


 
 k-points in units of 2pi/SCALE and weight: Automatic KPOINTS generated             
   0.00000000  0.00000000  0.00000000       0.167
   0.03511863  0.00000000  0.00000000       0.333
   0.00000000  0.03724893  0.00000000       0.167
   0.03511863  0.03724893  0.00000000       0.333
 
 k-points in reciprocal lattice and weights: Automatic KPOINTS generated             
   0.00000000  0.00000000  0.00000000       0.167
   0.33333333  0.00000000  0.00000000       0.333
   0.00000000  0.50000000  0.00000000       0.167
   0.33333333  0.50000000  0.00000000       0.333
 
 position of ions in fractional coordinates (direct lattice) 
   0.00000000  0.00000000  0.00000000
   0.00000000  0.75000000  0.08041667
   0.00000000  0.50000000  0.16083333
   0.00000000  0.25000000  0.24124999
   0.00000000  0.00000000  0.32166666
   0.00000000  0.75000000  0.40208332
   0.33333333  0.33333333  0.00000000
   0.33333333  0.08333333  0.08041667
   0.33333333  0.83333333  0.16083333
   0.33333333  0.58333333  0.24124999
   0.33333333  0.33333333  0.32166666
   0.33333333  0.08333333  0.40208332
   0.66666667  0.66666667  0.00000000
   0.66666667  0.41666667  0.08041667
   0.66666667  0.16666667  0.16083333
   0.66666667  0.91666667  0.24124999
   0.66666667  0.66666667  0.32166666
   0.66666667  0.41666667  0.40208332
   0.00000000  0.50000000  0.00000000
   0.00000000  0.25000000  0.08041667
   0.00000000  0.00000000  0.16083333
   0.00000000  0.75000000  0.24124999
   0.00000000  0.50000000  0.32166666
   0.00000000  0.25000000  0.40208332
   0.33333333  0.83333333  0.00000000
   0.33333333  0.58333333  0.08041667
   0.33333333  0.33333333  0.16083333
   0.33333333  0.08333333  0.24124999
   0.33333333  0.83333333  0.32166666
   0.33333333  0.58333333  0.40208332
   0.66666667  0.16666667  0.00000000
   0.66666667  0.91666667  0.08041667
   0.66666667  0.66666667  0.16083333
   0.66666667  0.41666667  0.24124999
   0.66666667  0.16666667  0.32166666
   0.66666667  0.91666667  0.40208332
   0.08333333  0.33333333  0.00000000
   0.08333333  0.08333333  0.08041667
   0.08333333  0.83333333  0.16083333
   0.08333333  0.58333333  0.24124999
   0.08333333  0.33333333  0.32166666
   0.08333333  0.08333333  0.40208332
   0.41666667  0.66666667  0.00000000
   0.41666667  0.41666667  0.08041667
   0.41666667  0.16666667  0.16083333
   0.41666667  0.91666667  0.24124999
   0.41666667  0.66666667  0.32166666
   0.41666667  0.41666667  0.40208332
   0.75000000  0.00000000  0.00000000
   0.75000000  0.75000000  0.08041667
   0.75000000  0.50000000  0.16083333
   0.75000000  0.25000000  0.24124999
   0.75000000  0.00000000  0.32166666
   0.75000000  0.75000000  0.40208332
   0.08333333  0.83333333  0.00000000
   0.08333333  0.58333333  0.08041667
   0.08333333  0.33333333  0.16083333
   0.08333333  0.08333333  0.24124999
   0.08333333  0.83333333  0.32166666
   0.08333333  0.58333333  0.40208332
   0.41666667  0.16666667  0.00000000
   0.41666667  0.91666667  0.08041667
   0.41666667  0.66666667  0.16083333
   0.41666667  0.41666667  0.24124999
   0.41666667  0.16666667  0.32166666
   0.41666667  0.91666667  0.40208332
   0.75000000  0.50000000  0.00000000
   0.75000000  0.25000000  0.08041667
   0.75000000  0.00000000  0.16083333
   0.75000000  0.75000000  0.24124999
   0.75000000  0.50000000  0.32166666
   0.75000000  0.25000000  0.40208332
   0.03191489  0.15037594  0.49339644
   0.03191489  0.40037594  0.57645453
   0.03191489  0.65037594  0.65951262
   0.03191489  0.90037594  0.74257071
   0.03191489  0.15037594  0.82562879
   0.03191489  0.40037594  0.90868688
   0.36524823  0.81704261  0.49339644
   0.36524823  0.06704261  0.57645453
   0.36524823  0.31704261  0.65951262
   0.36524823  0.56704261  0.74257071
   0.36524823  0.81704261  0.82562879
   0.36524823  0.06704261  0.90868688
   0.69858156  0.48370927  0.49339644
   0.69858156  0.73370927  0.57645453
   0.69858156  0.98370927  0.65951262
   0.69858156  0.23370927  0.74257071
   0.69858156  0.48370927  0.82562879
   0.69858156  0.73370927  0.90868688
   0.03191489  0.65037594  0.49339644
   0.03191489  0.90037594  0.57645453
   0.03191489  0.15037594  0.65951262
   0.03191489  0.40037594  0.74257071
   0.03191489  0.65037594  0.82562879
   0.03191489  0.90037594  0.90868688
   0.36524823  0.31704261  0.49339644
   0.36524823  0.56704261  0.57645453
   0.36524823  0.81704261  0.65951262
   0.36524823  0.06704261  0.74257071
   0.36524823  0.31704261  0.82562879
   0.36524823  0.56704261  0.90868688
   0.69858156  0.98370927  0.49339644
   0.69858156  0.23370927  0.57645453
   0.69858156  0.48370927  0.65951262
   0.69858156  0.73370927  0.74257071
   0.69858156  0.98370927  0.82562879
   0.69858156  0.23370927  0.90868688
   0.11524823  0.81704261  0.49339644
   0.11524823  0.06704261  0.57645453
   0.11524823  0.31704261  0.65951262
   0.11524823  0.56704261  0.74257071
   0.11524823  0.81704261  0.82562879
   0.11524823  0.06704261  0.90868688
   0.44858156  0.48370927  0.49339644
   0.44858156  0.73370927  0.57645453
   0.44858156  0.98370927  0.65951262
   0.44858156  0.23370927  0.74257071
   0.44858156  0.48370927  0.82562879
   0.44858156  0.73370927  0.90868688
   0.78191489  0.15037594  0.49339644
   0.78191489  0.40037594  0.57645453
   0.78191489  0.65037594  0.65951262
   0.78191489  0.90037594  0.74257071
   0.78191489  0.15037594  0.82562879
   0.78191489  0.40037594  0.90868688
   0.11524823  0.31704261  0.49339644
   0.11524823  0.56704261  0.57645453
   0.11524823  0.81704261  0.65951262
   0.11524823  0.06704261  0.74257071
   0.11524823  0.31704261  0.82562879
   0.11524823  0.56704261  0.90868688
   0.44858156  0.98370927  0.49339644
   0.44858156  0.23370927  0.57645453
   0.44858156  0.48370927  0.65951262
   0.44858156  0.73370927  0.74257071
   0.44858156  0.98370927  0.82562879
   0.44858156  0.23370927  0.90868688
   0.78191489  0.65037594  0.49339644
   0.78191489  0.90037594  0.57645453
   0.78191489  0.15037594  0.65951262
   0.78191489  0.40037594  0.74257071
   0.78191489  0.65037594  0.82562879
   0.78191489  0.90037594  0.90868688
 
 position of ions in cartesian coordinates  (Angst):
   0.00000000  0.00000000  0.00000000
   0.00000000 10.06740284  1.93747259
   0.00000000  6.71160190  3.87494515
   0.00000000  3.35580095  5.81241774
   0.00000000  0.00000000  7.74989032
   0.00000000 10.06740284  9.68736291
   3.16387947  4.47440126  0.00000000
   3.16387947  1.11860031  1.93747259
   3.16387947 11.18600315  3.87494515
   3.16387947  7.83020221  5.81241774
   3.16387947  4.47440126  7.74989032
   3.16387947  1.11860031  9.68736291
   6.32775895  8.94880253  0.00000000
   6.32775895  5.59300158  1.93747259
   6.32775895  2.23720064  3.87494515
   6.32775895 12.30460348  5.81241774
   6.32775895  8.94880253  7.74989032
   6.32775895  5.59300158  9.68736291
   0.00000000  6.71160190  0.00000000
   0.00000000  3.35580095  1.93747259
   0.00000000  0.00000000  3.87494515
   0.00000000 10.06740284  5.81241774
   0.00000000  6.71160190  7.74989032
   0.00000000  3.35580095  9.68736291
   3.16387947 11.18600315  0.00000000
   3.16387947  7.83020221  1.93747259
   3.16387947  4.47440126  3.87494515
   3.16387947  1.11860031  5.81241774
   3.16387947 11.18600315  7.74989032
   3.16387947  7.83020221  9.68736291
   6.32775895  2.23720064  0.00000000
   6.32775895 12.30460348  1.93747259
   6.32775895  8.94880253  3.87494515
   6.32775895  5.59300158  5.81241774
   6.32775895  2.23720064  7.74989032
   6.32775895 12.30460348  9.68736291
   0.79096987  4.47440126  0.00000000
   0.79096987  1.11860031  1.93747259
   0.79096987 11.18600315  3.87494515
   0.79096987  7.83020221  5.81241774
   0.79096987  4.47440126  7.74989032
   0.79096987  1.11860031  9.68736291
   3.95484935  8.94880253  0.00000000
   3.95484935  5.59300158  1.93747259
   3.95484935  2.23720064  3.87494515
   3.95484935 12.30460348  5.81241774
   3.95484935  8.94880253  7.74989032
   3.95484935  5.59300158  9.68736291
   7.11872882  0.00000000  0.00000000
   7.11872882 10.06740284  1.93747259
   7.11872882  6.71160190  3.87494515
   7.11872882  3.35580095  5.81241774
   7.11872882  0.00000000  7.74989032
   7.11872882 10.06740284  9.68736291
   0.79096987 11.18600315  0.00000000
   0.79096987  7.83020221  1.93747259
   0.79096987  4.47440126  3.87494515
   0.79096987  1.11860031  5.81241774
   0.79096987 11.18600315  7.74989032
   0.79096987  7.83020221  9.68736291
   3.95484935  2.23720064  0.00000000
   3.95484935 12.30460348  1.93747259
   3.95484935  8.94880253  3.87494515
   3.95484935  5.59300158  5.81241774
   3.95484935  2.23720064  7.74989032
   3.95484935 12.30460348  9.68736291
   7.11872882  6.71160190  0.00000000
   7.11872882  3.35580095  1.93747259
   7.11872882  0.00000000  3.87494515
   7.11872882 10.06740284  5.81241774
   7.11872882  6.71160190  7.74989032
   7.11872882  3.35580095  9.68736291
   0.30292463  2.01852689 11.88736291
   0.30292463  5.37432784 13.88847510
   0.30292463  8.73012878 15.88958729
   0.30292463 12.08592973 17.89069948
   0.30292463  2.01852689 19.89181167
   0.30292463  5.37432784 21.89292386
   3.46680411 10.96732942 11.88736291
   3.46680411  0.89992658 13.88847510
   3.46680411  4.25572752 15.88958729
   3.46680411  7.61152847 17.89069948
   3.46680411 10.96732942 19.89181167
   3.46680411  0.89992658 21.89292386
   6.63068358  6.49292815 11.88736291
   6.63068358  9.84872909 13.88847510
   6.63068358 13.20453004 15.88958729
   6.63068358  3.13712720 17.89069948
   6.63068358  6.49292815 19.89181167
   6.63068358  9.84872909 21.89292386
   0.30292463  8.73012878 11.88736291
   0.30292463 12.08592973 13.88847510
   0.30292463  2.01852689 15.88958729
   0.30292463  5.37432784 17.89069948
   0.30292463  8.73012878 19.89181167
   0.30292463 12.08592973 21.89292386
   3.46680411  4.25572752 11.88736291
   3.46680411  7.61152847 13.88847510
   3.46680411 10.96732942 15.88958729
   3.46680411  0.89992658 17.89069948
   3.46680411  4.25572752 19.89181167
   3.46680411  7.61152847 21.89292386
   6.63068358 13.20453004 11.88736291
   6.63068358  3.13712720 13.88847510
   6.63068358  6.49292815 15.88958729
   6.63068358  9.84872909 17.89069948
   6.63068358 13.20453004 19.89181167
   6.63068358  3.13712720 21.89292386
   1.09389450 10.96732942 11.88736291
   1.09389450  0.89992658 13.88847510
   1.09389450  4.25572752 15.88958729
   1.09389450  7.61152847 17.89069948
   1.09389450 10.96732942 19.89181167
   1.09389450  0.89992658 21.89292386
   4.25777397  6.49292815 11.88736291
   4.25777397  9.84872909 13.88847510
   4.25777397 13.20453004 15.88958729
   4.25777397  3.13712720 17.89069948
   4.25777397  6.49292815 19.89181167
   4.25777397  9.84872909 21.89292386
   7.42165345  2.01852689 11.88736291
   7.42165345  5.37432784 13.88847510
   7.42165345  8.73012878 15.88958729
   7.42165345 12.08592973 17.89069948
   7.42165345  2.01852689 19.89181167
   7.42165345  5.37432784 21.89292386
   1.09389450  4.25572752 11.88736291
   1.09389450  7.61152847 13.88847510
   1.09389450 10.96732942 15.88958729
   1.09389450  0.89992658 17.89069948
   1.09389450  4.25572752 19.89181167
   1.09389450  7.61152847 21.89292386
   4.25777397 13.20453004 11.88736291
   4.25777397  3.13712720 13.88847510
   4.25777397  6.49292815 15.88958729
   4.25777397  9.84872909 17.89069948
   4.25777397 13.20453004 19.89181167
   4.25777397  3.13712720 21.89292386
   7.42165345  8.73012878 11.88736291
   7.42165345 12.08592973 13.88847510
   7.42165345  2.01852689 15.88958729
   7.42165345  5.37432784 17.89069948
   7.42165345  8.73012878 19.89181167
   7.42165345 12.08592973 21.89292386
 


--------------------------------------------------------------------------------------------------------


 k-point     1 :   0.0000 0.0000 0.0000  plane waves:  129107
 k-point     2 :   0.3333 0.0000 0.0000  plane waves:  129083
 k-point     3 :   0.0000 0.5000 0.0000  plane waves:  129106
 k-point     4 :   0.3333 0.5000 0.0000  plane waves:  129070

 maximum and minimum number of plane-waves per node :      8102     8035

 maximum number of plane-waves:    129107
 maximum index in each direction: 
   IXMAX=   20   IYMAX=   28   IZMAX=   51
   IXMIN=  -20   IYMIN=  -29   IZMIN=  -51


 real space projection operators:
  total allocation   :      24085.19 KBytes
  max/ min on nodes  :       1544.28       1447.75


 parallel 3D FFT for wavefunctions:
    minimum data exchange during FFTs selected (reduces bandwidth)
 parallel 3D FFT for charge:
    minimum data exchange during FFTs selected (reduces bandwidth)


 total amount of memory used by VASP MPI-rank0   511264. kBytes
=======================================================================

   base      :      30000. kBytes
   nonlr-proj:       7859. kBytes
   fftplans  :      69092. kBytes
   grid      :      42335. kBytes
   one-center:        146. kBytes
   wavefun   :     361832. kBytes
 
     INWAV:  cpu time      0.0001: real time      0.0004
 Broyden mixing: mesh for mixing (old mesh)
   NGX = 41   NGY = 57   NGZ =103
  (NGX  =128   NGY  =180   NGZ  =320)
  gives a total of 240711 points

 initial charge density was supplied:
 charge density of overlapping atoms calculated
 number of electron     576.0000000 magnetization       1.0000000
 keeping initial charge density in first step


--------------------------------------------------------------------------------------------------------


 Maximum index for non-local projection operator          208
 Maximum index for augmentation-charges         8180 (set IRDMAX)


--------------------------------------------------------------------------------------------------------


 First call to EWALD:  gamma=   0.122
 Maximum number of real-space cells 4x 3x 2
 Maximum number of reciprocal cells 2x 3x 4

    FEWALD:  cpu time      0.0058: real time      0.0059


--------------------------------------- Ionic step        1  -------------------------------------------




--------------------------------------- Iteration      1(   1)  ---------------------------------------


    POTLOK:  cpu time      0.8464: real time      0.8543
    SETDIJ:  cpu time      4.3498: real time      4.3738
     EDDAV:  cpu time     61.0408: real time     61.5734
       DOS:  cpu time      0.0014: real time      0.0014
    --------------------------------------------
      LOOP:  cpu time     66.2384: real time     66.8030

 eigenvalue-minimisations  :  5536
 total energy-change (2. order) : 0.2456445E+04  (-0.2581078E+05)
 number of electron     576.0000000 magnetization       1.0000000
 augmentation part      576.0000000 magnetization       1.0000000

 Free energy of the ion-electron system (eV)
  ---------------------------------------------------
  alpha Z        PSCENC =       759.26891756
  Ewald energy   TEWEN  =    -15877.52399984
  -Hartree energ DENC   =     -1043.59086936
  -exchange      EXHF   =         0.00000000
  -V(xc)+E(xc)   XCENC  =     -1208.86684745
  PAW double counting   =     12691.36703575   -10381.54560829
  entropy T*S    EENTRO =        -0.00180955
  eigenvalues    EBANDS =      2536.83576022
  atomic energy  EATOM  =     14980.50241411
  Solvation  Ediel_sol  =         0.00000000
  ---------------------------------------------------
  free energy    TOTEN  =      2456.44499314 eV

  energy without entropy =     2456.44680269  energy(sigma->0) =     2456.44589791


--------------------------------------------------------------------------------------------------------




--------------------------------------- Iteration      1(   2)  ---------------------------------------


     EDDAV:  cpu time     68.6869: real time     69.2427
       DOS:  cpu time      0.0048: real time      0.0048
    --------------------------------------------
      LOOP:  cpu time     68.6916: real time     69.2475

 eigenvalue-minimisations  :  6464
 total energy-change (2. order) :-0.2872183E+04  (-0.2767329E+04)
 number of electron     576.0000000 magnetization       1.0000000
 augmentation part      576.0000000 magnetization       1.0000000

 Free energy of the ion-electron system (eV)
  ---------------------------------------------------
  alpha Z        PSCENC =       759.26891756
  Ewald energy   TEWEN  =    -15877.52399984
  -Hartree energ DENC   =     -1043.59086936
  -exchange      EXHF   =         0.00000000
  -V(xc)+E(xc)   XCENC  =     -1208.86684745
  PAW double counting   =     12691.36703575   -10381.54560829
  entropy T*S    EENTRO =        -0.00165203
  eigenvalues    EBANDS =      -335.34694872
  atomic energy  EATOM  =     14980.50241411
  Solvation  Ediel_sol  =         0.00000000
  ---------------------------------------------------
  free energy    TOTEN  =      -415.73755828 eV

  energy without entropy =     -415.73590625  energy(sigma->0) =     -415.73673226


--------------------------------------------------------------------------------------------------------




--------------------------------------- Iteration      1(   3)  ---------------------------------------


     EDDAV:  cpu time     71.7073: real time     72.2836
       DOS:  cpu time      0.0040: real time      0.0040
    --------------------------------------------
      LOOP:  cpu time     71.7113: real time     72.2876

 eigenvalue-minimisations  :  6784
 total energy-change (2. order) :-0.2733782E+03  (-0.2664732E+03)
 number of electron     576.0000000 magnetization       1.0000000
 augmentation part      576.0000000 magnetization       1.0000000

 Free energy of the ion-electron system (eV)
  ---------------------------------------------------
  alpha Z        PSCENC =       759.26891756
  Ewald energy   TEWEN  =    -15877.52399984
  -Hartree energ DENC   =     -1043.59086936
  -exchange      EXHF   =         0.00000000
  -V(xc)+E(xc)   XCENC  =     -1208.86684745
  PAW double counting   =     12691.36703575   -10381.54560829
  entropy T*S    EENTRO =        -0.00224818
  eigenvalues    EBANDS =      -608.72459973
  atomic energy  EATOM  =     14980.50241411
  Solvation  Ediel_sol  =         0.00000000
  ---------------------------------------------------
  free energy    TOTEN  =      -689.11580545 eV

  energy without entropy =     -689.11355727  energy(sigma->0) =     -689.11468136


--------------------------------------------------------------------------------------------------------




--------------------------------------- Iteration      1(   4)  ---------------------------------------


     EDDAV:  cpu time     69.0022: real time     69.6572
       DOS:  cpu time      0.0012: real time      0.0013
    --------------------------------------------
      LOOP:  cpu time     69.0034: real time     69.6584

 eigenvalue-minimisations  :  6496
 total energy-change (2. order) :-0.9324821E+01  (-0.9207844E+01)
 number of electron     576.0000000 magnetization       1.0000000
 augmentation part      576.0000000 magnetization       1.0000000

 Free energy of the ion-electron system (eV)
  ---------------------------------------------------
  alpha Z        PSCENC =       759.26891756
  Ewald energy   TEWEN  =    -15877.52399984
  -Hartree energ DENC   =     -1043.59086936
  -exchange      EXHF   =         0.00000000
  -V(xc)+E(xc)   XCENC  =     -1208.86684745
  PAW double counting   =     12691.36703575   -10381.54560829
  entropy T*S    EENTRO =        -0.00120631
  eigenvalues    EBANDS =      -618.05046282
  atomic energy  EATOM  =     14980.50241411
  Solvation  Ediel_sol  =         0.00000000
  ---------------------------------------------------
  free energy    TOTEN  =      -698.44062666 eV

  energy without entropy =     -698.43942035  energy(sigma->0) =     -698.44002351


--------------------------------------------------------------------------------------------------------




--------------------------------------- Iteration      1(   5)  ---------------------------------------


     EDDAV:  cpu time     76.8621: real time     77.5982
       DOS:  cpu time      0.0015: real time      0.0015
    CHARGE:  cpu time      3.4208: real time      3.4506
    MIXING:  cpu time      0.0198: real time      0.0201
    --------------------------------------------
      LOOP:  cpu time     80.3043: real time     81.0704

 eigenvalue-minimisations  :  7440
 total energy-change (2. order) :-0.3547258E+00  (-0.3535679E+00)
 number of electron     575.9999996 magnetization       1.0000000
 augmentation part      -64.1942600 magnetization      -0.0757119

 Broyden mixing:
  rms(total) = 0.33811E+01    rms(broyden)= 0.33811E+01
  rms(prec ) = 0.34837E+01
  weight for this iteration     100.00

 Free energy of the ion-electron system (eV)
  ---------------------------------------------------
  alpha Z        PSCENC =       759.26891756
  Ewald energy   TEWEN  =    -15877.52399984
  -Hartree energ DENC   =     -1043.59086936
  -exchange      EXHF   =         0.00000000
  -V(xc)+E(xc)   XCENC  =     -1208.86684745
  PAW double counting   =     12691.36703575   -10381.54560829
  entropy T*S    EENTRO =        -0.00118426
  eigenvalues    EBANDS =      -618.40521071
  atomic energy  EATOM  =     14980.50241411
  Solvation  Ediel_sol  =         0.00000000
  ---------------------------------------------------
  free energy    TOTEN  =      -698.79535250 eV

  energy without entropy =     -698.79416825  energy(sigma->0) =     -698.79476037


--------------------------------------------------------------------------------------------------------




--------------------------------------- Iteration      1(   6)  ---------------------------------------


    POTLOK:  cpu time      0.8442: real time      0.8522
    SETDIJ:  cpu time      4.3607: real time      4.3855
     EDDAV:  cpu time     70.2125: real time     70.8232
       DOS:  cpu time      0.0054: real time      0.0054
    CHARGE:  cpu time      3.4382: real time      3.4652
    MIXING:  cpu time      0.0207: real time      0.0208
    --------------------------------------------
      LOOP:  cpu time     78.8817: real time     79.5523

 eigenvalue-minimisations  :  6592
 total energy-change (2. order) : 0.9715589E+01  (-0.1246133E+01)
 number of electron     575.9999996 magnetization       1.0000000
 augmentation part      -63.5845861 magnetization      -0.0857538

 Broyden mixing:
  rms(total) = 0.15489E+01    rms(broyden)= 0.15489E+01
  rms(prec ) = 0.15900E+01
  weight for this iteration     100.00

 eigenvalues of (default mixing * dielectric matrix)
  average eigenvalue GAMMA=   1.7640
  1.7640

 Free energy of the ion-electron system (eV)
  ---------------------------------------------------
  alpha Z        PSCENC =       759.26891756
  Ewald energy   TEWEN  =    -15877.52399984
  -Hartree energ DENC   =     -1191.78818313
  -exchange      EXHF   =         0.00000000
  -V(xc)+E(xc)   XCENC  =     -1185.48900663
  PAW double counting   =     26391.27321473   -24093.09591519
  entropy T*S    EENTRO =        -0.00188040
  eigenvalues    EBANDS =      -472.22532432
  atomic energy  EATOM  =     14980.50241411
  Solvation  Ediel_sol  =         0.00000000
  ---------------------------------------------------
  free energy    TOTEN  =      -689.07976312 eV

  energy without entropy =     -689.07788273  energy(sigma->0) =     -689.07882292


--------------------------------------------------------------------------------------------------------




--------------------------------------- Iteration      1(   7)  ---------------------------------------


    POTLOK:  cpu time      0.8471: real time      0.8546
    SETDIJ:  cpu time      4.3669: real time      4.3903
     EDDAV:  cpu time     70.8189: real time     71.4086
       DOS:  cpu time      0.0067: real time      0.0068
    CHARGE:  cpu time      3.4764: real time      3.5038
    MIXING:  cpu time      0.0212: real time      0.0214
    --------------------------------------------
      LOOP:  cpu time     79.5373: real time     80.1854

 eigenvalue-minimisations  :  6648
 total energy-change (2. order) : 0.5372679E+00  (-0.1021353E+01)
 number of electron     575.9999996 magnetization       1.0000000
 augmentation part      -63.3753686 magnetization      -0.0789255

 Broyden mixing:
  rms(total) = 0.46195E+00    rms(broyden)= 0.46195E+00
  rms(prec ) = 0.53887E+00
  weight for this iteration     100.00

 eigenvalues of (default mixing * dielectric matrix)
  average eigenvalue GAMMA=   1.2294
  1.8644  0.5945

 Free energy of the ion-electron system (eV)
  ---------------------------------------------------
  alpha Z        PSCENC =       759.26891756
  Ewald energy   TEWEN  =    -15877.52399984
  -Hartree energ DENC   =     -1293.34208675
  -exchange      EXHF   =         0.00000000
  -V(xc)+E(xc)   XCENC  =     -1166.67777192
  PAW double counting   =     42220.88620498   -39931.50140733
  entropy T*S    EENTRO =        -0.00225585
  eigenvalues    EBANDS =      -380.15251015
  atomic energy  EATOM  =     14980.50241411
  Solvation  Ediel_sol  =         0.00000000
  ---------------------------------------------------
  free energy    TOTEN  =      -688.54249520 eV

  energy without entropy =     -688.54023935  energy(sigma->0) =     -688.54136728


--------------------------------------------------------------------------------------------------------




--------------------------------------- Iteration      1(   8)  ---------------------------------------


    POTLOK:  cpu time      0.8450: real time      0.8537
    SETDIJ:  cpu time      4.3662: real time      4.3902
     EDDAV:  cpu time     71.2272: real time     71.8099
       DOS:  cpu time      0.0053: real time      0.0053
    CHARGE:  cpu time      3.4377: real time      3.4646
    MIXING:  cpu time      0.0219: real time      0.0221
    --------------------------------------------
      LOOP:  cpu time     79.9033: real time     80.5459

 eigenvalue-minimisations  :  6672
 total energy-change (2. order) : 0.1742039E+00  (-0.2178835E+00)
 number of electron     575.9999996 magnetization       1.0000000
 augmentation part      -63.1394995 magnetization      -0.0817161

 Broyden mixing:
  rms(total) = 0.15688E+00    rms(broyden)= 0.15688E+00
  rms(prec ) = 0.16327E+00
  weight for this iteration     100.00

 eigenvalues of (default mixing * dielectric matrix)
  average eigenvalue GAMMA=   1.2531
  1.8562  1.2616  0.6416

 Free energy of the ion-electron system (eV)
  ---------------------------------------------------
  alpha Z        PSCENC =       759.26891756
  Ewald energy   TEWEN  =    -15877.52399984
  -Hartree energ DENC   =     -1299.50148222
  -exchange      EXHF   =         0.00000000
  -V(xc)+E(xc)   XCENC  =     -1165.59579880
  PAW double counting   =     45144.55846454   -42855.80128576
  entropy T*S    EENTRO =        -0.00135383
  eigenvalues    EBANDS =      -374.27416707
  atomic energy  EATOM  =     14980.50241411
  Solvation  Ediel_sol  =         0.00000000
  ---------------------------------------------------
  free energy    TOTEN  =      -688.36829132 eV

  energy without entropy =     -688.36693749  energy(sigma->0) =     -688.36761440


--------------------------------------------------------------------------------------------------------




--------------------------------------- Iteration      1(   9)  ---------------------------------------


    POTLOK:  cpu time      0.8450: real time      0.8549
    SETDIJ:  cpu time      4.3746: real time      4.3986
     EDDAV:  cpu time     69.2381: real time     69.8236
       DOS:  cpu time      0.0048: real time      0.0048
    CHARGE:  cpu time      3.4533: real time      3.4805
    MIXING:  cpu time      0.0231: real time      0.0233
    --------------------------------------------
      LOOP:  cpu time     77.9389: real time     78.5857

 eigenvalue-minimisations  :  6488
 total energy-change (2. order) : 0.4619493E-02  (-0.4334027E-01)
 number of electron     575.9999996 magnetization       1.0000000
 augmentation part      -63.1905068 magnetization      -0.0884352

 Broyden mixing:
  rms(total) = 0.89762E-01    rms(broyden)= 0.89762E-01
  rms(prec ) = 0.91638E-01
  weight for this iteration     100.00

 eigenvalues of (default mixing * dielectric matrix)
  average eigenvalue GAMMA=   1.2001
  1.7124  1.7124  0.8307  0.5448

 Free energy of the ion-electron system (eV)
  ---------------------------------------------------
  alpha Z        PSCENC =       759.26891756
  Ewald energy   TEWEN  =    -15877.52399984
  -Hartree energ DENC   =     -1289.49384022
  -exchange      EXHF   =         0.00000000
  -V(xc)+E(xc)   XCENC  =     -1166.50610661
  PAW double counting   =     45929.25920809   -43640.15750158
  entropy T*S    EENTRO =        -0.00126858
  eigenvalues    EBANDS =      -383.71149475
  atomic energy  EATOM  =     14980.50241411
  Solvation  Ediel_sol  =         0.00000000
  ---------------------------------------------------
  free energy    TOTEN  =      -688.36367183 eV

  energy without entropy =     -688.36240324  energy(sigma->0) =     -688.36303754


--------------------------------------------------------------------------------------------------------




--------------------------------------- Iteration      1(  10)  ---------------------------------------


    POTLOK:  cpu time      0.8456: real time      0.8533
    SETDIJ:  cpu time      4.3694: real time      4.3940
     EDDAV:  cpu time     68.2708: real time     68.8303
       DOS:  cpu time      0.0054: real time      0.0055
    CHARGE:  cpu time      3.4670: real time      3.4933
    MIXING:  cpu time      0.0239: real time      0.0241
    --------------------------------------------
      LOOP:  cpu time     76.9821: real time     77.6005

 eigenvalue-minimisations  :  6352
 total energy-change (2. order) :-0.1382432E-02  (-0.6742104E-02)
 number of electron     575.9999996 magnetization       1.0000000
 augmentation part      -63.2134791 magnetization      -0.0807515

 Broyden mixing:
  rms(total) = 0.47994E-01    rms(broyden)= 0.47994E-01
  rms(prec ) = 0.50736E-01
  weight for this iteration     100.00

 eigenvalues of (default mixing * dielectric matrix)
  average eigenvalue GAMMA=   1.1571
  1.7892  1.7892  1.1365  0.5353  0.5353

 Free energy of the ion-electron system (eV)
  ---------------------------------------------------
  alpha Z        PSCENC =       759.26891756
  Ewald energy   TEWEN  =    -15877.52399984
  -Hartree energ DENC   =     -1285.39904635
  -exchange      EXHF   =         0.00000000
  -V(xc)+E(xc)   XCENC  =     -1166.91207590
  PAW double counting   =     46231.00254326   -43941.73643888
  entropy T*S    EENTRO =        -0.00159682
  eigenvalues    EBANDS =      -387.56577139
  atomic energy  EATOM  =     14980.50241411
  Solvation  Ediel_sol  =         0.00000000
  ---------------------------------------------------
  free energy    TOTEN  =      -688.36505426 eV

  energy without entropy =     -688.36345744  energy(sigma->0) =     -688.36425585


--------------------------------------------------------------------------------------------------------




--------------------------------------- Iteration      1(  11)  ---------------------------------------


    POTLOK:  cpu time      0.8453: real time      0.8537
    SETDIJ:  cpu time      4.3662: real time      4.3899
     EDDAV:  cpu time     67.4057: real time     67.9589
       DOS:  cpu time      0.0026: real time      0.0026
    CHARGE:  cpu time      3.4205: real time      3.4460
    MIXING:  cpu time      0.0256: real time      0.0258
    --------------------------------------------
      LOOP:  cpu time     76.0658: real time     76.6769

 eigenvalue-minimisations  :  6272
 total energy-change (2. order) :-0.1396324E-02  (-0.2169914E-02)
 number of electron     575.9999996 magnetization       1.0000000
 augmentation part      -63.1952866 magnetization      -0.0843681

 Broyden mixing:
  rms(total) = 0.29043E-01    rms(broyden)= 0.29043E-01
  rms(prec ) = 0.29950E-01
  weight for this iteration     100.00

 eigenvalues of (default mixing * dielectric matrix)
  average eigenvalue GAMMA=   1.1069
  1.6281  1.6281  1.5879  0.6627  0.6627  0.4716

 Free energy of the ion-electron system (eV)
  ---------------------------------------------------
  alpha Z        PSCENC =       759.26891756
  Ewald energy   TEWEN  =    -15877.52399984
  -Hartree energ DENC   =     -1285.43114699
  -exchange      EXHF   =         0.00000000
  -V(xc)+E(xc)   XCENC  =     -1166.93360044
  PAW double counting   =     46275.08949690   -43985.81799801
  entropy T*S    EENTRO =        -0.00154021
  eigenvalues    EBANDS =      -387.51899366
  atomic energy  EATOM  =     14980.50241411
  Solvation  Ediel_sol  =         0.00000000
  ---------------------------------------------------
  free energy    TOTEN  =      -688.36645058 eV

  energy without entropy =     -688.36491037  energy(sigma->0) =     -688.36568048


--------------------------------------------------------------------------------------------------------




--------------------------------------- Iteration      1(  12)  ---------------------------------------


    POTLOK:  cpu time      0.8448: real time      0.8526
    SETDIJ:  cpu time      4.3663: real time      4.3886
     EDDAV:  cpu time     74.1030: real time     74.7127
       DOS:  cpu time      0.0015: real time      0.0015
    CHARGE:  cpu time      3.4434: real time      3.4688
    MIXING:  cpu time      0.0264: real time      0.0266
    --------------------------------------------
      LOOP:  cpu time     82.7854: real time     83.4508

 eigenvalue-minimisations  :  7088
 total energy-change (2. order) :-0.5637728E-03  (-0.2478526E-03)
 number of electron     575.9999996 magnetization       1.0000000
 augmentation part      -63.1962956 magnetization      -0.0840344

 Broyden mixing:
  rms(total) = 0.13928E-01    rms(broyden)= 0.13928E-01
  rms(prec ) = 0.14207E-01
  weight for this iteration     100.00

 eigenvalues of (default mixing * dielectric matrix)
  average eigenvalue GAMMA=   1.1304
  1.7963  1.7963  1.6866  0.8859  0.6421  0.6421  0.4633

 Free energy of the ion-electron system (eV)
  ---------------------------------------------------
  alpha Z        PSCENC =       759.26891756
  Ewald energy   TEWEN  =    -15877.52399984
  -Hartree energ DENC   =     -1285.95883831
  -exchange      EXHF   =         0.00000000
  -V(xc)+E(xc)   XCENC  =     -1166.88584924
  PAW double counting   =     46207.37500840   -43918.12176080
  entropy T*S    EENTRO =        -0.00149242
  eigenvalues    EBANDS =      -387.02141381
  atomic energy  EATOM  =     14980.50241411
  Solvation  Ediel_sol  =         0.00000000
  ---------------------------------------------------
  free energy    TOTEN  =      -688.36701435 eV

  energy without entropy =     -688.36552194  energy(sigma->0) =     -688.36626815


--------------------------------------------------------------------------------------------------------




--------------------------------------- Iteration      1(  13)  ---------------------------------------


    POTLOK:  cpu time      0.8450: real time      0.8527
    SETDIJ:  cpu time      4.3650: real time      4.3890
     EDDAV:  cpu time     68.4478: real time     69.0458
       DOS:  cpu time      0.0022: real time      0.0022
[...]
   -.179E+02 0.152E+01 -.770E+01   0.175E+02 -.134E+01 0.711E+01   0.728E+00 -.353E+00 0.212E+00   0.149E-04 0.107E-04 0.790E-04
   0.288E-01 0.208E+01 0.207E+01   -.908E-01 -.210E+01 -.227E+01   0.257E+00 -.308E+00 0.119E+00   0.529E-05 -.230E-05 0.163E-04
   -.170E+01 0.212E+01 0.400E+00   0.155E+01 -.198E+01 -.351E+00   0.326E+00 -.408E+00 -.883E-01   0.577E-06 -.205E-05 0.171E-05
   -.170E+01 0.212E+01 -.400E+00   0.155E+01 -.198E+01 0.351E+00   0.326E+00 -.408E+00 0.883E-01   0.577E-06 -.205E-05 -.156E-05
   0.288E-01 0.208E+01 -.207E+01   -.908E-01 -.210E+01 0.227E+01   0.257E+00 -.308E+00 -.119E+00   0.529E-05 -.230E-05 -.162E-04
   -.179E+02 0.152E+01 0.770E+01   0.175E+02 -.134E+01 -.711E+01   0.728E+00 -.353E+00 -.212E+00   0.149E-04 0.107E-04 -.789E-04
   0.291E+01 -.229E+02 0.736E+00   -.251E+01 0.231E+02 -.994E+00   -.946E+00 0.335E+00 -.968E+00   -.354E-05 -.170E-05 0.820E-04
   0.112E+01 0.258E-01 0.119E+01   -.125E+01 0.203E+00 -.167E+01   -.166E+00 -.395E-01 0.542E+00   -.374E-05 0.524E-05 0.277E-04
   0.145E+01 -.224E+01 0.407E+00   -.142E+01 0.216E+01 -.421E+00   -.277E+00 0.314E+00 -.633E-01   0.931E-06 -.110E-05 0.114E-05
   0.145E+01 -.224E+01 -.407E+00   -.142E+01 0.216E+01 0.421E+00   -.277E+00 0.314E+00 0.633E-01   0.931E-06 -.110E-05 -.987E-06
   0.112E+01 0.258E-01 -.119E+01   -.125E+01 0.203E+00 0.167E+01   -.166E+00 -.395E-01 -.542E+00   -.374E-05 0.524E-05 -.275E-04
   0.291E+01 -.229E+02 -.736E+00   -.251E+01 0.231E+02 0.994E+00   -.946E+00 0.335E+00 0.968E+00   -.354E-05 -.170E-05 -.819E-04
   0.617E+01 -.196E+02 -.174E+02   -.610E+01 0.199E+02 0.188E+02   -.779E+00 0.210E+01 0.344E+00   0.972E-05 0.481E-05 0.933E-04
   0.106E+01 -.128E+01 0.469E+01   -.890E+00 0.751E+00 -.410E+01   -.223E+00 0.804E+00 -.404E+00   -.661E-05 0.817E-05 0.212E-04
   0.151E+01 -.223E+01 0.115E+00   -.146E+01 0.211E+01 -.162E+00   -.249E+00 0.522E+00 0.464E-01   -.235E-05 -.271E-06 0.676E-05
   0.151E+01 -.223E+01 -.115E+00   -.146E+01 0.211E+01 0.162E+00   -.249E+00 0.522E+00 -.464E-01   -.235E-05 -.271E-06 -.660E-05
   0.106E+01 -.128E+01 -.469E+01   -.890E+00 0.751E+00 0.410E+01   -.223E+00 0.804E+00 0.404E+00   -.661E-05 0.817E-05 -.211E-04
   0.617E+01 -.196E+02 0.174E+02   -.610E+01 0.199E+02 -.188E+02   -.779E+00 0.210E+01 -.344E+00   0.972E-05 0.481E-05 -.932E-04
   0.152E+02 -.134E+01 -.278E+01   -.151E+02 0.157E+01 0.259E+01   -.102E+01 0.806E+00 -.588E+00   -.425E-05 -.631E-05 0.754E-04
   0.263E+00 -.245E+01 0.263E+01   0.130E+00 0.208E+01 -.236E+01   -.573E+00 0.576E+00 -.314E+00   -.186E-05 0.160E-05 0.173E-04
   0.175E+01 -.217E+01 0.379E+00   -.155E+01 0.198E+01 -.354E+00   -.428E+00 0.493E+00 0.176E-01   0.144E-05 0.217E-05 0.118E-05
   0.175E+01 -.217E+01 -.379E+00   -.155E+01 0.198E+01 0.354E+00   -.428E+00 0.493E+00 -.176E-01   0.144E-05 0.217E-05 -.102E-05
   0.263E+00 -.245E+01 -.263E+01   0.130E+00 0.208E+01 0.236E+01   -.573E+00 0.576E+00 0.314E+00   -.186E-05 0.160E-05 -.172E-04
   0.152E+02 -.134E+01 0.278E+01   -.151E+02 0.157E+01 -.259E+01   -.102E+01 0.806E+00 0.588E+00   -.425E-05 -.631E-05 -.752E-04
   0.291E+01 -.229E+02 0.736E+00   -.251E+01 0.231E+02 -.994E+00   -.946E+00 0.335E+00 -.968E+00   -.354E-05 -.170E-05 0.820E-04
   0.112E+01 0.258E-01 0.119E+01   -.125E+01 0.203E+00 -.167E+01   -.166E+00 -.395E-01 0.542E+00   -.374E-05 0.524E-05 0.277E-04
   0.145E+01 -.224E+01 0.407E+00   -.142E+01 0.216E+01 -.421E+00   -.277E+00 0.314E+00 -.633E-01   0.931E-06 -.110E-05 0.114E-05
   0.145E+01 -.224E+01 -.407E+00   -.142E+01 0.216E+01 0.421E+00   -.277E+00 0.314E+00 0.633E-01   0.931E-06 -.110E-05 -.987E-06
   0.112E+01 0.258E-01 -.119E+01   -.125E+01 0.203E+00 0.167E+01   -.166E+00 -.395E-01 -.542E+00   -.374E-05 0.524E-05 -.275E-04
   0.291E+01 -.229E+02 -.736E+00   -.251E+01 0.231E+02 0.994E+00   -.946E+00 0.335E+00 0.968E+00   -.354E-05 -.170E-05 -.819E-04
   0.617E+01 -.196E+02 -.174E+02   -.610E+01 0.199E+02 0.188E+02   -.779E+00 0.210E+01 0.344E+00   0.972E-05 0.481E-05 0.933E-04
   0.106E+01 -.128E+01 0.469E+01   -.890E+00 0.751E+00 -.410E+01   -.223E+00 0.804E+00 -.404E+00   -.661E-05 0.817E-05 0.212E-04
   0.151E+01 -.223E+01 0.115E+00   -.146E+01 0.211E+01 -.162E+00   -.249E+00 0.522E+00 0.464E-01   -.235E-05 -.271E-06 0.676E-05
   0.151E+01 -.223E+01 -.115E+00   -.146E+01 0.211E+01 0.162E+00   -.249E+00 0.522E+00 -.464E-01   -.235E-05 -.271E-06 -.660E-05
   0.106E+01 -.128E+01 -.469E+01   -.890E+00 0.751E+00 0.410E+01   -.223E+00 0.804E+00 0.404E+00   -.661E-05 0.817E-05 -.211E-04
   0.617E+01 -.196E+02 0.174E+02   -.610E+01 0.199E+02 -.188E+02   -.779E+00 0.210E+01 -.344E+00   0.972E-05 0.481E-05 -.932E-04
   0.152E+02 -.134E+01 -.278E+01   -.151E+02 0.157E+01 0.259E+01   -.102E+01 0.806E+00 -.588E+00   -.425E-05 -.631E-05 0.754E-04
   0.263E+00 -.245E+01 0.263E+01   0.130E+00 0.208E+01 -.236E+01   -.573E+00 0.576E+00 -.314E+00   -.186E-05 0.160E-05 0.173E-04
   0.175E+01 -.217E+01 0.379E+00   -.155E+01 0.198E+01 -.354E+00   -.428E+00 0.493E+00 0.176E-01   0.144E-05 0.217E-05 0.118E-05
   0.175E+01 -.217E+01 -.379E+00   -.155E+01 0.198E+01 0.354E+00   -.428E+00 0.493E+00 -.176E-01   0.144E-05 0.217E-05 -.102E-05
   0.263E+00 -.245E+01 -.263E+01   0.130E+00 0.208E+01 0.236E+01   -.573E+00 0.576E+00 0.314E+00   -.186E-05 0.160E-05 -.172E-04
   0.152E+02 -.134E+01 0.278E+01   -.151E+02 0.157E+01 -.259E+01   -.102E+01 0.806E+00 0.588E+00   -.425E-05 -.631E-05 -.752E-04
 -----------------------------------------------------------------------------------------------
   0.180E+01 0.847E+00 0.270E-04   0.533E-13 -.924E-13 -.320E-13   -.167E+01 -.858E+00 -.999E-15   0.168E-04 0.304E-04 -.261E-06
 
 
 POSITION                                       TOTAL-FORCE (eV/Angst)
 -----------------------------------------------------------------------------------
      0.00000      0.00000      0.00000         0.328384      1.386435      1.306139
      0.00000     10.06740      1.93747        -0.218254     -0.185109     -0.042783
      0.00000      6.71160      3.87495        -0.028104     -0.004478      0.012455
      0.00000      3.35580      5.81242        -0.028104     -0.004478     -0.012455
      0.00000      0.00000      7.74989        -0.218254     -0.185109      0.042783
      0.00000     10.06740      9.68736         0.328384      1.386435     -1.306139
      3.16388      4.47440      0.00000         0.015681     -0.397847     -0.545251
      3.16388      1.11860      1.93747        -0.014275     -0.255405     -0.011800
      3.16388     11.18600      3.87495        -0.014587     -0.108956     -0.074219
      3.16388      7.83020      5.81242        -0.014587     -0.108956      0.074219
      3.16388      4.47440      7.74989        -0.014275     -0.255405      0.011800
      3.16388      1.11860      9.68736         0.015681     -0.397847      0.545251
      6.32776      8.94880      0.00000         0.165208     -0.538246      0.386773
      6.32776      5.59300      1.93747        -0.024765     -0.117148     -0.076091
      6.32776      2.23720      3.87495        -0.067905     -0.064311     -0.002947
      6.32776     12.30460      5.81242        -0.067905     -0.064311      0.002947
      6.32776      8.94880      7.74989        -0.024765     -0.117148      0.076091
      6.32776      5.59300      9.68736         0.165208     -0.538246     -0.386773
      0.00000      6.71160      0.00000         0.328384      1.386435      1.306139
      0.00000      3.35580      1.93747        -0.218254     -0.185109     -0.042783
      0.00000      0.00000      3.87495        -0.028104     -0.004478      0.012455
      0.00000     10.06740      5.81242        -0.028104     -0.004478     -0.012455
      0.00000      6.71160      7.74989        -0.218254     -0.185109      0.042783
      0.00000      3.35580      9.68736         0.328384      1.386435     -1.306139
      3.16388     11.18600      0.00000         0.015681     -0.397847     -0.545251
      3.16388      7.83020      1.93747        -0.014275     -0.255405     -0.011800
      3.16388      4.47440      3.87495        -0.014587     -0.108956     -0.074219
      3.16388      1.11860      5.81242        -0.014587     -0.108956      0.074219
      3.16388     11.18600      7.74989        -0.014275     -0.255405      0.011800
      3.16388      7.83020      9.68736         0.015681     -0.397847      0.545251
      6.32776      2.23720      0.00000         0.165208     -0.538246      0.386773
      6.32776     12.30460      1.93747        -0.024765     -0.117148     -0.076091
      6.32776      8.94880      3.87495        -0.067905     -0.064311     -0.002947
      6.32776      5.59300      5.81242        -0.067905     -0.064311      0.002947
      6.32776      2.23720      7.74989        -0.024765     -0.117148      0.076091
      6.32776     12.30460      9.68736         0.165208     -0.538246     -0.386773
      0.79097      4.47440      0.00000         0.709637      0.291940     -0.143369
      0.79097      1.11860      1.93747         0.064932      0.117186     -0.076208
      0.79097     11.18600      3.87495         0.071999      0.140985     -0.125306
      0.79097      7.83020      5.81242         0.071999      0.140985      0.125306
      0.79097      4.47440      7.74989         0.064932      0.117186      0.076208
      0.79097      1.11860      9.68736         0.709637      0.291940      0.143369
      3.95485      8.94880      0.00000        -0.188941     -1.118420      1.979184
      3.95485      5.59300      1.93747         0.206665      0.044546     -0.012300
      3.95485      2.23720      3.87495         0.044073      0.016008     -0.015765
      3.95485     12.30460      5.81242         0.044073      0.016008      0.015765
      3.95485      8.94880      7.74989         0.206665      0.044546      0.012300
      3.95485      5.59300      9.68736        -0.188941     -1.118420     -1.979184
      7.11873      0.00000      0.00000         0.233516     -0.288092     -0.531909
      7.11873     10.06740      1.93747         0.108957      0.059742     -0.046842
      7.11873      6.71160      3.87495         0.061919      0.049609     -0.012124
      7.11873      3.35580      5.81242         0.061919      0.049609      0.012124
      7.11873      0.00000      7.74989         0.108957      0.059742      0.046842
      7.11873     10.06740      9.68736         0.233516     -0.288092      0.531909
      0.79097     11.18600      0.00000         0.709637      0.291940     -0.143369
      0.79097      7.83020      1.93747         0.064932      0.117186     -0.076208
      0.79097      4.47440      3.87495         0.071999      0.140985     -0.125306
      0.79097      1.11860      5.81242         0.071999      0.140985      0.125306
      0.79097     11.18600      7.74989         0.064932      0.117186      0.076208
      0.79097      7.83020      9.68736         0.709637      0.291940      0.143369
      3.95485      2.23720      0.00000        -0.188941     -1.118420      1.979184
      3.95485     12.30460      1.93747         0.206665      0.044546     -0.012300
      3.95485      8.94880      3.87495         0.044073      0.016008     -0.015765
      3.95485      5.59300      5.81242         0.044073      0.016008      0.015765
      3.95485      2.23720      7.74989         0.206665      0.044546      0.012300
      3.95485     12.30460      9.68736        -0.188941     -1.118420     -1.979184
      7.11873      6.71160      0.00000         0.233516     -0.288092     -0.531909
      7.11873      3.35580      1.93747         0.108957      0.059742     -0.046842
      7.11873      0.00000      3.87495         0.061919      0.049609     -0.012124
      7.11873     10.06740      5.81242         0.061919      0.049609      0.012124
      7.11873      6.71160      7.74989         0.108957      0.059742      0.046842
      7.11873      3.35580      9.68736         0.233516     -0.288092      0.531909
      0.30292      2.01853     11.88736         0.477477     -1.841966      1.157424
      0.30292      5.37433     13.88848         0.030514     -0.365212     -0.014258
      0.30292      8.73013     15.88959         0.231374     -0.374794     -0.024073
      0.30292     12.08593     17.89070         0.231374     -0.374794      0.024073
      0.30292      2.01853     19.89181         0.030514     -0.365212      0.014258
      0.30292      5.37433     21.89292         0.477477     -1.841966     -1.157424
      3.46680     10.96733     11.88736         0.095739     -0.692382     -1.538581
      3.46680      0.89993     13.88848         0.093523     -0.255960     -0.027684
      3.46680      4.25573     15.88959         0.179647     -0.230507     -0.103563
      3.46680      7.61153     17.89070         0.179647     -0.230507      0.103563
      3.46680     10.96733     19.89181         0.093523     -0.255960      0.027684
      3.46680      0.89993     21.89292         0.095739     -0.692382      1.538581
      6.63068      6.49293     11.88736         0.398716     -0.172991     -0.380545
      6.63068      9.84873     13.88848         0.193697     -0.321169     -0.090287
      6.63068     13.20453     15.88959         0.169166     -0.270836     -0.038487
      6.63068      3.13713     17.89070         0.169166     -0.270836      0.038487
      6.63068      6.49293     19.89181         0.193697     -0.321169      0.090287
      6.63068      9.84873     21.89292         0.398716     -0.172991      0.380545
      0.30292      8.73013     11.88736         0.477477     -1.841966      1.157424
      0.30292     12.08593     13.88848         0.030514     -0.365212     -0.014258
      0.30292      2.01853     15.88959         0.231374     -0.374794     -0.024073
      0.30292      5.37433     17.89070         0.231374     -0.374794      0.024073
      0.30292      8.73013     19.89181         0.030514     -0.365212      0.014258
      0.30292     12.08593     21.89292         0.477477     -1.841966     -1.157424
      3.46680      4.25573     11.88736         0.095739     -0.692382     -1.538581
      3.46680      7.61153     13.88848         0.093523     -0.255960     -0.027684
      3.46680     10.96733     15.88959         0.179647     -0.230507     -0.103563
      3.46680      0.89993     17.89070         0.179647     -0.230507      0.103563
      3.46680      4.25573     19.89181         0.093523     -0.255960      0.027684
      3.46680      7.61153     21.89292         0.095739     -0.692382      1.538581
      6.63068     13.20453     11.88736         0.398716     -0.172991     -0.380545
      6.63068      3.13713     13.88848         0.193697     -0.321169     -0.090287
      6.63068      6.49293     15.88959         0.169166     -0.270836     -0.038487
      6.63068      9.84873     17.89070         0.169166     -0.270836      0.038487
      6.63068     13.20453     19.89181         0.193697     -0.321169      0.090287
      6.63068      3.13713     21.89292         0.398716     -0.172991      0.380545
      1.09389     10.96733     11.88736        -0.545396      0.477901     -1.226275
      1.09389      0.89993     13.88848        -0.297071      0.189219      0.062676
      1.09389      4.25573     15.88959        -0.249836      0.233908     -0.077421
      1.09389      7.61153     17.89070        -0.249836      0.233908      0.077421
      1.09389     10.96733     19.89181        -0.297071      0.189219     -0.062676
      1.09389      0.89993     21.89292        -0.545396      0.477901      1.226275
      4.25777      6.49293     11.88736        -0.712423      2.377662      1.700988
      4.25777      9.84873     13.88848        -0.050513      0.273104      0.187122
      4.25777     13.20453     15.88959        -0.198194      0.400617     -0.000339
      4.25777      3.13713     17.89070        -0.198194      0.400617      0.000339
      4.25777      6.49293     19.89181        -0.050513      0.273104     -0.187122
      4.25777      9.84873     21.89292        -0.712423      2.377662     -1.700988
      7.42165      2.01853     11.88736        -0.870848      1.033740     -0.773026
      7.42165      5.37433     13.88848        -0.180508      0.199059     -0.035148
      7.42165      8.73013     15.88959        -0.219204      0.312167      0.043024
      7.42165     12.08593     17.89070        -0.219204      0.312167     -0.043024
      7.42165      2.01853     19.89181        -0.180508      0.199059      0.035148
      7.42165      5.37433     21.89292        -0.870848      1.033740      0.773026
      1.09389      4.25573     11.88736        -0.545396      0.477901     -1.226275
      1.09389      7.61153     13.88848        -0.297071      0.189219      0.062676
      1.09389     10.96733     15.88959        -0.249836      0.233908     -0.077421
      1.09389      0.89993     17.89070        -0.249836      0.233908      0.077421
      1.09389      4.25573     19.89181        -0.297071      0.189219     -0.062676
      1.09389      7.61153     21.89292        -0.545396      0.477901      1.226275
      4.25777     13.20453     11.88736        -0.712423      2.377662      1.700988
      4.25777      3.13713     13.88848        -0.050513      0.273104      0.187122
      4.25777      6.49293     15.88959        -0.198194      0.400617     -0.000339
      4.25777      9.84873     17.89070        -0.198194      0.400617      0.000339
      4.25777     13.20453     19.89181        -0.050513      0.273104     -0.187122
      4.25777      3.13713     21.89292        -0.712423      2.377662     -1.700988
      7.42165      8.73013     11.88736        -0.870848      1.033740     -0.773026
      7.42165     12.08593     13.88848        -0.180508      0.199059     -0.035148
      7.42165      2.01853     15.88959        -0.219204      0.312167      0.043024
      7.42165      5.37433     17.89070        -0.219204      0.312167     -0.043024
      7.42165      8.73013     19.89181        -0.180508      0.199059      0.035148
      7.42165     12.08593     21.89292        -0.870848      1.033740      0.773026
 -----------------------------------------------------------------------------------
    total drift:                                0.124389     -0.010697      0.000027


--------------------------------------------------------------------------------------------------------



  FREE ENERGIE OF THE ION-ELECTRON SYSTEM (eV)
  ---------------------------------------------------
  free  energy   TOTEN  =      -688.36721126 eV

  energy  without entropy=     -688.36570048  energy(sigma->0) =     -688.36645587
 


--------------------------------------------------------------------------------------------------------


    POTLOK:  cpu time      5.2379: real time      5.2672


--------------------------------------------------------------------------------------------------------


     LOOP+:  cpu time   1566.3124: real time   1580.2674
    4ORBIT:  cpu time      0.0000: real time      0.0000

 total amount of memory used by VASP MPI-rank0   511264. kBytes
=======================================================================

   base      :      30000. kBytes
   nonlr-proj:       7859. kBytes
   fftplans  :      69092. kBytes
   grid      :      42335. kBytes
   one-center:        146. kBytes
   wavefun   :     361832. kBytes
 
  
  
 General timing and accounting informations for this job:
 ========================================================
  
                  Total CPU time used (sec):     1631.773
                            User time (sec):     1561.622
                          System time (sec):       70.151
                         Elapsed time (sec):     1650.071
  
                   Maximum memory used (kb):      779024.
                   Average memory used (kb):          N/A
  
                          Minor page faults:       336421
                          Major page faults:           30
                 Voluntary context switches:         1423
