 vasp.6.4.3 19Mar24 (build Oct 22 2024 11:23:12) complex                        
  
 executed on             LinuxIFC date 2025.06.11  06:37:13
 running   64 mpi-ranks, on    4 nodes
 distrk:  each k-point on   64 cores,    1 groups
 distr:  one band on NCORE=  16 cores,    4 groups


--------------------------------------------------------------------------------------------------------


 INCAR:
   SYSTEM = Si and Ge interface calculation
   ISTART = 0
   ICHARG = 2
   LWAVE = .FALSE.
   LREAL = AUTO
   ENCUT = 700
   ENAUG = 900
   ADDGRID = .TRUE.
   LMAXMIX = 6
   LASPH = .TRUE.
   LMIXTAU = .TRUE.
   NCORE = 16
   NELM = 100
   NBANDS = 634
   EDIFF = 1d-7
   AMIX = 0.6
   ISMEAR = 0
   SIGMA = 0.01
   NELECT = 1056
   ISPIN = 2
   NUPDOWN = 1
   LVTOT = .FALSE.
   LVHAR = .TRUE.

 POTCAR:    PAW_PBE Sn 08Apr2002                  
 POTCAR:    PAW_PBE Si 05Jan2001                  
 -----------------------------------------------------------------------------
|                                                                             |
|           W    W    AA    RRRRR   N    N  II  N    N   GGGG   !!!           |
|           W    W   A  A   R    R  NN   N  II  NN   N  G    G  !!!           |
|           W    W  A    A  R    R  N N  N  II  N N  N  G       !!!           |
|           W WW W  AAAAAA  RRRRR   N  N N  II  N  N N  G  GGG   !            |
|           WW  WW  A    A  R   R   N   NN  II  N   NN  G    G                |
|           W    W  A    A  R    R  N    N  II  N    N   GGGG   !!!           |
|                                                                             |
|     You use a magnetic or noncollinear calculation, but did not specify     |
|     the initial magnetic moment with the MAGMOM tag. Note that a            |
|     default of 3.788e-3 will be used for all atoms. This ferromagnetic      |
|     setup may break the symmetry of the crystal, in particular it may       |
|     rule out finding an antiferromagnetic solution. Thence, we              |
|     recommend setting the initial magnetic moment manually or verifying     |
|     carefully that this magnetic setup is desired.                          |
|                                                                             |
 -----------------------------------------------------------------------------

 POTCAR:    PAW_PBE Sn 08Apr2002                  
   VRHFIN =Sn: s2p2                                                                                 
   LEXCH  = PE                                                                                      
   EATOM  =    94.0860 eV,    6.9151 Ry                                                             
                                                                                                    
   TITEL  = PAW_PBE Sn 08Apr2002                                                                    
   LULTRA =        F    use ultrasoft PP ?                                                          
   IUNSCR =        1    unscreen: 0-lin 1-nonlin 2-no                                               
   RPACOR =    2.000    partial core radius                                                         
   POMASS =  118.710; ZVAL   =    4.000    mass and valenz                                          
   RCORE  =    3.000    outmost cutoff radius                                                       
   RWIGS  =    2.960; RWIGS  =    1.566    wigner-seitz radius (au A)                               
   ENMAX  =  103.236; ENMIN  =   77.427 eV                                                          
   ICORE  =        3    local potential                                                             
   LCOR   =        T    correct aug charges                                                         
   LPAW   =        T    paw PP                                                                      
   EAUG   =  263.585                                                                                
   DEXC   =    0.000                                                                                
   RMAX   =    3.078    core radius for proj-oper                                                   
   RAUG   =    1.300    factor for augmentation sphere                                              
   RDEP   =    3.022    radius for radial grids                                                     
   RDEPT  =    2.655    core radius for aug-charge                                                  
                                                                                                    
   Atomic configuration                                                                             
   13 entries                                                                                       
     n  l   j            E        occ.                                                              
     1  0  0.50    -29007.2859   2.0000                                                             
     2  0  0.50     -4378.8056   2.0000                                                             
     2  1  1.50     -3930.4293   6.0000                                                             
     3  0  0.50      -845.0264   2.0000                                                             
     3  1  1.50      -698.5725   6.0000                                                             
     3  2  2.50      -473.2839  10.0000                                                             
     4  0  0.50      -133.9036   2.0000                                                             
     4  1  1.50       -89.6752   6.0000                                                             
     4  2  2.50       -25.8375  10.0000                                                             
     5  0  0.50       -10.5484   2.0000                                                             
     5  1  0.50        -3.6940   2.0000                                                             
     5  2  1.50        -1.3606   0.0000                                                             
     4  3  2.50        -4.0817   0.0000                                                             
   Description                                                                                      
     l       E           TYP  RCUT    TYP  RCUT                                                     
     0    -10.5483727     23  3.000                                                                 
     0     27.2116520     23  3.000                                                                 
     1     -3.6939829     23  3.000                                                                 
     1      1.9821976     23  3.000                                                                 
     2     -1.3605826     23  3.000                                                                 
     3     -2.7211652     23  3.000                                                                 
  local pseudopotential read in
  partial core-charges read in
  partial kinetic energy density read in
  atomic valenz-charges read in
  non local Contribution for L=           0  read in
    real space projection operators read in
  non local Contribution for L=           0  read in
    real space projection operators read in
  non local Contribution for L=           1  read in
    real space projection operators read in
  non local Contribution for L=           1  read in
    real space projection operators read in
  non local Contribution for L=           2  read in
    real space projection operators read in
    PAW grid and wavefunctions read in
 
   number of l-projection  operators is LMAX  =           5
   number of lm-projection operators is LMMAX =          13
 
 POTCAR:    PAW_PBE Si 05Jan2001                  
   VRHFIN =Si: s2p2                                                                                 
   LEXCH  = PE                                                                                      
   EATOM  =   103.0669 eV,    7.5752 Ry                                                             
                                                                                                    
   TITEL  = PAW_PBE Si 05Jan2001                                                                    
   LULTRA =        F    use ultrasoft PP ?                                                          
   IUNSCR =        1    unscreen: 0-lin 1-nonlin 2-no                                               
   RPACOR =    1.500    partial core radius                                                         
   POMASS =   28.085; ZVAL   =    4.000    mass and valenz                                          
   RCORE  =    1.900    outmost cutoff radius                                                       
   RWIGS  =    2.480; RWIGS  =    1.312    wigner-seitz radius (au A)                               
   ENMAX  =  245.345; ENMIN  =  184.009 eV                                                          
   ICORE  =        2    local potential                                                             
   LCOR   =        T    correct aug charges                                                         
   LPAW   =        T    paw PP                                                                      
   EAUG   =  322.069                                                                                
   DEXC   =    0.000                                                                                
   RMAX   =    1.950    core radius for proj-oper                                                   
   RAUG   =    1.300    factor for augmentation sphere                                              
   RDEP   =    1.993    radius for radial grids                                                     
   RDEPT  =    1.837    core radius for aug-charge                                                  
                                                                                                    
   Atomic configuration                                                                             
    6 entries                                                                                       
     n  l   j            E        occ.                                                              
     1  0  0.50     -1785.8828   2.0000                                                             
     2  0  0.50      -139.4969   2.0000                                                             
     2  1  1.50       -95.5546   6.0000                                                             
     3  0  0.50       -10.8127   2.0000                                                             
     3  1  0.50        -4.0811   2.0000                                                             
     3  2  1.50        -4.0817   0.0000                                                             
   Description                                                                                      
     l       E           TYP  RCUT    TYP  RCUT                                                     
     0    -10.8127223     23  1.900                                                                 
     0     -7.6451159     23  1.900                                                                 
     1     -4.0811372     23  1.900                                                                 
     1      2.4879257     23  1.900                                                                 
     2     -4.0817478      7  1.900                                                                 
  local pseudopotential read in
  partial core-charges read in
  partial kinetic energy density read in
  atomic valenz-charges read in
  non local Contribution for L=           0  read in
    real space projection operators read in
  non local Contribution for L=           0  read in
    real space projection operators read in
  non local Contribution for L=           1  read in
    real space projection operators read in
  non local Contribution for L=           1  read in
    real space projection operators read in
    PAW grid and wavefunctions read in
 
   number of l-projection  operators is LMAX  =           4
   number of lm-projection operators is LMMAX =           8
 
 Optimization of the real space projectors (new method)

 maximal supplied QI-value         = 12.47
 optimisation between [QCUT,QGAM] = [ 12.47, 27.06] = [ 43.56,205.12] Ry 
 Optimized for a Real-space Cutoff    1.58 Angstroem

   l    n(q)    QCUT    max X(q) W(low)/X(q) W(high)/X(q)  e(spline) 
   0     13    12.472    14.688    0.45E-04    0.45E-04    0.25E-05
   0     13    12.472     7.308    0.94E-04    0.11E-03    0.61E-05
   1     12    12.472    45.102    0.34E-03    0.14E-03    0.21E-05
   1     12    12.472    30.691    0.31E-03    0.13E-03    0.20E-05
   2     12    12.472     7.156    0.86E-04    0.11E-03    0.17E-05
 WARNING: PSMAXN for non-local potential too small
          PSMAXN should be >   13.5545592237991       NTYP=           1
 Optimization of the real space projectors (new method)

 maximal supplied QI-value         = 19.84
 optimisation between [QCUT,QGAM] = [ 13.49, 26.99] = [ 50.98,203.92] Ry 
 Optimized for a Real-space Cutoff    1.07 Angstroem

   l    n(q)    QCUT    max X(q) W(low)/X(q) W(high)/X(q)  e(spline) 
   0      9    13.493   159.560    0.22E-03    0.15E-03    0.72E-07
   0      9    13.493   115.863    0.21E-03    0.15E-03    0.71E-07
   1      8    13.493    88.339    0.15E-03    0.11E-03    0.13E-06
   1      8    13.493    48.592    0.15E-03    0.10E-03    0.13E-06
  PAW_PBE Sn 08Apr2002                  :
 energy of atom  1       EATOM=  -94.0860
 kinetic energy error for atom=    0.0000 (will be added to EATOM!!)
  PAW_PBE Si 05Jan2001                  :
 energy of atom  2       EATOM= -103.0669
 kinetic energy error for atom=    0.0003 (will be added to EATOM!!)
 
 
 POSCAR: Sn+Si
  positions in direct lattice
  No initial velocities read in


 exchange-correlation table for PE
   RHO(1)=    0.500       N(1)  =     2000
   RHO(2)=  100.500       N(2)  =     4000
 


--------------------------------------------------------------------------------------------------------


 ion  position               nearest neighbor table
   1  0.578  0.917  0.327- 211 0.00   9 2.81  45 2.81  74 2.81  75 2.81 214 3.32
   2  0.578  0.083  0.544- 127 0.66 238 1.84  81 2.81   9 2.81 169 2.91 196 3.16
   3  0.412  0.583  0.544- 163 1.89 121 2.30  15 2.34 134 2.78  21 2.81  78 2.81 244 2.84 202 3.13
                           133 3.16
   4  0.995  0.333  0.000-  91 1.37 123 2.24 153 2.66 228 2.81  22 2.81 152 3.09 192 3.11 195 3.20
                           165 3.43
   5  0.881  0.420  0.544-  24 0.61 178 2.34 262 2.34 208 2.46 205 3.24
   6  0.662  0.333  0.436-  60 2.09 139 2.81  36 2.81 104 2.81 105 2.81 136 2.98
   7  0.995  0.000  0.000- 117 1.36  34 1.88   8 1.94 162 2.81 106 2.81 227 3.29 158 3.35
   8  0.092  0.978  0.000-   7 1.94 162 2.03 117 2.34 198 2.34  55 3.13  42 3.54
   9  0.662  0.000  0.436- 127 2.38   1 2.81 211 2.81  71 2.81 107 2.81   2 2.81 169 3.29 214 3.30

  10  0.328  0.667  0.000- 216 1.83  77 2.24 258 2.29 245 2.80 168 2.81  82 2.81 135 2.93  85 3.21
                           177 3.24
  11  0.412  0.917  0.544- 130 0.61 172 1.88 217 2.81  75 2.81 241 2.86 214 3.21
  12  0.957  0.805  0.544-  84 1.39 229 2.34 184 2.34  57 3.04  39 3.21 223 3.23
  13  0.412  0.750  0.327- 109 0.00  20 2.81  65 2.81  75 2.81  21 2.81
  14  0.162  0.333  0.218-  73 2.81 240 2.81 228 2.81 246 2.81 165 3.30
  15  0.496  0.497  0.544-  78 1.62 105 2.24 163 2.34 247 2.34   3 2.34
  16  0.745  0.750  0.327-  74 2.81  57 2.81 108 2.81 243 2.81  51 2.81  63 3.74
  17  0.078  0.583  0.544- 190 0.66 148 1.84 223 2.81  69 2.81 232 2.91 145 3.16
  18  0.995  0.000  0.436-  39 2.81  29 2.81 237 2.81  90 2.81
  19  0.412  0.417  0.327-  23 2.81 171 2.81  78 2.81  87 2.81
  20  0.495  0.667  0.218-  13 2.81 109 2.81 168 2.81  50 2.81 234 2.81
  21  0.328  0.667  0.436- 202 2.03   3 2.81  41 2.81  93 2.81 109 2.81  13 2.81 121 3.06
  22  0.912  0.417  0.109-  91 2.08  76 2.81 187 2.81 220 2.81   4 2.81 150 3.00 192 3.04
  23  0.495  0.333  0.218-  19 2.81  43 2.81 139 2.81  94 2.81
  24  0.912  0.417  0.544-   5 0.61 262 1.88 208 2.81 205 2.81 178 2.86  66 3.21
  25  0.662  0.000  0.000- 183 1.39 141 2.21 255 2.68  46 2.81  61 2.81 170 3.07 189 3.16 213 3.18
                           252 3.38
  26  0.078  0.250  0.544-  59 1.46 226 2.30  66 2.57 205 2.81  72 2.81 194 3.07 151 3.12 181 3.15
                            83 3.47
  27  0.727  0.651  0.544-  33 1.37  51 2.08 175 2.34 259 2.34 102 3.47
  28  0.015  0.593  0.000-  47 1.48  31 2.05 120 2.34 204 2.34  58 3.38
  29  0.912  0.917  0.327- 156 2.81  18 2.81  56 2.81  57 2.81
  30  0.328  0.167  0.218- 240 2.81 264 2.81  43 2.81  98 2.81  40 3.32
  31  0.078  0.583  0.109-  28 2.05  48 2.81  47 2.81  58 2.81 187 2.81  85 3.04 204 3.05
  32  0.912  0.583  0.327- 108 2.81 243 2.81 223 2.81 187 2.81 208 2.81 145 3.30
  33  0.745  0.583  0.544-  27 1.37 259 2.24 136 2.66  51 2.81 208 2.81 146 3.09 175 3.11 178 3.20
                           145 3.43
  34  0.900  0.016  0.000-   7 1.88 106 2.09 117 2.34 189 2.34  79 3.24
  35  0.912  0.250  0.327-  62 2.81 220 2.81 205 2.81 142 2.81  53 3.54
  36  0.745  0.250  0.544- 250 1.36  60 1.88  53 1.94   6 2.81 142 2.81 221 3.29 140 3.35
  37  0.412  0.917  0.109-  68 2.08 101 2.81  45 2.81  64 2.81  65 2.81  44 3.00 129 3.04
  38  0.245  0.917  0.327-  42 2.81 217 2.81  65 2.81 112 2.81
  39  0.078  0.917  0.544- 157 1.83 199 2.29 200 2.80  18 2.81 112 2.81 229 2.93  12 3.21 118 3.24

  40  0.323  0.132  0.000- 126 2.34 210 2.34 264 2.41 101 2.57  97 3.21  43 3.30  30 3.32  70 3.42

  41  0.245  0.583  0.327-  48 2.81  21 2.81 171 2.81  69 2.81
  42  0.162  0.000  0.218-  38 2.81 162 2.81 237 2.81 264 2.81   8 3.54
  43  0.412  0.250  0.109- 249 2.38  92 2.81  70 2.81  30 2.81  23 2.81 180 3.28 138 3.29  40 3.30

  44  0.284  0.940  0.000- 101 1.46 129 2.34 198 2.34  37 3.00  55 3.16 264 3.32
  45  0.495  0.000  0.218-  98 2.81  37 2.81   1 2.81 211 2.81  61 2.81
  46  0.745  0.917  0.109- 255 2.44 156 2.81  25 2.81  74 2.81  86 2.81 183 3.23 159 3.32 111 3.33

  47  0.995  0.667  0.000-  28 1.48 120 2.27  31 2.81 100 2.81 230 3.04 201 3.10 204 3.19 231 3.42

  48  0.162  0.667  0.218-  41 2.81  31 2.81 115 2.81  82 2.81
  49  0.745  0.583  0.109- 231 2.41 108 2.81 243 2.81  95 2.81 174 2.81  76 2.81 186 3.24 225 3.28
                           150 3.32
  50  0.578  0.583  0.327-  51 2.81  20 2.81 174 2.81  78 2.81
  51  0.662  0.667  0.436-  27 2.08  50 2.81  33 2.81  16 2.81 102 2.81 133 3.00 175 3.04
  52  0.745  0.250  0.109-  88 1.62 220 2.81  80 2.81  79 2.81 103 2.81
  53  0.842  0.228  0.544-  36 1.94 142 2.03 250 2.34 181 2.34  90 3.13  35 3.54
  54  0.412  0.250  0.544- 124 1.39 235 2.21 196 2.68  87 2.81  81 2.81 125 3.07 166 3.16 154 3.18
                           193 3.38
  55  0.162  0.833  0.000- 132 1.89  77 2.34 242 2.78  82 2.81 162 2.81 198 2.84   8 3.13  44 3.16

  56  0.995  0.833  0.218- 100 2.81 115 2.81  29 2.81 162 2.81
  57  0.828  0.833  0.436-  63 2.05  84 2.81  16 2.81  71 2.81  29 2.81  12 3.04 184 3.05
  58  0.162  0.500  0.000-  85 1.39 204 2.21 165 2.68 246 2.81  31 2.81 233 3.07 135 3.16 123 3.18
                            28 3.38
  59  0.034  0.190  0.544-  26 1.46 181 2.34 226 2.34  72 3.00  90 3.16 205 3.32
  60  0.650  0.266  0.544-  36 1.88   6 2.09 166 2.34 250 2.34 105 3.24
  61  0.578  0.083  0.109- 252 2.05  25 2.81  70 2.81  80 2.81  45 2.81 183 3.04 141 3.05
  62  0.995  0.167  0.218-  35 2.81 106 2.81 237 2.81 228 2.81
  63  0.765  0.843  0.544-  71 1.48  57 2.05 256 2.34 184 2.34  84 3.38  16 3.74
  64  0.495  0.833  0.000-  68 1.37 213 2.24 258 2.66 234 2.81  37 2.81 257 3.09 129 3.11 144 3.20
                           255 3.43
  65  0.328  0.833  0.218-  82 2.81  13 2.81 109 2.81  38 2.81  37 2.81
  66  0.073  0.382  0.544- 151 2.34 262 2.34 205 2.41  26 2.57  24 3.21  69 3.30  73 3.32  96 3.42

  67  0.495  0.500  0.000- 219 1.36 177 1.88 261 1.94  94 2.81 168 2.81 176 3.29 248 3.35
  68  0.477  0.901  0.000-  64 1.37  37 2.08 129 2.34 213 2.34 101 3.47
  69  0.162  0.500  0.436- 190 2.38  73 2.81  96 2.81  17 2.81  41 2.81 121 3.28 232 3.29  66 3.30

  70  0.495  0.167  0.000- 252 1.48 210 2.27 180 2.58  43 2.81  61 2.81 167 3.04 138 3.10 141 3.19
                            40 3.42
  71  0.745  0.917  0.544-  63 1.48 256 2.27   9 2.81  57 2.81 212 3.04 169 3.10 184 3.19 214 3.42

  72  0.162  0.167  0.436-  83 2.08 237 2.81  26 2.81  99 2.81 240 2.81  59 3.00 226 3.04
  73  0.078  0.417  0.327- 187 2.81  14 2.81  69 2.81 205 2.81  66 3.32
  74  0.662  0.833  0.218-  16 2.81 234 2.81 211 2.81   1 2.81  46 2.81 255 3.30
  75  0.495  0.833  0.436- 214 2.41 102 2.81 109 2.81  13 2.81 211 2.81   1 2.81  11 2.81 130 3.24
                           172 3.28 133 3.32
  76  0.828  0.500  0.000- 150 1.46 192 2.30 231 2.57  22 2.81  49 2.81 149 3.07 120 3.12 147 3.15
                            91 3.47
  77  0.246  0.747  0.000-  82 1.62  10 2.24 216 2.34 132 2.34  55 2.34
  78  0.495  0.500  0.436-  15 1.62 105 2.81  19 2.81  50 2.81   3 2.81
  79  0.828  0.167  0.000- 114 1.83  88 2.24 153 2.29 182 2.80 106 2.81  52 2.81 189 2.93 183 3.21
                            34 3.24
  80  0.662  0.167  0.218- 107 2.81 139 2.81  52 2.81  61 2.81
  81  0.495  0.167  0.436- 196 2.44   2 2.81  98 2.81 139 2.81  54 2.81 124 3.23 127 3.32 238 3.33

  82  0.245  0.750  0.109-  77 1.62  55 2.81  65 2.81  10 2.81  48 2.81
  83  0.227  0.151  0.544-  99 1.37  72 2.08 226 2.34 154 2.34  26 3.47
  84  0.912  0.750  0.544-  12 1.39 184 2.21 145 2.68  57 2.81 223 2.81 224 3.07 229 3.16 259 3.18
                            63 3.38
  85  0.207  0.555  0.000-  58 1.39 204 2.34 135 2.34  31 3.04  10 3.21 246 3.23
  86  0.828  0.833  0.000- 159 0.66 111 1.84 100 2.81  46 2.81 201 2.91 255 3.16
  87  0.328  0.333  0.436- 193 2.05  54 2.81  96 2.81 240 2.81  19 2.81 124 3.04 235 3.05
  88  0.746  0.247  0.000-  52 1.62  79 2.24 222 2.34 114 2.34 103 2.34
  89  0.131  0.170  0.000-  97 0.61 195 2.34 126 2.34 228 2.46 264 3.24
  90  0.912  0.083  0.544- 253 1.89 188 2.78 142 2.81  18 2.81 181 2.84  53 3.13  59 3.16
  91  0.977  0.401  0.000-   4 1.37  22 2.08 192 2.34 123 2.34  76 3.47
  92  0.328  0.333  0.000- 249 0.66 207 1.84  43 2.81 246 2.81 138 2.91 165 3.16
  93  0.245  0.750  0.544- 160 1.36 118 1.88 202 1.94 112 2.81  21 2.81 131 3.29 203 3.35
  94  0.578  0.417  0.109- 261 2.03  67 2.81 174 2.81 103 2.81  23 2.81 180 3.06
  95  0.662  0.667  0.000- 186 0.61 225 1.88  49 2.81 234 2.81 144 2.86 231 3.21
  96  0.245  0.417  0.544- 193 1.48 151 2.27 121 2.58  69 2.81  87 2.81 122 3.04 232 3.10 235 3.19
                            66 3.42
  97  0.162  0.167  0.000-  89 0.61 126 1.88 264 2.81 228 2.81 195 2.86  40 3.21
  98  0.412  0.083  0.327-  45 2.81  30 2.81  81 2.81 217 2.81 196 3.30
  99  0.245  0.083  0.544-  83 1.37 154 2.24 199 2.66 217 2.81  72 2.81 197 3.09 226 3.11 241 3.20
                           196 3.43
 100  0.912  0.750  0.109- 159 2.38  86 2.81  56 2.81 108 2.81 243 2.81  47 2.81 201 3.29 231 3.30

 101  0.328  0.000  0.000-  44 1.46 129 2.30  40 2.57  37 2.81 264 2.81 239 3.07 210 3.12 198 3.15
                            68 3.47
 102  0.578  0.750  0.544- 133 1.46 175 2.30 214 2.57  75 2.81  51 2.81 143 3.07 256 3.12 244 3.15
                            27 3.47
 103  0.662  0.333  0.000- 222 1.89 180 2.30  88 2.34 179 2.78  94 2.81  52 2.81 147 2.84 261 3.13
                           150 3.16
 104  0.745  0.417  0.327- 174 2.81 220 2.81 208 2.81   6 2.81
 105  0.578  0.417  0.544- 247 1.83  15 2.24 136 2.29 137 2.80  78 2.81   6 2.81 166 2.93 124 3.21
                            60 3.24
 106  0.912  0.083  0.109-  34 2.09  79 2.81  62 2.81 156 2.81   7 2.81 153 2.98
 107  0.745  0.083  0.327-  80 2.81 156 2.81   9 2.81 142 2.81
 108  0.828  0.667  0.218- 243 0.00  49 2.81  32 2.81  16 2.81 100 2.81 231 3.32
 109  0.412  0.750  0.327-  13 0.00  20 2.81  65 2.81  75 2.81  21 2.81
 110  0.881  0.920  0.727- 184 2.34 254 2.34 158 2.34 253 2.34
 111  0.765  0.843  0.909-  86 1.84 185 2.34 254 2.34 159 2.34 255 2.34  46 3.33
 112  0.162  0.833  0.436- 118 2.09 115 2.81  93 2.81  39 2.81  38 2.81 199 2.98
 113  0.957  0.305  0.727- 181 2.34 152 2.34 263 2.34 262 2.34
 114  0.842  0.228  0.909-  79 1.83 182 2.34 263 2.34 153 2.34  88 2.34
 115  0.078  0.750  0.327-  56 2.81 112 2.81  48 2.81 223 2.81
 116  0.111  0.074  0.727- 157 2.34 155 2.34 227 2.34 226 2.34
 117  0.996  0.997  0.909-   7 1.36 158 2.34 227 2.34   8 2.34  34 2.34
 118  0.150  0.766  0.544-  93 1.88 112 2.09 160 2.34 229 2.34  39 3.24
 119  0.034  0.690  0.727- 230 2.34 148 2.34 161 2.34 229 2.34
 120  0.919  0.613  0.909-  47 2.27 149 2.34 230 2.34 231 2.34  28 2.34  76 3.12
 121  0.304  0.536  0.544-   3 2.30 163 2.34 232 2.34  96 2.58  21 3.06  69 3.28
 122  0.188  0.459  0.727- 151 2.34 233 2.34 164 2.34 232 2.34  96 3.04
 123  0.073  0.382  0.909-   4 2.24 152 2.34 233 2.34 165 2.34  91 2.34  58 3.18
 124  0.457  0.305  0.544-  54 1.39 235 2.34 166 2.34  87 3.04 105 3.21  81 3.23
 125  0.342  0.228  0.727- 154 2.34 236 2.34 167 2.34 235 2.34  54 3.07
 126  0.227  0.151  0.909-  97 1.88 155 2.34 236 2.34  40 2.34  89 2.34
 127  0.611  0.074  0.544-   2 0.66 238 2.34 169 2.34   9 2.38  81 3.32
 128  0.496  0.997  0.727- 172 2.34 239 2.34 170 2.34 238 2.34
 129  0.381  0.920  0.909- 101 2.30 173 2.34 239 2.34  68 2.34  44 2.34  37 3.04  64 3.11
 130  0.381  0.920  0.544-  11 0.61 241 2.34 172 2.34 217 2.46  75 3.24
 131  0.265  0.843  0.727- 242 2.34 160 2.34 173 2.34 241 2.34  93 3.29
 132  0.150  0.766  0.909-  55 1.89 161 2.34 242 2.34  77 2.34
 133  0.534  0.690  0.544- 102 1.46 244 2.34 175 2.34  51 3.00   3 3.16  75 3.32
 134  0.419  0.613  0.727- 163 2.34 245 2.34 176 2.34 244 2.34   3 2.78
 135  0.304  0.536  0.909- 164 2.34 245 2.34  85 2.34 177 2.34  10 2.93  58 3.16
 136  0.688  0.459  0.544- 105 2.29 247 2.34 178 2.34  33 2.66   6 2.98
 137  0.573  0.382  0.727- 248 2.34 166 2.34 179 2.34 247 2.34 105 2.80
 138  0.457  0.305  0.909- 167 2.34 249 2.34 248 2.34 180 2.34  92 2.91  70 3.10  43 3.29
 139  0.578  0.250  0.327-   6 2.81  80 2.81  81 2.81  23 2.81
 140  0.727  0.151  0.727- 169 2.34 182 2.34 251 2.34 250 2.34  36 3.35
 141  0.611  0.074  0.909-  25 2.21 170 2.34 252 2.34 251 2.34 183 2.34  61 3.05  70 3.19
 142  0.828  0.167  0.436-  53 2.03  90 2.81  36 2.81  35 2.81 107 2.81
 143  0.650  0.766  0.727- 175 2.34 257 2.34 185 2.34 256 2.34 102 3.07
 144  0.534  0.690  0.909- 176 2.34 186 2.34 258 2.34 257 2.34  95 2.86  64 3.20
 145  0.919  0.613  0.544- 148 2.34 259 2.34 223 2.44  84 2.68  17 3.16  32 3.30  33 3.43
 146  0.804  0.536  0.727- 178 2.34 149 2.34 260 2.34 259 2.34  33 3.09
 147  0.688  0.459  0.909- 179 2.34 260 2.34 150 2.34 261 2.34 103 2.84  76 3.15
 148  0.015  0.593  0.636-  17 1.84 145 2.34 190 2.34 119 2.34 191 2.34
 149  0.900  0.516  0.818- 191 2.34 146 2.34 120 2.34 192 2.34  76 3.07
 150  0.784  0.440  0.000-  76 1.46 147 2.34 192 2.34  22 3.00 103 3.16  49 3.32
 151  0.169  0.363  0.636-  96 2.27 122 2.34  66 2.34 193 2.34 194 2.34  26 3.12
 152  0.054  0.286  0.818- 123 2.34 113 2.34 195 2.34 194 2.34   4 3.09
 153  0.938  0.209  0.000-  79 2.29 114 2.34 195 2.34   4 2.66 106 2.98
 154  0.323  0.132  0.636-  99 2.24 125 2.34  83 2.34 196 2.34 197 2.34  54 3.18
 155  0.207  0.055  0.818- 126 2.34 116 2.34 197 2.34 198 2.34
 156  0.828  0.000  0.218-  46 2.81  29 2.81 107 2.81 106 2.81
 157  0.092  0.978  0.636-  39 1.83 116 2.34 199 2.34 200 2.34
 158  0.977  0.901  0.818- 117 2.34 110 2.34 200 2.34 201 2.34   7 3.35
 159  0.861  0.824  0.000-  86 0.66 111 2.34 201 2.34 100 2.38  46 3.32
 160  0.246  0.747  0.636-  93 1.36 118 2.34 202 2.34 131 2.34 203 2.34
 161  0.131  0.670  0.818- 132 2.34 203 2.34 119 2.34 204 2.34
 162  0.078  0.917  0.109-   8 2.03  42 2.81   7 2.81  55 2.81  56 2.81
 163  0.400  0.516  0.636-   3 1.89 134 2.34  15 2.34 121 2.34 206 2.34
 164  0.284  0.440  0.818- 135 2.34 206 2.34 122 2.34 207 2.34
 165  0.169  0.363  0.000- 207 2.34 123 2.34 246 2.44  58 2.68  92 3.16  14 3.30   4 3.43
 166  0.554  0.286  0.636- 137 2.34  60 2.34 124 2.34 209 2.34 105 2.93  54 3.16
 167  0.438  0.209  0.818- 138 2.34 125 2.34 210 2.34 209 2.34  70 3.04
 168  0.412  0.583  0.109- 177 2.09  10 2.81  20 2.81  67 2.81 171 2.81 258 2.98
 169  0.707  0.055  0.636- 140 2.34 127 2.34 212 2.34   2 2.91  71 3.10   9 3.29
 170  0.592  0.978  0.818- 141 2.34 212 2.34 128 2.34 213 2.34  25 3.07
 171  0.328  0.500  0.218- 246 2.81  19 2.81  41 2.81 168 2.81
 172  0.477  0.901  0.636-  11 1.88 128 2.34 214 2.34 130 2.34 215 2.34  75 3.28
 173  0.361  0.824  0.818- 129 2.34 215 2.34 131 2.34 216 2.34
 174  0.662  0.500  0.218- 104 2.81  94 2.81  50 2.81  49 2.81
 175  0.631  0.670  0.636- 102 2.30 143 2.34  27 2.34 133 2.34 218 2.34  51 3.04  33 3.11
 176  0.515  0.593  0.818- 144 2.34 218 2.34 134 2.34 219 2.34  67 3.29
 177  0.400  0.516  0.000-  67 1.88 168 2.09 219 2.34 135 2.34  10 3.24
 178  0.784  0.440  0.636-   5 2.34 146 2.34 221 2.34 136 2.34  24 2.86  33 3.20
 179  0.669  0.363  0.818- 147 2.34 221 2.34 222 2.34 137 2.34 103 2.78
 180  0.554  0.286  0.000- 103 2.30 222 2.34 138 2.34  70 2.58  94 3.06  43 3.28
 181  0.938  0.209  0.636-  59 2.34 113 2.34  53 2.34 188 2.34  90 2.84  26 3.15
 182  0.823  0.132  0.818- 114 2.34 188 2.34 140 2.34 189 2.34  79 2.80
 183  0.707  0.055  0.000-  25 1.39 189 2.34 141 2.34  61 3.04  79 3.21  46 3.23
 184  0.861  0.824  0.636-  84 2.21 110 2.34  12 2.34  63 2.34 224 2.34  57 3.05  71 3.19
 185  0.746  0.747  0.818- 111 2.34 224 2.34 143 2.34 225 2.34
 186  0.631  0.670  0.000-  95 0.61 225 2.34 144 2.34 234 2.46  49 3.24
 187  0.995  0.500  0.218-  22 2.81  73 2.81  32 2.81  31 2.81
 188  0.919  0.113  0.727- 182 2.34 253 2.34 227 2.34 181 2.34  90 2.78
 189  0.804  0.036  0.909- 254 2.34 182 2.34 183 2.34  34 2.34  79 2.93  25 3.16
 190  0.111  0.574  0.544-  17 0.66 148 2.34 232 2.34  69 2.38
 191  0.996  0.497  0.727- 262 2.34 149 2.34 233 2.34 148 2.34
 192  0.881  0.420  0.909-  76 2.30 263 2.34 149 2.34 150 2.34  91 2.34  22 3.04   4 3.11
 193  0.265  0.343  0.544-  96 1.48  87 2.05 235 2.34 151 2.34  54 3.38
 194  0.150  0.266  0.727- 226 2.34 236 2.34 151 2.34 152 2.34  26 3.07
 195  0.034  0.190  0.909- 227 2.34 152 2.34  89 2.34 153 2.34  97 2.86   4 3.20
 196  0.419  0.113  0.544- 238 2.34 154 2.34  81 2.44  54 2.68   2 3.16  98 3.30  99 3.43
 197  0.304  0.036  0.727- 241 2.34 155 2.34 239 2.34 154 2.34  99 3.09
 198  0.188  0.959  0.909- 242 2.34 155 2.34  44 2.34   8 2.34  55 2.84 101 3.15
 199  0.188  0.959  0.544-  39 2.29 241 2.34 157 2.34  99 2.66 112 2.98
 200  0.073  0.882  0.727- 229 2.34 158 2.34 242 2.34 157 2.34  39 2.80
 201  0.957  0.805  0.909- 230 2.34 158 2.34 159 2.34  86 2.91  47 3.10 100 3.29
 202  0.342  0.728  0.544-  93 1.94  21 2.03 244 2.34 160 2.34   3 3.13
 203  0.227  0.651  0.727- 232 2.34 161 2.34 245 2.34 160 2.34  93 3.35
 204  0.111  0.574  0.909-  58 2.21 233 2.34 161 2.34  85 2.34  28 2.34  31 3.05  47 3.19
 205  0.995  0.333  0.436-  66 2.41  26 2.81  35 2.81  73 2.81  24 2.81   5 3.24  59 3.32
 206  0.381  0.420  0.727- 235 2.34 164 2.34 248 2.34 163 2.34
 207  0.265  0.343  0.909-  92 1.84 236 2.34 164 2.34 165 2.34 249 2.34
 208  0.828  0.500  0.436-   5 2.46  24 2.81 104 2.81  33 2.81  32 2.81
 209  0.534  0.190  0.727- 251 2.34 238 2.34 166 2.34 167 2.34
 210  0.419  0.113  0.909-  70 2.27 239 2.34 167 2.34 252 2.34  40 2.34 101 3.12
 211  0.578  0.917  0.327-   1 0.00   9 2.81  45 2.81  74 2.81  75 2.81
 212  0.688  0.959  0.727- 256 2.34 170 2.34 254 2.34 169 2.34  71 3.04
 213  0.573  0.882  0.909-  64 2.24 257 2.34 170 2.34 255 2.34  68 2.34  25 3.18
 214  0.573  0.882  0.544- 172 2.34 256 2.34  75 2.41 102 2.57  11 3.21   9 3.30   1 3.32  71 3.42

 215  0.457  0.805  0.727- 244 2.34 173 2.34 257 2.34 172 2.34
 216  0.342  0.728  0.909-  10 1.83 245 2.34  77 2.34 173 2.34 258 2.34
 217  0.328  0.000  0.436- 130 2.46  11 2.81  38 2.81  99 2.81  98 2.81
 218  0.611  0.574  0.727- 247 2.34 176 2.34 260 2.34 175 2.34
 219  0.496  0.497  0.909-  67 1.36 248 2.34 177 2.34 176 2.34 261 2.34
 220  0.828  0.333  0.218-  52 2.81  35 2.81 104 2.81  22 2.81
 221  0.765  0.343  0.727- 263 2.34 179 2.34 250 2.34 178 2.34  36 3.29
 222  0.650  0.266  0.909- 103 1.89 179 2.34 251 2.34  88 2.34 180 2.34
 223  0.995  0.667  0.436- 145 2.44  17 2.81  32 2.81 115 2.81  84 2.81  12 3.23
 224  0.842  0.728  0.727- 259 2.34 185 2.34 230 2.34 184 2.34  84 3.07
 225  0.727  0.651  0.909-  95 1.88 260 2.34 231 2.34 185 2.34 186 2.34  49 3.28
 226  0.131  0.170  0.636-  26 2.30 194 2.34  83 2.34  59 2.34 116 2.34  72 3.04  99 3.11
 227  0.015  0.093  0.818- 195 2.34 188 2.34 116 2.34 117 2.34   7 3.29
 228  0.078  0.250  0.109-  89 2.46  14 2.81  97 2.81   4 2.81  62 2.81
 229  0.054  0.786  0.636- 200 2.34  12 2.34 118 2.34 119 2.34  39 2.93  84 3.16
 230  0.938  0.709  0.818- 201 2.34 224 2.34 119 2.34 120 2.34  47 3.04
 231  0.823  0.632  0.000- 225 2.34 120 2.34  49 2.41  76 2.57  95 3.21 100 3.30 108 3.32  47 3.42

 232  0.207  0.555  0.636- 203 2.34 190 2.34 121 2.34 122 2.34  17 2.91  96 3.10  69 3.29
 233  0.092  0.478  0.818- 204 2.34 122 2.34 191 2.34 123 2.34  58 3.07
 234  0.578  0.750  0.109- 186 2.46  64 2.81  74 2.81  95 2.81  20 2.81
 235  0.361  0.324  0.636-  54 2.21 206 2.34 193 2.34 124 2.34 125 2.34  87 3.05  96 3.19
 236  0.246  0.247  0.818- 207 2.34 125 2.34 194 2.34 126 2.34
 237  0.078  0.083  0.327-  42 2.81  62 2.81  72 2.81  18 2.81
 238  0.515  0.093  0.636-   2 1.84 209 2.34 127 2.34 196 2.34 128 2.34  81 3.33
 239  0.400  0.016  0.818- 210 2.34 128 2.34 197 2.34 129 2.34 101 3.07
 240  0.245  0.250  0.327-  30 2.81  14 2.81  72 2.81  87 2.81
 241  0.284  0.940  0.636- 197 2.34 130 2.34 199 2.34 131 2.34  11 2.86  99 3.20
 242  0.169  0.863  0.818- 198 2.34 131 2.34 200 2.34 132 2.34  55 2.78
 243  0.828  0.667  0.218- 108 0.00  49 2.81  32 2.81  16 2.81 100 2.81
 244  0.438  0.709  0.636- 215 2.34 202 2.34 133 2.34 134 2.34   3 2.84 102 3.15
 245  0.323  0.632  0.818- 216 2.34 203 2.34 134 2.34 135 2.34  10 2.80
 246  0.245  0.417  0.109- 165 2.44  58 2.81 171 2.81  92 2.81  14 2.81  85 3.23
 247  0.592  0.478  0.636- 105 1.83 218 2.34 136 2.34  15 2.34 137 2.34
 248  0.477  0.401  0.818- 219 2.34 137 2.34 206 2.34 138 2.34  67 3.35
 249  0.361  0.324  0.000-  92 0.66 138 2.34 207 2.34  43 2.38
 250  0.746  0.247  0.636-  36 1.36  53 2.34 221 2.34  60 2.34 140 2.34
 251  0.631  0.170  0.818- 209 2.34 222 2.34 140 2.34 141 2.34
 252  0.515  0.093  0.000-  70 1.48  61 2.05 141 2.34 210 2.34  25 3.38
 253  0.900  0.016  0.636-  90 1.89 188 2.34 110 2.34
 254  0.784  0.940  0.818- 189 2.34 110 2.34 212 2.34 111 2.34
 255  0.669  0.863  0.000- 111 2.34 213 2.34  46 2.44  25 2.68  86 3.16  74 3.30  64 3.43
 256  0.669  0.863  0.636-  71 2.27 212 2.34  63 2.34 214 2.34 143 2.34 102 3.12
 257  0.554  0.786  0.818- 213 2.34 143 2.34 215 2.34 144 2.34  64 3.09
 258  0.438  0.709  0.000-  10 2.29 216 2.34 144 2.34  64 2.66 168 2.98
 259  0.823  0.632  0.636-  33 2.24 224 2.34 145 2.34  27 2.34 146 2.34  84 3.18
 260  0.707  0.555  0.818- 225 2.34 146 2.34 218 2.34 147 2.34
 261  0.592  0.478  0.000-  67 1.94  94 2.03 219 2.34 147 2.34 103 3.13
 262  0.977  0.401  0.636-  24 1.88 191 2.34   5 2.34  66 2.34 113 2.34
 263  0.861  0.324  0.818- 221 2.34 192 2.34 113 2.34 114 2.34
 264  0.245  0.083  0.109-  40 2.41  97 2.81  30 2.81 101 2.81  42 2.81  89 3.24  44 3.32
 
 -----------------------------------------------------------------------------
|                                                                             |
|           W    W    AA    RRRRR   N    N  II  N    N   GGGG   !!!           |
|           W    W   A  A   R    R  NN   N  II  NN   N  G    G  !!!           |
|           W    W  A    A  R    R  N N  N  II  N N  N  G       !!!           |
|           W WW W  AAAAAA  RRRRR   N  N N  II  N  N N  G  GGG   !            |
|           WW  WW  A    A  R   R   N   NN  II  N   NN  G    G                |
|           W    W  A    A  R    R  N    N  II  N    N   GGGG   !!!           |
|                                                                             |
|     The distance between some ions is very small. Please check the          |
|     nearest-neighbor list in the OUTCAR file.                               |
|     I HOPE YOU KNOW WHAT YOU ARE DOING!                                     |
|                                                                             |
 -----------------------------------------------------------------------------

  LATTYP: Found a simple tetragonal cell.
 ALAT       =    19.4675998690
 C/A-ratio  =     0.7653871812
  
  Lattice vectors:
  
 A1 = (  19.4675998690,   0.0000000000,   0.0000000000)
 A2 = (   0.0000000000,  19.4675998690,   0.0000000000)
 A3 = (   0.0000000000,   0.0000000000,  14.9002513890)


Analysis of symmetry for initial positions (statically):
=====================================================================
 Subroutine PRICEL returns:
 Original cell was already a primitive cell.
 

 Routine SETGRP: Setting up the symmetry group for a 
 simple tetragonal supercell.


 Subroutine GETGRP returns: Found  1 space group operations
 (whereof  1 operations were pure point group operations)
 out of a pool of 16 trial point group operations.


The static configuration has the point symmetry C_1 .


Analysis of symmetry for dynamics (positions and initial velocities):
=====================================================================
 Subroutine PRICEL returns:
 Original cell was already a primitive cell.
 

 Routine SETGRP: Setting up the symmetry group for a 
 simple tetragonal supercell.


 Subroutine GETGRP returns: Found  1 space group operations
 (whereof  1 operations were pure point group operations)
 out of a pool of 16 trial point group operations.


The dynamic configuration has the point symmetry C_1 .


Analysis of structural, dynamic, and magnetic symmetry:
=====================================================================
 Subroutine PRICEL returns:
 Original cell was already a primitive cell.
 

 Routine SETGRP: Setting up the symmetry group for a 
 simple tetragonal supercell.


 Subroutine GETGRP returns: Found  1 space group operations
 (whereof  1 operations were pure point group operations)
 out of a pool of 16 trial point group operations.


The overall configuration has the point symmetry C_1 .


 Subroutine INISYM returns: Found  1 space group operations
 (whereof  1 operations are pure point group operations),
 and found     1 'primitive' translations


----------------------------------------------------------------------------------------

                                     Primitive cell                                     

  volume of cell :    5647.0082

  direct lattice vectors                    reciprocal lattice vectors
    19.467599869  0.000000000  0.000000000     0.051367401  0.000000000  0.000000000
     0.000000000 19.467599869  0.000000000     0.000000000  0.051367401  0.000000000
     0.000000000  0.000000000 14.900251389     0.000000000  0.000000000  0.067112962

  length of vectors
    19.467599869 19.467599869 14.900251389     0.051367401  0.051367401  0.067112962

  position of ions in fractional coordinates (direct lattice)
     0.578368545  0.916666746  0.326632023
     0.578368366  0.083333343  0.544386804
     0.411701798  0.583333433  0.544386804
     0.995035112  0.333333343  0.000000000
     0.880508482  0.420338988  0.544386804
     0.661701739  0.333333343  0.435509443
     0.995035112  0.000000000  0.000000000
     0.092046767  0.978031158  0.000000238
     0.661701739  0.000000000  0.435509443
     0.328368455  0.666666687  0.000000000
     0.411701798  0.916666746  0.544386804
     0.957431614  0.804954290  0.544386804
     0.411701858  0.750000060  0.326632023
     0.161701739  0.333333343  0.217754737
     0.495893091  0.497262001  0.544386804
     0.745035052  0.750000060  0.326632023
     0.078368381  0.583333433  0.544386804
     0.995035112  0.000000000  0.435509443
     0.411701858  0.416666716  0.326632023
     0.495035112  0.666666687  0.217754737
     0.328368455  0.666666687  0.435509443
     0.911701739  0.416666716  0.108877368
     0.495035112  0.333333343  0.217754737
     0.911701739  0.416666716  0.544386804
     0.661701798  0.000000000  0.000000000
     0.078368381  0.250000000  0.544386804
     0.726662338  0.651108146  0.544386804
     0.015123715  0.593415797  0.000000238
     0.911701798  0.916666746  0.326632023
     0.328368425  0.166666672  0.217754737
     0.078368433  0.583333433  0.108877368
     0.911701798  0.583333433  0.326632023
     0.745035052  0.583333433  0.544386804
     0.899739087  0.016492693  0.000000238
     0.911701798  0.250000000  0.326632023
     0.745035052  0.250000000  0.544386804
     0.411701769  0.916666746  0.108877368
     0.245035097  0.916666746  0.326632023
     0.078368381  0.916666746  0.544386804
     0.322816044  0.131877258  0.000000238
     0.245035097  0.583333433  0.326632023
     0.161701739  0.000000000  0.217754737
     0.411701769  0.250000000  0.108877368
     0.284354508  0.939569533  0.000000238
     0.495035112  0.000000000  0.217754737
     0.745035172  0.916666746  0.108877368
     0.995035112  0.666666687  0.000000000
     0.161701739  0.666666687  0.217754737
     0.745035172  0.583333433  0.108877368
     0.578368545  0.583333433  0.326632023
     0.661701739  0.666666687  0.435509443
     0.745035172  0.250000000  0.108877368
     0.842046916  0.228031188  0.544386804
     0.411701798  0.250000000  0.544386804
     0.161701769  0.833333313  0.000000000
     0.995035052  0.833333313  0.217754737
     0.828368425  0.833333313  0.435509443
     0.161701769  0.500000000  0.000000000
     0.034354586  0.189569741  0.544386804
     0.649739265  0.266492784  0.544386804
     0.578368485  0.083333343  0.108877368
     0.995035052  0.166666672  0.217754737
     0.765123904  0.843415856  0.544386804
     0.495035112  0.833333313  0.000000000
     0.328368425  0.833333313  0.217754737
     0.072816126  0.381877452  0.544386804
     0.495035112  0.500000000  0.000000000
     0.476662189  0.901108027  0.000000238
     0.161701754  0.500000000  0.435509443
     0.495035112  0.166666672  0.000000000
     0.745035052  0.916666746  0.544386804
     0.161701754  0.166666672  0.435509443
     0.078368433  0.416666716  0.326632023
     0.661701858  0.833333313  0.217754737
     0.495035201  0.833333313  0.435509443
     0.828368545  0.500000000  0.000000000
     0.245893002  0.747261941  0.000000238
     0.495035201  0.500000000  0.435509443
     0.828368545  0.166666672  0.000000000
     0.661701858  0.166666672  0.217754737
     0.495035201  0.166666672  0.435509443
     0.245035097  0.750000060  0.108877368
     0.226662278  0.151108176  0.544386804
     0.911701739  0.750000060  0.544386804
     0.207431406  0.554954290  0.000000238
     0.828368545  0.833333313  0.000000000
     0.328368455  0.333333343  0.435509443
     0.745892882  0.247261927  0.000000238
     0.130508333  0.170338854  0.000000238
     0.911701739  0.083333343  0.544386804
     0.976662159  0.401108086  0.000000238
     0.328368455  0.333333343  0.000000000
     0.245035127  0.750000060  0.544386804
     0.578368485  0.416666716  0.108877368
     0.661701798  0.666666687  0.000000000
     0.245035127  0.416666716  0.544386804
     0.161701769  0.166666672  0.000000000
     0.411701858  0.083333343  0.326632023
     0.245035127  0.083333343  0.544386804
     0.911701739  0.750000060  0.108877368
     0.328368455  0.000000000  0.000000000
     0.578368366  0.750000060  0.544386804
     0.661701798  0.333333343  0.000000000
     0.745035052  0.416666716  0.326632023
     0.578368366  0.416666716  0.544386804
     0.911701739  0.083333343  0.108877368
     0.745035052  0.083333343  0.326632023
     0.828368425  0.666666687  0.217754737
     0.411701858  0.750000060  0.326632023
     0.880508363  0.920338869  0.726632059
     0.765123725  0.843415737  0.908877313
     0.161701754  0.833333313  0.435509443
     0.957431436  0.304954290  0.726632059
     0.842046797  0.228031158  0.908877313
     0.078368433  0.750000060  0.326632023
     0.111277618  0.074185051  0.726632059
     0.995892942  0.997261941  0.908877313
     0.149739221  0.766492844  0.544386804
     0.034354534  0.689569712  0.726632059
     0.918969870  0.612646580  0.908877313
     0.303585410  0.535723567  0.544386804
     0.188200727  0.458800435  0.726632059
     0.072816066  0.381877303  0.908877313
     0.457431555  0.304954350  0.544386804
     0.342046857  0.228031203  0.726632059
     0.226662204  0.151108071  0.908877313
     0.611277699  0.074185103  0.544386804
     0.495893002  0.997261941  0.726632059
     0.380508363  0.920338809  0.908877313
     0.380508512  0.920339048  0.544386804
     0.265123844  0.843415916  0.726632059
     0.149739176  0.766492724  0.908877313
     0.534354627  0.689569712  0.544386804
     0.418969929  0.612646580  0.726632059
     0.303585261  0.535723448  0.908877313
     0.688200712  0.458800495  0.544386804
     0.572816074  0.381877363  0.726632059
     0.457431376  0.304954231  0.908877313
     0.578368545  0.250000000  0.326632023
     0.726662278  0.151108041  0.726632059
     0.611277580  0.074184909  0.908877313
     0.828368425  0.166666672  0.435509443
     0.649739265  0.766492724  0.726632059
     0.534354568  0.689569592  0.908877313
     0.918970048  0.612646639  0.544386804
     0.803585410  0.535723507  0.726632059
     0.688200712  0.458800375  0.908877313
     0.015123837  0.593415856  0.635509431
     0.899739206  0.516492724  0.817754686
     0.784354508  0.439569622  0.000000238
     0.168969959  0.362646669  0.635509431
     0.053585295  0.285723537  0.817754686
     0.938200593  0.208800375  0.000000238
     0.322816133  0.131877407  0.635509431
     0.207431450  0.054954268  0.817754686
     0.828368425  0.000000000  0.217754737
     0.092046887  0.978031278  0.635509431
     0.976662219  0.901108146  0.817754686
     0.861277521  0.824185014  0.000000238
     0.245893061  0.747262061  0.635509431
     0.130508408  0.670338929  0.817754686
     0.078368433  0.916666746  0.108877368
     0.399739265  0.516492844  0.635509431
     0.284354597  0.439569682  0.817754686
     0.168969929  0.362646550  0.000000238
     0.553585410  0.285723537  0.635509431
     0.438200712  0.208800390  0.817754686
     0.411701769  0.583333433  0.108877368
     0.707431555  0.054954302  0.635509431
     0.592046857  0.978031158  0.817754686
     0.328368425  0.500000000  0.217754737
     0.476662397  0.901108205  0.635509431
     0.361277699  0.824185073  0.817754686
     0.661701858  0.500000000  0.217754737
     0.630508542  0.670338988  0.635509431
     0.515123844  0.593415797  0.817754686
     0.399739146  0.516492665  0.000000238
     0.784354687  0.439569712  0.635509431
     0.668969989  0.362646550  0.817754686
     0.553585291  0.285723418  0.000000238
     0.938200831  0.208800495  0.635509431
     0.822816133  0.131877348  0.817754686
     0.707431436  0.054954205  0.000000238
     0.861277878  0.824185133  0.635509431
     0.745893180  0.747262001  0.817754686
     0.630508423  0.670338809  0.000000238
     0.995035052  0.500000000  0.217754737
     0.918969929  0.112646602  0.726632059
     0.803585231  0.035723470  0.908877313
     0.111277662  0.574185073  0.544386804
     0.995893002  0.497262001  0.726632059
     0.880508304  0.420338839  0.908877313
     0.265123844  0.343415916  0.544386804
     0.149739191  0.266492784  0.726632059
     0.034354493  0.189569652  0.908877313
     0.418969989  0.112646602  0.544386804
     0.303585321  0.035723474  0.726632059
     0.188200638  0.958800316  0.908877313
     0.188200757  0.958800435  0.544386804
     0.072816059  0.881877303  0.726632059
     0.957431376  0.804954231  0.908877313
     0.342046916  0.728031278  0.544386804
     0.226662233  0.651108146  0.726632059
     0.111277573  0.574185014  0.908877313
     0.995035112  0.333333343  0.435509443
     0.380508423  0.420338869  0.726632059
     0.265123725  0.343415737  0.908877313
     0.828368425  0.500000000  0.435509443
     0.534354627  0.189569652  0.726632059
     0.418969929  0.112646520  0.908877313
     0.578368545  0.916666746  0.326632023
     0.688200712  0.958800435  0.726632059
     0.572816074  0.881877303  0.908877313
     0.572816133  0.881877363  0.544386804
     0.457431436  0.804954290  0.726632059
     0.342046797  0.728031099  0.908877313
     0.328368455  0.000000000  0.435509443
     0.611277640  0.574185014  0.726632059
     0.495892942  0.497261852  0.908877313
     0.828368425  0.333333343  0.217754737
     0.765123844  0.343415856  0.726632059
     0.649739146  0.266492724  0.908877313
     0.995035112  0.666666687  0.435509443
     0.842046916  0.728031158  0.726632059
     0.726662278  0.651108027  0.908877313
     0.130508438  0.170338959  0.635509431
     0.015123768  0.093415834  0.817754686
     0.078368433  0.250000000  0.108877368
     0.053585343  0.785723627  0.635509431
     0.938200712  0.708800435  0.817754686
     0.822816014  0.631877303  0.000000238
     0.207431525  0.554954410  0.635509431
     0.092046872  0.478031248  0.817754686
     0.578368485  0.750000060  0.108877368
     0.361277699  0.324185133  0.635509431
     0.245893031  0.247262001  0.817754686
     0.078368433  0.083333343  0.326632023
     0.515123844  0.093415849  0.635509431
     0.399739206  0.016492724  0.817754686
     0.245035097  0.250000000  0.326632023
     0.284354657  0.939569831  0.635509431
     0.168969989  0.862646639  0.817754686
     0.828368425  0.666666687  0.217754737
     0.438200772  0.708800614  0.635509431
     0.322816074  0.631877422  0.817754686
     0.245035097  0.416666716  0.108877368
     0.592046976  0.478031278  0.635509431
     0.476662278  0.401108146  0.817754686
     0.361277610  0.324185014  0.000000238
     0.745893121  0.247262001  0.635509431
     0.630508423  0.170338869  0.817754686
     0.515123785  0.093415722  0.000000238
     0.899739265  0.016492788  0.635509431
     0.784354568  0.939569652  0.817754686
     0.668969929  0.862646520  0.000000238
     0.668970108  0.862646759  0.635509431
     0.553585410  0.785723627  0.817754686
     0.438200712  0.708800495  0.000000238
     0.822816253  0.631877422  0.635509431
     0.707431555  0.554954290  0.817754686
     0.592046797  0.478031129  0.000000238
     0.976662278  0.401108235  0.635509431
     0.861277580  0.324185073  0.817754686
     0.245035097  0.083333343  0.108877368

  ion indices of the primitive-cell ions
   primitive index   ion index
                 1           1
                 2           2
                 3           3
                 4           4
                 5           5
                 6           6
                 7           7
                 8           8
                 9           9
                10          10
                11          11
                12          12
                13          13
                14          14
                15          15
                16          16
                17          17
                18          18
                19          19
                20          20
                21          21
                22          22
                23          23
                24          24
                25          25
                26          26
                27          27
                28          28
                29          29
                30          30
                31          31
                32          32
                33          33
                34          34
                35          35
                36          36
                37          37
                38          38
                39          39
                40          40
                41          41
                42          42
                43          43
                44          44
                45          45
                46          46
                47          47
                48          48
                49          49
                50          50
                51          51
                52          52
                53          53
                54          54
                55          55
                56          56
                57          57
                58          58
                59          59
                60          60
                61          61
                62          62
                63          63
                64          64
                65          65
                66          66
                67          67
                68          68
                69          69
                70          70
                71          71
                72          72
                73          73
                74          74
                75          75
                76          76
                77          77
                78          78
                79          79
                80          80
                81          81
                82          82
                83          83
                84          84
                85          85
                86          86
                87          87
                88          88
                89          89
                90          90
                91          91
                92          92
                93          93
                94          94
                95          95
                96          96
                97          97
                98          98
                99          99
               100         100
               101         101
               102         102
               103         103
               104         104
               105         105
               106         106
               107         107
               108         108
               109         109
               110         110
               111         111
               112         112
               113         113
               114         114
               115         115
               116         116
               117         117
               118         118
               119         119
               120         120
               121         121
               122         122
               123         123
               124         124
               125         125
               126         126
               127         127
               128         128
               129         129
               130         130
               131         131
               132         132
               133         133
               134         134
               135         135
               136         136
               137         137
               138         138
               139         139
               140         140
               141         141
               142         142
               143         143
               144         144
               145         145
               146         146
               147         147
               148         148
               149         149
               150         150
               151         151
               152         152
               153         153
               154         154
               155         155
               156         156
               157         157
               158         158
               159         159
               160         160
               161         161
               162         162
               163         163
               164         164
               165         165
               166         166
               167         167
               168         168
               169         169
               170         170
               171         171
               172         172
               173         173
               174         174
               175         175
               176         176
               177         177
               178         178
               179         179
               180         180
               181         181
               182         182
               183         183
               184         184
               185         185
               186         186
               187         187
               188         188
               189         189
               190         190
               191         191
               192         192
               193         193
               194         194
               195         195
               196         196
               197         197
               198         198
               199         199
               200         200
               201         201
               202         202
               203         203
               204         204
               205         205
               206         206
               207         207
               208         208
               209         209
               210         210
               211         211
               212         212
               213         213
               214         214
               215         215
               216         216
               217         217
               218         218
               219         219
               220         220
               221         221
               222         222
               223         223
               224         224
               225         225
               226         226
               227         227
               228         228
               229         229
               230         230
               231         231
               232         232
               233         233
               234         234
               235         235
               236         236
               237         237
               238         238
               239         239
               240         240
               241         241
               242         242
               243         243
               244         244
               245         245
               246         246
               247         247
               248         248
               249         249
               250         250
               251         251
               252         252
               253         253
               254         254
               255         255
               256         256
               257         257
               258         258
               259         259
               260         260
               261         261
               262         262
               263         263
               264         264

----------------------------------------------------------------------------------------

 
 
 KPOINTS: Automatic KPOINTS generated             

Automatic generation of k-mesh.
 Grid dimensions read from file:
 generate k-points for:    2    2    2

 Generating k-lattice:

  Cartesian coordinates                     Fractional coordinates (reciprocal lattice)
     0.025683700  0.000000000  0.000000000     0.500000000  0.000000000  0.000000000
     0.000000000  0.025683700  0.000000000     0.000000000  0.500000000  0.000000000
     0.000000000  0.000000000  0.033556481     0.000000000  0.000000000  0.500000000

  Length of vectors
     0.025683700  0.025683700  0.033556481

  Shift w.r.t. Gamma in fractional coordinates (k-lattice)
     0.000000000  0.000000000  0.000000000

 
 Subroutine IBZKPT returns following result:
 ===========================================
 
 Found      8 irreducible k-points:
 
 Following reciprocal coordinates:
            Coordinates               Weight
  0.000000  0.000000  0.000000      1.000000
  0.500000  0.000000  0.000000      1.000000
  0.000000  0.500000  0.000000      1.000000
  0.500000  0.500000  0.000000      1.000000
  0.000000  0.000000  0.500000      1.000000
  0.500000  0.000000  0.500000      1.000000
  0.000000  0.500000  0.500000      1.000000
  0.500000  0.500000  0.500000      1.000000
 
 Following cartesian coordinates:
            Coordinates               Weight
  0.000000  0.000000  0.000000      1.000000
  0.025684  0.000000  0.000000      1.000000
  0.000000  0.025684  0.000000      1.000000
  0.025684  0.025684  0.000000      1.000000
  0.000000  0.000000  0.033556      1.000000
  0.025684  0.000000  0.033556      1.000000
  0.000000  0.025684  0.033556      1.000000
  0.025684  0.025684  0.033556      1.000000
 
 -----------------------------------------------------------------------------
|                                                                             |
|           W    W    AA    RRRRR   N    N  II  N    N   GGGG   !!!           |
|           W    W   A  A   R    R  NN   N  II  NN   N  G    G  !!!           |
|           W    W  A    A  R    R  N N  N  II  N N  N  G       !!!           |
|           W WW W  AAAAAA  RRRRR   N  N N  II  N  N N  G  GGG   !            |
|           WW  WW  A    A  R   R   N   NN  II  N   NN  G    G                |
|           W    W  A    A  R    R  N    N  II  N    N   GGGG   !!!           |
|                                                                             |
|     The number of bands has been changed from the values supplied in        |
|     the INCAR file. This is a result of running the parallel version.       |
|     The orbitals not found in the WAVECAR file will be initialized with     |
|     random numbers, which is usually adequate. For correlated               |
|     calculations, however, you should redo the groundstate calculation.     |
|     I found NBANDS = 634. Now, NBANDS = 636.                                |
|                                                                             |
 -----------------------------------------------------------------------------



--------------------------------------------------------------------------------------------------------




 Dimension of arrays:
   k-points           NKPTS =      8   k-points in BZ     NKDIM =      8   number of bands    NBANDS=    636
   number of dos      NEDOS =    301   number of ions     NIONS =    264
   non local maximal  LDIM  =      5   non local SUM 2l+1 LMDIM =     13
   total plane-waves  NPLWV = ******
   max r-space proj   IRMAX =   4496   max aug-charges    IRDMAX= 208011
   dimension x,y,z NGX =   126 NGY =  126 NGZ =   96
   dimension x,y,z NGXF=   252 NGYF=  252 NGZF=  192
   support grid    NGXF=   504 NGYF=  504 NGZF=  384
   ions per type =             108 156
   NGX,Y,Z   is equivalent  to a cutoff of  10.76, 10.76, 10.71 a.u.
   NGXF,Y,Z  is equivalent  to a cutoff of  21.52, 21.52, 21.42 a.u.

 SYSTEM =  Si and Ge interface calculation         
 POSCAR =  Sn+Si                                   

 Startparameter for this run:
   NWRITE =      2    write-flag & timer
   PREC   = normal    normal or accurate (medium, high low for compatibility)
   ISTART =      0    job   : 0-new  1-cont  2-samecut
   ICHARG =      2    charge: 1-file 2-atom 10-const
   ISPIN  =      2    spin polarized calculation?
   LNONCOLLINEAR =      F non collinear calculations
   LSORBIT =      F    spin-orbit coupling
   INIWAV =      1    electr: 0-lowe 1-rand  2-diag
   LASPH  =      T    aspherical Exc in radial PAW
 Electronic Relaxation 1
   ENCUT  =  700.0 eV  51.45 Ry    7.17 a.u.  42.00 42.00 32.14*2*pi/ulx,y,z
   ENINI  =  700.0     initial cutoff
   ENAUG  =  900.0 eV  augmentation charge cutoff
   NELM   =    100;   NELMIN=  2; NELMDL= -5     # of ELM steps 
   EDIFF  = 0.1E-06   stopping-criterion for ELM
   LREAL  =      T    real-space projection
   NLSPLINE    = F    spline interpolate recip. space projectors
   LCOMPAT=      F    compatible to vasp.4.4
   GGA_COMPAT  = T    GGA compatible to vasp.4.4-vasp.4.6
   LMAXPAW     = -100 max onsite density
   LMAXMIX     =    6 max onsite mixed and CHGCAR
   VOSKOWN=      0    Vosko Wilk Nusair interpolation
   ROPT   =   -0.00050  -0.00050
 Ionic relaxation
   EDIFFG = 0.1E-05   stopping-criterion for IOM
   NSW    =      0    number of steps for IOM
   NBLOCK =      1;   KBLOCK =      1    inner block; outer block 
   IBRION =     -1    ionic relax: 0-MD 1-quasi-New 2-CG
   NFREE  =      0    steps in history (QN), initial steepest desc. (CG)
   ISIF   =      2    stress and relaxation
   IWAVPR =     10    prediction:  0-non 1-charg 2-wave 3-comb
   ISYM   =      2    0-nonsym 1-usesym 2-fastsym
   LCORR  =      T    Harris-Foulkes like correction to forces

   POTIM  = 0.5000    time-step for ionic-motion
   TEIN   =    0.0    initial temperature
   TEBEG  =    0.0;   TEEND  =   0.0 temperature during run
   SMASS  =  -3.00    Nose mass-parameter (am)
   estimated Nose-frequenzy (Omega)   =  0.10E-29 period in steps = 0.13E+47 mass=  -0.866E-26a.u.
   SCALEE = 1.0000    scale energy and forces
   NPACO  =    256;   APACO  = 10.0  distance and # of slots for P.C.
   PSTRESS=    0.0 pullay stress

  Mass of Ions in am
   POMASS = 118.71 28.09
  Ionic Valenz
   ZVAL   =   4.00  4.00
  Atomic Wigner-Seitz radii
   RWIGS  =  -1.00 -1.00
  virtual crystal weights 
   VCA    =   1.00  1.00
   NELECT =    1056.0000    total number of electrons
   NUPDOWN=       1.0000    fix difference up-down

 DOS related values:
   EMIN   =  10.00;   EMAX   =-10.00  energy-range for DOS
   EFERMI =   0.00;   METHOD = LEGACY      
   ISMEAR =     0;   SIGMA  =   0.01  broadening in eV -4-tet -1-fermi 0-gaus

 Electronic relaxation 2 (details)
   IALGO  =     38    algorithm
   LDIAG  =      T    sub-space diagonalisation (order eigenvalues)
   LSUBROT=      F    optimize rotation matrix (better conditioning)
   TURBO    =      0    0=normal 1=particle mesh
   IRESTART =      0    0=no restart 2=restart with 2 vectors
   NREBOOT  =      0    no. of reboots
   NMIN     =      0    reboot dimension
   EREF     =   0.00    reference energy to select bands
   IMIX   =      4    mixing-type and parameters
     AMIX     =   0.60;   BMIX     =  1.00
     AMIX_MAG =   2.40;   BMIX_MAG =  1.00
     AMIN     =   0.10
     WC   =   100.;   INIMIX=   1;  MIXPRE=   1;  MAXMIX= -45

 Intra band minimization:
   WEIMIN = 0.0000     energy-eigenvalue tresh-hold
   EBREAK =  0.39E-10  absolut break condition
   DEPER  =   0.30     relativ break condition  

   TIME   =   0.40     timestep for ELM

  volume/ion in A,a.u.               =      21.39       144.35
  Fermi-wavevector in a.u.,A,eV,Ry     =   0.936174  1.769113 11.924447  0.876422
  Thomas-Fermi vector in A             =   2.063157
 
 Write flags
   LWAVE        =      F    write WAVECAR
   LDOWNSAMPLE  =      F    k-point downsampling of WAVECAR
   LCHARG       =      T    write CHGCAR
   LVTOT        =      F    write LOCPOT, total local potential
   LVHAR        =      T    write LOCPOT, Hartree potential only
   WRT_POTENTIAL=  hartree ionic  ! write potential to hdf5 file
   LELF         =      F    write electronic localiz. function (ELF)
   LORBIT       =      0    0 simple, 1 ext, 2 COOP (PROOUT), +10 PAW based schemes


 Dipole corrections
   LMONO      =      F    monopole corrections only (constant potential shift)
   LDIPOL     =      F    correct potential (dipole corrections)
   IDIPOL     =      0    1-x, 2-y, 3-z, 4-all directions 
   EPSILON    =  1.0000000 bulk dielectric constant
   LVACPOTAV  =      F  vacuum potentials using an averaging scheme for the charge density
   VACPOTFLAT =  0.1000000 required flatness to determine vacuum potential
 Exchange correlation treatment:
   GGA     = PE    functional components
   XC_C    = 1    coefficients multiplying the functional components
   LIBXC   =     F    Libxc                    
   VOSKOWN =     0    Vosko Wilk Nusair interpolation
   LHFCALC =     F    Hartree Fock is set to
   LHFONE  =     F    Hartree Fock one center treatment
   AEXX    =    0.0000 exact exchange contribution

 Parameters of functionals:
   PE:
     No parameter
 
 Van der Waals corrections
   IVDW    =     0    specifies the selected vdW correction

 Linear response parameters
   LEPSILON=     F    determine dielectric tensor
   LRPA    =     F    only Hartree local field effects (RPA)
   LNABLA  =     F    use nabla operator in PAW spheres
   LVEL    =     F    velocity operator in full k-point grid
   CSHIFT  =0.1000    complex shift for real part using Kramers Kronig
   OMEGAMAX=  -1.0    maximum frequency
   DEG_THRESHOLD= 0.2000000E-02 threshold for treating states as degnerate
   RTIME   =   -0.100 relaxation time in fs
  (WPLASMAI=    0.000 imaginary part of plasma frequency in eV, 0.658/RTIME)
   DFIELD  = 0.0000000 0.0000000 0.0000000 field for delta impulse in time
 
  Optional k-point grid parameters
   LKPOINTS_OPT  =     F    use optional k-point grid
   KPOINTS_OPT_MODE=     1    mode for optional k-point grid
 
 Orbital magnetization related:
   ORBITALMAG=     F  switch on orbital magnetization
   LCHIMAG   =     F  perturbation theory with respect to B field
   DQ        =  0.001000  dq finite difference perturbation B field
   LLRAUG    =     F  two centre corrections for induced B field
   LBONE     =     F  B-component reconstruction in AE one-centre
   LVGVCALC  =     T  calculate vGv susceptibility
   LVGVAPPL  =     F  apply vGv susceptibility instead of pGv for G=0

 Random number generation:
   RANDOM_GENERATOR = DEFAULT
   PCG_SEED         = not used


--------------------------------------------------------------------------------------------------------


 Static calculation
 charge density and potential will be updated during run
 spin polarized calculation
 Variant of blocked Davidson
 Davidson routine will perform the subspace rotation
 perform sub-space diagonalisation
    after iterative eigenvector-optimisation
 modified Broyden-mixing scheme, WC =      100.0
 initial mixing is a Kerker type mixing with AMIX =  0.6000 and BMIX =      1.0000
 Hartree-type preconditioning will be used
 using additional bands          108
 real space projection scheme for non local part
 use partial core corrections
 calculate Harris-corrections to forces 
   (improved forces if not selfconsistent)
 use gradient corrections 
 use of overlap-Matrix (Vanderbilt PP)
 Gauss-broadening in eV      SIGMA  =   0.01


--------------------------------------------------------------------------------------------------------


  energy-cutoff  :      700.00
  volume of cell :     5647.01
      direct lattice vectors                 reciprocal lattice vectors
    19.467599869  0.000000000  0.000000000     0.051367401  0.000000000  0.000000000
     0.000000000 19.467599869  0.000000000     0.000000000  0.051367401  0.000000000
     0.000000000  0.000000000 14.900251389     0.000000000  0.000000000  0.067112962

  length of vectors
    19.467599869 19.467599869 14.900251389     0.051367401  0.051367401  0.067112962


 
 k-points in units of 2pi/SCALE and weight: Automatic KPOINTS generated             
   0.00000000  0.00000000  0.00000000       0.125
   0.02568370  0.00000000  0.00000000       0.125
   0.00000000  0.02568370  0.00000000       0.125
   0.02568370  0.02568370  0.00000000       0.125
   0.00000000  0.00000000  0.03355648       0.125
   0.02568370  0.00000000  0.03355648       0.125
   0.00000000  0.02568370  0.03355648       0.125
   0.02568370  0.02568370  0.03355648       0.125
 
 k-points in reciprocal lattice and weights: Automatic KPOINTS generated             
   0.00000000  0.00000000  0.00000000       0.125
   0.50000000  0.00000000  0.00000000       0.125
   0.00000000  0.50000000  0.00000000       0.125
   0.50000000  0.50000000  0.00000000       0.125
   0.00000000  0.00000000  0.50000000       0.125
   0.50000000  0.00000000  0.50000000       0.125
   0.00000000  0.50000000  0.50000000       0.125
   0.50000000  0.50000000  0.50000000       0.125
 
 position of ions in fractional coordinates (direct lattice) 
   0.57836855  0.91666675  0.32663202
   0.57836837  0.08333334  0.54438680
   0.41170180  0.58333343  0.54438680
   0.99503511  0.33333334  0.00000000
   0.88050848  0.42033899  0.54438680
   0.66170174  0.33333334  0.43550944
   0.99503511  0.00000000  0.00000000
   0.09204677  0.97803116  0.00000024
   0.66170174  0.00000000  0.43550944
   0.32836846  0.66666669  0.00000000
   0.41170180  0.91666675  0.54438680
   0.95743161  0.80495429  0.54438680
   0.41170186  0.75000006  0.32663202
   0.16170174  0.33333334  0.21775474
   0.49589309  0.49726200  0.54438680
   0.74503505  0.75000006  0.32663202
   0.07836838  0.58333343  0.54438680
   0.99503511  0.00000000  0.43550944
   0.41170186  0.41666672  0.32663202
   0.49503511  0.66666669  0.21775474
   0.32836846  0.66666669  0.43550944
   0.91170174  0.41666672  0.10887737
   0.49503511  0.33333334  0.21775474
   0.91170174  0.41666672  0.54438680
   0.66170180  0.00000000  0.00000000
   0.07836838  0.25000000  0.54438680
   0.72666234  0.65110815  0.54438680
   0.01512372  0.59341580  0.00000024
   0.91170180  0.91666675  0.32663202
   0.32836843  0.16666667  0.21775474
   0.07836843  0.58333343  0.10887737
   0.91170180  0.58333343  0.32663202
   0.74503505  0.58333343  0.54438680
   0.89973909  0.01649269  0.00000024
   0.91170180  0.25000000  0.32663202
   0.74503505  0.25000000  0.54438680
   0.41170177  0.91666675  0.10887737
   0.24503510  0.91666675  0.32663202
   0.07836838  0.91666675  0.54438680
   0.32281604  0.13187726  0.00000024
   0.24503510  0.58333343  0.32663202
   0.16170174  0.00000000  0.21775474
   0.41170177  0.25000000  0.10887737
   0.28435451  0.93956953  0.00000024
   0.49503511  0.00000000  0.21775474
   0.74503517  0.91666675  0.10887737
   0.99503511  0.66666669  0.00000000
   0.16170174  0.66666669  0.21775474
   0.74503517  0.58333343  0.10887737
   0.57836855  0.58333343  0.32663202
   0.66170174  0.66666669  0.43550944
   0.74503517  0.25000000  0.10887737
   0.84204692  0.22803119  0.54438680
   0.41170180  0.25000000  0.54438680
   0.16170177  0.83333331  0.00000000
   0.99503505  0.83333331  0.21775474
   0.82836843  0.83333331  0.43550944
   0.16170177  0.50000000  0.00000000
   0.03435459  0.18956974  0.54438680
   0.64973927  0.26649278  0.54438680
   0.57836848  0.08333334  0.10887737
   0.99503505  0.16666667  0.21775474
   0.76512390  0.84341586  0.54438680
   0.49503511  0.83333331  0.00000000
   0.32836843  0.83333331  0.21775474
   0.07281613  0.38187745  0.54438680
   0.49503511  0.50000000  0.00000000
   0.47666219  0.90110803  0.00000024
   0.16170175  0.50000000  0.43550944
   0.49503511  0.16666667  0.00000000
   0.74503505  0.91666675  0.54438680
   0.16170175  0.16666667  0.43550944
   0.07836843  0.41666672  0.32663202
   0.66170186  0.83333331  0.21775474
   0.49503520  0.83333331  0.43550944
   0.82836855  0.50000000  0.00000000
   0.24589300  0.74726194  0.00000024
   0.49503520  0.50000000  0.43550944
   0.82836855  0.16666667  0.00000000
   0.66170186  0.16666667  0.21775474
   0.49503520  0.16666667  0.43550944
   0.24503510  0.75000006  0.10887737
   0.22666228  0.15110818  0.54438680
   0.91170174  0.75000006  0.54438680
   0.20743141  0.55495429  0.00000024
   0.82836855  0.83333331  0.00000000
   0.32836846  0.33333334  0.43550944
   0.74589288  0.24726193  0.00000024
   0.13050833  0.17033885  0.00000024
   0.91170174  0.08333334  0.54438680
   0.97666216  0.40110809  0.00000024
   0.32836846  0.33333334  0.00000000
   0.24503513  0.75000006  0.54438680
   0.57836848  0.41666672  0.10887737
   0.66170180  0.66666669  0.00000000
   0.24503513  0.41666672  0.54438680
   0.16170177  0.16666667  0.00000000
   0.41170186  0.08333334  0.32663202
   0.24503513  0.08333334  0.54438680
   0.91170174  0.75000006  0.10887737
   0.32836846  0.00000000  0.00000000
   0.57836837  0.75000006  0.54438680
   0.66170180  0.33333334  0.00000000
   0.74503505  0.41666672  0.32663202
   0.57836837  0.41666672  0.54438680
   0.91170174  0.08333334  0.10887737
   0.74503505  0.08333334  0.32663202
   0.82836843  0.66666669  0.21775474
   0.41170186  0.75000006  0.32663202
   0.88050836  0.92033887  0.72663206
   0.76512373  0.84341574  0.90887731
   0.16170175  0.83333331  0.43550944
   0.95743144  0.30495429  0.72663206
   0.84204680  0.22803116  0.90887731
   0.07836843  0.75000006  0.32663202
   0.11127762  0.07418505  0.72663206
   0.99589294  0.99726194  0.90887731
   0.14973922  0.76649284  0.54438680
   0.03435453  0.68956971  0.72663206
   0.91896987  0.61264658  0.90887731
   0.30358541  0.53572357  0.54438680
   0.18820073  0.45880044  0.72663206
   0.07281607  0.38187730  0.90887731
   0.45743155  0.30495435  0.54438680
   0.34204686  0.22803120  0.72663206
   0.22666220  0.15110807  0.90887731
   0.61127770  0.07418510  0.54438680
   0.49589300  0.99726194  0.72663206
   0.38050836  0.92033881  0.90887731
   0.38050851  0.92033905  0.54438680
   0.26512384  0.84341592  0.72663206
   0.14973918  0.76649272  0.90887731
   0.53435463  0.68956971  0.54438680
   0.41896993  0.61264658  0.72663206
   0.30358526  0.53572345  0.90887731
   0.68820071  0.45880049  0.54438680
   0.57281607  0.38187736  0.72663206
   0.45743138  0.30495423  0.90887731
   0.57836855  0.25000000  0.32663202
   0.72666228  0.15110804  0.72663206
   0.61127758  0.07418491  0.90887731
   0.82836843  0.16666667  0.43550944
   0.64973927  0.76649272  0.72663206
   0.53435457  0.68956959  0.90887731
   0.91897005  0.61264664  0.54438680
   0.80358541  0.53572351  0.72663206
   0.68820071  0.45880038  0.90887731
   0.01512384  0.59341586  0.63550943
   0.89973921  0.51649272  0.81775469
   0.78435451  0.43956962  0.00000024
   0.16896996  0.36264667  0.63550943
   0.05358529  0.28572354  0.81775469
   0.93820059  0.20880038  0.00000024
   0.32281613  0.13187741  0.63550943
   0.20743145  0.05495427  0.81775469
   0.82836843  0.00000000  0.21775474
   0.09204689  0.97803128  0.63550943
   0.97666222  0.90110815  0.81775469
   0.86127752  0.82418501  0.00000024
   0.24589306  0.74726206  0.63550943
   0.13050841  0.67033893  0.81775469
   0.07836843  0.91666675  0.10887737
   0.39973927  0.51649284  0.63550943
   0.28435460  0.43956968  0.81775469
   0.16896993  0.36264655  0.00000024
   0.55358541  0.28572354  0.63550943
   0.43820071  0.20880039  0.81775469
   0.41170177  0.58333343  0.10887737
   0.70743155  0.05495430  0.63550943
   0.59204686  0.97803116  0.81775469
   0.32836843  0.50000000  0.21775474
   0.47666240  0.90110820  0.63550943
   0.36127770  0.82418507  0.81775469
   0.66170186  0.50000000  0.21775474
   0.63050854  0.67033899  0.63550943
   0.51512384  0.59341580  0.81775469
   0.39973915  0.51649267  0.00000024
   0.78435469  0.43956971  0.63550943
   0.66896999  0.36264655  0.81775469
   0.55358529  0.28572342  0.00000024
   0.93820083  0.20880049  0.63550943
   0.82281613  0.13187735  0.81775469
   0.70743144  0.05495421  0.00000024
   0.86127788  0.82418513  0.63550943
   0.74589318  0.74726200  0.81775469
   0.63050842  0.67033881  0.00000024
   0.99503505  0.50000000  0.21775474
   0.91896993  0.11264660  0.72663206
   0.80358523  0.03572347  0.90887731
   0.11127766  0.57418507  0.54438680
   0.99589300  0.49726200  0.72663206
   0.88050830  0.42033884  0.90887731
   0.26512384  0.34341592  0.54438680
   0.14973919  0.26649278  0.72663206
   0.03435449  0.18956965  0.90887731
   0.41896999  0.11264660  0.54438680
   0.30358532  0.03572347  0.72663206
   0.18820064  0.95880032  0.90887731
[...]
     16.39263      4.43922      8.11150        33.066742      0.635881      4.847155
      8.01485      4.86690      8.11150       -55.231790    -73.787213     -3.140226
      3.14795     16.22300      0.00000        -4.024348     17.979252     14.718253
     19.37094     16.22300      3.24460         1.114740     -0.177181      0.040358
     16.12635     16.22300      6.48920        12.952489     -3.384678    -20.807322
      3.14795      9.73380      0.00000       -69.167779    -92.556521      4.364291
      0.66880      3.69047      8.11150       -63.081123    -83.780716     -3.136862
     12.64886      5.18797      8.11150       -40.441276     -5.429253      9.781182
     11.25945      1.62230      1.62230         5.623299     -1.638325     10.416596
     19.37094      3.24460      3.24460         1.286902      0.031554      0.066767
     14.89513     16.41928      8.11150        14.377641    -93.726625     13.538175
      9.63715     16.22300      0.00000        29.649842   -120.121918      2.937739
      6.39255     16.22300      3.24460        -0.268165     -0.274409      0.359978
      1.41756      7.43424      8.11150         1.890175      3.705075     -1.120918
      9.63715      9.73380      0.00000         1.731617      4.526183     96.530322
      9.27947     17.54241      0.00000       -20.987195    112.662502    -10.840329
      3.14795      9.73380      6.48920         0.623946     -0.919673     -2.025282
      9.63715      3.24460      0.00000       -16.241670     73.234685      2.885520
     14.50404     17.84530      8.11150       -24.770712    100.548521     -1.679214
      3.14795      3.24460      6.48920       -11.398988      4.136163    -19.907934
      1.52565      8.11150      4.86690        -1.486639      0.060474     -0.791032
     12.88175     16.22300      3.24460        -0.620895     -0.686219     -0.212068
      9.63715     16.22300      6.48920        -2.946405     -0.354321     -2.852382
     16.12635      9.73380      0.00000        43.778972     66.237769      2.272581
      4.78695     14.54740      0.00000        -1.465935     -0.376036    -72.670490
      9.63715      9.73380      6.48920        -0.898626      2.647004    -78.789470
     16.12635      3.24460      0.00000         0.072357    -24.982669     18.676984
     12.88175      3.24460      3.24460        -0.465651      0.922401      0.779667
      9.63715      3.24460      6.48920         2.671864      0.320502     -3.197775
      4.77025     14.60070      1.62230        -1.102244      2.695546     78.655253
      4.41257      2.94171      8.11150       -20.973839    112.680800     10.737239
     17.74864     14.60070      8.11150       -69.290280    -92.713415     -4.369848
      4.03819     10.80363      0.00000        75.532406     87.152538      3.587706
     16.12635     16.22300      0.00000      -470.522565    132.857717     15.718126
      6.39255      6.48920      6.48920         5.113147     -2.265831    -11.064667
     14.52074      4.81360      0.00000        -1.541302     -0.387618    -72.560560
      2.54068      3.31609      0.00000      -563.814317     66.078328      7.052322
     17.74864      1.62230      8.11150         2.248400     10.955563    -14.433005
     19.01327      7.80861      0.00000       -21.134243    112.692682    -10.883026
      6.39255      6.48920      0.00000      -473.271686    134.209840     16.102583
      4.77025     14.60070      8.11150         1.656792      4.616341    -96.479698
     11.25945      8.11150      1.62230        -0.686838     -6.113160     10.881336
     12.88175     12.97840      0.00000       582.854087    -67.177305     13.910197
      4.77025      8.11150      8.11150       -16.270190     73.266755     -2.808526
      3.14795      3.24460      0.00000       545.740421    -63.102449     16.103940
      8.01485      1.62230      4.86690        -0.580938     -0.664748      0.136498
      4.77025      1.62230      8.11150        29.580674   -120.065038     -2.899604
     17.74864     14.60070      1.62230         0.838800     -0.486521      1.525268
      6.39255      0.00000      0.00000        58.093360     84.640674      3.110081
     11.25944     14.60070      8.11150        43.979496     66.171256     -2.067690
     12.88175      6.48920      0.00000         0.629361     20.528897     14.504941
     14.50404      8.11150      4.86690         0.630570      0.758055     -0.705829
     11.25944      8.11150      8.11150         0.024043    -24.994831    -18.676292
     17.74864      1.62230      1.62230         0.962198     11.260780     16.360270
     14.50404      1.62230      4.86690         1.108922     -0.218234      0.021839
     16.12635     12.97840      3.24460        -0.014940      0.414637      1.441465
      8.01485     14.60070      4.86690         0.843857      0.060938      0.900763
     17.14138     17.91679     10.82700         0.109191      0.348339      0.208684
     14.89512     16.41928     13.54250       -16.090834      2.593353    -17.722621
      3.14795     16.22300      6.48920        -0.420730      1.946412     -3.399111
     18.63889      5.93673     10.82700         0.067885      0.058852      0.616910
     16.39263      4.43922     13.54250         5.998984     15.542033    -21.214365
      1.52565     14.60070      4.86690         0.159219      0.045865      0.569724
      2.16631      1.44420     10.82700        -0.229953     -0.110846      0.334296
     19.38765     19.41430     13.54250         1.524086     -3.887936   -104.928065
      2.91506     14.92178      8.11150       -19.112395      0.850236      1.364148
      0.66880     13.42427     10.82700        -0.165382     -0.021618      0.556040
     17.89014     11.92676     13.54250        -6.439890     -1.386243     -5.459626
      5.91008     10.42925      8.11150        -3.793298     -1.597346     -0.423530
      3.66382      8.93174     10.82700         0.051415      0.231841      0.687341
      1.41755      7.43423     13.54250         7.395750      1.432818     -6.227175
      8.90509      5.93673      8.11150        58.529504     70.642612      0.278801
      6.65883      4.43922     10.82700        -0.328319      0.142351      0.785309
      4.41257      2.94171     13.54250        19.688439     -4.360285    -23.166460
     11.90011      1.44421      8.11150       490.537927   -135.228791      0.056310
      9.65385     19.41430     10.82700         0.116852     -0.049413      0.494903
      7.40758     17.91679     13.54250         2.779073     -3.112440     -7.842129
      7.40759     17.91679      8.11150      -600.414819     72.165997     -2.092160
      5.16132     16.41928     10.82700         0.211359     -0.086236      0.423407
      2.91506     14.92177     13.54250        -4.719869    -12.565917    -15.596298
     10.40260     13.42427      8.11150       -46.482339    -64.581889      0.275591
      8.15634     11.92676     10.82700        -0.148618      0.067968      1.401755
      5.91008     10.42925     13.54250         2.184977     -0.809356     -2.142951
     13.39762      8.93174      8.11150         4.334940      2.166599     -0.484774
     11.15135      7.43424     10.82700         0.199285     -0.044057      1.351063
      8.90509      5.93673     13.54250        -0.915508      0.717752      0.080309
     11.25945      4.86690      4.86690        -0.033847      0.077290     -0.407249
     14.14637      2.94171     10.82700        -0.163236     -0.138131      0.439177
     11.90011      1.44420     13.54250        -2.626328      3.724387     -4.747397
     16.12635      3.24460      6.48920        -0.715286     -7.134786    -10.241761
     12.64886     14.92177     10.82700         0.431677     -0.201134      0.723435
     10.40260     13.42426     13.54250         0.663967     -0.571642      0.163129
     17.89014     11.92676      8.11150        -0.379991     -1.112820     -0.060387
     15.64388     10.42925     10.82700        -0.100567     -0.160998      0.657768
     13.39762      8.93174     13.54250        -0.129603      0.397536     -0.877355
      0.29442     11.55238      9.46925       -16.195574      2.680466     17.971124
     17.51576     10.05487     12.18475         0.383094     -0.208438     -0.734689
     15.26950      8.55737      0.00000       -46.406886    -64.561243     -0.363736
      3.28944      7.05986      9.46925        -1.045627     -2.744961      4.807713
      1.04318      5.56235     12.18475        -0.047440     -0.224458     -0.598357
     18.26451      4.06484      0.00000         4.282825      2.172172      0.465860
      6.28446      2.56734      9.46925         7.359952      1.538826      6.199554
      4.03819      1.06983     12.18475         0.103245      0.033040     -0.623288
     16.12635      0.00000      3.24460        -0.021991      0.078253      0.358071
      1.79193     19.03992      9.46925         3.471404     15.600509     18.596071
     19.01327     17.54241     12.18475        -0.140989     -0.119217     -0.484254
     16.76701     16.04490      0.00000       487.668548   -134.477652     -0.434784
      4.78695     14.54740      9.46925         1.230419     -3.758302     98.139547
      2.54069     13.04989     12.18475        -0.089487      0.109366     -0.320390
      1.52565     17.84530      1.62230        -0.778677     -7.077160     10.227328
      7.78196     10.05488      9.46925        -4.669854    -13.079812     16.788056
      5.53570      8.55737     12.18475        -0.171700     -0.070810     -0.600042
      3.28944      7.05986      0.00000        -0.341125     -1.085745     -0.023846
     10.77698      5.56235      9.46925        -1.841709      0.089076      2.075560
      8.53072      4.06484     12.18475         0.061829      0.243867     -0.725900
      8.01485     11.35610      1.62230        -0.349335      1.872863      3.350572
     13.77199      1.06983      9.46925        -0.857048      0.156555     -0.684543
     11.52573     19.03992     12.18475        -0.364079      0.139509     -0.782586
      6.39255      9.73380      3.24460         0.121308     -0.009809     -0.549549
      9.27947     17.54241      9.46925        14.398673     -3.011264     15.706688
      7.03321     16.04491     12.18475        -0.088380      0.074274     -0.516055
     12.88175      9.73380      3.24460        -0.085941     -0.240543      0.146194
     12.27449     13.04989      9.46925        -0.596333     -2.237146      5.291309
     10.02822     11.55238     12.18475         0.237641     -0.030726     -0.453804
      7.78196     10.05487      0.00000       -19.288085      0.870717     -1.486476
     15.26950      8.55737      9.46925        -2.700285      0.023301      2.316672
     13.02324      7.05986     12.18475        -0.145963      0.057527     -1.442498
     10.77698      5.56235      0.00000        -3.854923     -1.532343      0.440408
     18.26452      4.06484      9.46925        -0.243066      0.329753      3.766893
     16.01826      2.56734     12.18475         0.148735     -0.046206     -1.256532
     13.77199      1.06983      0.00000        58.517281     70.716865     -0.310538
     16.76701     16.04491      9.46925        -3.792031      3.922063      9.406610
     14.52075     14.54740     12.18475         0.122016     -0.022582     -0.437162
     12.27449     13.04989      0.00000      -599.940825     72.231214      2.125757
     19.37094      9.73380      3.24460         0.139311     -0.092375      0.657896
     17.89014      2.19296     10.82700        -0.029967     -0.198777      1.147243
     15.64388      0.69545     13.54250        -1.854716      0.134049     -2.107084
      2.16631     11.17801      8.11150       488.602875   -135.066836     -0.233080
     19.38765      9.68050     10.82700         0.034045      0.126264      0.415553
     17.14138      8.18299     13.54250        -0.526900     -2.399613     -5.333034
      5.16132      6.68548      8.11150        13.375598    -69.993004      8.268821
      2.91506      5.18797     10.82700         0.314479     -0.136139      0.846358
      0.66880      3.69047     13.54250        -2.671136      0.033174     -2.302637
      8.15634      2.19296      8.11150        -1.772456     -1.857833      1.262176
      5.91008      0.69545     10.82700        -0.029664     -0.258802      0.604404
      3.66381     18.66554     13.54250        -0.250234      0.306066     -3.770437
      3.66382     18.66554      8.11150         4.319185      1.699804     -0.447736
      1.41755     17.16803     10.82700         0.206312      0.015111      1.243805
     18.63889     15.67053     13.54250        -1.306504      0.249602      0.971660
      6.65883     14.17302      8.11150        16.811555      3.982617      8.024132
      4.41257     12.67551     10.82700        -0.296516      0.132242      0.427780
      2.16631     11.17800     13.54250        -3.803910      3.946443     -9.424192
     19.37095      6.48920      6.48920        -2.518729      0.305015     -2.501379
      7.40759      8.18299     10.82700         0.179098     -0.021199      0.375095
      5.16132      6.68548     13.54250       -16.517185      2.727688    -18.102391
     16.12635      9.73380      6.48920        -1.352661      1.771132     -1.917571
     10.40260      3.69047     10.82700        -0.245840      0.016465      0.609739
      8.15634      2.19296     13.54250        -1.081028     -2.779587     -4.803097
     11.25945     17.84530      4.86690         0.004755     -1.031082      2.079043
     13.39762     18.66554     10.82700         0.048807      0.420151      0.604633
     11.15135     17.16803     13.54250         7.432511      1.649109     -6.237816
     11.15136     17.16804      8.11150         1.807400      2.123642      0.372605
      8.90509     15.67053     10.82700         0.291219     -0.037954      0.507804
      6.65883     14.17302     13.54250         6.044021     15.677425    -21.218768
      6.39255      0.00000      6.48920         0.632938     -0.515160      0.462912
     11.90011     11.17800     10.82700        -0.096225      0.053729      0.476525
      9.65385      9.68049     13.54250         1.256564     -3.707332    -97.992891
     16.12635      6.48920      3.24460        -0.220686     -0.201954      0.209025
     14.89512      6.68548     10.82700         0.205195      0.017188      0.627092
     12.64886      5.18797     13.54250        -4.661326    -12.920912    -16.761080
     19.37095     12.97840      6.48920         1.092772     -0.165476     -1.095164
     16.39263     14.17302     10.82700        -0.275824      0.160238      0.861210
     14.14637     12.67551     13.54250        14.555443     -2.978429    -15.740810
      2.54069      3.31609      9.46925         2.676580     -2.999035      7.821875
      0.29442      1.81858     12.18475         0.235070      0.086972     -0.575618
      1.52565      4.86690      1.62230        -1.323773      1.886376      2.040538
      1.04318     15.29615      9.46925         2.140532     -0.784870      2.115072
     18.26452     13.79864     12.18475        -0.011577      0.387000     -0.597131
     16.01825     12.30113      0.00000         2.036044      2.180368     -0.498820
      4.03819     10.80363      9.46925        -1.168566      0.752194     -0.213744
      1.79193      9.30612     12.18475        -0.255910      0.152736     -0.830978
     11.25945     14.60070      1.62230         0.608559     -0.491166     -0.605041
      7.03321      6.31111      9.46925        -2.678527      3.765612      4.747598
      4.78695      4.81360     12.18475         0.002999      0.127018     -0.431021
      1.52565      1.62230      4.86690        -0.116882     -0.228185     -0.304668
     10.02822      1.81858      9.46925       -16.755301      2.771677     18.155743
      7.78196      0.32107     12.18475         0.413014     -0.122881     -0.819546
      4.77025      4.86690      4.86690         0.019537      0.013164     -0.551711
      5.53570     18.29117      9.46925         0.803080     -0.561769     -0.459195
      3.28944     16.79366     12.18475        -0.133400     -0.038922     -1.521400
     16.12635     12.97840      3.24460         0.180477     -0.803448     -2.247199
      8.53072     13.79865      9.46925        -0.236245      0.391715      0.792514
      6.28445     12.30114     12.18475         0.141374     -0.022202     -1.395686
      4.77025      8.11150      1.62230         0.989955     -0.151712      1.181027
     11.52573      9.30612      9.46925         5.970912     15.609542     21.240512
      9.27947      7.80861     12.18475        -0.273327      0.050159     -0.394930
      7.03321      6.31110      0.00000       489.431927   -135.274999      0.294560
     14.52075      4.81360      9.46925         1.526253     -3.910756    104.882330
     12.27449      3.31609     12.18475         0.191651     -0.079164     -0.387091
     10.02822      1.81858      0.00000        13.387307    -69.913122     -8.371511
     17.51576      0.32107      9.46925        -2.408230    -12.317446     13.241081
     15.26950     18.29117     12.18475        -0.274573     -0.023821     -0.597364
     13.02324     16.79366      0.00000        -1.833514     -1.752895     -1.255320
     13.02324     16.79366      9.46925        -6.422094     -1.481939      5.463878
     10.77698     15.29615     12.18475        -0.088383     -0.251820     -0.597959
      8.53072     13.79864      0.00000         4.328393      1.776677      0.825937
     16.01826     12.30114      9.46925         7.477097      1.530531      6.282216
     13.77199     10.80363     12.18475         0.197427     -0.029881     -0.523775
     11.52573      9.30612      0.00000        16.636967      3.684492     -8.184257
     19.01327      7.80861      9.46925        19.771783     -4.460331     23.190511
     16.76701      6.31111     12.18475        -0.071997      0.095517     -0.421243
      4.77025      1.62230      1.62230        -2.506685      0.249694      2.496007
 -----------------------------------------------------------------------------------
    total drift:                                0.121511      0.108135      0.798328


--------------------------------------------------------------------------------------------------------



  FREE ENERGIE OF THE ION-ELECTRON SYSTEM (eV)
  ---------------------------------------------------
  free  energy   TOTEN  =      1271.03088257 eV

  energy  without entropy=     1271.03747948  energy(sigma->0) =     1271.03418102
 


--------------------------------------------------------------------------------------------------------


    POTLOK:  cpu time      2.7860: real time      2.8062


--------------------------------------------------------------------------------------------------------


     LOOP+:  cpu time  20492.4349: real time  20684.3541
    4ORBIT:  cpu time      0.0000: real time      0.0000

 total amount of memory used by VASP MPI-rank0   721538. kBytes
=======================================================================

   base      :      30000. kBytes
   nonlr-proj:      24817. kBytes
   fftplans  :      31199. kBytes
   grid      :      23385. kBytes
   one-center:        275. kBytes
   wavefun   :     611862. kBytes
 
  
  
 General timing and accounting informations for this job:
 ========================================================
  
                  Total CPU time used (sec):    20733.086
                            User time (sec):    20071.684
                          System time (sec):      661.402
                         Elapsed time (sec):    20931.963
  
                   Maximum memory used (kb):     1024356.
                   Average memory used (kb):          N/A
  
                          Minor page faults:      1139675
                          Major page faults:         4593
                 Voluntary context switches:         8459
