<?xml version="1.0" encoding="ISO-8859-1"?>
<modeling>
 <generator>
  <i name="program" type="string">vasp </i>
  <i name="version" type="string">6.4.3  </i>
  <i name="subversion" type="string">19Mar24 (build Oct 22 2024 11:23:12) complex                          parallel </i>
  <i name="platform" type="string">LinuxIFC </i>
  <i name="date" type="string">2025 06 07 </i>
  <i name="time" type="string">19:48:42 </i>
 </generator>
 <incar>
  <i type="string" name="SYSTEM">Si and Ge interface calculation</i>
  <i type="int" name="ISTART">     0</i>
  <i type="logical" name="ADDGRID"> T  </i>
  <i type="int" name="ISPIN">     2</i>
  <i name="AMIX">      0.60000000</i>
  <i type="int" name="ICHARG">     2</i>
  <i type="int" name="NELM">   100</i>
  <i name="EDIFF">      0.00000010</i>
  <i name="ENCUT">    700.00000000</i>
  <i name="ENAUG">    900.00000000</i>
  <i type="int" name="NBANDS">   288</i>
  <i name="NUPDOWN">      1.00000000</i>
  <i name="NELECT">    480.00000000</i>
  <i type="string" name="LREAL">AUTO</i>
  <i type="int" name="ISMEAR">     0</i>
  <i name="SIGMA">      0.01000000</i>
  <i type="int" name="LMAXMIX">     6</i>
  <i type="logical" name="LWAVE"> F  </i>
  <i type="logical" name="LVTOT"> F  </i>
  <i type="logical" name="LVHAR"> T  </i>
  <i type="logical" name="LASPH"> T  </i>
  <i type="logical" name="LMIXTAU"> T  </i>
 </incar>
 <primitive_cell>
  <structure name="primitive_cell" >
   <crystal>
    <varray name="basis" >
     <v>      -6.65158987       0.00000000      -0.00000014 </v>
     <v>       0.00000000       0.00000000       7.99475002 </v>
     <v>      -0.00000048      14.87340641      -0.00000014 </v>
    </varray>
    <i name="volume">    790.93500566 </i>
    <varray name="rec_basis" >
     <v>      -0.15034000      -0.00000000       0.00000000 </v>
     <v>      -0.00000000       0.00000000       0.12508208 </v>
     <v>       0.00000000       0.06723409       0.00000000 </v>
    </varray>
   </crystal>
   <varray name="positions" >
    <v>       0.79187626       0.00000004       0.64162475 </v>
    <v>       0.95854306       0.15190085       0.40829128 </v>
    <v>       0.12521027       0.30380173       0.17495777 </v>
    <v>       0.45854300       0.00000005       0.30829140 </v>
    <v>       0.62520996       0.15190087       0.07495793 </v>
    <v>       0.79187691       0.30380174       0.84162450 </v>
    <v>       0.12520969       0.00000004       0.97495806 </v>
    <v>       0.29187644       0.15190086       0.74162459 </v>
    <v>       0.45854354       0.30380173       0.50829112 </v>
    <v>       0.62520951       0.07595031       0.77495813 </v>
    <v>       0.79187644       0.22785116       0.54162455 </v>
    <v>       0.95854342       0.37975200       0.30829120 </v>
    <v>       0.29187587       0.07595032       0.44162476 </v>
    <v>       0.45854345       0.22785119       0.20829126 </v>
    <v>       0.62520975       0.37975203       0.97495776 </v>
    <v>       0.95854268       0.07595031       0.10829154 </v>
    <v>       0.12521005       0.22785118       0.87495804 </v>
    <v>       0.29187667       0.37975202       0.64162457 </v>
    <v>       0.80919331       0.56517534       0.15119094 </v>
    <v>       0.59490782       0.66493599       0.42261958 </v>
    <v>       0.38062227       0.76469658       0.69404817 </v>
    <v>       0.38062191       0.56517535       0.29404807 </v>
    <v>       0.16633636       0.66493600       0.56547672 </v>
    <v>       0.95205078       0.76469653       0.83690536 </v>
    <v>       0.95205039       0.56517534       0.43690527 </v>
    <v>       0.73776495       0.66493600       0.70833385 </v>
    <v>       0.52347928       0.76469659       0.97976255 </v>
    <v>       0.52347898       0.56517534       0.57976240 </v>
    <v>       0.30919343       0.66493599       0.85119104 </v>
    <v>       0.09490782       0.76469658       0.12261975 </v>
    <v>       0.09490770       0.56517535       0.72261947 </v>
    <v>       0.88062209       0.66493600       0.99404812 </v>
    <v>       0.66633662       0.76469654       0.26547676 </v>
    <v>       0.66633630       0.56517535       0.86547661 </v>
    <v>       0.45205067       0.66493600       0.13690527 </v>
    <v>       0.23776495       0.76469659       0.40833396 </v>
    <v>       0.23776466       0.56517534       0.00833380 </v>
    <v>       0.02347904       0.66493599       0.27976245 </v>
    <v>       0.80919373       0.76469653       0.55119103 </v>
    <v>       0.88062197       0.61505556       0.89404792 </v>
    <v>       0.66633646       0.71481621       0.16547652 </v>
    <v>       0.45205076       0.81457680       0.43690521 </v>
    <v>       0.45205051       0.61505555       0.03690517 </v>
    <v>       0.23776495       0.71481615       0.30833381 </v>
    <v>       0.02347940       0.81457680       0.57976252 </v>
    <v>       0.02347903       0.61505555       0.17976232 </v>
    <v>       0.80919349       0.71481614       0.45119101 </v>
    <v>       0.59490812       0.81457679       0.72261959 </v>
    <v>       0.59490770       0.61505556       0.32261941 </v>
    <v>       0.38062215       0.71481620       0.59404802 </v>
    <v>       0.16633689       0.81457679       0.86547655 </v>
    <v>       0.16633636       0.61505555       0.46547645 </v>
    <v>       0.95205081       0.71481621       0.73690510 </v>
    <v>       0.73776528       0.81457680       0.00833368 </v>
    <v>       0.73776478       0.61505555       0.60833377 </v>
    <v>       0.52347928       0.71481620       0.87976235 </v>
    <v>       0.30919384       0.81457680       0.15119095 </v>
    <v>       0.30919337       0.61505555       0.75119084 </v>
    <v>       0.09490788       0.71481614       0.02261949 </v>
    <v>       0.88062239       0.81457679       0.29404801 </v>
   </varray>
  </structure>
  <varray name="primitive_index" >
   <v type="int" >        1 </v>
   <v type="int" >       20 </v>
   <v type="int" >        3 </v>
   <v type="int" >       22 </v>
   <v type="int" >        5 </v>
   <v type="int" >       24 </v>
   <v type="int" >       25 </v>
   <v type="int" >        8 </v>
   <v type="int" >       27 </v>
   <v type="int" >       28 </v>
   <v type="int" >       11 </v>
   <v type="int" >       30 </v>
   <v type="int" >       13 </v>
   <v type="int" >       32 </v>
   <v type="int" >       15 </v>
   <v type="int" >       16 </v>
   <v type="int" >       35 </v>
   <v type="int" >       18 </v>
   <v type="int" >       88 </v>
   <v type="int" >       89 </v>
   <v type="int" >       90 </v>
   <v type="int" >       40 </v>
   <v type="int" >       41 </v>
   <v type="int" >       42 </v>
   <v type="int" >       43 </v>
   <v type="int" >       44 </v>
   <v type="int" >       45 </v>
   <v type="int" >       46 </v>
   <v type="int" >       47 </v>
   <v type="int" >       48 </v>
   <v type="int" >       79 </v>
   <v type="int" >       80 </v>
   <v type="int" >       81 </v>
   <v type="int" >       82 </v>
   <v type="int" >       83 </v>
   <v type="int" >       84 </v>
   <v type="int" >       85 </v>
   <v type="int" >       86 </v>
   <v type="int" >       87 </v>
   <v type="int" >       58 </v>
   <v type="int" >       59 </v>
   <v type="int" >       60 </v>
   <v type="int" >       61 </v>
   <v type="int" >       62 </v>
   <v type="int" >       63 </v>
   <v type="int" >       64 </v>
   <v type="int" >       65 </v>
   <v type="int" >       66 </v>
   <v type="int" >      100 </v>
   <v type="int" >       68 </v>
   <v type="int" >       69 </v>
   <v type="int" >      103 </v>
   <v type="int" >      104 </v>
   <v type="int" >      105 </v>
   <v type="int" >      106 </v>
   <v type="int" >      107 </v>
   <v type="int" >      108 </v>
   <v type="int" >      109 </v>
   <v type="int" >      110 </v>
   <v type="int" >      111 </v>
  </varray>
 </primitive_cell>
 <kpoints>
  <generation param="Gamma">
   <v type="int" name="divisions">       3        2        4 </v>
   <v name="usershift">      0.00000000       0.00000000       0.00000000 </v>
   <v name="genvec1">      0.33333333      -0.00000000       0.00000000 </v>
   <v name="genvec2">      0.00000000       0.50000000       0.00000000 </v>
   <v name="genvec3">      0.00000000       0.00000000       0.25000000 </v>
   <v name="shift">      0.00000000       0.00000000       0.00000000 </v>
  </generation>
  <varray name="kpointlist" >
   <v>       0.00000000       0.00000000       0.00000000 </v>
   <v>       0.33333333       0.00000000       0.00000000 </v>
   <v>       0.00000000       0.50000000       0.00000000 </v>
   <v>       0.33333333       0.50000000       0.00000000 </v>
   <v>       0.00000000       0.00000000       0.25000000 </v>
   <v>       0.33333333       0.00000000       0.25000000 </v>
   <v>      -0.33333333      -0.00000000       0.25000000 </v>
   <v>       0.00000000       0.50000000       0.25000000 </v>
   <v>       0.33333333       0.50000000       0.25000000 </v>
   <v>      -0.33333333       0.50000000       0.25000000 </v>
   <v>       0.00000000       0.00000000       0.50000000 </v>
   <v>       0.33333333       0.00000000       0.50000000 </v>
   <v>       0.00000000       0.50000000       0.50000000 </v>
   <v>       0.33333333       0.50000000       0.50000000 </v>
  </varray>
  <varray name="weights" >
   <v>       0.04166667 </v>
   <v>       0.08333333 </v>
   <v>       0.04166667 </v>
   <v>       0.08333333 </v>
   <v>       0.08333333 </v>
   <v>       0.08333333 </v>
   <v>       0.08333333 </v>
   <v>       0.08333333 </v>
   <v>       0.08333333 </v>
   <v>       0.08333333 </v>
   <v>       0.04166667 </v>
   <v>       0.08333333 </v>
   <v>       0.04166667 </v>
   <v>       0.08333333 </v>
  </varray>
 </kpoints>
 <parameters>
  <separator name="general" >
   <i type="string" name="SYSTEM">Si and Ge interface calculation</i>
   <i type="logical" name="LCOMPAT"> F  </i>
  </separator>
  <separator name="electronic" >
   <i type="string" name="PREC">normal</i>
   <i name="ENMAX">    700.00000000</i>
   <i name="ENAUG">    900.00000000</i>
   <i name="EDIFF">      0.00000010</i>
   <i type="int" name="IALGO">    38</i>
   <i type="int" name="IWAVPR">    10</i>
   <i type="int" name="NBANDS">   288</i>
   <i type="int" name="NBANDSLOW">    -1</i>
   <i type="int" name="NBANDSHIGH">    -1</i>
   <i name="NELECT">    480.00000000</i>
   <i type="int" name="TURBO">     0</i>
   <i type="int" name="IRESTART">     0</i>
   <i type="int" name="NREBOOT">     0</i>
   <i type="int" name="NMIN">     0</i>
   <i name="EREF">      0.00000000</i>
   <separator name="electronic smearing" >
    <i type="int" name="ISMEAR">     0</i>
    <i name="SIGMA">      0.01000000</i>
    <i name="KSPACING">      0.50000000</i>
    <i type="logical" name="KGAMMA"> T  </i>
    <i type="logical" name="KBLOWUP"> F  </i>
   </separator>
   <separator name="electronic projectors" >
    <i type="logical" name="LREAL"> T  </i>
    <v name="ROPT">     -0.00050000     -0.00050000</v>
    <i type="int" name="LMAXPAW">  -100</i>
    <i type="int" name="LMAXMIX">     6</i>
    <i type="logical" name="NLSPLINE"> F  </i>
   </separator>
   <separator name="electronic startup" >
    <i type="int" name="ISTART">     0</i>
    <i type="int" name="ICHARG">     2</i>
    <i type="int" name="INIWAV">     1</i>
   </separator>
   <separator name="electronic spin" >
    <i type="int" name="ISPIN">     2</i>
    <i type="logical" name="LNONCOLLINEAR"> F  </i>
    <v name="MAGMOM">      0.00833333      0.00833333      0.00833333      0.00833333      0.00833333      0.00833333      0.00833333      0.00833333      0.00833333      0.00833333      0.00833333      0.00833333      0.00833333      0.00833333      0.00833333      0.00833333      0.00833333      0.00833333      0.00833333      0.00833333
      0.00833333      0.00833333      0.00833333      0.00833333      0.00833333      0.00833333      0.00833333      0.00833333      0.00833333      0.00833333      0.00833333      0.00833333      0.00833333      0.00833333      0.00833333      0.00833333      0.00833333      0.00833333      0.00833333      0.00833333
      0.00833333      0.00833333      0.00833333      0.00833333      0.00833333      0.00833333      0.00833333      0.00833333      0.00833333      0.00833333      0.00833333      0.00833333      0.00833333      0.00833333      0.00833333      0.00833333      0.00833333      0.00833333      0.00833333      0.00833333
      0.00833333      0.00833333      0.00833333      0.00833333      0.00833333      0.00833333      0.00833333      0.00833333      0.00833333      0.00833333      0.00833333      0.00833333      0.00833333      0.00833333      0.00833333      0.00833333      0.00833333      0.00833333      0.00833333      0.00833333
      0.00833333      0.00833333      0.00833333      0.00833333      0.00833333      0.00833333      0.00833333      0.00833333      0.00833333      0.00833333      0.00833333      0.00833333      0.00833333      0.00833333      0.00833333      0.00833333      0.00833333      0.00833333      0.00833333      0.00833333
      0.00833333      0.00833333      0.00833333      0.00833333      0.00833333      0.00833333      0.00833333      0.00833333      0.00833333      0.00833333      0.00833333      0.00833333      0.00833333      0.00833333      0.00833333      0.00833333      0.00833333      0.00833333      0.00833333      0.00833333
</v>
    <i name="NUPDOWN">      1.00000000</i>
    <i type="logical" name="LSORBIT"> F  </i>
    <v name="SAXIS">      0.00000000      0.00000000      1.00000000</v>
    <i type="logical" name="LSPIRAL"> F  </i>
    <v name="QSPIRAL">      0.00000000      0.00000000      0.00000000</v>
    <i type="logical" name="LZEROZ"> F  </i>
   </separator>
   <separator name="electronic exchange-correlation" >
    <i type="logical" name="LASPH"> T  </i>
   </separator>
   <separator name="electronic convergence" >
    <i type="int" name="NELM">   100</i>
    <i type="int" name="NELMDL">    -5</i>
    <i type="int" name="NELMIN">     2</i>
    <i name="ENINI">    700.00000000</i>
    <separator name="electronic convergence detail" >
     <i type="logical" name="LDIAG"> T  </i>
     <i type="logical" name="LSUBROT"> F  </i>
     <i name="WEIMIN">      0.00000000</i>
     <i name="EBREAK">      0.00000000</i>
     <i name="DEPER">      0.30000000</i>
     <i type="int" name="NRMM">     4</i>
     <i name="TIME">      0.40000000</i>
    </separator>
   </separator>
   <separator name="electronic mixer" >
    <i name="AMIX">      0.60000000</i>
    <i name="BMIX">      1.00000000</i>
    <i name="AMIN">      0.10000000</i>
    <i name="AMIX_MAG">      2.40000000</i>
    <i name="BMIX_MAG">      1.00000000</i>
    <separator name="electronic mixer details" >
     <i type="int" name="IMIX">     4</i>
     <i type="logical" name="MIXFIRST"> F  </i>
     <i type="int" name="MAXMIX">   -45</i>
     <i name="WC">    100.00000000</i>
     <i type="int" name="INIMIX">     1</i>
     <i type="int" name="MIXPRE">     1</i>
     <i type="int" name="MREMOVE">     5</i>
    </separator>
   </separator>
   <separator name="electronic dipolcorrection" >
    <i type="logical" name="LDIPOL"> F  </i>
    <i type="logical" name="LMONO"> F  </i>
    <i type="int" name="IDIPOL">     0</i>
    <i name="EPSILON">      1.00000000</i>
    <v name="DIPOL">   -100.00000000   -100.00000000   -100.00000000</v>
    <i name="EFIELD">      0.00000000</i>
    <i type="logical" name="LVACPOTAV"> F  </i>
   </separator>
  </separator>
  <separator name="grids" >
   <i type="int" name="NGX">    90</i>
   <i type="int" name="NGY">   108</i>
   <i type="int" name="NGZ">    54</i>
   <i type="int" name="NGXF">   180</i>
   <i type="int" name="NGYF">   216</i>
   <i type="int" name="NGZF">   108</i>
   <i type="logical" name="ADDGRID"> T  </i>
  </separator>
  <separator name="ionic" >
   <i type="int" name="NSW">     0</i>
   <i type="int" name="IBRION">    -1</i>
   <i type="int" name="MDALGO">     0</i>
   <i type="int" name="ISIF">     2</i>
   <i name="PSTRESS">      0.00000000</i>
   <i name="EDIFFG">      0.00000100</i>
   <i type="int" name="NFREE">     0</i>
   <i name="POTIM">      0.50000000</i>
   <i name="SMASS">     -3.00000000</i>
   <i name="SCALEE">      1.00000000</i>
  </separator>
  <separator name="ionic md" >
   <i name="TEBEG">      0.00010000</i>
   <i name="TEEND">      0.00010000</i>
   <i type="int" name="NBLOCK">     1</i>
   <i type="int" name="KBLOCK">     1</i>
   <i type="int" name="NPACO">   256</i>
   <i name="APACO">     10.00000000</i>
  </separator>
  <separator name="symmetry" >
   <i type="int" name="ISYM">     2</i>
   <i name="SYMPREC">      0.00001000</i>
  </separator>
  <separator name="dos" >
   <i type="int" name="LORBIT">     0</i>
   <v name="RWIGS">     -1.00000000     -1.00000000</v>
   <i type="int" name="NEDOS">   301</i>
   <i name="EMIN">     10.00000000</i>
   <i name="EMAX">    -10.00000000</i>
   <i name="EFERMI">      0.00000000</i>
  </separator>
  <separator name="writing" >
   <i type="int" name="NWRITE">     2</i>
   <i type="logical" name="LWAVE"> F  </i>
   <i type="logical" name="LDOWNSAMPLE"> F  </i>
   <i type="logical" name="LCHARG"> T  </i>
   <i type="logical" name="LPARD"> F  </i>
   <i type="logical" name="LVTOT"> F  </i>
   <i type="logical" name="LVHAR"> T  </i>
   <i type="logical" name="LELF"> F  </i>
   <i type="logical" name="LOPTICS"> F  </i>
   <v name="STM">      0.00000000      0.00000000      0.00000000      0.00000000      0.00000000      0.00000000      0.00000000</v>
  </separator>
  <separator name="performance" >
   <i type="int" name="NPAR">     4</i>
   <i type="int" name="NSIM">     4</i>
   <i type="int" name="NBLK">    -1</i>
   <i type="logical" name="LPLANE"> T  </i>
   <i type="logical" name="LSCALAPACK"> T  </i>
   <i type="logical" name="LSCAAWARE"> F  </i>
   <i type="logical" name="LSCALU"> F  </i>
   <i type="logical" name="LASYNC"> F  </i>
   <i type="logical" name="LORBITALREAL"> F  </i>
  </separator>
  <separator name="miscellaneous" >
   <i type="int" name="IDIOT">     3</i>
   <i type="int" name="PHON_NSTRUCT">    -1</i>
   <i type="logical" name="LMUSIC"> F  </i>
   <v name="POMASS">     28.08500000     12.01100000</v>
   <v name="DARWINR">      0.00000000      0.00000000</v>
   <v name="DARWINV">      1.00000000      1.00000000</v>
   <i type="logical" name="LCORR"> T  </i>
  </separator>
  <i type="logical" name="GGA_COMPAT"> T  </i>
  <i type="logical" name="LBERRY"> F  </i>
  <i type="int" name="ICORELEVEL">     0</i>
  <i type="logical" name="LDAU"> F  </i>
  <i type="int" name="I_CONSTRAINED_M">     0</i>
  <separator name="electronic exchange-correlation" >
   <i type="string" name="GGA    ">PE</i>
   <i type="string" name="XC_C">1</i>
   <i type="int" name="VOSKOWN">     0</i>
   <i type="logical" name="LHFCALC"> F  </i>
   <i type="string" name="PRECFOCK"></i>
   <i type="logical" name="LSYMGRAD"> F  </i>
   <i type="logical" name="LHFONE"> F  </i>
   <i type="logical" name="LRHFCALC"> F  </i>
   <i type="logical" name="LTHOMAS"> F  </i>
   <i type="logical" name="LMODELHF"> F  </i>
   <i type="logical" name="LFOCKACE"> F  </i>
   <i name="ENCUT4O">     -1.00000000</i>
   <i type="int" name="EXXOEP">     0</i>
   <i type="int" name="FOURORBIT">     0</i>
   <i name="AEXX">      0.00000000</i>
   <i name="HFALPHA">      0.00000000</i>
   <i name="MCALPHA">      0.00000000</i>
   <i name="ALDAX">      1.00000000</i>
   <i name="AGGAX">      1.00000000</i>
   <i name="AMGGAX">      1.00000000</i>
   <i name="ALDAC">      1.00000000</i>
   <i name="AGGAC">      1.00000000</i>
   <i name="AMGGAC">      1.00000000</i>
   <i type="int" name="NKREDX">     1</i>
   <i type="int" name="NKREDY">     1</i>
   <i type="int" name="NKREDZ">     1</i>
   <i type="logical" name="SHIFTRED"> F  </i>
   <i type="logical" name="ODDONLY"> F  </i>
   <i type="logical" name="EVENONLY"> F  </i>
   <i type="int" name="LMAXFOCK">     0</i>
   <i type="int" name="NMAXFOCKAE">     0</i>
   <i type="logical" name="LFOCKAEDFT"> F  </i>
   <i name="HFSCREEN">      0.00000000</i>
   <i name="HFSCREENC">      0.00000000</i>
   <i type="int" name="NBANDSGWLOW">     0</i>
  </separator>
  <separator name="vdW DFT" >
   <i type="logical" name="LUSE_VDW"> F  </i>
   <i type="int" name="IVDW_NL">    -1</i>
   <i type="logical" name="LSPIN_VDW"> F  </i>
   <i name="ZAB_VDW">     -0.84910000</i>
   <i name="GAMMA_VDW">      1.39626340</i>
   <i name="ALPHA_VDW">      0.00000000</i>
   <i name="PARAM1">      0.12340000</i>
   <i name="PARAM2">      1.00000000</i>
   <i name="BPARAM">      6.30000000</i>
   <i name="CPARAM">      0.00930000</i>
  </separator>
  <separator name="model GW" >
   <i type="int" name="MODEL_GW">     0</i>
   <i name="MODEL_EPS0">      7.90935006</i>
   <i name="MODEL_ALPHA">      1.00000000</i>
  </separator>
  <separator name="linear response parameters" >
   <i type="logical" name="LEPSILON"> F  </i>
   <i type="logical" name="LRPA"> F  </i>
   <i type="logical" name="LNABLA"> F  </i>
   <i type="logical" name="LVEL"> F  </i>
   <i name="CSHIFT">      0.10000000</i>
   <i name="OMEGAMAX">     -1.00000000</i>
   <i name="DEG_THRESHOLD">      0.00200000</i>
   <i name="RTIME">     -0.10000000</i>
   <i name="WPLASMAI">      0.00000000</i>
   <v name="DFIELD">      0.00000000      0.00000000      0.00000000</v>
   <v name="WPLASMA">      0.00000000      0.00000000      0.00000000      0.00000000      0.00000000      0.00000000      0.00000000      0.00000000      0.00000000</v>
  </separator>
  <separator name="orbital magnetization" >
   <i type="logical" name="NUCIND"> F  </i>
   <v name="MAGPOS">      0.00000000      0.00000000      0.00000000</v>
   <i type="logical" name="LNICSALL"> T  </i>
   <i type="logical" name="ORBITALMAG"> F  </i>
   <i type="logical" name="LMAGBLOCH"> F  </i>
   <i type="logical" name="LCHIMAG"> F  </i>
   <i type="logical" name="LGAUGE"> T  </i>
   <i type="int" name="MAGATOM">     0</i>
   <v name="MAGDIPOL">      0.00000000      0.00000000      0.00000000</v>
   <v name="AVECCONST">      0.00000000      0.00000000      0.00000000</v>
  </separator>
  <separator name="response functions" >
   <i type="logical" name="LALL_IN_ONE"> F  </i>
   <i type="int" name="IALL_IN_ONE">    -1</i>
   <i type="int" name="NBANDS_WAVE">    -1</i>
   <i type="logical" name="LFINITE_TEMPERATURE"> F  </i>
   <i type="logical" name="LADDER"> F  </i>
   <i type="logical" name="LRPAFORCE"> F  </i>
   <i type="logical" name="LFXC"> F  </i>
   <i type="logical" name="LHARTREE"> T  </i>
   <i type="int" name="IBSE">     0</i>
   <v type="int" name="KPOINT">    -1     0     0     0</v>
   <i type="logical" name="LTCTC"> F  </i>
   <i type="logical" name="LTCTE"> F  </i>
   <i type="logical" name="LTETE"> F  </i>
   <i type="logical" name="LTRIPLET"> F  </i>
   <i type="logical" name="LFXCEPS"> F  </i>
   <i type="logical" name="LFXHEG"> F  </i>
   <i type="int" name="NATURALO">     2</i>
   <i type="logical" name="LHOLEGF"> F  </i>
   <i type="logical" name="L2ORDER"> F  </i>
   <i type="logical" name="LDMP1"> F  </i>
   <i type="logical" name="LMP2LT"> F  </i>
   <i type="logical" name="LSMP2LT"> F  </i>
   <i type="logical" name="LGWLF"> F  </i>
   <i name="ENCUTGW">     -1.60000002</i>
   <i name="ENCUTGWSOFT">     -1.60000002</i>
   <i name="ENCUTLF">     -1.00000000</i>
   <i type="logical" name="ESF_SPLINES"> F  </i>
   <i name="ESF_CONV">      0.01000000</i>
   <i type="int" name="ESF_NINTER">    15</i>
   <i type="int" name="LMAXMP2">    -1</i>
   <i name="SCISSOR">      0.00000000</i>
   <i type="int" name="NOMEGA">     0</i>
   <i type="int" name="NOMEGAR">     0</i>
   <i type="int" name="NBANDSGW">    -1</i>
   <i type="int" name="NBANDSO">    -1</i>
   <i type="int" name="NBANDSV">    -1</i>
   <i type="int" name="NELMGW">     1</i>
   <i type="int" name="NELMHF">     1</i>
   <i type="int" name="DIM">     3</i>
   <i type="int" name="IESPILON">     4</i>
   <i type="int" name="ANTIRES">     0</i>
   <i name="OMEGAMAX">    -30.00000000</i>
   <i name="OMEGAMIN">    -30.00000000</i>
   <i name="OMEGATL">   -200.00000000</i>
   <i type="int" name="OMEGAGRID">     0</i>
   <i name="CSHIFT">     -0.10000000</i>
   <i type="logical" name="LSELFENERGY"> F  </i>
   <i type="logical" name="LSPECTRAL"> F  </i>
   <i type="logical" name="LSPECTRALGW"> F  </i>
   <i type="logical" name="LSINGLES"> F  </i>
   <i type="logical" name="LFERMIGW"> F  </i>
   <i type="logical" name="ODDONLYGW"> F  </i>
   <i type="logical" name="EVENONLYGW"> F  </i>
   <i type="int" name="NKREDLFX">     1</i>
   <i type="int" name="NKREDLFY">     1</i>
   <i type="int" name="NKREDLFZ">     1</i>
   <i type="int" name="MAXMEM">  2800</i>
   <i type="int" name="TELESCOPE">     0</i>
   <i type="int" name="NTAUPAR">    -1</i>
   <i type="int" name="NOMEGAPAR">    -1</i>
   <i name="DAMP_NEWTON">      0.80000001</i>
   <i name="LAMBDA">      1.00000000</i>
  </separator>
  <separator name="External order field" >
   <i name="OFIELD_KAPPA">      0.00000000</i>
   <v name="OFIELD_K">      0.00000000      0.00000000      0.00000000</v>
   <i name="OFIELD_Q6_NEAR">      0.00000000</i>
   <i name="OFIELD_Q6_FAR">      0.00000000</i>
   <i name="OFIELD_A">      0.00000000</i>
  </separator>
  <separator name="optional k-points parameters" >
   <i type="int" name="KPOINTS_OPT_MODE">     1</i>
   <i type="logical" name="LKPOINTS_OPT"> F  </i>
  </separator>
 </parameters>
 <atominfo>
  <atoms>     120 </atoms>
  <types>       2 </types>
  <array name="atoms" >
   <dimension dim="1">ion</dimension>
   <field type="string">element</field>
   <field type="int">atomtype</field>
   <set>
    <rc><c>Si</c><c>   1</c></rc>
    <rc><c>Si</c><c>   1</c></rc>
    <rc><c>Si</c><c>   1</c></rc>
    <rc><c>Si</c><c>   1</c></rc>
    <rc><c>Si</c><c>   1</c></rc>
    <rc><c>Si</c><c>   1</c></rc>
    <rc><c>Si</c><c>   1</c></rc>
    <rc><c>Si</c><c>   1</c></rc>
    <rc><c>Si</c><c>   1</c></rc>
    <rc><c>Si</c><c>   1</c></rc>
    <rc><c>Si</c><c>   1</c></rc>
    <rc><c>Si</c><c>   1</c></rc>
    <rc><c>Si</c><c>   1</c></rc>
    <rc><c>Si</c><c>   1</c></rc>
    <rc><c>Si</c><c>   1</c></rc>
    <rc><c>Si</c><c>   1</c></rc>
    <rc><c>Si</c><c>   1</c></rc>
    <rc><c>Si</c><c>   1</c></rc>
    <rc><c>Si</c><c>   1</c></rc>
    <rc><c>Si</c><c>   1</c></rc>
    <rc><c>Si</c><c>   1</c></rc>
    <rc><c>Si</c><c>   1</c></rc>
    <rc><c>Si</c><c>   1</c></rc>
    <rc><c>Si</c><c>   1</c></rc>
    <rc><c>Si</c><c>   1</c></rc>
    <rc><c>Si</c><c>   1</c></rc>
    <rc><c>Si</c><c>   1</c></rc>
    <rc><c>Si</c><c>   1</c></rc>
    <rc><c>Si</c><c>   1</c></rc>
    <rc><c>Si</c><c>   1</c></rc>
    <rc><c>Si</c><c>   1</c></rc>
    <rc><c>Si</c><c>   1</c></rc>
    <rc><c>Si</c><c>   1</c></rc>
    <rc><c>Si</c><c>   1</c></rc>
    <rc><c>Si</c><c>   1</c></rc>
    <rc><c>Si</c><c>   1</c></rc>
    <rc><c>C </c><c>   2</c></rc>
    <rc><c>C </c><c>   2</c></rc>
    <rc><c>C </c><c>   2</c></rc>
    <rc><c>C </c><c>   2</c></rc>
    <rc><c>C </c><c>   2</c></rc>
    <rc><c>C </c><c>   2</c></rc>
    <rc><c>C </c><c>   2</c></rc>
    <rc><c>C </c><c>   2</c></rc>
    <rc><c>C </c><c>   2</c></rc>
    <rc><c>C </c><c>   2</c></rc>
    <rc><c>C </c><c>   2</c></rc>
    <rc><c>C </c><c>   2</c></rc>
    <rc><c>C </c><c>   2</c></rc>
    <rc><c>C </c><c>   2</c></rc>
    <rc><c>C </c><c>   2</c></rc>
    <rc><c>C </c><c>   2</c></rc>
    <rc><c>C </c><c>   2</c></rc>
    <rc><c>C </c><c>   2</c></rc>
    <rc><c>C </c><c>   2</c></rc>
    <rc><c>C </c><c>   2</c></rc>
    <rc><c>C </c><c>   2</c></rc>
    <rc><c>C </c><c>   2</c></rc>
    <rc><c>C </c><c>   2</c></rc>
    <rc><c>C </c><c>   2</c></rc>
    <rc><c>C </c><c>   2</c></rc>
    <rc><c>C </c><c>   2</c></rc>
    <rc><c>C </c><c>   2</c></rc>
    <rc><c>C </c><c>   2</c></rc>
    <rc><c>C </c><c>   2</c></rc>
    <rc><c>C </c><c>   2</c></rc>
    <rc><c>C </c><c>   2</c></rc>
    <rc><c>C </c><c>   2</c></rc>
    <rc><c>C </c><c>   2</c></rc>
    <rc><c>C </c><c>   2</c></rc>
    <rc><c>C </c><c>   2</c></rc>
    <rc><c>C </c><c>   2</c></rc>
    <rc><c>C </c><c>   2</c></rc>
    <rc><c>C </c><c>   2</c></rc>
    <rc><c>C </c><c>   2</c></rc>
    <rc><c>C </c><c>   2</c></rc>
    <rc><c>C </c><c>   2</c></rc>
    <rc><c>C </c><c>   2</c></rc>
    <rc><c>C </c><c>   2</c></rc>
    <rc><c>C </c><c>   2</c></rc>
    <rc><c>C </c><c>   2</c></rc>
    <rc><c>C </c><c>   2</c></rc>
    <rc><c>C </c><c>   2</c></rc>
    <rc><c>C </c><c>   2</c></rc>
    <rc><c>C </c><c>   2</c></rc>
    <rc><c>C </c><c>   2</c></rc>
    <rc><c>C </c><c>   2</c></rc>
    <rc><c>C </c><c>   2</c></rc>
    <rc><c>C </c><c>   2</c></rc>
    <rc><c>C </c><c>   2</c></rc>
    <rc><c>C </c><c>   2</c></rc>
    <rc><c>C </c><c>   2</c></rc>
    <rc><c>C </c><c>   2</c></rc>
    <rc><c>C </c><c>   2</c></rc>
    <rc><c>C </c><c>   2</c></rc>
    <rc><c>C </c><c>   2</c></rc>
    <rc><c>C </c><c>   2</c></rc>
    <rc><c>C </c><c>   2</c></rc>
    <rc><c>C </c><c>   2</c></rc>
    <rc><c>C </c><c>   2</c></rc>
    <rc><c>C </c><c>   2</c></rc>
    <rc><c>C </c><c>   2</c></rc>
    <rc><c>C </c><c>   2</c></rc>
    <rc><c>C </c><c>   2</c></rc>
    <rc><c>C </c><c>   2</c></rc>
    <rc><c>C </c><c>   2</c></rc>
    <rc><c>C </c><c>   2</c></rc>
    <rc><c>C </c><c>   2</c></rc>
    <rc><c>C </c><c>   2</c></rc>
    <rc><c>C </c><c>   2</c></rc>
    <rc><c>C </c><c>   2</c></rc>
    <rc><c>C </c><c>   2</c></rc>
    <rc><c>C </c><c>   2</c></rc>
    <rc><c>C </c><c>   2</c></rc>
    <rc><c>C </c><c>   2</c></rc>
    <rc><c>C </c><c>   2</c></rc>
    <rc><c>C </c><c>   2</c></rc>
    <rc><c>C </c><c>   2</c></rc>
    <rc><c>C </c><c>   2</c></rc>
    <rc><c>C </c><c>   2</c></rc>
   </set>
  </array>
  <array name="atomtypes" >
   <dimension dim="1">type</dimension>
   <field type="int">atomspertype</field>
   <field type="string">element</field>
   <field>mass</field>
   <field>valence</field>
   <field type="string">pseudopotential</field>
   <set>
    <rc><c>  36</c><c>Si</c><c>     28.08500000</c><c>      4.00000000</c><c>  PAW_PBE Si 05Jan2001                  </c></rc>
    <rc><c>  84</c><c>C </c><c>     12.01100000</c><c>      4.00000000</c><c>  PAW_PBE C 08Apr2002                   </c></rc>
   </set>
  </array>
 </atominfo>
 <structure name="initialpos" >
  <crystal>
   <varray name="basis" >
    <v>      13.30317974       0.00000000       0.00000000 </v>
    <v>       6.65158939      14.87340641       0.00000000 </v>
    <v>       0.00000000       0.00000000       7.99475002 </v>
   </varray>
   <i name="volume">   1581.87001132 </i>
   <varray name="rec_basis" >
    <v>       0.07517000      -0.03361704       0.00000000 </v>
    <v>       0.00000000       0.06723409       0.00000000 </v>
    <v>       0.00000000       0.00000000       0.12508208 </v>
   </varray>
  </crystal>
  <varray name="positions" >
   <v>       0.28324950       0.64162475       0.00000005 </v>
   <v>       0.81658280       0.40829128       0.15190087 </v>
   <v>       0.34991598       0.17495777       0.30380175 </v>
   <v>       0.61658275       0.30829138       0.00000006 </v>
   <v>       0.14991605       0.07495793       0.15190087 </v>
   <v>       0.68324923       0.84162444       0.30380171 </v>
   <v>       0.94991612       0.97495806       0.00000004 </v>
   <v>       0.48324949       0.74162459       0.15190087 </v>
   <v>       0.01658267       0.50829112       0.30380171 </v>
   <v>       0.79991627       0.77495801       0.07595031 </v>
   <v>       0.33324951       0.54162455       0.22785117 </v>
   <v>       0.86658275       0.30829108       0.37975204 </v>
   <v>       0.13324969       0.44162476       0.07595033 </v>
   <v>       0.66658294       0.20829128       0.22785117 </v>
   <v>       0.19991624       0.97495776       0.37975204 </v>
   <v>       0.46658289       0.10829154       0.07595033 </v>
   <v>       0.99991614       0.87495804       0.22785117 </v>
   <v>       0.53324938       0.64162457       0.37975204 </v>
   <v>       0.78324956       0.64162475       0.00000000 </v>
   <v>       0.31658283       0.40829128       0.15190086 </v>
   <v>       0.84991604       0.17495778       0.30380175 </v>
   <v>       0.11658280       0.30829140       0.00000006 </v>
   <v>       0.64991605       0.07495795       0.15190090 </v>
   <v>       0.18324930       0.84162450       0.30380175 </v>
   <v>       0.44991612       0.97495806       0.00000006 </v>
   <v>       0.98324943       0.74162459       0.15190090 </v>
   <v>       0.51658267       0.50829112       0.30380175 </v>
   <v>       0.29991618       0.77495813       0.07595033 </v>
   <v>       0.83324945       0.54162467       0.22785120 </v>
   <v>       0.36658269       0.30829120       0.37975201 </v>
   <v>       0.63324940       0.44162473       0.07595035 </v>
   <v>       0.16658264       0.20829126       0.22785120 </v>
   <v>       0.69991595       0.97495782       0.37975198 </v>
   <v>       0.96658272       0.10829155       0.07595033 </v>
   <v>       0.49991596       0.87495804       0.22785120 </v>
   <v>       0.03324926       0.64162463       0.37975204 </v>
   <v>       0.01980794       0.15119094       0.56517535 </v>
   <v>       0.99123627       0.42261958       0.66493601 </v>
   <v>       0.96266472       0.69404817       0.76469654 </v>
   <v>       0.16266501       0.29404807       0.56517535 </v>
   <v>       0.13409346       0.56547672       0.66493601 </v>
   <v>       0.10552193       0.83690536       0.76469654 </v>
   <v>       0.30552217       0.43690527       0.56517535 </v>
   <v>       0.27695060       0.70833385       0.66493601 </v>
   <v>       0.24837908       0.97976255       0.76469660 </v>
   <v>       0.44837931       0.57976240       0.56517535 </v>
   <v>       0.41980776       0.85119104       0.66493601 </v>
   <v>       0.39123622       0.12261975       0.76469660 </v>
   <v>       0.59123641       0.72261953       0.56517535 </v>
   <v>       0.56266481       0.99404812       0.66493601 </v>
   <v>       0.53409326       0.26547676       0.76469660 </v>
   <v>       0.73409355       0.86547661       0.56517535 </v>
   <v>       0.70552200       0.13690527       0.66493601 </v>
   <v>       0.67695045       0.40833384       0.76469654 </v>
   <v>       0.87695074       0.00833392       0.56517535 </v>
   <v>       0.84837919       0.27976245       0.66493601 </v>
   <v>       0.81980753       0.55119103       0.76469660 </v>
   <v>       0.11266506       0.89404792       0.61505556 </v>
   <v>       0.08409351       0.16547652       0.71481621 </v>
   <v>       0.05552202       0.43690521       0.81457681 </v>
   <v>       0.25552216       0.03690517       0.61505556 </v>
   <v>       0.22695062       0.30833381       0.71481615 </v>
   <v>       0.19837904       0.57976252       0.81457681 </v>
   <v>       0.39837933       0.17976232       0.61505556 </v>
   <v>       0.36980775       0.45119101       0.71481615 </v>
   <v>       0.34123614       0.72261959       0.81457681 </v>
   <v>       0.54123640       0.32261938       0.61505556 </v>
   <v>       0.51266491       0.59404802       0.71481621 </v>
   <v>       0.48409328       0.86547655       0.81457681 </v>
   <v>       0.68409354       0.46547669       0.61505556 </v>
   <v>       0.65552199       0.73690528       0.71481621 </v>
   <v>       0.62695044       0.00833392       0.81457681 </v>
   <v>       0.82695067       0.60833377       0.61505556 </v>
   <v>       0.79837912       0.87976241       0.71481621 </v>
   <v>       0.76980764       0.15119107       0.81457681 </v>
   <v>       0.96980786       0.75119090       0.61505556 </v>
   <v>       0.94123638       0.02261961       0.71481621 </v>
   <v>       0.91266471       0.29404801       0.81457681 </v>
   <v>       0.09123641       0.72261947       0.56517535 </v>
   <v>       0.06266490       0.99404812       0.66493601 </v>
   <v>       0.03409331       0.26547676       0.76469654 </v>
   <v>       0.23409355       0.86547661       0.56517535 </v>
   <v>       0.20552203       0.13690527       0.66493601 </v>
   <v>       0.17695054       0.40833396       0.76469660 </v>
   <v>       0.37695077       0.00833380       0.56517535 </v>
   <v>       0.34837925       0.27976245       0.66493601 </v>
   <v>       0.31980762       0.55119103       0.76469654 </v>
   <v>       0.51980787       0.15119094       0.56517535 </v>
   <v>       0.49123630       0.42261958       0.66493601 </v>
   <v>       0.46266478       0.69404817       0.76469660 </v>
   <v>       0.66266501       0.29404801       0.56517535 </v>
   <v>       0.63409346       0.56547666       0.66493601 </v>
   <v>       0.60552192       0.83690530       0.76469660 </v>
   <v>       0.80552220       0.43690527       0.56517535 </v>
   <v>       0.77695060       0.70833385       0.66493601 </v>
   <v>       0.74837911       0.97976250       0.76469660 </v>
   <v>       0.94837934       0.57976234       0.56517535 </v>
   <v>       0.91980773       0.85119098       0.66493601 </v>
   <v>       0.89123619       0.12261963       0.76469660 </v>
   <v>       0.04123645       0.32261941       0.61505556 </v>
   <v>       0.01266491       0.59404802       0.71481615 </v>
   <v>       0.98409331       0.86547667       0.81457681 </v>
   <v>       0.18409360       0.46547645       0.61505556 </v>
   <v>       0.15552205       0.73690510       0.71481621 </v>
   <v>       0.12695052       0.00833368       0.81457681 </v>
   <v>       0.32695073       0.60833377       0.61505556 </v>
   <v>       0.29837918       0.87976235       0.71481621 </v>
   <v>       0.26980761       0.15119095       0.81457681 </v>
   <v>       0.46980789       0.75119084       0.61505556 </v>
   <v>       0.44123632       0.02261949       0.71481615 </v>
   <v>       0.41266480       0.29404801       0.81457681 </v>
   <v>       0.61266494       0.89404786       0.61505556 </v>
   <v>       0.58409345       0.16547652       0.71481615 </v>
   <v>       0.55552190       0.43690521       0.81457681 </v>
   <v>       0.75552207       0.03690517       0.61505556 </v>
   <v>       0.72695053       0.30833381       0.71481621 </v>
   <v>       0.69837898       0.57976228       0.81457681 </v>
   <v>       0.89837927       0.17976220       0.61505556 </v>
   <v>       0.86980766       0.45119077       0.71481615 </v>
   <v>       0.84123606       0.72261935       0.81457681 </v>
  </varray>
 </structure>
 <calculation>
  <scstep>
   <time name="dav">   27.38   27.61</time>
   <time name="total">   28.11   28.34</time>
   <energy>
    <i name="alphaZ">    615.38787345 </i>
    <i name="ewald">  -8865.48847776 </i>
    <i name="hartreedc">  -8283.84050876 </i>
    <i name="XCdc">    735.81309220 </i>
    <i name="pawpsdc">  12288.30765307 </i>
    <i name="pawaedc"> -11702.77953025 </i>
    <i name="eentropy">     -0.00067315 </i>
    <i name="bandstr">   1495.50573249 </i>
    <i name="atom">  16071.23009607 </i>
    <i name="e_fr_energy">   2354.13525737 </i>
    <i name="e_wo_entrp">   2354.13593052 </i>
    <i name="e_0_energy">   2354.13559395 </i>
   </energy>
  </scstep>
  <scstep>
   <time name="dav">   31.78   32.04</time>
   <time name="total">   31.79   32.04</time>
   <energy>
    <i name="e_fr_energy">   -512.10424440 </i>
    <i name="e_wo_entrp">   -512.10221667 </i>
    <i name="e_0_energy">   -512.10323054 </i>
   </energy>
  </scstep>
  <scstep>
   <time name="dav">   32.32   32.61</time>
   <time name="total">   32.32   32.61</time>
   <energy>
    <i name="e_fr_energy">   -821.12710246 </i>
    <i name="e_wo_entrp">   -821.12432655 </i>
    <i name="e_0_energy">   -821.12571451 </i>
   </energy>
  </scstep>
  <scstep>
   <time name="dav">   34.35   34.68</time>
   <time name="total">   34.35   34.68</time>
   <energy>
    <i name="e_fr_energy">   -837.93574983 </i>
    <i name="e_wo_entrp">   -837.93418494 </i>
    <i name="e_0_energy">   -837.93496738 </i>
   </energy>
  </scstep>
  <scstep>
   <time name="dav">   36.11   36.41</time>
   <time name="total">   37.27   37.59</time>
   <energy>
    <i name="e_fr_energy">   -838.83421050 </i>
    <i name="e_wo_entrp">   -838.83248059 </i>
    <i name="e_0_energy">   -838.83334555 </i>
   </energy>
  </scstep>
  <scstep>
   <time name="dav">   35.07   35.35</time>
   <time name="total">   36.94   37.24</time>
   <energy>
    <i name="e_fr_energy">   -830.68992359 </i>
    <i name="e_wo_entrp">   -830.68661388 </i>
    <i name="e_0_energy">   -830.68826874 </i>
   </energy>
  </scstep>
  <scstep>
   <time name="dav">   35.91   36.20</time>
   <time name="total">   37.77   38.07</time>
   <energy>
    <i name="e_fr_energy">   -792.95553133 </i>
    <i name="e_wo_entrp">   -792.95337564 </i>
    <i name="e_0_energy">   -792.95445348 </i>
   </energy>
  </scstep>
  <scstep>
   <time name="dav">   35.12   35.40</time>
   <time name="total">   37.04   37.33</time>
   <energy>
    <i name="e_fr_energy">   -797.81300453 </i>
    <i name="e_wo_entrp">   -797.81010031 </i>
    <i name="e_0_energy">   -797.81155242 </i>
   </energy>
  </scstep>
  <scstep>
   <time name="dav">   33.69   33.96</time>
   <time name="total">   35.56   35.83</time>
   <energy>
    <i name="e_fr_energy">   -794.46712658 </i>
    <i name="e_wo_entrp">   -794.46432716 </i>
    <i name="e_0_energy">   -794.46572687 </i>
   </energy>
  </scstep>
  <scstep>
   <time name="dav">   35.57   35.85</time>
   <time name="total">   37.44   37.73</time>
   <energy>
    <i name="e_fr_energy">   -794.29179737 </i>
    <i name="e_wo_entrp">   -794.28924179 </i>
    <i name="e_0_energy">   -794.29051958 </i>
   </energy>
  </scstep>
  <scstep>
   <time name="dav">   35.78   36.06</time>
   <time name="total">   37.64   37.93</time>
   <energy>
    <i name="e_fr_energy">   -794.12535907 </i>
    <i name="e_wo_entrp">   -794.12315032 </i>
    <i name="e_0_energy">   -794.12425470 </i>
   </energy>
  </scstep>
  <scstep>
   <time name="dav">   33.46   33.76</time>
   <time name="total">   35.33   35.64</time>
   <energy>
    <i name="e_fr_energy">   -794.12129376 </i>
    <i name="e_wo_entrp">   -794.11897178 </i>
    <i name="e_0_energy">   -794.12013277 </i>
   </energy>
  </scstep>
  <scstep>
   <time name="dav">   34.01   34.31</time>
   <time name="total">   35.87   36.19</time>
   <energy>
    <i name="e_fr_energy">   -794.12197187 </i>
    <i name="e_wo_entrp">   -794.11970515 </i>
    <i name="e_0_energy">   -794.12083851 </i>
   </energy>
  </scstep>
  <scstep>
   <time name="dav">   33.91   34.21</time>
   <time name="total">   35.80   36.11</time>
   <energy>
    <i name="e_fr_energy">   -794.11550929 </i>
    <i name="e_wo_entrp">   -794.11335278 </i>
    <i name="e_0_energy">   -794.11443104 </i>
   </energy>
  </scstep>
  <scstep>
   <time name="dav">   33.92   34.19</time>
   <time name="total">   35.79   36.07</time>
   <energy>
    <i name="e_fr_energy">   -794.11233521 </i>
    <i name="e_wo_entrp">   -794.11011715 </i>
    <i name="e_0_energy">   -794.11122618 </i>
   </energy>
  </scstep>
  <scstep>
   <time name="dav">   33.53   33.79</time>
   <time name="total">   35.40   35.67</time>
   <energy>
    <i name="e_fr_energy">   -794.11194333 </i>
    <i name="e_wo_entrp">   -794.10974605 </i>
    <i name="e_0_energy">   -794.11084469 </i>
   </energy>
  </scstep>
  <scstep>
   <time name="dav">   33.26   33.52</time>
   <time name="total">   35.13   35.40</time>
   <energy>
    <i name="e_fr_energy">   -794.11188537 </i>
    <i name="e_wo_entrp">   -794.10967382 </i>
    <i name="e_0_energy">   -794.11077960 </i>
   </energy>
  </scstep>
  <scstep>
   <time name="dav">   32.77   33.03</time>
   <time name="total">   34.64   34.91</time>
   <energy>
    <i name="e_fr_energy">   -794.11186541 </i>
    <i name="e_wo_entrp">   -794.10965273 </i>
    <i name="e_0_energy">   -794.11075907 </i>
   </energy>
  </scstep>
  <scstep>
   <time name="dav">   34.07   34.34</time>
   <time name="total">   35.93   36.21</time>
   <energy>
    <i name="e_fr_energy">   -794.11186823 </i>
    <i name="e_wo_entrp">   -794.10965749 </i>
    <i name="e_0_energy">   -794.11076286 </i>
   </energy>
  </scstep>
  <scstep>
   <time name="dav">   33.84   34.11</time>
   <time name="total">   35.71   35.98</time>
   <energy>
    <i name="e_fr_energy">   -794.11186796 </i>
    <i name="e_wo_entrp">   -794.10965345 </i>
    <i name="e_0_energy">   -794.11076071 </i>
   </energy>
  </scstep>
  <scstep>
   <time name="dav">   34.29   34.56</time>
   <time name="total">   36.16   36.44</time>
   <energy>
    <i name="e_fr_energy">   -794.11186787 </i>
    <i name="e_wo_entrp">   -794.10965284 </i>
    <i name="e_0_energy">   -794.11076036 </i>
   </energy>
  </scstep>
  <scstep>
   <time name="dav">   34.48   34.75</time>
   <time name="total">   36.34   36.62</time>
   <energy>
    <i name="e_fr_energy">   -794.11186788 </i>
    <i name="e_wo_entrp">   -794.10965364 </i>
    <i name="e_0_energy">   -794.11076076 </i>
   </energy>
  </scstep>
  <scstep>
   <time name="dav">   34.43   34.70</time>
   <time name="total">   36.31   36.59</time>
   <energy>
    <i name="e_fr_energy">   -794.11186803 </i>
    <i name="e_wo_entrp">   -794.10965351 </i>
    <i name="e_0_energy">   -794.11076077 </i>
   </energy>
  </scstep>
  <scstep>
   <time name="dav">   30.23   30.47</time>
   <time name="total">   30.94   31.18</time>
   <energy>
    <i name="alphaZ">    615.38787345 </i>
    <i name="ewald">  -8865.48847776 </i>
    <i name="hartreedc">  -8848.94573503 </i>
    <i name="XCdc">    768.92721328 </i>
    <i name="pawpsdc">  33482.38407355 </i>
    <i name="pawaedc"> -32902.84593169 </i>
    <i name="eentropy">     -0.00221498 </i>
    <i name="bandstr">  -1114.75876499 </i>
    <i name="atom">  16071.23009607 </i>
    <i name="e_fr_energy">   -794.11186810 </i>
    <i name="e_wo_entrp">   -794.10965312 </i>
    <i name="e_0_energy">   -794.11076061 </i>
   </energy>
  </scstep>
  <structure>
   <crystal>
    <varray name="basis" >
     <v>      13.30317974       0.00000000       0.00000000 </v>
     <v>       6.65158939      14.87340641       0.00000000 </v>
     <v>       0.00000000       0.00000000       7.99475002 </v>
    </varray>
    <i name="volume">   1581.87001132 </i>
    <varray name="rec_basis" >
     <v>       0.07517000      -0.03361704       0.00000000 </v>
     <v>       0.00000000       0.06723409       0.00000000 </v>
     <v>       0.00000000       0.00000000       0.12508208 </v>
    </varray>
   </crystal>
   <varray name="positions" >
    <v>       0.28324950       0.64162475       0.00000005 </v>
    <v>       0.81658280       0.40829128       0.15190087 </v>
    <v>       0.34991598       0.17495777       0.30380175 </v>
    <v>       0.61658275       0.30829138       0.00000006 </v>
    <v>       0.14991605       0.07495793       0.15190087 </v>
    <v>       0.68324923       0.84162444       0.30380171 </v>
    <v>       0.94991612       0.97495806       0.00000004 </v>
    <v>       0.48324949       0.74162459       0.15190087 </v>
    <v>       0.01658267       0.50829112       0.30380171 </v>
    <v>       0.79991627       0.77495801       0.07595031 </v>
    <v>       0.33324951       0.54162455       0.22785117 </v>
    <v>       0.86658275       0.30829108       0.37975204 </v>
    <v>       0.13324969       0.44162476       0.07595033 </v>
    <v>       0.66658294       0.20829128       0.22785117 </v>
    <v>       0.19991624       0.97495776       0.37975204 </v>
    <v>       0.46658289       0.10829154       0.07595033 </v>
    <v>       0.99991614       0.87495804       0.22785117 </v>
    <v>       0.53324938       0.64162457       0.37975204 </v>
    <v>       0.78324956       0.64162475       0.00000000 </v>
    <v>       0.31658283       0.40829128       0.15190086 </v>
    <v>       0.84991604       0.17495778       0.30380175 </v>
    <v>       0.11658280       0.30829140       0.00000006 </v>
    <v>       0.64991605       0.07495795       0.15190090 </v>
    <v>       0.18324930       0.84162450       0.30380175 </v>
    <v>       0.44991612       0.97495806       0.00000006 </v>
    <v>       0.98324943       0.74162459       0.15190090 </v>
    <v>       0.51658267       0.50829112       0.30380175 </v>
    <v>       0.29991618       0.77495813       0.07595033 </v>
    <v>       0.83324945       0.54162467       0.22785120 </v>
    <v>       0.36658269       0.30829120       0.37975201 </v>
    <v>       0.63324940       0.44162473       0.07595035 </v>
    <v>       0.16658264       0.20829126       0.22785120 </v>
    <v>       0.69991595       0.97495782       0.37975198 </v>
    <v>       0.96658272       0.10829155       0.07595033 </v>
    <v>       0.49991596       0.87495804       0.22785120 </v>
    <v>       0.03324926       0.64162463       0.37975204 </v>
    <v>       0.01980794       0.15119094       0.56517535 </v>
    <v>       0.99123627       0.42261958       0.66493601 </v>
    <v>       0.96266472       0.69404817       0.76469654 </v>
    <v>       0.16266501       0.29404807       0.56517535 </v>
    <v>       0.13409346       0.56547672       0.66493601 </v>
    <v>       0.10552193       0.83690536       0.76469654 </v>
    <v>       0.30552217       0.43690527       0.56517535 </v>
    <v>       0.27695060       0.70833385       0.66493601 </v>
    <v>       0.24837908       0.97976255       0.76469660 </v>
    <v>       0.44837931       0.57976240       0.56517535 </v>
    <v>       0.41980776       0.85119104       0.66493601 </v>
    <v>       0.39123622       0.12261975       0.76469660 </v>
    <v>       0.59123641       0.72261953       0.56517535 </v>
    <v>       0.56266481       0.99404812       0.66493601 </v>
    <v>       0.53409326       0.26547676       0.76469660 </v>
    <v>       0.73409355       0.86547661       0.56517535 </v>
    <v>       0.70552200       0.13690527       0.66493601 </v>
    <v>       0.67695045       0.40833384       0.76469654 </v>
    <v>       0.87695074       0.00833392       0.56517535 </v>
    <v>       0.84837919       0.27976245       0.66493601 </v>
    <v>       0.81980753       0.55119103       0.76469660 </v>
    <v>       0.11266506       0.89404792       0.61505556 </v>
    <v>       0.08409351       0.16547652       0.71481621 </v>
    <v>       0.05552202       0.43690521       0.81457681 </v>
    <v>       0.25552216       0.03690517       0.61505556 </v>
    <v>       0.22695062       0.30833381       0.71481615 </v>
    <v>       0.19837904       0.57976252       0.81457681 </v>
    <v>       0.39837933       0.17976232       0.61505556 </v>
    <v>       0.36980775       0.45119101       0.71481615 </v>
    <v>       0.34123614       0.72261959       0.81457681 </v>
    <v>       0.54123640       0.32261938       0.61505556 </v>
    <v>       0.51266491       0.59404802       0.71481621 </v>
    <v>       0.48409328       0.86547655       0.81457681 </v>
    <v>       0.68409354       0.46547669       0.61505556 </v>
    <v>       0.65552199       0.73690528       0.71481621 </v>
    <v>       0.62695044       0.00833392       0.81457681 </v>
    <v>       0.82695067       0.60833377       0.61505556 </v>
    <v>       0.79837912       0.87976241       0.71481621 </v>
    <v>       0.76980764       0.15119107       0.81457681 </v>
    <v>       0.96980786       0.75119090       0.61505556 </v>
    <v>       0.94123638       0.02261961       0.71481621 </v>
    <v>       0.91266471       0.29404801       0.81457681 </v>
    <v>       0.09123641       0.72261947       0.56517535 </v>
    <v>       0.06266490       0.99404812       0.66493601 </v>
    <v>       0.03409331       0.26547676       0.76469654 </v>
    <v>       0.23409355       0.86547661       0.56517535 </v>
    <v>       0.20552203       0.13690527       0.66493601 </v>
    <v>       0.17695054       0.40833396       0.76469660 </v>
    <v>       0.37695077       0.00833380       0.56517535 </v>
    <v>       0.34837925       0.27976245       0.66493601 </v>
    <v>       0.31980762       0.55119103       0.76469654 </v>
    <v>       0.51980787       0.15119094       0.56517535 </v>
    <v>       0.49123630       0.42261958       0.66493601 </v>
    <v>       0.46266478       0.69404817       0.76469660 </v>
    <v>       0.66266501       0.29404801       0.56517535 </v>
    <v>       0.63409346       0.56547666       0.66493601 </v>
    <v>       0.60552192       0.83690530       0.76469660 </v>
    <v>       0.80552220       0.43690527       0.56517535 </v>
    <v>       0.77695060       0.70833385       0.66493601 </v>
    <v>       0.74837911       0.97976250       0.76469660 </v>
    <v>       0.94837934       0.57976234       0.56517535 </v>
    <v>       0.91980773       0.85119098       0.66493601 </v>
    <v>       0.89123619       0.12261963       0.76469660 </v>
    <v>       0.04123645       0.32261941       0.61505556 </v>
    <v>       0.01266491       0.59404802       0.71481615 </v>
    <v>       0.98409331       0.86547667       0.81457681 </v>
    <v>       0.18409360       0.46547645       0.61505556 </v>
    <v>       0.15552205       0.73690510       0.71481621 </v>
    <v>       0.12695052       0.00833368       0.81457681 </v>
    <v>       0.32695073       0.60833377       0.61505556 </v>
    <v>       0.29837918       0.87976235       0.71481621 </v>
    <v>       0.26980761       0.15119095       0.81457681 </v>
    <v>       0.46980789       0.75119084       0.61505556 </v>
    <v>       0.44123632       0.02261949       0.71481615 </v>
    <v>       0.41266480       0.29404801       0.81457681 </v>
    <v>       0.61266494       0.89404786       0.61505556 </v>
    <v>       0.58409345       0.16547652       0.71481615 </v>
    <v>       0.55552190       0.43690521       0.81457681 </v>
    <v>       0.75552207       0.03690517       0.61505556 </v>
    <v>       0.72695053       0.30833381       0.71481621 </v>
    <v>       0.69837898       0.57976228       0.81457681 </v>
    <v>       0.89837927       0.17976220       0.61505556 </v>
    <v>       0.86980766       0.45119077       0.71481615 </v>
    <v>       0.84123606       0.72261935       0.81457681 </v>
   </varray>
  </structure>
  <varray name="forces" >
   <v>      -0.64181859      -1.00192129      -1.41440055 </v>
   <v>       0.57856742       0.19175387      -0.26368208 </v>
   <v>      -0.29382596      -0.14200054       1.12006946 </v>
   <v>      -0.44675182      -0.81513059      -1.86423299 </v>
   <v>       0.31991807       0.31896146      -0.04507815 </v>
   <v>      -0.05815059       0.33197646       1.06345640 </v>
   <v>      -0.83369937      -1.56299621      -1.51678210 </v>
   <v>       0.24600787       0.48453225      -0.07207912 </v>
   <v>       0.01392337       0.38097516       1.37433846 </v>
   <v>       0.09122598      -0.55457964      -1.63992206 </v>
   <v>      -0.36783565      -0.44336421       0.07385255 </v>
   <v>       0.98997055       1.34082211       1.56914739 </v>
   <v>      -0.11429758      -0.19441285      -1.28820961 </v>
   <v>      -0.22458855      -0.30049115       0.19072600 </v>
   <v>       0.31272047       0.60658963       1.52427382 </v>
   <v>       0.21260533       0.14368278      -1.02531251 </v>
   <v>      -0.53288086      -0.38358982       0.13885719 </v>
   <v>       0.37185580       0.74178497       1.40636682 </v>
   <v>      -0.64181859      -1.00192129      -1.41440055 </v>
   <v>       0.57856742       0.19175387      -0.26368208 </v>
   <v>      -0.29382596      -0.14200054       1.12006946 </v>
   <v>      -0.44675182      -0.81513059      -1.86423299 </v>
   <v>       0.31991807       0.31896146      -0.04507815 </v>
   <v>      -0.05815059       0.33197646       1.06345640 </v>
   <v>      -0.83369937      -1.56299621      -1.51678210 </v>
   <v>       0.24600787       0.48453225      -0.07207912 </v>
   <v>       0.01392337       0.38097516       1.37433846 </v>
   <v>       0.09122598      -0.55457964      -1.63992206 </v>
   <v>      -0.36783565      -0.44336421       0.07385255 </v>
   <v>       0.98997055       1.34082211       1.56914739 </v>
   <v>      -0.11429758      -0.19441285      -1.28820961 </v>
   <v>      -0.22458855      -0.30049115       0.19072600 </v>
   <v>       0.31272047       0.60658963       1.52427382 </v>
   <v>       0.21260533       0.14368278      -1.02531251 </v>
   <v>      -0.53288086      -0.38358982       0.13885719 </v>
   <v>       0.37185580       0.74178497       1.40636682 </v>
   <v>      -0.88370292       0.33286606       3.20786583 </v>
   <v>      -2.47163709      -0.98734060       4.06220949 </v>
   <v>      -3.28052032      -0.09190264      -1.83099817 </v>
   <v>      -1.86678454       0.31533245       2.97561336 </v>
   <v>      -2.69264928      -0.74497759       4.04568590 </v>
   <v>      -3.73898976      -0.18006094      -2.42094484 </v>
   <v>      -1.70372367      -0.07322009       2.21672994 </v>
   <v>      -2.47062469      -0.72156449       3.81589993 </v>
   <v>      -3.67808828      -0.18922343      -1.02834710 </v>
   <v>      -0.78122846       0.69330965       1.65049727 </v>
   <v>      -2.60690736      -0.36138737       4.42712020 </v>
   <v>      -3.29588204       0.26648487      -0.88162263 </v>
   <v>      -1.98649126       0.01257185       1.77522761 </v>
   <v>      -1.78696238      -0.49666106       3.41152369 </v>
   <v>      -2.83908263       0.42269917       0.01185056 </v>
   <v>      -1.52525956       0.77278839       0.88389705 </v>
   <v>      -1.50209439      -0.37069123       4.61281070 </v>
   <v>      -3.09694122       0.22348077      -2.65242658 </v>
   <v>      -1.09262639       0.26953267       2.74716035 </v>
   <v>      -1.48459420      -0.98624101       3.32072524 </v>
   <v>      -3.06411349       0.29389655      -1.35299689 </v>
   <v>       2.96390014      -0.00793810       2.92114987 </v>
   <v>       1.51009484       0.42161686      -4.56345310 </v>
   <v>       1.62470052      -0.50106593      -1.64720549 </v>
   <v>       3.04914875      -0.65817791       0.37909923 </v>
   <v>       1.50153651       0.73250755      -3.56332949 </v>
   <v>       1.75100409      -0.17379410      -1.96426792 </v>
   <v>       3.11760640      -0.59086961       1.23580226 </v>
   <v>       2.29976700       0.36253244      -4.41598569 </v>
   <v>       0.87059037      -0.35968852      -1.19097610 </v>
   <v>       3.58860015       0.18612518       0.92081677 </v>
   <v>       2.38013361       0.48652458      -3.46187905 </v>
   <v>       1.93710005       0.53370320      -1.77540807 </v>
   <v>       3.91573865       0.08827844       2.12506027 </v>
   <v>       2.79071555       0.66523048      -4.25761439 </v>
   <v>       1.59286833      -0.46250478      -3.06926366 </v>
   <v>       3.60052600       0.08470016       1.14453951 </v>
   <v>       2.77495801       0.92966821      -3.84408415 </v>
   <v>       0.80136142      -0.10806941      -3.20626651 </v>
   <v>       3.35040840      -0.19101613       2.20756913 </v>
   <v>       1.69508361       1.03335073      -3.62362546 </v>
   <v>       1.11011563      -0.01339773      -2.67954777 </v>
   <v>      -1.98649126       0.01257185       1.77522761 </v>
   <v>      -1.78696238      -0.49666106       3.41152369 </v>
   <v>      -2.83908263       0.42269917       0.01185056 </v>
   <v>      -1.52525956       0.77278839       0.88389705 </v>
   <v>      -1.50209439      -0.37069123       4.61281070 </v>
   <v>      -3.09694122       0.22348077      -2.65242658 </v>
   <v>      -1.09262639       0.26953267       2.74716035 </v>
   <v>      -1.48459420      -0.98624101       3.32072524 </v>
   <v>      -3.06411349       0.29389655      -1.35299689 </v>
   <v>      -0.88370292       0.33286606       3.20786583 </v>
   <v>      -2.47163709      -0.98734060       4.06220949 </v>
   <v>      -3.28052032      -0.09190264      -1.83099817 </v>
   <v>      -1.86678454       0.31533245       2.97561336 </v>
   <v>      -2.69264928      -0.74497759       4.04568590 </v>
   <v>      -3.73898976      -0.18006094      -2.42094484 </v>
   <v>      -1.70372367      -0.07322009       2.21672994 </v>
   <v>      -2.47062469      -0.72156449       3.81589993 </v>
   <v>      -3.67808828      -0.18922343      -1.02834710 </v>
   <v>      -0.78122846       0.69330965       1.65049727 </v>
   <v>      -2.60690736      -0.36138737       4.42712020 </v>
   <v>      -3.29588204       0.26648487      -0.88162263 </v>
   <v>       3.58860015       0.18612518       0.92081677 </v>
   <v>       2.38013361       0.48652458      -3.46187905 </v>
   <v>       1.93710005       0.53370320      -1.77540807 </v>
   <v>       3.91573865       0.08827844       2.12506027 </v>
   <v>       2.79071555       0.66523048      -4.25761439 </v>
   <v>       1.59286833      -0.46250478      -3.06926366 </v>
   <v>       3.60052600       0.08470016       1.14453951 </v>
   <v>       2.77495801       0.92966821      -3.84408415 </v>
   <v>       0.80136142      -0.10806941      -3.20626651 </v>
   <v>       3.35040840      -0.19101613       2.20756913 </v>
   <v>       1.69508361       1.03335073      -3.62362546 </v>
   <v>       1.11011563      -0.01339773      -2.67954777 </v>
   <v>       2.96390014      -0.00793810       2.92114987 </v>
   <v>       1.51009484       0.42161686      -4.56345310 </v>
   <v>       1.62470052      -0.50106593      -1.64720549 </v>
   <v>       3.04914875      -0.65817791       0.37909923 </v>
   <v>       1.50153651       0.73250755      -3.56332949 </v>
   <v>       1.75100409      -0.17379410      -1.96426792 </v>
   <v>       3.11760640      -0.59086961       1.23580226 </v>
   <v>       2.29976700       0.36253244      -4.41598569 </v>
   <v>       0.87059037      -0.35968852      -1.19097610 </v>
  </varray>
  <varray name="stress" >
   <v>     -96.65830921     -13.34463932     -30.84050237 </v>
   <v>     -13.34453160     -85.76665924     -40.66734958 </v>
   <v>     -30.84054397     -40.66731773    -235.22509597 </v>
  </varray>
  <energy>
   <i name="e_fr_energy">   -794.11186810 </i>
   <i name="e_wo_entrp">   -794.10965312 </i>
   <i name="e_0_energy">   -794.11076061 </i>
  </energy>
  <time name="totalsc">  878.93  886.29</time>
  <eigenvalues>
   <array>
    <dimension dim="1">band</dimension>
    <dimension dim="2">kpoint</dimension>
    <dimension dim="3">spin</dimension>
    <field>eigene</field>
    <field>occ</field>
    <set>
     <set comment="spin 1">
      <set comment="kpoint 1">
       <r>  -13.8157    1.0000 </r>
       <r>  -13.3691    1.0000 </r>
       <r>  -13.3573    1.0000 </r>
       <r>  -13.1534    1.0000 </r>
       <r>  -13.1182    1.0000 </r>
       <r>  -13.1057    1.0000 </r>
       <r>  -13.0726    1.0000 </r>
       <r>  -12.6182    1.0000 </r>
       <r>  -12.3153    1.0000 </r>
       <r>  -12.2860    1.0000 </r>
       <r>  -12.1730    1.0000 </r>
       <r>  -12.1315    1.0000 </r>
       <r>  -11.6366    1.0000 </r>
       <r>  -11.6302    1.0000 </r>
       <r>  -11.4265    1.0000 </r>
       <r>  -11.0442    1.0000 </r>
       <r>  -11.0175    1.0000 </r>
       <r>  -10.8457    1.0000 </r>
       <r>  -10.7385    1.0000 </r>
       <r>  -10.5054    1.0000 </r>
       <r>  -10.4634    1.0000 </r>
       <r>  -10.1956    1.0000 </r>
       <r>  -10.1487    1.0000 </r>
       <r>   -9.4957    1.0000 </r>
       <r>   -9.4792    1.0000 </r>
       <r>   -9.4486    1.0000 </r>
       <r>   -9.4204    1.0000 </r>
       <r>   -9.3983    1.0000 </r>
       <r>   -9.3066    1.0000 </r>
       <r>   -9.2196    1.0000 </r>
       <r>   -9.1254    1.0000 </r>
       <r>   -8.7587    1.0000 </r>
       <r>   -8.7183    1.0000 </r>
       <r>   -8.6041    1.0000 </r>
       <r>   -8.5720    1.0000 </r>
       <r>   -8.5651    1.0000 </r>
       <r>   -8.4215    1.0000 </r>
       <r>   -8.3609    1.0000 </r>
       <r>   -8.1980    1.0000 </r>
       <r>   -8.0032    1.0000 </r>
       <r>   -7.9658    1.0000 </r>
       <r>   -7.2980    1.0000 </r>
       <r>   -7.2470    1.0000 </r>
       <r>   -7.1839    1.0000 </r>
       <r>   -7.0470    1.0000 </r>
       <r>   -6.5457    1.0000 </r>
       <r>   -6.4625    1.0000 </r>
       <r>   -6.3784    1.0000 </r>
       <r>   -6.2398    1.0000 </r>
       <r>   -6.1935    1.0000 </r>
       <r>   -6.1407    1.0000 </r>
       <r>   -6.0987    1.0000 </r>
       <r>   -5.9939    1.0000 </r>
       <r>   -5.8773    1.0000 </r>
       <r>   -5.7121    1.0000 </r>
       <r>   -5.6316    1.0000 </r>
       <r>   -5.6045    1.0000 </r>
       <r>   -5.5114    1.0000 </r>
       <r>   -5.4577    1.0000 </r>
       <r>   -5.4401    1.0000 </r>
       <r>   -5.3774    1.0000 </r>
       <r>   -5.1360    1.0000 </r>
       <r>   -5.1064    1.0000 </r>
       <r>   -5.0761    1.0000 </r>
       <r>   -4.9540    1.0000 </r>
       <r>   -4.8889    1.0000 </r>
       <r>   -4.8776    1.0000 </r>
       <r>   -4.7757    1.0000 </r>
       <r>   -4.7180    1.0000 </r>
       <r>   -4.6278    1.0000 </r>
       <r>   -4.5745    1.0000 </r>
       <r>   -4.4602    1.0000 </r>
       <r>   -4.4169    1.0000 </r>
       <r>   -4.3536    1.0000 </r>
       <r>   -4.2918    1.0000 </r>
       <r>   -4.2856    1.0000 </r>
       <r>   -4.2622    1.0000 </r>
       <r>   -4.1969    1.0000 </r>
       <r>   -4.0682    1.0000 </r>
       <r>   -4.0145    1.0000 </r>
       <r>   -3.9993    1.0000 </r>
       <r>   -3.9715    1.0000 </r>
       <r>   -3.9117    1.0000 </r>
       <r>   -3.9107    1.0000 </r>
       <r>   -3.8644    1.0000 </r>
       <r>   -3.7608    1.0000 </r>
       <r>   -3.6841    1.0000 </r>
       <r>   -3.5756    1.0000 </r>
       <r>   -3.5504    1.0000 </r>
       <r>   -3.2940    1.0000 </r>
       <r>   -3.2667    1.0000 </r>
       <r>   -3.2527    1.0000 </r>
       <r>   -3.2221    1.0000 </r>
       <r>   -3.1270    1.0000 </r>
       <r>   -3.0850    1.0000 </r>
       <r>   -3.0726    1.0000 </r>
       <r>   -3.0185    1.0000 </r>
       <r>   -2.9662    1.0000 </r>
       <r>   -2.6388    1.0000 </r>
       <r>   -2.5851    1.0000 </r>
       <r>   -2.5069    1.0000 </r>
       <r>   -2.4942    1.0000 </r>
       <r>   -2.4704    1.0000 </r>
       <r>   -2.3703    1.0000 </r>
       <r>   -2.3673    1.0000 </r>
       <r>   -2.1886    1.0000 </r>
       <r>   -2.0525    1.0000 </r>
       <r>   -1.9891    1.0000 </r>
       <r>   -1.9329    1.0000 </r>
       <r>   -1.9205    1.0000 </r>
       <r>   -1.8674    1.0000 </r>
       <r>   -1.8542    1.0000 </r>
       <r>   -1.8083    1.0000 </r>
       <r>   -1.7766    1.0000 </r>
       <r>   -1.7315    1.0000 </r>
       <r>   -1.6798    1.0000 </r>
       <r>   -1.6793    1.0000 </r>
       <r>   -1.5137    1.0000 </r>
       <r>   -1.5001    1.0000 </r>
       <r>   -1.4284    1.0000 </r>
       <r>   -1.3167    1.0000 </r>
       <r>   -1.2812    1.0000 </r>
       <r>   -1.2479    1.0000 </r>
       <r>   -1.2455    1.0000 </r>
       <r>   -1.2093    1.0000 </r>
       <r>   -1.1560    1.0000 </r>
       <r>   -1.1100    1.0000 </r>
       <r>   -0.9043    1.0000 </r>
       <r>   -0.8918    1.0000 </r>
       <r>   -0.8528    1.0000 </r>
       <r>   -0.8404    1.0000 </r>
       <r>   -0.7976    1.0000 </r>
       <r>   -0.7547    1.0000 </r>
       <r>   -0.7116    1.0000 </r>
       <r>   -0.6999    1.0000 </r>
       <r>   -0.6186    1.0000 </r>
       <r>   -0.6117    1.0000 </r>
       <r>   -0.5579    1.0000 </r>
       <r>   -0.5381    1.0000 </r>
       <r>   -0.5329    1.0000 </r>
       <r>   -0.4380    1.0000 </r>
       <r>   -0.3345    1.0000 </r>
       <r>   -0.3152    1.0000 </r>
       <r>   -0.3083    1.0000 </r>
       <r>   -0.1601    1.0000 </r>
       <r>   -0.0865    1.0000 </r>
       <r>    0.0182    1.0000 </r>
       <r>    0.0316    1.0000 </r>
       <r>    0.2077    1.0000 </r>
       <r>    0.3033    1.0000 </r>
       <r>    0.3580    1.0000 </r>
       <r>    0.3857    1.0000 </r>
       <r>    0.4345    1.0000 </r>
       <r>    0.4443    1.0000 </r>
       <r>    0.5688    1.0000 </r>
       <r>    0.5981    1.0000 </r>
       <r>    0.6043    1.0000 </r>
       <r>    0.6628    1.0000 </r>
       <r>    0.6750    1.0000 </r>
       <r>    0.6961    1.0000 </r>
       <r>    0.7775    1.0000 </r>
       <r>    0.8758    1.0000 </r>
       <r>    0.8955    1.0000 </r>
       <r>    0.9107    1.0000 </r>
       <r>    0.9426    1.0000 </r>
       <r>    1.0332    1.0000 </r>
       <r>    1.0478    1.0000 </r>
       <r>    1.1127    1.0000 </r>
       <r>    1.1940    1.0000 </r>
       <r>    1.2054    1.0000 </r>
       <r>    1.2150    1.0000 </r>
       <r>    1.2881    1.0000 </r>
       <r>    1.3014    1.0000 </r>
       <r>    1.3483    1.0000 </r>
       <r>    1.4042    1.0000 </r>
       <r>    1.4983    1.0000 </r>
       <r>    1.5439    1.0000 </r>
       <r>    1.6056    1.0000 </r>
       <r>    1.6243    1.0000 </r>
       <r>    1.7635    1.0000 </r>
       <r>    1.8244    1.0000 </r>
       <r>    1.8650    1.0000 </r>
       <r>    1.9129    1.0000 </r>
       <r>    1.9630    1.0000 </r>
       <r>    1.9661    1.0000 </r>
       <r>    2.0017    1.0000 </r>
       <r>    2.0162    1.0000 </r>
       <r>    2.0324    1.0000 </r>
       <r>    2.0850    1.0000 </r>
       <r>    2.1122    1.0000 </r>
       <r>    2.1742    1.0000 </r>
       <r>    2.2785    1.0000 </r>
       <r>    2.2937    1.0000 </r>
       <r>    2.3827    1.0000 </r>
       <r>    2.4172    1.0000 </r>
       <r>    2.4763    1.0000 </r>
       <r>    2.4981    1.0000 </r>
       <r>    2.5371    1.0000 </r>
       <r>    2.5456    1.0000 </r>
       <r>    2.5695    1.0000 </r>
       <r>    2.6108    1.0000 </r>
       <r>    2.6993    1.0000 </r>
       <r>    2.7081    1.0000 </r>
       <r>    2.7955    1.0000 </r>
       <r>    2.8442    1.0000 </r>
       <r>    2.8482    1.0000 </r>
       <r>    2.8505    1.0000 </r>
       <r>    2.8873    1.0000 </r>
       <r>    2.8884    1.0000 </r>
       <r>    2.9219    1.0000 </r>
       <r>    2.9522    1.0000 </r>
       <r>    3.0435    1.0000 </r>
       <r>    3.0958    1.0000 </r>
       <r>    3.0988    1.0000 </r>
       <r>    3.1807    1.0000 </r>
       <r>    3.2036    1.0000 </r>
       <r>    3.2664    1.0000 </r>
       <r>    3.2924    1.0000 </r>
       <r>    3.3663    1.0000 </r>
       <r>    3.4576    1.0000 </r>
       <r>    3.4915    1.0000 </r>
       <r>    3.4966    1.0000 </r>
       <r>    3.6154    1.0000 </r>
       <r>    3.6680    1.0000 </r>
       <r>    3.6857    1.0000 </r>
       <r>    3.7107    1.0000 </r>
       <r>    3.7498    1.0000 </r>
       <r>    3.7976    1.0000 </r>
       <r>    3.8238    1.0000 </r>
       <r>    3.9045    1.0000 </r>
       <r>    3.9191    1.0000 </r>
       <r>    3.9735    1.0000 </r>
       <r>    3.9873    1.0000 </r>
       <r>    4.0592    1.0000 </r>
       <r>    4.0759    1.0000 </r>
       <r>    4.1695    1.0000 </r>
       <r>    4.2085    1.0000 </r>
       <r>    4.2200    1.0000 </r>
       <r>    4.2881    1.0000 </r>
       <r>    4.2913    1.0000 </r>
       <r>    4.3390    1.0000 </r>
       <r>    4.3600    0.8927 </r>
       <r>    4.4244    0.0000 </r>
       <r>    4.4275    0.0000 </r>
       <r>    4.4488    0.0000 </r>
       <r>    4.4656    0.0000 </r>
       <r>    4.5182    0.0000 </r>
       <r>    4.5685    0.0000 </r>
       <r>    4.5716    0.0000 </r>
       <r>    4.6234    0.0000 </r>
       <r>    4.6349    0.0000 </r>
       <r>    4.7436    0.0000 </r>
       <r>    4.7686    0.0000 </r>
       <r>    4.7990    0.0000 </r>
       <r>    4.8086    0.0000 </r>
       <r>    4.8438    0.0000 </r>
       <r>    4.9452    0.0000 </r>
       <r>    4.9562    0.0000 </r>
       <r>    5.0110    0.0000 </r>
       <r>    5.1276    0.0000 </r>
       <r>    5.1653    0.0000 </r>
       <r>    5.2204    0.0000 </r>
       <r>    5.2738    0.0000 </r>
       <r>    5.2882    0.0000 </r>
       <r>    5.3265    0.0000 </r>
       <r>    5.3700    0.0000 </r>
       <r>    5.4582    0.0000 </r>
       <r>    5.4882    0.0000 </r>
       <r>    5.5000    0.0000 </r>
       <r>    5.5228    0.0000 </r>
       <r>    5.5495    0.0000 </r>
       <r>    5.6125    0.0000 </r>
       <r>    5.7231    0.0000 </r>
       <r>    5.7332    0.0000 </r>
       <r>    5.8512    0.0000 </r>
       <r>    5.9405    0.0000 </r>
       <r>    6.0071    0.0000 </r>
       <r>    6.0153    0.0000 </r>
       <r>    6.0927    0.0000 </r>
       <r>    6.1146    0.0000 </r>
       <r>    6.1165    0.0000 </r>
       <r>    6.1873    0.0000 </r>
       <r>    6.2239    0.0000 </r>
       <r>    6.2507    0.0000 </r>
       <r>    6.3566    0.0000 </r>
       <r>    6.3581    0.0000 </r>
       <r>    6.5230    0.0000 </r>
       <r>    6.6228    0.0000 </r>
      </set>
      <set comment="kpoint 2">
       <r>  -13.7360    1.0000 </r>
       <r>  -13.4995    1.0000 </r>
       <r>  -13.4346    1.0000 </r>
       <r>  -13.3512    1.0000 </r>
       <r>  -13.1477    1.0000 </r>
       <r>  -12.8314    1.0000 </r>
       <r>  -12.7185    1.0000 </r>
       <r>  -12.6194    1.0000 </r>
       <r>  -12.3703    1.0000 </r>
       <r>  -12.3179    1.0000 </r>
       <r>  -12.1961    1.0000 </r>
       <r>  -12.1572    1.0000 </r>
       <r>  -12.0771    1.0000 </r>
       <r>  -11.7217    1.0000 </r>
       <r>  -11.1338    1.0000 </r>
       <r>  -11.0694    1.0000 </r>
       <r>  -10.8663    1.0000 </r>
       <r>  -10.8079    1.0000 </r>
       <r>  -10.5800    1.0000 </r>
       <r>  -10.4472    1.0000 </r>
       <r>  -10.3971    1.0000 </r>
       <r>  -10.3916    1.0000 </r>
       <r>  -10.2837    1.0000 </r>
       <r>   -9.6630    1.0000 </r>
       <r>   -9.4499    1.0000 </r>
       <r>   -9.4409    1.0000 </r>
       <r>   -9.3036    1.0000 </r>
       <r>   -9.2659    1.0000 </r>
       <r>   -9.1521    1.0000 </r>
       <r>   -9.0723    1.0000 </r>
       <r>   -9.0366    1.0000 </r>
       <r>   -8.9347    1.0000 </r>
       <r>   -8.8989    1.0000 </r>
       <r>   -8.7969    1.0000 </r>
       <r>   -8.7408    1.0000 </r>
       <r>   -8.4638    1.0000 </r>
       <r>   -8.3878    1.0000 </r>
       <r>   -8.3124    1.0000 </r>
       <r>   -8.2993    1.0000 </r>
       <r>   -8.1990    1.0000 </r>
       <r>   -7.9709    1.0000 </r>
       <r>   -7.6890    1.0000 </r>
       <r>   -7.0371    1.0000 </r>
       <r>   -6.8553    1.0000 </r>
       <r>   -6.5580    1.0000 </r>
       <r>   -6.4568    1.0000 </r>
       <r>   -6.4285    1.0000 </r>
       <r>   -6.2821    1.0000 </r>
       <r>   -6.2227    1.0000 </r>
       <r>   -6.1491    1.0000 </r>
       <r>   -6.1433    1.0000 </r>
       <r>   -6.0660    1.0000 </r>
       <r>   -6.0439    1.0000 </r>
       <r>   -5.8376    1.0000 </r>
       <r>   -5.7692    1.0000 </r>
       <r>   -5.7481    1.0000 </r>
       <r>   -5.7054    1.0000 </r>
       <r>   -5.4816    1.0000 </r>
       <r>   -5.4191    1.0000 </r>
       <r>   -5.4137    1.0000 </r>
       <r>   -5.3462    1.0000 </r>
       <r>   -5.3143    1.0000 </r>
       <r>   -5.1784    1.0000 </r>
       <r>   -5.1471    1.0000 </r>
       <r>   -5.0153    1.0000 </r>
       <r>   -4.9835    1.0000 </r>
       <r>   -4.9449    1.0000 </r>
       <r>   -4.8245    1.0000 </r>
       <r>   -4.7709    1.0000 </r>
       <r>   -4.6885    1.0000 </r>
       <r>   -4.6160    1.0000 </r>
       <r>   -4.5922    1.0000 </r>
       <r>   -4.4888    1.0000 </r>
       <r>   -4.4375    1.0000 </r>
       <r>   -4.3893    1.0000 </r>
       <r>   -4.3173    1.0000 </r>
       <r>   -4.1433    1.0000 </r>
       <r>   -4.1372    1.0000 </r>
       <r>   -4.0740    1.0000 </r>
       <r>   -4.0689    1.0000 </r>
       <r>   -3.9960    1.0000 </r>
       <r>   -3.9807    1.0000 </r>
       <r>   -3.8938    1.0000 </r>
       <r>   -3.8872    1.0000 </r>
       <r>   -3.7831    1.0000 </r>
       <r>   -3.7472    1.0000 </r>
       <r>   -3.7437    1.0000 </r>
       <r>   -3.6433    1.0000 </r>
       <r>   -3.4985    1.0000 </r>
       <r>   -3.3836    1.0000 </r>
       <r>   -3.2088    1.0000 </r>
       <r>   -3.1700    1.0000 </r>
       <r>   -3.1647    1.0000 </r>
       <r>   -3.0894    1.0000 </r>
       <r>   -2.9317    1.0000 </r>
       <r>   -2.8313    1.0000 </r>
       <r>   -2.8174    1.0000 </r>
       <r>   -2.7573    1.0000 </r>
       <r>   -2.6699    1.0000 </r>
       <r>   -2.5712    1.0000 </r>
       <r>   -2.4955    1.0000 </r>
       <r>   -2.4607    1.0000 </r>
       <r>   -2.3993    1.0000 </r>
       <r>   -2.2887    1.0000 </r>
       <r>   -2.2516    1.0000 </r>
       <r>   -2.1673    1.0000 </r>
       <r>   -2.1449    1.0000 </r>
       <r>   -2.0773    1.0000 </r>
       <r>   -2.0733    1.0000 </r>
       <r>   -2.0096    1.0000 </r>
       <r>   -1.9874    1.0000 </r>
       <r>   -1.8642    1.0000 </r>
       <r>   -1.7900    1.0000 </r>
       <r>   -1.7803    1.0000 </r>
       <r>   -1.7229    1.0000 </r>
       <r>   -1.7097    1.0000 </r>
       <r>   -1.6073    1.0000 </r>
       <r>   -1.5019    1.0000 </r>
       <r>   -1.4381    1.0000 </r>
       <r>   -1.4192    1.0000 </r>
       <r>   -1.3771    1.0000 </r>
       <r>   -1.3354    1.0000 </r>
       <r>   -1.2317    1.0000 </r>
       <r>   -1.1819    1.0000 </r>
       <r>   -1.1778    1.0000 </r>
       <r>   -1.1428    1.0000 </r>
       <r>   -1.1183    1.0000 </r>
       <r>   -1.0331    1.0000 </r>
       <r>   -1.0244    1.0000 </r>
       <r>   -0.9519    1.0000 </r>
       <r>   -0.9026    1.0000 </r>
       <r>   -0.8454    1.0000 </r>
       <r>   -0.8216    1.0000 </r>
       <r>   -0.7468    1.0000 </r>
       <r>   -0.7210    1.0000 </r>
       <r>   -0.6452    1.0000 </r>
       <r>   -0.6206    1.0000 </r>
       <r>   -0.5398    1.0000 </r>
       <r>   -0.5331    1.0000 </r>
       <r>   -0.4952    1.0000 </r>
       <r>   -0.4061    1.0000 </r>
       <r>   -0.4056    1.0000 </r>
       <r>   -0.2662    1.0000 </r>
       <r>   -0.2469    1.0000 </r>
       <r>   -0.1534    1.0000 </r>
       <r>   -0.0544    1.0000 </r>
       <r>    0.0105    1.0000 </r>
       <r>    0.0352    1.0000 </r>
       <r>    0.0940    1.0000 </r>
       <r>    0.1743    1.0000 </r>
       <r>    0.2101    1.0000 </r>
       <r>    0.2947    1.0000 </r>
       <r>    0.2971    1.0000 </r>
       <r>    0.4599    1.0000 </r>
       <r>    0.5593    1.0000 </r>
       <r>    0.6028    1.0000 </r>
       <r>    0.6638    1.0000 </r>
       <r>    0.7687    1.0000 </r>
       <r>    0.8133    1.0000 </r>
       <r>    0.8222    1.0000 </r>
       <r>    0.8440    1.0000 </r>
       <r>    0.8723    1.0000 </r>
       <r>    0.9546    1.0000 </r>
       <r>    0.9642    1.0000 </r>
       <r>    1.0325    1.0000 </r>
       <r>    1.0462    1.0000 </r>
       <r>    1.0815    1.0000 </r>
       <r>    1.1197    1.0000 </r>
       <r>    1.1466    1.0000 </r>
       <r>    1.2062    1.0000 </r>
       <r>    1.2576    1.0000 </r>
       <r>    1.2616    1.0000 </r>
       <r>    1.3977    1.0000 </r>
       <r>    1.4436    1.0000 </r>
       <r>    1.4641    1.0000 </r>
       <r>    1.5307    1.0000 </r>
       <r>    1.5331    1.0000 </r>
       <r>    1.6530    1.0000 </r>
       <r>    1.6854    1.0000 </r>
       <r>    1.7348    1.0000 </r>
       <r>    1.7812    1.0000 </r>
       <r>    1.8135    1.0000 </r>
       <r>    1.8702    1.0000 </r>
       <r>    1.8801    1.0000 </r>
       <r>    1.9496    1.0000 </r>
       <r>    1.9678    1.0000 </r>
       <r>    2.0283    1.0000 </r>
       <r>    2.0659    1.0000 </r>
       <r>    2.0891    1.0000 </r>
[...]
       <r>   -10.1824     5.4498    43.4094 </r>
       <r>   -10.1073    11.5933    44.3333 </r>
       <r>   -10.0322     4.9489    44.7051 </r>
       <r>    -9.9571     3.9305    45.0004 </r>
       <r>    -9.8819     8.8691    45.6667 </r>
       <r>    -9.8068     0.0000    45.6667 </r>
       <r>    -9.7317     8.1581    46.2795 </r>
       <r>    -9.6566     8.1394    46.9448 </r>
       <r>    -9.5814    27.3557    49.0000 </r>
       <r>    -9.5063     0.7915    49.0595 </r>
       <r>    -9.4312    41.8417    52.2028 </r>
       <r>    -9.3561    23.0410    54.0000 </r>
       <r>    -9.2809    17.4940    55.3142 </r>
       <r>    -9.2058    12.8682    56.3001 </r>
       <r>    -9.1307    25.8020    58.2508 </r>
       <r>    -9.0556    25.4655    60.2597 </r>
       <r>    -8.9804    10.6544    61.1350 </r>
       <r>    -8.9053    31.4368    63.4967 </r>
       <r>    -8.8302    24.3171    65.3277 </r>
       <r>    -8.7551    12.3810    66.2643 </r>
       <r>    -8.6800    31.5838    68.6667 </r>
       <r>    -8.6048    10.4441    69.4513 </r>
       <r>    -8.5297    20.5980    70.9999 </r>
       <r>    -8.4546     6.6476    71.4994 </r>
       <r>    -8.3795    20.5240    73.0505 </r>
       <r>    -8.3043    29.8888    75.3091 </r>
       <r>    -8.2292    19.6882    76.7940 </r>
       <r>    -8.1541    20.4905    78.3333 </r>
       <r>    -8.0790    21.5001    79.9485 </r>
       <r>    -8.0038     0.7986    80.0379 </r>
       <r>    -7.9287    26.1075    81.9992 </r>
       <r>    -7.8536     4.4289    82.3327 </r>
       <r>    -7.7785     0.0000    82.3333 </r>
       <r>    -7.7033     0.0047    82.3337 </r>
       <r>    -7.6282     8.8695    83.0000 </r>
       <r>    -7.5531     0.0000    83.0000 </r>
       <r>    -7.4780     1.8207    83.1368 </r>
       <r>    -7.4029    10.1948    83.9027 </r>
       <r>    -7.3277     0.0005    84.0000 </r>
       <r>    -7.2526     6.3008    84.4734 </r>
       <r>    -7.1775     5.7549    84.9218 </r>
       <r>    -7.1024     0.6895    85.0000 </r>
       <r>    -7.0272    20.1015    86.5101 </r>
       <r>    -6.9521     9.9490    87.3335 </r>
       <r>    -6.8770     3.3315    87.5838 </r>
       <r>    -6.8019    10.1676    88.3477 </r>
       <r>    -6.7267     4.2454    88.6667 </r>
       <r>    -6.6516     0.0000    88.6667 </r>
       <r>    -6.5765     6.7239    89.1718 </r>
       <r>    -6.5014    15.4597    90.3407 </r>
       <r>    -6.4262    15.5218    91.5081 </r>
       <r>    -6.3511    25.8590    93.4599 </r>
       <r>    -6.2760    22.5305    95.1659 </r>
       <r>    -6.2009    28.7320    97.3759 </r>
       <r>    -6.1257    25.0834    99.2995 </r>
       <r>    -6.0506    30.5981   101.6563 </r>
       <r>    -5.9755    27.5621   103.7590 </r>
       <r>    -5.9004    26.3068   105.7739 </r>
       <r>    -5.8253    23.2655   107.5373 </r>
       <r>    -5.7501    26.7768   109.5539 </r>
       <r>    -5.6750    25.5955   111.5215 </r>
       <r>    -5.5999    20.0344   113.0635 </r>
       <r>    -5.5248    17.9752   114.4140 </r>
       <r>    -5.4496    29.9718   116.6705 </r>
       <r>    -5.3745    33.3952   119.2020 </r>
       <r>    -5.2994    34.0820   121.7835 </r>
       <r>    -5.2243    22.4064   123.5303 </r>
       <r>    -5.1491    28.1749   125.6469 </r>
       <r>    -5.0740    35.4795   128.3127 </r>
       <r>    -4.9989    30.7144   130.6285 </r>
       <r>    -4.9238    33.0035   133.1533 </r>
       <r>    -4.8486    21.4037   134.7735 </r>
       <r>    -4.7735    30.9881   137.1511 </r>
       <r>    -4.6984    33.4545   139.7186 </r>
       <r>    -4.6233    30.3622   142.0244 </r>
       <r>    -4.5482    21.2496   143.6893 </r>
       <r>    -4.4730    25.6997   145.6236 </r>
       <r>    -4.3979    28.2287   147.7778 </r>
       <r>    -4.3228    27.6913   149.8735 </r>
       <r>    -4.2477    40.6788   152.9556 </r>
       <r>    -4.1725    27.0672   155.0254 </r>
       <r>    -4.0974    33.2568   157.5760 </r>
       <r>    -4.0223    37.8390   160.4597 </r>
       <r>    -3.9472    28.1689   162.6013 </r>
       <r>    -3.8720    25.6614   164.5354 </r>
       <r>    -3.7969    26.2210   166.6178 </r>
       <r>    -3.7218    36.3567   169.3946 </r>
       <r>    -3.6467    22.1935   171.0770 </r>
       <r>    -3.5715    24.8875   172.9657 </r>
       <r>    -3.4964    19.2313   174.4734 </r>
       <r>    -3.4213    23.9086   176.3008 </r>
       <r>    -3.3462    11.5257   177.1893 </r>
       <r>    -3.2710    25.7274   179.1248 </r>
       <r>    -3.1959    29.6080   181.3750 </r>
       <r>    -3.1208    40.3313   184.4151 </r>
       <r>    -3.0457    31.5555   186.8339 </r>
       <r>    -2.9706    28.5513   188.9798 </r>
       <r>    -2.8954    18.0716   190.3431 </r>
       <r>    -2.8203    30.9516   192.7055 </r>
       <r>    -2.7452    36.0239   195.4198 </r>
       <r>    -2.6701    24.5168   197.3343 </r>
       <r>    -2.5949    23.4557   199.1199 </r>
       <r>    -2.5198    35.4594   201.7912 </r>
       <r>    -2.4447    31.2617   204.2042 </r>
       <r>    -2.3696    34.9965   206.9154 </r>
       <r>    -2.2944    29.2888   209.1433 </r>
       <r>    -2.2193    37.4336   211.9871 </r>
       <r>    -2.1442    28.3365   214.1318 </r>
       <r>    -2.0691    34.2971   216.7461 </r>
       <r>    -1.9939    30.7010   219.1920 </r>
       <r>    -1.9188    34.8058   221.8479 </r>
       <r>    -1.8437    37.7851   224.6882 </r>
       <r>    -1.7686    31.8012   227.1367 </r>
       <r>    -1.6934    40.8299   230.2256 </r>
       <r>    -1.6183    30.5489   232.6048 </r>
       <r>    -1.5432    35.1040   235.3541 </r>
       <r>    -1.4681    25.6875   237.3251 </r>
       <r>    -1.3930    26.4439   239.3332 </r>
       <r>    -1.3178    38.8913   242.2616 </r>
       <r>    -1.2427    40.3708   245.3297 </r>
       <r>    -1.1676    52.9863   249.3932 </r>
       <r>    -1.0925    48.9808   253.1619 </r>
       <r>    -1.0173    33.4954   255.7850 </r>
       <r>    -0.9422    31.2172   258.1877 </r>
       <r>    -0.8671    33.7566   260.7417 </r>
       <r>    -0.7920    49.8268   264.4876 </r>
       <r>    -0.7168    39.1820   267.4967 </r>
       <r>    -0.6417    44.8024   270.8749 </r>
       <r>    -0.5666    37.4268   273.7156 </r>
       <r>    -0.4915    54.4527   277.8495 </r>
       <r>    -0.4163    33.0903   280.3784 </r>
       <r>    -0.3412    32.9131   282.8550 </r>
       <r>    -0.2661    33.0806   285.3574 </r>
       <r>    -0.1910    32.4852   287.8227 </r>
       <r>    -0.1159    22.5801   289.5321 </r>
       <r>    -0.0407    29.8631   291.8467 </r>
       <r>     0.0344    31.6820   294.2636 </r>
       <r>     0.1095    21.1638   295.9122 </r>
       <r>     0.1846    29.7471   298.1827 </r>
       <r>     0.2598    43.2643   301.4576 </r>
       <r>     0.3349    49.9926   305.3045 </r>
       <r>     0.4100    30.9651   307.6784 </r>
       <r>     0.4851    30.6929   310.0147 </r>
       <r>     0.5603    28.3091   312.1550 </r>
       <r>     0.6354    48.2057   315.7767 </r>
       <r>     0.7105    38.5767   318.7226 </r>
       <r>     0.7856    23.8054   320.5538 </r>
       <r>     0.8608    37.3255   323.3981 </r>
       <r>     0.9359    42.8264   326.6636 </r>
       <r>     1.0110    32.4434   329.1740 </r>
       <r>     1.0861    50.1504   332.9640 </r>
       <r>     1.1613    43.3557   336.3074 </r>
       <r>     1.2364    38.3209   339.2038 </r>
       <r>     1.3115    39.5930   342.2292 </r>
       <r>     1.3866    38.0584   345.2135 </r>
       <r>     1.4617    51.8252   349.1499 </r>
       <r>     1.5369    41.9899   352.3718 </r>
       <r>     1.6120    38.0263   355.2631 </r>
       <r>     1.6871    38.3823   358.1555 </r>
       <r>     1.7622    33.7725   360.7713 </r>
       <r>     1.8374    41.0024   363.8743 </r>
       <r>     1.9125    58.7897   368.3093 </r>
       <r>     1.9876    52.4480   372.2836 </r>
       <r>     2.0627    39.4790   375.3495 </r>
       <r>     2.1379    50.1763   379.1774 </r>
       <r>     2.2130    49.7159   382.9224 </r>
       <r>     2.2881    48.4461   386.5841 </r>
       <r>     2.3632    42.1531   389.8219 </r>
       <r>     2.4384    43.1833   393.1032 </r>
       <r>     2.5135    44.4850   396.4625 </r>
       <r>     2.5886    44.4530   399.8117 </r>
       <r>     2.6637    49.6328   403.5979 </r>
       <r>     2.7388    37.7427   406.5228 </r>
       <r>     2.8140    39.0036   409.5063 </r>
       <r>     2.8891    50.2154   413.3633 </r>
       <r>     2.9642    43.9874   416.7544 </r>
       <r>     3.0393    57.1966   421.0665 </r>
       <r>     3.1145    50.8479   424.8911 </r>
       <r>     3.1896    56.6006   429.1458 </r>
       <r>     3.2647    30.6872   431.5283 </r>
       <r>     3.3398    40.9960   434.6279 </r>
       <r>     3.4150    34.1247   437.2484 </r>
       <r>     3.4901    48.0873   440.8640 </r>
       <r>     3.5652    52.9501   444.8709 </r>
       <r>     3.6403    30.0303   447.1478 </r>
       <r>     3.7155    42.5192   450.3709 </r>
       <r>     3.7906    43.9884   453.8004 </r>
       <r>     3.8657    40.0126   456.8125 </r>
       <r>     3.9408    46.1340   460.3203 </r>
       <r>     4.0160    41.3137   463.4927 </r>
       <r>     4.0911    42.2434   466.7197 </r>
       <r>     4.1662    52.1769   470.6514 </r>
       <r>     4.2413    38.1211   473.6194 </r>
       <r>     4.3164    47.7015   477.2571 </r>
       <r>     4.3916    49.0742   480.9994 </r>
       <r>     4.4667    47.2259   484.5694 </r>
       <r>     4.5418    52.1549   488.4924 </r>
       <r>     4.6169    56.1145   492.7319 </r>
       <r>     4.6921    50.2492   496.5580 </r>
       <r>     4.7672    48.9352   500.2798 </r>
       <r>     4.8423    32.0365   502.7869 </r>
       <r>     4.9174    40.6395   505.9072 </r>
       <r>     4.9926    46.2342   509.3901 </r>
       <r>     5.0677    41.9242   512.5590 </r>
       <r>     5.1428    35.2621   515.2556 </r>
       <r>     5.2179    44.8558   518.6338 </r>
       <r>     5.2931    50.0073   522.4070 </r>
       <r>     5.3682    43.3721   525.6674 </r>
       <r>     5.4433    49.1265   529.3597 </r>
       <r>     5.5184    49.9682   533.1449 </r>
       <r>     5.5935    39.4151   536.1601 </r>
       <r>     5.6687    27.5522   538.2406 </r>
       <r>     5.7438    38.7780   541.2092 </r>
       <r>     5.8189    37.7484   544.0779 </r>
       <r>     5.8940    42.4300   547.3663 </r>
       <r>     5.9692    46.0146   550.8374 </r>
       <r>     6.0443    47.9749   554.5086 </r>
       <r>     6.1194    47.3035   558.1825 </r>
       <r>     6.1945    37.4209   561.0266 </r>
       <r>     6.2697    47.0914   564.6238 </r>
       <r>     6.3448    38.9169   567.5625 </r>
       <r>     6.4199    34.1496   570.1676 </r>
       <r>     6.4950    36.0044   572.8954 </r>
       <r>     6.5702    27.3043   574.9516 </r>
       <r>     6.6453    11.5391   575.8231 </r>
       <r>     6.7204     2.2184   576.0000 </r>
       <r>     6.7955     0.0000   576.0000 </r>
       <r>     6.8707     0.0000   576.0000 </r>
       <r>     6.9458     0.0000   576.0000 </r>
       <r>     7.0209     0.0000   576.0000 </r>
       <r>     7.0960     0.0000   576.0000 </r>
       <r>     7.1711     0.0000   576.0000 </r>
       <r>     7.2463     0.0000   576.0000 </r>
       <r>     7.3214     0.0000   576.0000 </r>
       <r>     7.3965     0.0000   576.0000 </r>
       <r>     7.4716     0.0000   576.0000 </r>
       <r>     7.5468     0.0000   576.0000 </r>
       <r>     7.6219     0.0000   576.0000 </r>
       <r>     7.6970     0.0000   576.0000 </r>
      </set>
     </set>
    </array>
   </total>
  </dos>
 </calculation>
 <structure name="finalpos" >
  <crystal>
   <varray name="basis" >
    <v>      13.30317974       0.00000000       0.00000000 </v>
    <v>       6.65158939      14.87340641       0.00000000 </v>
    <v>       0.00000000       0.00000000       7.99475002 </v>
   </varray>
   <i name="volume">   1581.87001132 </i>
   <varray name="rec_basis" >
    <v>       0.07517000      -0.03361704       0.00000000 </v>
    <v>       0.00000000       0.06723409       0.00000000 </v>
    <v>       0.00000000       0.00000000       0.12508208 </v>
   </varray>
  </crystal>
  <varray name="positions" >
   <v>       0.28324950       0.64162475       0.00000005 </v>
   <v>       0.81658280       0.40829128       0.15190087 </v>
   <v>       0.34991598       0.17495777       0.30380175 </v>
   <v>       0.61658275       0.30829138       0.00000006 </v>
   <v>       0.14991605       0.07495793       0.15190087 </v>
   <v>       0.68324923       0.84162444       0.30380171 </v>
   <v>       0.94991612       0.97495806       0.00000004 </v>
   <v>       0.48324949       0.74162459       0.15190087 </v>
   <v>       0.01658267       0.50829112       0.30380171 </v>
   <v>       0.79991627       0.77495801       0.07595031 </v>
   <v>       0.33324951       0.54162455       0.22785117 </v>
   <v>       0.86658275       0.30829108       0.37975204 </v>
   <v>       0.13324969       0.44162476       0.07595033 </v>
   <v>       0.66658294       0.20829128       0.22785117 </v>
   <v>       0.19991624       0.97495776       0.37975204 </v>
   <v>       0.46658289       0.10829154       0.07595033 </v>
   <v>       0.99991614       0.87495804       0.22785117 </v>
   <v>       0.53324938       0.64162457       0.37975204 </v>
   <v>       0.78324956       0.64162475       0.00000000 </v>
   <v>       0.31658283       0.40829128       0.15190086 </v>
   <v>       0.84991604       0.17495778       0.30380175 </v>
   <v>       0.11658280       0.30829140       0.00000006 </v>
   <v>       0.64991605       0.07495795       0.15190090 </v>
   <v>       0.18324930       0.84162450       0.30380175 </v>
   <v>       0.44991612       0.97495806       0.00000006 </v>
   <v>       0.98324943       0.74162459       0.15190090 </v>
   <v>       0.51658267       0.50829112       0.30380175 </v>
   <v>       0.29991618       0.77495813       0.07595033 </v>
   <v>       0.83324945       0.54162467       0.22785120 </v>
   <v>       0.36658269       0.30829120       0.37975201 </v>
   <v>       0.63324940       0.44162473       0.07595035 </v>
   <v>       0.16658264       0.20829126       0.22785120 </v>
   <v>       0.69991595       0.97495782       0.37975198 </v>
   <v>       0.96658272       0.10829155       0.07595033 </v>
   <v>       0.49991596       0.87495804       0.22785120 </v>
   <v>       0.03324926       0.64162463       0.37975204 </v>
   <v>       0.01980794       0.15119094       0.56517535 </v>
   <v>       0.99123627       0.42261958       0.66493601 </v>
   <v>       0.96266472       0.69404817       0.76469654 </v>
   <v>       0.16266501       0.29404807       0.56517535 </v>
   <v>       0.13409346       0.56547672       0.66493601 </v>
   <v>       0.10552193       0.83690536       0.76469654 </v>
   <v>       0.30552217       0.43690527       0.56517535 </v>
   <v>       0.27695060       0.70833385       0.66493601 </v>
   <v>       0.24837908       0.97976255       0.76469660 </v>
   <v>       0.44837931       0.57976240       0.56517535 </v>
   <v>       0.41980776       0.85119104       0.66493601 </v>
   <v>       0.39123622       0.12261975       0.76469660 </v>
   <v>       0.59123641       0.72261953       0.56517535 </v>
   <v>       0.56266481       0.99404812       0.66493601 </v>
   <v>       0.53409326       0.26547676       0.76469660 </v>
   <v>       0.73409355       0.86547661       0.56517535 </v>
   <v>       0.70552200       0.13690527       0.66493601 </v>
   <v>       0.67695045       0.40833384       0.76469654 </v>
   <v>       0.87695074       0.00833392       0.56517535 </v>
   <v>       0.84837919       0.27976245       0.66493601 </v>
   <v>       0.81980753       0.55119103       0.76469660 </v>
   <v>       0.11266506       0.89404792       0.61505556 </v>
   <v>       0.08409351       0.16547652       0.71481621 </v>
   <v>       0.05552202       0.43690521       0.81457681 </v>
   <v>       0.25552216       0.03690517       0.61505556 </v>
   <v>       0.22695062       0.30833381       0.71481615 </v>
   <v>       0.19837904       0.57976252       0.81457681 </v>
   <v>       0.39837933       0.17976232       0.61505556 </v>
   <v>       0.36980775       0.45119101       0.71481615 </v>
   <v>       0.34123614       0.72261959       0.81457681 </v>
   <v>       0.54123640       0.32261938       0.61505556 </v>
   <v>       0.51266491       0.59404802       0.71481621 </v>
   <v>       0.48409328       0.86547655       0.81457681 </v>
   <v>       0.68409354       0.46547669       0.61505556 </v>
   <v>       0.65552199       0.73690528       0.71481621 </v>
   <v>       0.62695044       0.00833392       0.81457681 </v>
   <v>       0.82695067       0.60833377       0.61505556 </v>
   <v>       0.79837912       0.87976241       0.71481621 </v>
   <v>       0.76980764       0.15119107       0.81457681 </v>
   <v>       0.96980786       0.75119090       0.61505556 </v>
   <v>       0.94123638       0.02261961       0.71481621 </v>
   <v>       0.91266471       0.29404801       0.81457681 </v>
   <v>       0.09123641       0.72261947       0.56517535 </v>
   <v>       0.06266490       0.99404812       0.66493601 </v>
   <v>       0.03409331       0.26547676       0.76469654 </v>
   <v>       0.23409355       0.86547661       0.56517535 </v>
   <v>       0.20552203       0.13690527       0.66493601 </v>
   <v>       0.17695054       0.40833396       0.76469660 </v>
   <v>       0.37695077       0.00833380       0.56517535 </v>
   <v>       0.34837925       0.27976245       0.66493601 </v>
   <v>       0.31980762       0.55119103       0.76469654 </v>
   <v>       0.51980787       0.15119094       0.56517535 </v>
   <v>       0.49123630       0.42261958       0.66493601 </v>
   <v>       0.46266478       0.69404817       0.76469660 </v>
   <v>       0.66266501       0.29404801       0.56517535 </v>
   <v>       0.63409346       0.56547666       0.66493601 </v>
   <v>       0.60552192       0.83690530       0.76469660 </v>
   <v>       0.80552220       0.43690527       0.56517535 </v>
   <v>       0.77695060       0.70833385       0.66493601 </v>
   <v>       0.74837911       0.97976250       0.76469660 </v>
   <v>       0.94837934       0.57976234       0.56517535 </v>
   <v>       0.91980773       0.85119098       0.66493601 </v>
   <v>       0.89123619       0.12261963       0.76469660 </v>
   <v>       0.04123645       0.32261941       0.61505556 </v>
   <v>       0.01266491       0.59404802       0.71481615 </v>
   <v>       0.98409331       0.86547667       0.81457681 </v>
   <v>       0.18409360       0.46547645       0.61505556 </v>
   <v>       0.15552205       0.73690510       0.71481621 </v>
   <v>       0.12695052       0.00833368       0.81457681 </v>
   <v>       0.32695073       0.60833377       0.61505556 </v>
   <v>       0.29837918       0.87976235       0.71481621 </v>
   <v>       0.26980761       0.15119095       0.81457681 </v>
   <v>       0.46980789       0.75119084       0.61505556 </v>
   <v>       0.44123632       0.02261949       0.71481615 </v>
   <v>       0.41266480       0.29404801       0.81457681 </v>
   <v>       0.61266494       0.89404786       0.61505556 </v>
   <v>       0.58409345       0.16547652       0.71481615 </v>
   <v>       0.55552190       0.43690521       0.81457681 </v>
   <v>       0.75552207       0.03690517       0.61505556 </v>
   <v>       0.72695053       0.30833381       0.71481621 </v>
   <v>       0.69837898       0.57976228       0.81457681 </v>
   <v>       0.89837927       0.17976220       0.61505556 </v>
   <v>       0.86980766       0.45119077       0.71481615 </v>
   <v>       0.84123606       0.72261935       0.81457681 </v>
  </varray>
 </structure>
</modeling>
