Si and Ge interface calculation         
           1
    13.303180    0.000000    0.000000
     6.651589   14.873406    0.000000
     0.000000    0.000000    7.994750
   Si   C 
    36    84
Direct configuration=     1
   0.28324950  0.64162475  0.00000005
   0.81658280  0.40829128  0.15190087
   0.34991598  0.17495777  0.30380175
   0.61658275  0.30829138  0.00000006
   0.14991605  0.07495793  0.15190087
   0.68324923  0.84162444  0.30380171
   0.94991612  0.97495806  0.00000004
   0.48324949  0.74162459  0.15190087
   0.01658267  0.50829112  0.30380171
   0.79991627  0.77495801  0.07595031
   0.33324951  0.54162455  0.22785117
   0.86658275  0.30829108  0.37975204
   0.13324969  0.44162476  0.07595033
   0.66658294  0.20829128  0.22785117
   0.19991624  0.97495776  0.37975204
   0.46658289  0.10829154  0.07595033
   0.99991614  0.87495804  0.22785117
   0.53324938  0.64162457  0.37975204
   0.78324956  0.64162475  0.00000000
   0.31658283  0.40829128  0.15190086
   0.84991604  0.17495778  0.30380175
   0.11658280  0.30829140  0.00000006
   0.64991605  0.07495795  0.15190090
   0.18324930  0.84162450  0.30380175
   0.44991612  0.97495806  0.00000006
   0.98324943  0.74162459  0.15190090
   0.51658267  0.50829112  0.30380175
   0.29991618  0.77495813  0.07595033
   0.83324945  0.54162467  0.22785120
   0.36658269  0.30829120  0.37975201
   0.63324940  0.44162473  0.07595035
   0.16658264  0.20829126  0.22785120
   0.69991595  0.97495782  0.37975198
   0.96658272  0.10829155  0.07595033
   0.49991596  0.87495804  0.22785120
   0.03324926  0.64162463  0.37975204
   0.01980794  0.15119094  0.56517535
   0.99123627  0.42261958  0.66493601
   0.96266472  0.69404817  0.76469654
   0.16266501  0.29404807  0.56517535
   0.13409346  0.56547672  0.66493601
   0.10552193  0.83690536  0.76469654
   0.30552217  0.43690527  0.56517535
   0.27695060  0.70833385  0.66493601
   0.24837908  0.97976255  0.76469660
   0.44837931  0.57976240  0.56517535
   0.41980776  0.85119104  0.66493601
   0.39123622  0.12261975  0.76469660
   0.59123641  0.72261953  0.56517535
   0.56266481  0.99404812  0.66493601
   0.53409326  0.26547676  0.76469660
   0.73409355  0.86547661  0.56517535
   0.70552200  0.13690527  0.66493601
   0.67695045  0.40833384  0.76469654
   0.87695074  0.00833392  0.56517535
   0.84837919  0.27976245  0.66493601
   0.81980753  0.55119103  0.76469660
   0.11266506  0.89404792  0.61505556
   0.08409351  0.16547652  0.71481621
   0.05552202  0.43690521  0.81457681
   0.25552216  0.03690517  0.61505556
   0.22695062  0.30833381  0.71481615
   0.19837904  0.57976252  0.81457681
   0.39837933  0.17976232  0.61505556
   0.36980775  0.45119101  0.71481615
   0.34123614  0.72261959  0.81457681
   0.54123640  0.32261938  0.61505556
   0.51266491  0.59404802  0.71481621
   0.48409328  0.86547655  0.81457681
   0.68409354  0.46547669  0.61505556
   0.65552199  0.73690528  0.71481621
   0.62695044  0.00833392  0.81457681
   0.82695067  0.60833377  0.61505556
   0.79837912  0.87976241  0.71481621
   0.76980764  0.15119107  0.81457681
   0.96980786  0.75119090  0.61505556
   0.94123638  0.02261961  0.71481621
   0.91266471  0.29404801  0.81457681
   0.09123641  0.72261947  0.56517535
   0.06266490  0.99404812  0.66493601
   0.03409331  0.26547676  0.76469654
   0.23409355  0.86547661  0.56517535
   0.20552203  0.13690527  0.66493601
   0.17695054  0.40833396  0.76469660
   0.37695077  0.00833380  0.56517535
   0.34837925  0.27976245  0.66493601
   0.31980762  0.55119103  0.76469654
   0.51980787  0.15119094  0.56517535
   0.49123630  0.42261958  0.66493601
   0.46266478  0.69404817  0.76469660
   0.66266501  0.29404801  0.56517535
   0.63409346  0.56547666  0.66493601
   0.60552192  0.83690530  0.76469660
   0.80552220  0.43690527  0.56517535
   0.77695060  0.70833385  0.66493601
   0.74837911  0.97976250  0.76469660
   0.94837934  0.57976234  0.56517535
   0.91980773  0.85119098  0.66493601
   0.89123619  0.12261963  0.76469660
   0.04123645  0.32261941  0.61505556
   0.01266491  0.59404802  0.71481615
   0.98409331  0.86547667  0.81457681
   0.18409360  0.46547645  0.61505556
   0.15552205  0.73690510  0.71481621
   0.12695052  0.00833368  0.81457681
   0.32695073  0.60833377  0.61505556
   0.29837918  0.87976235  0.71481621
   0.26980761  0.15119095  0.81457681
   0.46980789  0.75119084  0.61505556
   0.44123632  0.02261949  0.71481615
   0.41266480  0.29404801  0.81457681
   0.61266494  0.89404786  0.61505556
   0.58409345  0.16547652  0.71481615
   0.55552190  0.43690521  0.81457681
   0.75552207  0.03690517  0.61505556
   0.72695053  0.30833381  0.71481621
   0.69837898  0.57976228  0.81457681
   0.89837927  0.17976220  0.61505556
   0.86980766  0.45119077  0.71481615
   0.84123606  0.72261935  0.81457681
