Si and Ge interface calculation         
           1
    11.315600    0.000000    0.000000
     0.000000   17.891535    0.000000
     0.000000   -0.000000   13.669415
   Ge   Sn
    48    48
Direct configuration=     1
   0.94556874  0.07620380  0.00000001
   0.69556868  0.42620391  0.06544378
   0.44556868  0.77620399  0.13088755
   0.19556862  0.12620413  0.19633138
   0.94556868  0.47620416  0.26177514
   0.69556868  0.82620430  0.32721883
   0.44556874  0.07620380  0.00000001
   0.19556871  0.42620391  0.06544378
   0.94556868  0.77620399  0.13088755
   0.69556868  0.12620413  0.19633138
   0.44556868  0.47620416  0.26177514
   0.19556862  0.82620430  0.32721883
   0.07056873  0.82620394  0.00000003
   0.82056868  0.17620409  0.06544376
   0.57056868  0.52620411  0.13088749
   0.32056862  0.87620413  0.19633135
   0.07056862  0.22620416  0.26177517
   0.82056856  0.57620430  0.32721889
   0.57056874  0.82620394  0.00000003
   0.32056874  0.17620409  0.06544376
   0.07056871  0.52620411  0.13088749
   0.82056868  0.87620413  0.19633135
   0.57056868  0.22620416  0.26177517
   0.32056862  0.57620430  0.32721889
   0.94556874  0.57620382  0.00000002
   0.69556868  0.92620391  0.06544375
   0.44556868  0.27620399  0.13088757
   0.19556862  0.62620413  0.19633131
   0.94556868  0.97620416  0.26177514
   0.69556868  0.32620430  0.32721889
   0.44556874  0.57620382  0.00000002
   0.19556871  0.92620391  0.06544375
   0.94556868  0.27620399  0.13088757
   0.69556868  0.62620413  0.19633131
   0.44556868  0.97620416  0.26177514
   0.19556862  0.32620430  0.32721889
   0.07056873  0.32620382  0.00000000
   0.82056868  0.67620397  0.06544379
   0.57056868  0.02620399  0.13088755
   0.32056862  0.37620413  0.19633131
   0.07056862  0.72620416  0.26177511
   0.82056856  0.07620430  0.32721880
   0.57056874  0.32620382  0.00000000
   0.32056874  0.67620397  0.06544379
   0.07056871  0.02620399  0.13088755
   0.82056868  0.37620413  0.19633131
   0.57056868  0.72620416  0.26177511
   0.32056862  0.07620430  0.32721880
   0.06472540  0.71428132  0.42135274
   0.73139191  0.33928132  0.51825541
   0.39805850  0.96428120  0.61515808
   0.06472504  0.58928108  0.71206075
   0.73139155  0.21428108  0.80896348
   0.39805821  0.83928102  0.90586609
   0.06472540  0.21428132  0.42135274
   0.73139191  0.83928126  0.51825541
   0.39805850  0.46428120  0.61515808
   0.06472516  0.08928120  0.71206075
   0.73139155  0.71428108  0.80896348
   0.39805809  0.33928108  0.90586621
   0.31472540  0.96428132  0.42135274
   0.98139191  0.58928132  0.51825541
   0.64805853  0.21428120  0.61515808
   0.31472513  0.83928120  0.71206069
   0.98139155  0.46428108  0.80896348
   0.64805818  0.08928108  0.90586609
   0.31472540  0.46428132  0.42135274
   0.98139191  0.08928132  0.51825541
   0.64805853  0.71428120  0.61515808
   0.31472513  0.33928120  0.71206069
   0.98139155  0.96428102  0.80896348
   0.64805818  0.58928108  0.90586609
   0.06472540  0.96428132  0.42135274
   0.73139191  0.58928132  0.51825541
   0.39805850  0.21428120  0.61515808
   0.06472516  0.83928120  0.71206075
   0.73139155  0.46428108  0.80896348
   0.39805809  0.08928108  0.90586609
   0.06472540  0.46428132  0.42135274
   0.73139191  0.08928132  0.51825541
   0.39805850  0.71428120  0.61515808
   0.06472504  0.33928108  0.71206075
   0.73139155  0.96428102  0.80896348
   0.39805809  0.58928108  0.90586621
   0.31472546  0.71428132  0.42135274
   0.98139203  0.33928132  0.51825541
   0.64805853  0.96428114  0.61515808
   0.31472513  0.58928108  0.71206069
   0.98139155  0.21428108  0.80896348
   0.64805818  0.83928102  0.90586609
   0.31472546  0.21428132  0.42135277
   0.98139203  0.83928126  0.51825541
   0.64805853  0.46428132  0.61515808
   0.31472513  0.08928120  0.71206069
   0.98139155  0.71428108  0.80896348
   0.64805818  0.33928108  0.90586609
