 vasp.6.4.3 19Mar24 (build Oct 22 2024 11:23:12) complex                        
  
 executed on             LinuxIFC date 2025.06.08  15:40:14
 running   64 mpi-ranks, on    4 nodes
 distrk:  each k-point on   64 cores,    1 groups
 distr:  one band on NCORE=  16 cores,    4 groups


--------------------------------------------------------------------------------------------------------


 INCAR:
   SYSTEM = Si and Ge interface calculation
   ISTART = 0
   ICHARG = 2
   LWAVE = .FALSE.
   LREAL = AUTO
   ENCUT = 700
   ENAUG = 900
   ADDGRID = .TRUE.
   LMAXMIX = 6
   LASPH = .TRUE.
   LMIXTAU = .TRUE.
   NCORE = 16
   NELM = 100
   NBANDS = 288
   EDIFF = 1d-7
   AMIX = 0.6
   ISMEAR = 0
   SIGMA = 0.01
   NELECT = 480
   ISPIN = 2
   NUPDOWN = 1
   LVTOT = .FALSE.
   LVHAR = .TRUE.

 POTCAR:    PAW_PBE Si 05Jan2001                  
 POTCAR:    PAW_PBE Ge 05Jan2001                  
 -----------------------------------------------------------------------------
|                                                                             |
|           W    W    AA    RRRRR   N    N  II  N    N   GGGG   !!!           |
|           W    W   A  A   R    R  NN   N  II  NN   N  G    G  !!!           |
|           W    W  A    A  R    R  N N  N  II  N N  N  G       !!!           |
|           W WW W  AAAAAA  RRRRR   N  N N  II  N  N N  G  GGG   !            |
|           WW  WW  A    A  R   R   N   NN  II  N   NN  G    G                |
|           W    W  A    A  R    R  N    N  II  N    N   GGGG   !!!           |
|                                                                             |
|     You use a magnetic or noncollinear calculation, but did not specify     |
|     the initial magnetic moment with the MAGMOM tag. Note that a            |
|     default of 8.333e-3 will be used for all atoms. This ferromagnetic      |
|     setup may break the symmetry of the crystal, in particular it may       |
|     rule out finding an antiferromagnetic solution. Thence, we              |
|     recommend setting the initial magnetic moment manually or verifying     |
|     carefully that this magnetic setup is desired.                          |
|                                                                             |
 -----------------------------------------------------------------------------

 POTCAR:    PAW_PBE Si 05Jan2001                  
   VRHFIN =Si: s2p2                                                                                 
   LEXCH  = PE                                                                                      
   EATOM  =   103.0669 eV,    7.5752 Ry                                                             
                                                                                                    
   TITEL  = PAW_PBE Si 05Jan2001                                                                    
   LULTRA =        F    use ultrasoft PP ?                                                          
   IUNSCR =        1    unscreen: 0-lin 1-nonlin 2-no                                               
   RPACOR =    1.500    partial core radius                                                         
   POMASS =   28.085; ZVAL   =    4.000    mass and valenz                                          
   RCORE  =    1.900    outmost cutoff radius                                                       
   RWIGS  =    2.480; RWIGS  =    1.312    wigner-seitz radius (au A)                               
   ENMAX  =  245.345; ENMIN  =  184.009 eV                                                          
   ICORE  =        2    local potential                                                             
   LCOR   =        T    correct aug charges                                                         
   LPAW   =        T    paw PP                                                                      
   EAUG   =  322.069                                                                                
   DEXC   =    0.000                                                                                
   RMAX   =    1.950    core radius for proj-oper                                                   
   RAUG   =    1.300    factor for augmentation sphere                                              
   RDEP   =    1.993    radius for radial grids                                                     
   RDEPT  =    1.837    core radius for aug-charge                                                  
                                                                                                    
   Atomic configuration                                                                             
    6 entries                                                                                       
     n  l   j            E        occ.                                                              
     1  0  0.50     -1785.8828   2.0000                                                             
     2  0  0.50      -139.4969   2.0000                                                             
     2  1  1.50       -95.5546   6.0000                                                             
     3  0  0.50       -10.8127   2.0000                                                             
     3  1  0.50        -4.0811   2.0000                                                             
     3  2  1.50        -4.0817   0.0000                                                             
   Description                                                                                      
     l       E           TYP  RCUT    TYP  RCUT                                                     
     0    -10.8127223     23  1.900                                                                 
     0     -7.6451159     23  1.900                                                                 
     1     -4.0811372     23  1.900                                                                 
     1      2.4879257     23  1.900                                                                 
     2     -4.0817478      7  1.900                                                                 
  local pseudopotential read in
  partial core-charges read in
  partial kinetic energy density read in
  atomic valenz-charges read in
  non local Contribution for L=           0  read in
    real space projection operators read in
  non local Contribution for L=           0  read in
    real space projection operators read in
  non local Contribution for L=           1  read in
    real space projection operators read in
  non local Contribution for L=           1  read in
    real space projection operators read in
    PAW grid and wavefunctions read in
 
   number of l-projection  operators is LMAX  =           4
   number of lm-projection operators is LMMAX =           8
 
 POTCAR:    PAW_PBE Ge 05Jan2001                  
   VRHFIN =Ge: s2p2                                                                                 
   LEXCH  = PE                                                                                      
   EATOM  =   104.9960 eV,    7.7170 Ry                                                             
                                                                                                    
   TITEL  = PAW_PBE Ge 05Jan2001                                                                    
   LULTRA =        F    use ultrasoft PP ?                                                          
   IUNSCR =        1    unscreen: 0-lin 1-nonlin 2-no                                               
   RPACOR =    2.170    partial core radius                                                         
   POMASS =   72.610; ZVAL   =    4.000    mass and valenz                                          
   RCORE  =    2.300    outmost cutoff radius                                                       
   RWIGS  =    2.300; RWIGS  =    1.217    wigner-seitz radius (au A)                               
   ENMAX  =  173.807; ENMIN  =  130.355 eV                                                          
   ICORE  =        3    local potential                                                             
   LCOR   =        T    correct aug charges                                                         
   LPAW   =        T    paw PP                                                                      
   EAUG   =  385.843                                                                                
   DEXC   =    0.000                                                                                
   RMAX   =    2.342    core radius for proj-oper                                                   
   RAUG   =    1.300    factor for augmentation sphere                                              
   RDEP   =    2.318    radius for radial grids                                                     
   RDEPT  =    2.103    core radius for aug-charge                                                  
                                                                                                    
   Atomic configuration                                                                             
   10 entries                                                                                       
     n  l   j            E        occ.                                                              
     1  0  0.50    -10959.8463   2.0000                                                             
     2  0  0.50     -1371.6056   2.0000                                                             
     2  1  1.50     -1198.4791   6.0000                                                             
     3  0  0.50      -168.4733   2.0000                                                             
     3  1  1.50      -115.6019   6.0000                                                             
     3  2  2.50       -29.3106  10.0000                                                             
     4  0  0.50       -11.7309   2.0000                                                             
     4  1  0.50        -3.8952   2.0000                                                             
     4  2  1.50        -4.0817   0.0000                                                             
     4  3  2.50        -4.0817   0.0000                                                             
   Description                                                                                      
     l       E           TYP  RCUT    TYP  RCUT                                                     
     0    -11.7309493     23  2.300                                                                 
     0     -7.4578696     23  2.300                                                                 
     1     -3.8952261     23  2.300                                                                 
     1      6.1178114     23  2.300                                                                 
     2     -4.0817478     23  2.300                                                                 
     3     -1.3605826      7  2.300                                                                 
  local pseudopotential read in
  partial core-charges read in
  partial kinetic energy density read in
  atomic valenz-charges read in
  non local Contribution for L=           0  read in
    real space projection operators read in
  non local Contribution for L=           0  read in
    real space projection operators read in
  non local Contribution for L=           1  read in
    real space projection operators read in
  non local Contribution for L=           1  read in
    real space projection operators read in
  non local Contribution for L=           2  read in
    real space projection operators read in
    PAW grid and wavefunctions read in
 
   number of l-projection  operators is LMAX  =           5
   number of lm-projection operators is LMMAX =          13
 
 Optimization of the real space projectors (new method)

 maximal supplied QI-value         = 19.84
 optimisation between [QCUT,QGAM] = [ 13.49, 26.99] = [ 50.98,203.92] Ry 
 Optimized for a Real-space Cutoff    1.07 Angstroem

   l    n(q)    QCUT    max X(q) W(low)/X(q) W(high)/X(q)  e(spline) 
   0      9    13.493   159.560    0.22E-03    0.15E-03    0.72E-07
   0      9    13.493   115.863    0.21E-03    0.15E-03    0.71E-07
   1      8    13.493    88.339    0.15E-03    0.11E-03    0.13E-06
   1      8    13.493    48.592    0.15E-03    0.10E-03    0.13E-06
 Optimization of the real space projectors (new method)

 maximal supplied QI-value         = 16.25
 optimisation between [QCUT,QGAM] = [ 13.49, 26.98] = [ 50.95,203.80] Ry 
 Optimized for a Real-space Cutoff    1.25 Angstroem

   l    n(q)    QCUT    max X(q) W(low)/X(q) W(high)/X(q)  e(spline) 
   0     10    13.489    65.336    0.91E-04    0.11E-03    0.34E-06
   0     10    13.489    52.220    0.89E-04    0.11E-03    0.34E-06
   1     10    13.489    36.409    0.22E-03    0.27E-03    0.14E-06
   1     10    13.489    21.334    0.21E-03    0.27E-03    0.14E-06
   2      9    13.489     4.673    0.11E-03    0.12E-03    0.19E-06
  PAW_PBE Si 05Jan2001                  :
 energy of atom  1       EATOM= -103.0669
 kinetic energy error for atom=    0.0003 (will be added to EATOM!!)
  PAW_PBE Ge 05Jan2001                  :
 energy of atom  2       EATOM= -104.9960
 kinetic energy error for atom=    0.0001 (will be added to EATOM!!)
 
 
 POSCAR: Si+Ge
  positions in direct lattice
  No initial velocities read in


 exchange-correlation table for PE
   RHO(1)=    0.500       N(1)  =     2000
   RHO(2)=  100.500       N(2)  =     4000
 


--------------------------------------------------------------------------------------------------------


 ion  position               nearest neighbor table
   1  0.130  0.826  0.405-  85 2.21  72 2.35  35 2.35
   2  0.964  0.076  0.000-  64 2.35  21 2.35  78 2.49 114 2.70
   3  0.797  0.426  0.081-  65 2.35  68 2.35  22 2.35
   4  0.630  0.776  0.162-  66 2.35  32 2.35  69 2.35  23 2.35
   5  0.464  0.126  0.243-  61 2.35  33 2.35  24 2.35  70 2.35
   6  0.297  0.476  0.324-  19 2.35  71 2.35  34 2.35
   7  0.464  0.826  0.405-  60 2.35  23 2.35 103 2.87
   8  0.297  0.076  0.000-  84 1.80  70 2.35  27 2.35 101 2.92
   9  0.130  0.426  0.081-  71 2.35  56 2.35  28 2.35
  10  0.964  0.776  0.162-  72 2.35  20 2.35  57 2.35  29 2.35
  11  0.797  0.126  0.243-  67 2.35  30 2.35  21 2.35  58 2.35
  12  0.630  0.476  0.324-  25 2.35  59 2.35  22 2.35
  13  0.797  0.826  0.405-  97 2.29  66 2.35  29 2.35
  14  0.630  0.076  0.000- 120 1.69  58 2.35  33 2.35  89 2.85
  15  0.464  0.426  0.081-  59 2.35  62 2.35  34 2.35 113 3.02
  16  0.297  0.776  0.162-  60 2.35  26 2.35  63 2.35  35 2.35
  17  0.130  0.126  0.243-  55 2.35  27 2.35  36 2.35  64 2.35
  18  0.964  0.476  0.324-  31 2.35  65 2.35  28 2.35
  19  0.214  0.576  0.405-  53 2.35   6 2.35 116 2.90
  20  0.047  0.826  0.000- 102 2.02  10 2.35  45 2.35  82 2.94
  21  0.880  0.176  0.081-  46 2.35  11 2.35   2 2.35
  22  0.714  0.526  0.162-  50 2.35  47 2.35  12 2.35   3 2.35
  23  0.547  0.876  0.243-  51 2.35  48 2.35   7 2.35   4 2.35
  24  0.380  0.226  0.324-  52 2.35   5 2.35  43 2.35
  25  0.547  0.576  0.405- 110 2.33  41 2.35  12 2.35
  26  0.380  0.826  0.000- 108 2.19  16 2.35  51 2.35 118 2.87
  27  0.214  0.176  0.081-  52 2.35  17 2.35   8 2.35
  28  0.047  0.526  0.162-  38 2.35  53 2.35  18 2.35   9 2.35
  29  0.880  0.876  0.243-  39 2.35  54 2.35  13 2.35  10 2.35
  30  0.714  0.226  0.324-  40 2.35  11 2.35  49 2.35
  31  0.880  0.576  0.405-  80 2.25  47 2.35  18 2.35
  32  0.714  0.826  0.000-  96 1.61   4 2.35  39 2.35
  33  0.547  0.176  0.081-  40 2.35   5 2.35  14 2.35
  34  0.380  0.526  0.162-  44 2.35  41 2.35   6 2.35  15 2.35
  35  0.214  0.876  0.243-  45 2.35  42 2.35   1 2.35  16 2.35
  36  0.047  0.226  0.324-  46 2.35  17 2.35  37 2.35
  37  0.130  0.326  0.405-  71 2.35  36 2.35  92 2.64
  38  0.964  0.576  0.000-  28 2.35  57 2.35  88 2.83
  39  0.797  0.926  0.081-  29 2.35  58 2.35  32 2.35
  40  0.630  0.276  0.162-  30 2.35  68 2.35  33 2.35  59 2.35
  41  0.464  0.626  0.243-  25 2.35  34 2.35  69 2.35  60 2.35
  42  0.297  0.976  0.324-  70 2.35  35 2.35  55 2.35  79 2.65
  43  0.464  0.326  0.405-  98 2.19  59 2.35  24 2.35
  44  0.297  0.576  0.000-  34 2.35  63 2.35
  45  0.130  0.926  0.081-  35 2.35  64 2.35  20 2.35
  46  0.964  0.276  0.162-  36 2.35  56 2.35  21 2.35  65 2.35
  47  0.797  0.626  0.243-  31 2.35  22 2.35  57 2.35  66 2.35
  48  0.630  0.976  0.324-  58 2.35  23 2.35  61 2.35  73 2.78
  49  0.797  0.326  0.405-  65 2.35  30 2.35  86 2.50
  50  0.630  0.576  0.000-  22 2.35  69 2.35
  51  0.464  0.926  0.081-  23 2.35  70 2.35  26 2.35
  52  0.297  0.276  0.162-  24 2.35  62 2.35  27 2.35  71 2.35
  53  0.130  0.626  0.243-  19 2.35  63 2.35  28 2.35  72 2.35
  54  0.964  0.976  0.324-  64 2.35  29 2.35  67 2.35 109 2.36
  55  0.214  0.076  0.405-  79 2.15  17 2.35  42 2.35
  56  0.047  0.326  0.000-  46 2.35   9 2.35
  57  0.880  0.676  0.081-  38 2.35  47 2.35  10 2.35
  58  0.714  0.026  0.162-  14 2.35  48 2.35  39 2.35  11 2.35
  59  0.547  0.376  0.243-  15 2.35  43 2.35  12 2.35  40 2.35
  60  0.380  0.726  0.324-  16 2.35   7 2.35  41 2.35 103 2.41
  61  0.547  0.076  0.405-   5 2.35  48 2.35 115 2.47
  62  0.380  0.326  0.000-  52 2.35  15 2.35
  63  0.214  0.676  0.081-  53 2.35  44 2.35  16 2.35
  64  0.047  0.026  0.162-   2 2.35  54 2.35  45 2.35  17 2.35
  65  0.880  0.376  0.243-   3 2.35  49 2.35  18 2.35  46 2.35
  66  0.714  0.726  0.324-   4 2.35  13 2.35  47 2.35  91 3.03
  67  0.880  0.076  0.405-  11 2.35  54 2.35 109 2.61
  68  0.714  0.326  0.000-  40 2.35   3 2.35  83 2.80
  69  0.547  0.676  0.081-  41 2.35  50 2.35   4 2.35
  70  0.380  0.026  0.162-   8 2.35  42 2.35  51 2.35   5 2.35
  71  0.214  0.376  0.243-   9 2.35  37 2.35   6 2.35  52 2.35
  72  0.047  0.726  0.324-  10 2.35   1 2.35  53 2.35  85 2.49
  73  0.722  0.986  0.545- 105 2.48  93 2.48  48 2.78
  74  0.347  0.597  0.608- 103 2.48 106 2.48  94 2.48
  75  0.972  0.208  0.671- 104 2.48 107 2.48  95 2.48
  76  0.597  0.819  0.734-  91 2.46 105 2.48  96 2.48 108 2.48
  77  0.222  0.430  0.797-  92 2.46 106 2.48
  78  0.847  0.042  0.860-  93 2.46 107 2.48   2 2.49
  79  0.222  0.986  0.545-  55 2.15  99 2.48  87 2.48  42 2.65
  80  0.847  0.597  0.608-  31 2.25  97 2.48 100 2.48  88 2.48
  81  0.472  0.208  0.671-  98 2.48 101 2.48  89 2.48
  82  0.097  0.819  0.734-  85 2.46  99 2.48  90 2.48 102 2.48  20 2.94
  83  0.722  0.430  0.797-  86 2.46 100 2.48  68 2.80
  84  0.347  0.042  0.860-   8 1.80  87 2.46 101 2.48
  85  0.097  0.736  0.545-   1 2.21  82 2.46 116 2.48  72 2.49
  86  0.722  0.347  0.608-  83 2.46 117 2.48  49 2.50
  87  0.347  0.958  0.671-  84 2.46 118 2.48 115 2.48  79 2.48
  88  0.972  0.569  0.734- 119 2.48 116 2.48  80 2.48  38 2.83
  89  0.597  0.180  0.797- 120 2.48 117 2.48  81 2.48  14 2.85
  90  0.222  0.792  0.860-  82 2.48 118 2.48
  91  0.597  0.736  0.545-  76 2.46 110 2.48  66 3.03
  92  0.222  0.347  0.608-  77 2.46 111 2.48  37 2.64
  93  0.847  0.958  0.671-  78 2.46 112 2.48 109 2.48  73 2.48
  94  0.472  0.569  0.734- 113 2.48 110 2.48  74 2.48
  95  0.097  0.180  0.797- 114 2.48 111 2.48  75 2.48
  96  0.722  0.792  0.860-  32 1.61  76 2.48 112 2.48
  97  0.847  0.736  0.545-  13 2.29 112 2.46  80 2.48
  98  0.472  0.347  0.608-  43 2.19 113 2.46  81 2.48
  99  0.097  0.958  0.671- 114 2.46  82 2.48  79 2.48 109 2.48
 100  0.722  0.569  0.734-  83 2.48  80 2.48 110 2.48
 101  0.347  0.180  0.797-  84 2.48  81 2.48 111 2.48   8 2.92
 102  0.972  0.792  0.860-  20 2.02 112 2.48  82 2.48
 103  0.347  0.736  0.545-  60 2.41 118 2.46  74 2.48   7 2.87
 104  0.972  0.347  0.608- 119 2.46  75 2.48
 105  0.597  0.958  0.671- 120 2.46  76 2.48  73 2.48 115 2.48
 106  0.222  0.569  0.734-  77 2.48  74 2.48 116 2.48
 107  0.847  0.180  0.797-  78 2.48  75 2.48 117 2.48
 108  0.472  0.792  0.860-  26 2.19 118 2.48  76 2.48
 109  0.972  0.986  0.545-  54 2.36  93 2.48  99 2.48  67 2.61
 110  0.597  0.597  0.608-  25 2.33  91 2.48  94 2.48 100 2.48
 111  0.222  0.208  0.671-  92 2.48  95 2.48 101 2.48
 112  0.847  0.819  0.734-  97 2.46  93 2.48 102 2.48  96 2.48
 113  0.472  0.430  0.797-  98 2.46  94 2.48  15 3.02
 114  0.097  0.042  0.860-  99 2.46  95 2.48   2 2.70
 115  0.472  0.986  0.545-  61 2.47  87 2.48 105 2.48
 116  0.097  0.597  0.608-  85 2.48  88 2.48 106 2.48  19 2.90
 117  0.722  0.208  0.671-  86 2.48  89 2.48 107 2.48
 118  0.347  0.819  0.734- 103 2.46  87 2.48 108 2.48  90 2.48  26 2.87
 119  0.972  0.430  0.797- 104 2.46  88 2.48
 120  0.597  0.042  0.860-  14 1.69 105 2.46  89 2.48
 
  LATTYP: Found a simple orthorhombic cell.
 ALAT       =    10.6005468370
 B/A-ratio  =     1.5369962914
 C/A-ratio  =     1.6201362083
  
  Lattice vectors:
  
 A1 = (   0.0000000000,   0.0000002570,  10.6005468370)
 A2 = (  16.2930011750,   0.0000000000,   0.0000000000)
 A3 = (   0.0000000000,  17.1743297580,   0.0000000000)


Analysis of symmetry for initial positions (statically):
=====================================================================
 Subroutine PRICEL returns:
 Original cell was already a primitive cell.
 

 Routine SETGRP: Setting up the symmetry group for a 
 simple orthorhombic supercell.


 Subroutine GETGRP returns: Found  1 space group operations
 (whereof  1 operations were pure point group operations)
 out of a pool of  8 trial point group operations.


The static configuration has the point symmetry C_1 .


Analysis of symmetry for dynamics (positions and initial velocities):
=====================================================================
 Subroutine PRICEL returns:
 Original cell was already a primitive cell.
 

 Routine SETGRP: Setting up the symmetry group for a 
 simple orthorhombic supercell.


 Subroutine GETGRP returns: Found  1 space group operations
 (whereof  1 operations were pure point group operations)
 out of a pool of  8 trial point group operations.


The dynamic configuration has the point symmetry C_1 .


Analysis of structural, dynamic, and magnetic symmetry:
=====================================================================
 Subroutine PRICEL returns:
 Original cell was already a primitive cell.
 

 Routine SETGRP: Setting up the symmetry group for a 
 simple orthorhombic supercell.


 Subroutine GETGRP returns: Found  1 space group operations
 (whereof  1 operations were pure point group operations)
 out of a pool of  8 trial point group operations.


The overall configuration has the point symmetry C_1 .


 Subroutine INISYM returns: Found  1 space group operations
 (whereof  1 operations are pure point group operations),
 and found     1 'primitive' translations


----------------------------------------------------------------------------------------

                                     Primitive cell                                     

  volume of cell :    2966.2596

  direct lattice vectors                    reciprocal lattice vectors
    16.293001175  0.000000000  0.000000000     0.061376047  0.000000000  0.000000000
     0.000000000 17.174329758  0.000000000     0.000000000  0.058226435 -0.000000001
     0.000000000  0.000000257 10.600546837     0.000000000  0.000000000  0.094334756

  length of vectors
    16.293001175 17.174329758 10.600546837     0.061376047  0.058226435  0.094334756

  position of ions in fractional coordinates (direct lattice)
     0.130378902  0.826204658  0.405034721
     0.963712454  0.076203912  0.000000056
     0.797045708  0.426204026  0.081006989
     0.630379081  0.776204169  0.162013888
     0.463712275  0.126204491  0.243020862
     0.297045529  0.476204634  0.324027807
     0.463712275  0.826204658  0.405034721
     0.297045797  0.076203912  0.000000056
     0.130379081  0.426204026  0.081006989
     0.963712394  0.776204169  0.162013888
     0.797045588  0.126204491  0.243020862
     0.630378842  0.476204634  0.324027807
     0.797045588  0.826204658  0.405034721
     0.630379140  0.076203912  0.000000056
     0.463712424  0.426204026  0.081006989
     0.297045767  0.776204169  0.162013888
     0.130378976  0.126204491  0.243020862
     0.963712215  0.476204634  0.324027807
     0.213712215  0.576204777  0.405034631
     0.047045767  0.826204002  0.000000000
     0.880379081  0.176204205  0.081006967
     0.713712335  0.526204467  0.162013814
     0.547045588  0.876204610  0.243020788
     0.380378962  0.226204634  0.324027687
     0.547045588  0.576204777  0.405034631
     0.380379081  0.826204002  0.000000000
     0.213712379  0.176204205  0.081006967
     0.047045693  0.526204467  0.162013814
     0.880378962  0.876204610  0.243020788
     0.713712335  0.226204634  0.324027687
     0.880378902  0.576204777  0.405034631
     0.713712394  0.826204002  0.000000000
     0.547045708  0.176204205  0.081006967
     0.380378991  0.526204467  0.162013814
     0.213712230  0.876204610  0.243020788
     0.047045581  0.226204634  0.324027687
     0.130378902  0.326204777  0.405034721
     0.963712394  0.576204002  0.000000023
     0.797045708  0.926204145  0.081006944
     0.630379021  0.276204228  0.162013814
     0.463712275  0.626204491  0.243020862
     0.297045648  0.976204634  0.324027687
     0.463712275  0.326204777  0.405034721
     0.297045767  0.576204002  0.000000023
     0.130379051  0.926204145  0.081006944
     0.963712394  0.276204228  0.162013814
     0.797045588  0.626204491  0.243020862
     0.630378962  0.976204634  0.324027687
     0.797045588  0.326204777  0.405034721
     0.630379140  0.576204002  0.000000023
     0.463712394  0.926204145  0.081006944
     0.297045738  0.276204228  0.162013814
     0.130378976  0.626204491  0.243020862
     0.963712335  0.976204634  0.324027687
     0.213712215  0.076204777  0.405034602
     0.047045767  0.326203912  0.000000056
     0.880379081  0.676204026  0.081006952
     0.713712394  0.026204228  0.162013844
     0.547045588  0.376204491  0.243020788
     0.380378842  0.726204753  0.324027687
     0.547045588  0.076204777  0.405034602
     0.380379111  0.326203912  0.000000056
     0.213712409  0.676204026  0.081006952
     0.047045726  0.026204228  0.162013844
     0.880378962  0.376204491  0.243020788
     0.713712215  0.726204753  0.324027687
     0.880378962  0.076204777  0.405034602
     0.713712454  0.326203912  0.000000056
     0.547045767  0.676204026  0.081006952
     0.380379081  0.026204228  0.162013844
     0.213712290  0.376204491  0.243020788
     0.047045540  0.726204753  0.324027687
     0.721879661  0.986047685  0.545266390
     0.346879691  0.597158730  0.608166754
     0.971879721  0.208269835  0.671067119
     0.596879780  0.819380939  0.733967543
     0.221879721  0.430491984  0.796867847
     0.846879661  0.041602850  0.859768271
     0.221879721  0.986047685  0.545266390
     0.846879780  0.597158730  0.608166754
     0.471879721  0.208269775  0.671067119
     0.096879721  0.819380939  0.733967543
     0.721879900  0.430491984  0.796867847
     0.346879780  0.041602850  0.859768331
     0.096879721  0.736047626  0.545266390
     0.721879721  0.347158730  0.608166814
     0.346879750  0.958269775  0.671067178
     0.971879840  0.569380939  0.733967602
     0.596879959  0.180492043  0.796867907
     0.221879721  0.791602910  0.859768271
     0.596879661  0.736047626  0.545266390
     0.221879721  0.347158670  0.608166754
     0.846879721  0.958269715  0.671067119
     0.471879780  0.569380879  0.733967602
     0.096879959  0.180491924  0.796867847
     0.721879661  0.791602790  0.859768271
     0.846879661  0.736047626  0.545266390
     0.471879661  0.347158700  0.608166754
     0.096879721  0.958269715  0.671067119
     0.721879780  0.569380879  0.733967602
     0.346879900  0.180491984  0.796867847
     0.971879661  0.791602790  0.859768271
     0.346879661  0.736047626  0.545266390
     0.971879721  0.347158730  0.608166754
     0.596879721  0.958269775  0.671067119
     0.221879721  0.569380879  0.733967602
     0.846879900  0.180491984  0.796867847
     0.471879780  0.791602910  0.859768331
     0.971879601  0.986047685  0.545266390
     0.596879661  0.597158730  0.608166754
     0.221879721  0.208269835  0.671067119
     0.846879780  0.819380820  0.733967543
     0.471879900  0.430491984  0.796867847
     0.096879721  0.041602850  0.859768271
     0.471879661  0.986047685  0.545266390
     0.096879721  0.597158730  0.608166754
     0.721879780  0.208269835  0.671067178
     0.346879840  0.819380939  0.733967602
     0.971879900  0.430491984  0.796867847
     0.596879661  0.041602850  0.859768331

  ion indices of the primitive-cell ions
   primitive index   ion index
                 1           1
                 2           2
                 3           3
                 4           4
                 5           5
                 6           6
                 7           7
                 8           8
                 9           9
                10          10
                11          11
                12          12
                13          13
                14          14
                15          15
                16          16
                17          17
                18          18
                19          19
                20          20
                21          21
                22          22
                23          23
                24          24
                25          25
                26          26
                27          27
                28          28
                29          29
                30          30
                31          31
                32          32
                33          33
                34          34
                35          35
                36          36
                37          37
                38          38
                39          39
                40          40
                41          41
                42          42
                43          43
                44          44
                45          45
                46          46
                47          47
                48          48
                49          49
                50          50
                51          51
                52          52
                53          53
                54          54
                55          55
                56          56
                57          57
                58          58
                59          59
                60          60
                61          61
                62          62
                63          63
                64          64
                65          65
                66          66
                67          67
                68          68
                69          69
                70          70
                71          71
                72          72
                73          73
                74          74
                75          75
                76          76
                77          77
                78          78
                79          79
                80          80
                81          81
                82          82
                83          83
                84          84
                85          85
                86          86
                87          87
                88          88
                89          89
                90          90
                91          91
                92          92
                93          93
                94          94
                95          95
                96          96
                97          97
                98          98
                99          99
               100         100
               101         101
               102         102
               103         103
               104         104
               105         105
               106         106
               107         107
               108         108
               109         109
               110         110
               111         111
               112         112
               113         113
               114         114
               115         115
               116         116
               117         117
               118         118
               119         119
               120         120

----------------------------------------------------------------------------------------

 
 
 KPOINTS: Automatic KPOINTS generated             

Automatic generation of k-mesh.
 Grid dimensions read from file:
 generate k-points for:    2    2    3

 Generating k-lattice:

  Cartesian coordinates                     Fractional coordinates (reciprocal lattice)
     0.030688023  0.000000000  0.000000000     0.500000000  0.000000000  0.000000000
     0.000000000  0.029113218 -0.000000001     0.000000000  0.500000000 -0.000000000
     0.000000000  0.000000000  0.031444919     0.000000000  0.000000000  0.333333333

  Length of vectors
     0.030688023  0.029113218  0.031444919

  Shift w.r.t. Gamma in fractional coordinates (k-lattice)
     0.000000000  0.000000000  0.000000000

 
 Subroutine IBZKPT returns following result:
 ===========================================
 
 Found      8 irreducible k-points:
 
 Following reciprocal coordinates:
            Coordinates               Weight
  0.000000  0.000000  0.000000      1.000000
  0.500000  0.000000  0.000000      1.000000
  0.000000  0.500000 -0.000000      1.000000
  0.500000  0.500000 -0.000000      1.000000
  0.000000  0.000000  0.333333      2.000000
  0.500000  0.000000  0.333333      2.000000
  0.000000  0.500000  0.333333      2.000000
  0.500000  0.500000  0.333333      2.000000
 
 Following cartesian coordinates:
            Coordinates               Weight
  0.000000  0.000000  0.000000      1.000000
  0.030688  0.000000  0.000000      1.000000
  0.000000  0.029113 -0.000000      1.000000
  0.030688  0.029113 -0.000000      1.000000
  0.000000  0.000000  0.031445      2.000000
  0.030688  0.000000  0.031445      2.000000
  0.000000  0.029113  0.031445      2.000000
  0.030688  0.029113  0.031445      2.000000
 


--------------------------------------------------------------------------------------------------------




 Dimension of arrays:
   k-points           NKPTS =      8   k-points in BZ     NKDIM =      8   number of bands    NBANDS=    288
   number of dos      NEDOS =    301   number of ions     NIONS =    120
   non local maximal  LDIM  =      5   non local SUM 2l+1 LMDIM =     13
   total plane-waves  NPLWV = 846720
   max r-space proj   IRMAX =   2363   max aug-charges    IRDMAX= 124300
   dimension x,y,z NGX =   108 NGY =  112 NGZ =   70
   dimension x,y,z NGXF=   216 NGYF=  224 NGZF=  140
   support grid    NGXF=   432 NGYF=  448 NGZF=  280
   ions per type =              72  48
   NGX,Y,Z   is equivalent  to a cutoff of  11.02, 10.84, 10.98 a.u.
   NGXF,Y,Z  is equivalent  to a cutoff of  22.04, 21.68, 21.96 a.u.

 SYSTEM =  Si and Ge interface calculation         
 POSCAR =  Si+Ge                                   

 Startparameter for this run:
   NWRITE =      2    write-flag & timer
   PREC   = normal    normal or accurate (medium, high low for compatibility)
   ISTART =      0    job   : 0-new  1-cont  2-samecut
   ICHARG =      2    charge: 1-file 2-atom 10-const
   ISPIN  =      2    spin polarized calculation?
   LNONCOLLINEAR =      F non collinear calculations
   LSORBIT =      F    spin-orbit coupling
   INIWAV =      1    electr: 0-lowe 1-rand  2-diag
   LASPH  =      T    aspherical Exc in radial PAW
 Electronic Relaxation 1
   ENCUT  =  700.0 eV  51.45 Ry    7.17 a.u.  35.15 37.05 22.87*2*pi/ulx,y,z
   ENINI  =  700.0     initial cutoff
   ENAUG  =  900.0 eV  augmentation charge cutoff
   NELM   =    100;   NELMIN=  2; NELMDL= -5     # of ELM steps 
   EDIFF  = 0.1E-06   stopping-criterion for ELM
   LREAL  =      T    real-space projection
   NLSPLINE    = F    spline interpolate recip. space projectors
   LCOMPAT=      F    compatible to vasp.4.4
   GGA_COMPAT  = T    GGA compatible to vasp.4.4-vasp.4.6
   LMAXPAW     = -100 max onsite density
   LMAXMIX     =    6 max onsite mixed and CHGCAR
   VOSKOWN=      0    Vosko Wilk Nusair interpolation
   ROPT   =   -0.00050  -0.00050
 Ionic relaxation
   EDIFFG = 0.1E-05   stopping-criterion for IOM
   NSW    =      0    number of steps for IOM
   NBLOCK =      1;   KBLOCK =      1    inner block; outer block 
   IBRION =     -1    ionic relax: 0-MD 1-quasi-New 2-CG
   NFREE  =      0    steps in history (QN), initial steepest desc. (CG)
   ISIF   =      2    stress and relaxation
   IWAVPR =     10    prediction:  0-non 1-charg 2-wave 3-comb
   ISYM   =      2    0-nonsym 1-usesym 2-fastsym
   LCORR  =      T    Harris-Foulkes like correction to forces

   POTIM  = 0.5000    time-step for ionic-motion
   TEIN   =    0.0    initial temperature
   TEBEG  =    0.0;   TEEND  =   0.0 temperature during run
   SMASS  =  -3.00    Nose mass-parameter (am)
   estimated Nose-frequenzy (Omega)   =  0.10E-29 period in steps = 0.13E+47 mass=  -0.607E-26a.u.
   SCALEE = 1.0000    scale energy and forces
   NPACO  =    256;   APACO  = 10.0  distance and # of slots for P.C.
   PSTRESS=    0.0 pullay stress

  Mass of Ions in am
   POMASS =  28.09 72.61
  Ionic Valenz
   ZVAL   =   4.00  4.00
  Atomic Wigner-Seitz radii
   RWIGS  =  -1.00 -1.00
  virtual crystal weights 
   VCA    =   1.00  1.00
   NELECT =     480.0000    total number of electrons
   NUPDOWN=       1.0000    fix difference up-down

 DOS related values:
   EMIN   =  10.00;   EMAX   =-10.00  energy-range for DOS
   EFERMI =   0.00;   METHOD = LEGACY      
   ISMEAR =     0;   SIGMA  =   0.01  broadening in eV -4-tet -1-fermi 0-gaus

 Electronic relaxation 2 (details)
   IALGO  =     38    algorithm
   LDIAG  =      T    sub-space diagonalisation (order eigenvalues)
   LSUBROT=      F    optimize rotation matrix (better conditioning)
   TURBO    =      0    0=normal 1=particle mesh
   IRESTART =      0    0=no restart 2=restart with 2 vectors
   NREBOOT  =      0    no. of reboots
   NMIN     =      0    reboot dimension
   EREF     =   0.00    reference energy to select bands
   IMIX   =      4    mixing-type and parameters
     AMIX     =   0.60;   BMIX     =  1.00
     AMIX_MAG =   2.40;   BMIX_MAG =  1.00
     AMIN     =   0.10
     WC   =   100.;   INIMIX=   1;  MIXPRE=   1;  MAXMIX= -45

 Intra band minimization:
   WEIMIN = 0.0000     energy-eigenvalue tresh-hold
   EBREAK =  0.87E-10  absolut break condition
   DEPER  =   0.30     relativ break condition  

   TIME   =   0.40     timestep for ELM

  volume/ion in A,a.u.               =      24.72       166.81
  Fermi-wavevector in a.u.,A,eV,Ry     =   0.892111  1.685845 10.828359  0.795862
  Thomas-Fermi vector in A             =   2.014018
 
 Write flags
   LWAVE        =      F    write WAVECAR
   LDOWNSAMPLE  =      F    k-point downsampling of WAVECAR
   LCHARG       =      T    write CHGCAR
   LVTOT        =      F    write LOCPOT, total local potential
   LVHAR        =      T    write LOCPOT, Hartree potential only
   WRT_POTENTIAL=  hartree ionic  ! write potential to hdf5 file
   LELF         =      F    write electronic localiz. function (ELF)
   LORBIT       =      0    0 simple, 1 ext, 2 COOP (PROOUT), +10 PAW based schemes


 Dipole corrections
   LMONO      =      F    monopole corrections only (constant potential shift)
   LDIPOL     =      F    correct potential (dipole corrections)
   IDIPOL     =      0    1-x, 2-y, 3-z, 4-all directions 
   EPSILON    =  1.0000000 bulk dielectric constant
   LVACPOTAV  =      F  vacuum potentials using an averaging scheme for the charge density
   VACPOTFLAT =  0.1000000 required flatness to determine vacuum potential
 Exchange correlation treatment:
   GGA     = PE    functional components
   XC_C    = 1    coefficients multiplying the functional components
   LIBXC   =     F    Libxc                    
   VOSKOWN =     0    Vosko Wilk Nusair interpolation
   LHFCALC =     F    Hartree Fock is set to
   LHFONE  =     F    Hartree Fock one center treatment
   AEXX    =    0.0000 exact exchange contribution

 Parameters of functionals:
   PE:
     No parameter
 
 Van der Waals corrections
   IVDW    =     0    specifies the selected vdW correction

 Linear response parameters
   LEPSILON=     F    determine dielectric tensor
   LRPA    =     F    only Hartree local field effects (RPA)
   LNABLA  =     F    use nabla operator in PAW spheres
   LVEL    =     F    velocity operator in full k-point grid
   CSHIFT  =0.1000    complex shift for real part using Kramers Kronig
   OMEGAMAX=  -1.0    maximum frequency
   DEG_THRESHOLD= 0.2000000E-02 threshold for treating states as degnerate
   RTIME   =   -0.100 relaxation time in fs
  (WPLASMAI=    0.000 imaginary part of plasma frequency in eV, 0.658/RTIME)
   DFIELD  = 0.0000000 0.0000000 0.0000000 field for delta impulse in time
 
  Optional k-point grid parameters
   LKPOINTS_OPT  =     F    use optional k-point grid
   KPOINTS_OPT_MODE=     1    mode for optional k-point grid
 
 Orbital magnetization related:
   ORBITALMAG=     F  switch on orbital magnetization
   LCHIMAG   =     F  perturbation theory with respect to B field
   DQ        =  0.001000  dq finite difference perturbation B field
   LLRAUG    =     F  two centre corrections for induced B field
   LBONE     =     F  B-component reconstruction in AE one-centre
   LVGVCALC  =     T  calculate vGv susceptibility
   LVGVAPPL  =     F  apply vGv susceptibility instead of pGv for G=0

 Random number generation:
   RANDOM_GENERATOR = DEFAULT
   PCG_SEED         = not used


--------------------------------------------------------------------------------------------------------


 Static calculation
 charge density and potential will be updated during run
 spin polarized calculation
 Variant of blocked Davidson
 Davidson routine will perform the subspace rotation
 perform sub-space diagonalisation
    after iterative eigenvector-optimisation
 modified Broyden-mixing scheme, WC =      100.0
 initial mixing is a Kerker type mixing with AMIX =  0.6000 and BMIX =      1.0000
 Hartree-type preconditioning will be used
 using additional bands           48
 real space projection scheme for non local part
 use partial core corrections
 calculate Harris-corrections to forces 
   (improved forces if not selfconsistent)
 use gradient corrections 
 use of overlap-Matrix (Vanderbilt PP)
 Gauss-broadening in eV      SIGMA  =   0.01


--------------------------------------------------------------------------------------------------------


  energy-cutoff  :      700.00
  volume of cell :     2966.26
      direct lattice vectors                 reciprocal lattice vectors
    16.293001175  0.000000000  0.000000000     0.061376047  0.000000000  0.000000000
     0.000000000 17.174329758  0.000000000     0.000000000  0.058226435 -0.000000001
     0.000000000  0.000000257 10.600546837     0.000000000  0.000000000  0.094334756

  length of vectors
    16.293001175 17.174329758 10.600546837     0.061376047  0.058226435  0.094334756


 
 k-points in units of 2pi/SCALE and weight: Automatic KPOINTS generated             
   0.00000000  0.00000000  0.00000000       0.083
   0.03068802  0.00000000  0.00000000       0.083
   0.00000000  0.02911322 -0.00000000       0.083
   0.03068802  0.02911322 -0.00000000       0.083
   0.00000000  0.00000000  0.03144492       0.167
   0.03068802  0.00000000  0.03144492       0.167
   0.00000000  0.02911322  0.03144492       0.167
   0.03068802  0.02911322  0.03144492       0.167
 
 k-points in reciprocal lattice and weights: Automatic KPOINTS generated             
   0.00000000  0.00000000  0.00000000       0.083
   0.50000000  0.00000000  0.00000000       0.083
   0.00000000  0.50000000 -0.00000000       0.083
   0.50000000  0.50000000 -0.00000000       0.083
   0.00000000  0.00000000  0.33333333       0.167
   0.50000000  0.00000000  0.33333333       0.167
   0.00000000  0.50000000  0.33333333       0.167
   0.50000000  0.50000000  0.33333333       0.167
 
 position of ions in fractional coordinates (direct lattice) 
   0.13037890  0.82620466  0.40503472
   0.96371245  0.07620391  0.00000006
   0.79704571  0.42620403  0.08100699
   0.63037908  0.77620417  0.16201389
   0.46371227  0.12620449  0.24302086
   0.29704553  0.47620463  0.32402781
   0.46371227  0.82620466  0.40503472
   0.29704580  0.07620391  0.00000006
   0.13037908  0.42620403  0.08100699
   0.96371239  0.77620417  0.16201389
   0.79704559  0.12620449  0.24302086
   0.63037884  0.47620463  0.32402781
   0.79704559  0.82620466  0.40503472
   0.63037914  0.07620391  0.00000006
   0.46371242  0.42620403  0.08100699
   0.29704577  0.77620417  0.16201389
   0.13037898  0.12620449  0.24302086
   0.96371222  0.47620463  0.32402781
   0.21371222  0.57620478  0.40503463
   0.04704577  0.82620400  0.00000000
   0.88037908  0.17620420  0.08100697
   0.71371233  0.52620447  0.16201381
   0.54704559  0.87620461  0.24302079
   0.38037896  0.22620463  0.32402769
   0.54704559  0.57620478  0.40503463
   0.38037908  0.82620400  0.00000000
   0.21371238  0.17620420  0.08100697
   0.04704569  0.52620447  0.16201381
   0.88037896  0.87620461  0.24302079
   0.71371233  0.22620463  0.32402769
   0.88037890  0.57620478  0.40503463
   0.71371239  0.82620400  0.00000000
   0.54704571  0.17620420  0.08100697
   0.38037899  0.52620447  0.16201381
   0.21371223  0.87620461  0.24302079
   0.04704558  0.22620463  0.32402769
   0.13037890  0.32620478  0.40503472
   0.96371239  0.57620400  0.00000002
   0.79704571  0.92620414  0.08100694
   0.63037902  0.27620423  0.16201381
   0.46371227  0.62620449  0.24302086
   0.29704565  0.97620463  0.32402769
   0.46371227  0.32620478  0.40503472
   0.29704577  0.57620400  0.00000002
   0.13037905  0.92620414  0.08100694
   0.96371239  0.27620423  0.16201381
   0.79704559  0.62620449  0.24302086
   0.63037896  0.97620463  0.32402769
   0.79704559  0.32620478  0.40503472
   0.63037914  0.57620400  0.00000002
   0.46371239  0.92620414  0.08100694
   0.29704574  0.27620423  0.16201381
   0.13037898  0.62620449  0.24302086
   0.96371233  0.97620463  0.32402769
   0.21371222  0.07620478  0.40503460
   0.04704577  0.32620391  0.00000006
   0.88037908  0.67620403  0.08100695
   0.71371239  0.02620423  0.16201384
   0.54704559  0.37620449  0.24302079
   0.38037884  0.72620475  0.32402769
   0.54704559  0.07620478  0.40503460
   0.38037911  0.32620391  0.00000006
   0.21371241  0.67620403  0.08100695
   0.04704573  0.02620423  0.16201384
   0.88037896  0.37620449  0.24302079
   0.71371222  0.72620475  0.32402769
   0.88037896  0.07620478  0.40503460
   0.71371245  0.32620391  0.00000006
   0.54704577  0.67620403  0.08100695
   0.38037908  0.02620423  0.16201384
   0.21371229  0.37620449  0.24302079
   0.04704554  0.72620475  0.32402769
   0.72187966  0.98604769  0.54526639
   0.34687969  0.59715873  0.60816675
   0.97187972  0.20826984  0.67106712
   0.59687978  0.81938094  0.73396754
   0.22187972  0.43049198  0.79686785
   0.84687966  0.04160285  0.85976827
   0.22187972  0.98604769  0.54526639
   0.84687978  0.59715873  0.60816675
   0.47187972  0.20826977  0.67106712
   0.09687972  0.81938094  0.73396754
   0.72187990  0.43049198  0.79686785
   0.34687978  0.04160285  0.85976833
   0.09687972  0.73604763  0.54526639
   0.72187972  0.34715873  0.60816681
   0.34687975  0.95826977  0.67106718
   0.97187984  0.56938094  0.73396760
   0.59687996  0.18049204  0.79686791
   0.22187972  0.79160291  0.85976827
   0.59687966  0.73604763  0.54526639
   0.22187972  0.34715867  0.60816675
   0.84687972  0.95826972  0.67106712
   0.47187978  0.56938088  0.73396760
   0.09687996  0.18049192  0.79686785
   0.72187966  0.79160279  0.85976827
   0.84687966  0.73604763  0.54526639
   0.47187966  0.34715870  0.60816675
   0.09687972  0.95826972  0.67106712
   0.72187978  0.56938088  0.73396760
   0.34687990  0.18049198  0.79686785
   0.97187966  0.79160279  0.85976827
   0.34687966  0.73604763  0.54526639
   0.97187972  0.34715873  0.60816675
   0.59687972  0.95826977  0.67106712
   0.22187972  0.56938088  0.73396760
   0.84687990  0.18049198  0.79686785
   0.47187978  0.79160291  0.85976833
   0.97187960  0.98604769  0.54526639
   0.59687966  0.59715873  0.60816675
   0.22187972  0.20826984  0.67106712
   0.84687978  0.81938082  0.73396754
   0.47187990  0.43049198  0.79686785
   0.09687972  0.04160285  0.85976827
   0.47187966  0.98604769  0.54526639
   0.09687972  0.59715873  0.60816675
   0.72187978  0.20826984  0.67106718
   0.34687984  0.81938094  0.73396760
   0.97187990  0.43049198  0.79686785
   0.59687966  0.04160285  0.85976833
 
 position of ions in cartesian coordinates  (Angst):
   2.12426360 14.18951135  4.29358953
  15.70176815  1.30875111  0.00000059
  12.98626666  7.31976851  0.85871838
  10.27076711 13.33078640  1.71743581
   7.55526464  2.16747761  2.57615403
   4.83976315  8.17849550  3.43487194
   7.55526464 14.18951135  4.29358953
   4.83976752  1.30875111  0.00000059
   2.12426652  7.31976851  0.85871838
  15.70176717 13.33078640  1.71743581
  12.98626470  2.16747761  2.57615403
  10.27076321  8.17849550  3.43487194
  12.98626470 14.18951135  4.29358953
  10.27076807  1.30875111  0.00000059
   7.55526707  7.31976851  0.85871838
   4.83976703 13.33078640  1.71743581
   2.12426481  2.16747761  2.57615403
  15.70176425  8.17849550  3.43487194
   3.48201337  9.89593095  4.29358858
   0.76651674 14.18949998  0.00000000
  14.34401740  3.02618914  0.85871815
  11.62851591  9.03720908  1.71743502
   8.91301441 15.04822697  2.57615325
   6.19751487  3.88491306  3.43487067
   8.91301441  9.89593095  4.29358858
   6.19751681 14.18949998  0.00000000
   3.48201604  3.02618914  0.85871815
   0.76651553  9.03720908  1.71743502
  14.34401546 15.04822697  2.57615325
  11.62851591  3.88491306  3.43487067
  14.34401448  9.89593095  4.29358858
  11.62851687 14.18949998  0.00000000
   8.91301636  3.02618914  0.85871815
   6.19751535  9.03720908  1.71743502
   3.48201361 15.04822697  2.57615325
   0.76651371  3.88491306  3.43487067
   2.12426360  5.60234851  4.29358953
  15.70176717  9.89591754  0.00000024
  12.98626666 15.90693543  0.85871790
  10.27076613  4.74362253  1.71743502
   7.55526464 10.75464249  2.57615403
   4.83976509 16.76566038  3.43487067
   7.55526464  5.60234851  4.29358953
   4.83976703  9.89591754  0.00000024
   2.12426603 15.90693543  0.85871790
  15.70176717  4.74362253  1.71743502
  12.98626470 10.75464249  2.57615403
  10.27076517 16.76566038  3.43487067
  12.98626470  5.60234851  4.29358953
  10.27076807  9.89591754  0.00000024
   7.55526658 15.90693543  0.85871790
   4.83976656  4.74362253  1.71743502
   2.12426481 10.75464249  2.57615403
  15.70176621 16.76566038  3.43487067
   3.48201337  1.30876607  4.29358827
   0.76651674  5.60233355  0.00000059
  14.34401740 11.61335095  0.85871799
  11.62851687  0.45004009  1.71743534
   8.91301441  6.46106005  2.57615325
   6.19751292 12.47207998  3.43487067
   8.91301441  1.30876607  4.29358827
   6.19751730  5.60233355  0.00000059
   3.48201653 11.61335095  0.85871799
   0.76651607  0.45004009  1.71743534
  14.34401546  6.46106005  2.57615325
  11.62851396 12.47207998  3.43487067
  14.34401546  1.30876607  4.29358827
  11.62851785  5.60233355  0.00000059
   8.91301732 11.61335095  0.85871799
   6.19751681  0.45004009  1.71743534
   3.48201459  6.46106005  2.57615325
   0.76651304 12.47207998  3.43487067
  11.76158616 16.93470824  5.78012191
   5.65171121 10.25580110  6.44690016
  15.83483744  3.57689500  7.11367843
   9.72496296 14.07231863  7.78045732
   3.61508655  7.39341150  8.44723494
  13.79821131  0.71450129  9.11401383
   3.61508655 16.93470824  5.78012191
  13.79821325 10.25580110  6.44690016
   7.68833685  3.57689397  7.11367843
   1.57846141 14.07231863  7.78045732
  11.76159006  7.39341150  8.44723494
   5.65171266  0.71450129  9.11401446
   1.57846141 12.64112479  5.78012191
  11.76158714  5.96221866  6.44690080
   5.65171217 16.45764129  7.11367905
  15.83483938  9.77873619  7.78045794
   9.72496587  3.09983007  8.44723557
   3.61508655 13.59524963  9.11401383
   9.72496102 12.64112479  5.78012191
   3.61508655  5.96221763  6.44690016
  13.79821229 16.45764025  7.11367843
   7.68833781  9.77873516  7.78045794
   1.57846529  3.09982803  8.44723494
  11.76158616 13.59524757  9.11401383
  13.79821131 12.64112479  5.78012191
   7.68833587  5.96221815  6.44690016
   1.57846141 16.45764025  7.11367843
  11.76158810  9.77873516  7.78045794
   5.65171462  3.09982906  8.44723494
  15.83483646 13.59524757  9.11401383
   5.65171072 12.64112479  5.78012191
  15.83483744  5.96221866  6.44690016
   9.72496200 16.45764129  7.11367843
   3.61508655  9.77873516  7.78045794
  13.79821521  3.09982906  8.44723494
   7.68833781 13.59524963  9.11401446
  15.83483548 16.93470824  5.78012191
   9.72496102 10.25580110  6.44690016
   3.61508655  3.57689500  7.11367843
  13.79821325 14.07231659  7.78045732
   7.68833977  7.39341150  8.44723494
   1.57846141  0.71450129  9.11401383
   7.68833587 16.93470824  5.78012191
   1.57846141 10.25580110  6.44690016
  11.76158810  3.57689500  7.11367905
   5.65171364 14.07231863  7.78045794
  15.83484035  7.39341150  8.44723494
   9.72496102  0.71450129  9.11401446
 


--------------------------------------------------------------------------------------------------------


 k-point     1 :   0.0000 0.0000 0.0000  plane waves:  124581
 k-point     2 :   0.5000 0.0000 0.0000  plane waves:  124802
 k-point     3 :   0.0000 0.5000-0.0000  plane waves:  124638
 k-point     4 :   0.5000 0.5000-0.0000  plane waves:  124728
 k-point     5 :   0.0000 0.0000 0.3333  plane waves:  124674
 k-point     6 :   0.5000 0.0000 0.3333  plane waves:  124716
 k-point     7 :   0.0000 0.5000 0.3333  plane waves:  124766
 k-point     8 :   0.5000 0.5000 0.3333  plane waves:  124772

 maximum and minimum number of plane-waves per node :      7845     7751

 maximum number of plane-waves:    124802
 maximum index in each direction: 
   IXMAX=   35   IYMAX=   37   IZMAX=   22
   IXMIN=  -35   IYMIN=  -37   IZMIN=  -23


 real space projection operators:
  total allocation   :      17430.05 KBytes
  max/ min on nodes  :       1178.07        963.75


 parallel 3D FFT for wavefunctions:
    minimum data exchange during FFTs selected (reduces bandwidth)
 parallel 3D FFT for charge:
    minimum data exchange during FFTs selected (reduces bandwidth)


 total amount of memory used by VASP MPI-rank0   214220. kBytes
=======================================================================

   base      :      30000. kBytes
   nonlr-proj:       6135. kBytes
   fftplans  :      17779. kBytes
   grid      :      14565. kBytes
   one-center:        129. kBytes
   wavefun   :     145612. kBytes
 
     INWAV:  cpu time      0.0000: real time      0.0002
 Broyden mixing: mesh for mixing (old mesh)
   NGX = 71   NGY = 75   NGZ = 45
  (NGX  =216   NGY  =224   NGZ  =140)
  gives a total of 239625 points

 initial charge density was supplied:
 charge density of overlapping atoms calculated
 number of electron     480.0000000 magnetization       1.0000000
 keeping initial charge density in first step


--------------------------------------------------------------------------------------------------------


 Maximum index for non-local projection operator          206
 Maximum index for augmentation-charges         2929 (set IRDMAX)


--------------------------------------------------------------------------------------------------------


 First call to EWALD:  gamma=   0.123
 Maximum number of real-space cells 2x 2x 4
 Maximum number of reciprocal cells 3x 3x 2

    FEWALD:  cpu time      0.0032: real time      0.0032


--------------------------------------- Ionic step        1  -------------------------------------------




--------------------------------------- Iteration      1(   1)  ---------------------------------------


    POTLOK:  cpu time      0.2375: real time      0.2393
    SETDIJ:  cpu time      1.0948: real time      1.0998
     EDDAV:  cpu time     26.3665: real time     26.6113
       DOS:  cpu time      0.0024: real time      0.0024
    --------------------------------------------
      LOOP:  cpu time     27.7012: real time     27.9528

 eigenvalue-minimisations  :  9216
 total energy-change (2. order) : 0.1996584E+04  (-0.2082289E+05)
 number of electron     480.0000000 magnetization       1.0000000
 augmentation part      480.0000000 magnetization       1.0000000

 Free energy of the ion-electron system (eV)
  ---------------------------------------------------
  alpha Z        PSCENC =       469.20087323
  Ewald energy   TEWEN  =    -11957.43465530
  -Hartree energ DENC   =     -1509.97445734
  -exchange      EXHF   =         0.00000000
  -V(xc)+E(xc)   XCENC  =     -1055.83714300
  PAW double counting   =     10575.88222728    -8613.76247617
  entropy T*S    EENTRO =        -0.00249688
  eigenvalues    EBANDS =      1627.91148162
  atomic energy  EATOM  =     12460.60057749
  Solvation  Ediel_sol  =         0.00000000
  ---------------------------------------------------
  free energy    TOTEN  =      1996.58393093 eV

  energy without entropy =     1996.58642781  energy(sigma->0) =     1996.58517937


--------------------------------------------------------------------------------------------------------




--------------------------------------- Iteration      1(   2)  ---------------------------------------


     EDDAV:  cpu time     29.6063: real time     29.8897
       DOS:  cpu time      0.0092: real time      0.0093
    --------------------------------------------
      LOOP:  cpu time     29.6155: real time     29.8989

 eigenvalue-minimisations  : 10760
 total energy-change (2. order) :-0.2300596E+04  (-0.2226961E+04)
 number of electron     480.0000000 magnetization       1.0000000
 augmentation part      480.0000000 magnetization       1.0000000

 Free energy of the ion-electron system (eV)
  ---------------------------------------------------
  alpha Z        PSCENC =       469.20087323
  Ewald energy   TEWEN  =    -11957.43465530
  -Hartree energ DENC   =     -1509.97445734
  -exchange      EXHF   =         0.00000000
  -V(xc)+E(xc)   XCENC  =     -1055.83714300
  PAW double counting   =     10575.88222728    -8613.76247617
  entropy T*S    EENTRO =        -0.00164825
  eigenvalues    EBANDS =      -672.68493908
  atomic energy  EATOM  =     12460.60057749
  Solvation  Ediel_sol  =         0.00000000
  ---------------------------------------------------
  free energy    TOTEN  =      -304.01164114 eV

  energy without entropy =     -304.00999289  energy(sigma->0) =     -304.01081702


--------------------------------------------------------------------------------------------------------




--------------------------------------- Iteration      1(   3)  ---------------------------------------


     EDDAV:  cpu time     31.5581: real time     31.8385
       DOS:  cpu time      0.0018: real time      0.0018
    --------------------------------------------
      LOOP:  cpu time     31.5599: real time     31.8403

 eigenvalue-minimisations  : 11664
 total energy-change (2. order) :-0.2198889E+03  (-0.2105163E+03)
 number of electron     480.0000000 magnetization       1.0000000
 augmentation part      480.0000000 magnetization       1.0000000

 Free energy of the ion-electron system (eV)
  ---------------------------------------------------
  alpha Z        PSCENC =       469.20087323
  Ewald energy   TEWEN  =    -11957.43465530
  -Hartree energ DENC   =     -1509.97445734
  -exchange      EXHF   =         0.00000000
  -V(xc)+E(xc)   XCENC  =     -1055.83714300
  PAW double counting   =     10575.88222728    -8613.76247617
  entropy T*S    EENTRO =        -0.00251371
  eigenvalues    EBANDS =      -892.57292544
  atomic energy  EATOM  =     12460.60057749
  Solvation  Ediel_sol  =         0.00000000
  ---------------------------------------------------
  free energy    TOTEN  =      -523.90049296 eV

  energy without entropy =     -523.89797925  energy(sigma->0) =     -523.89923611


--------------------------------------------------------------------------------------------------------




--------------------------------------- Iteration      1(   4)  ---------------------------------------


     EDDAV:  cpu time     30.2336: real time     30.5032
       DOS:  cpu time      0.0017: real time      0.0017
    --------------------------------------------
      LOOP:  cpu time     30.2353: real time     30.5049

 eigenvalue-minimisations  : 11048
 total energy-change (2. order) :-0.9323772E+01  (-0.9041902E+01)
 number of electron     480.0000000 magnetization       1.0000000
 augmentation part      480.0000000 magnetization       1.0000000

 Free energy of the ion-electron system (eV)
  ---------------------------------------------------
  alpha Z        PSCENC =       469.20087323
  Ewald energy   TEWEN  =    -11957.43465530
  -Hartree energ DENC   =     -1509.97445734
  -exchange      EXHF   =         0.00000000
  -V(xc)+E(xc)   XCENC  =     -1055.83714300
  PAW double counting   =     10575.88222728    -8613.76247617
  entropy T*S    EENTRO =        -0.00257087
  eigenvalues    EBANDS =      -901.89663991
  atomic energy  EATOM  =     12460.60057749
  Solvation  Ediel_sol  =         0.00000000
  ---------------------------------------------------
  free energy    TOTEN  =      -533.22426459 eV

  energy without entropy =     -533.22169372  energy(sigma->0) =     -533.22297916


--------------------------------------------------------------------------------------------------------




--------------------------------------- Iteration      1(   5)  ---------------------------------------


     EDDAV:  cpu time     34.0520: real time     34.4111
       DOS:  cpu time      0.0018: real time      0.0018
    CHARGE:  cpu time      1.2976: real time      1.3108
    MIXING:  cpu time      0.0071: real time      0.0072
    --------------------------------------------
      LOOP:  cpu time     35.3585: real time     35.7308

 eigenvalue-minimisations  : 12872
 total energy-change (2. order) :-0.4002388E+00  (-0.3961857E+00)
 number of electron     479.9999998 magnetization       1.0000000
 augmentation part      -49.7075502 magnetization      -0.0575704

 Broyden mixing:
  rms(total) = 0.30217E+01    rms(broyden)= 0.30217E+01
  rms(prec ) = 0.33583E+01
  weight for this iteration     100.00

 Free energy of the ion-electron system (eV)
  ---------------------------------------------------
  alpha Z        PSCENC =       469.20087323
  Ewald energy   TEWEN  =    -11957.43465530
  -Hartree energ DENC   =     -1509.97445734
  -exchange      EXHF   =         0.00000000
  -V(xc)+E(xc)   XCENC  =     -1055.83714300
  PAW double counting   =     10575.88222728    -8613.76247617
  entropy T*S    EENTRO =        -0.00272408
  eigenvalues    EBANDS =      -902.29672552
  atomic energy  EATOM  =     12460.60057749
  Solvation  Ediel_sol  =         0.00000000
  ---------------------------------------------------
  free energy    TOTEN  =      -533.62450341 eV

  energy without entropy =     -533.62177933  energy(sigma->0) =     -533.62314137


--------------------------------------------------------------------------------------------------------




--------------------------------------- Iteration      1(   6)  ---------------------------------------


    POTLOK:  cpu time      0.2200: real time      0.2230
    SETDIJ:  cpu time      1.0747: real time      1.0800
     EDDAV:  cpu time     30.1993: real time     30.4942
       DOS:  cpu time      0.0017: real time      0.0017
    CHARGE:  cpu time      1.2984: real time      1.3078
    MIXING:  cpu time      0.0082: real time      0.0082
    --------------------------------------------
      LOOP:  cpu time     32.8023: real time     33.1150

 eigenvalue-minimisations  : 11056
 total energy-change (2. order) : 0.1166271E+02  (-0.5072740E+01)
 number of electron     479.9999998 magnetization       1.0000000
 augmentation part      -49.6340245 magnetization      -0.0496276

 Broyden mixing:
  rms(total) = 0.13707E+01    rms(broyden)= 0.13707E+01
  rms(prec ) = 0.18300E+01
  weight for this iteration     100.00

 eigenvalues of (default mixing * dielectric matrix)
  average eigenvalue GAMMA=   1.4394
  1.4394

 Free energy of the ion-electron system (eV)
  ---------------------------------------------------
  alpha Z        PSCENC =       469.20087323
  Ewald energy   TEWEN  =    -11957.43465530
  -Hartree energ DENC   =     -1660.84906507
  -exchange      EXHF   =         0.00000000
  -V(xc)+E(xc)   XCENC  =     -1039.06754763
  PAW double counting   =     20929.13677287   -18974.89947335
  entropy T*S    EENTRO =        -0.00398320
  eigenvalues    EBANDS =      -748.64528804
  atomic energy  EATOM  =     12460.60057749
  Solvation  Ediel_sol  =         0.00000000
  ---------------------------------------------------
  free energy    TOTEN  =      -521.96178899 eV

  energy without entropy =     -521.95780579  energy(sigma->0) =     -521.95979739


--------------------------------------------------------------------------------------------------------




--------------------------------------- Iteration      1(   7)  ---------------------------------------


    POTLOK:  cpu time      0.2161: real time      0.2188
    SETDIJ:  cpu time      1.0760: real time      1.0813
     EDDAV:  cpu time     32.2241: real time     32.5260
       DOS:  cpu time      0.0019: real time      0.0019
    CHARGE:  cpu time      1.3013: real time      1.3107
    MIXING:  cpu time      0.0086: real time      0.0086
    --------------------------------------------
      LOOP:  cpu time     34.8280: real time     35.1473

 eigenvalue-minimisations  : 12008
 total energy-change (2. order) :-0.1101627E+01  (-0.3453754E+01)
 number of electron     479.9999998 magnetization       1.0000000
 augmentation part      -49.4256882 magnetization      -0.0543586

 Broyden mixing:
  rms(total) = 0.10576E+01    rms(broyden)= 0.10576E+01
  rms(prec ) = 0.18579E+01
  weight for this iteration     100.00

 eigenvalues of (default mixing * dielectric matrix)
  average eigenvalue GAMMA=   1.0643
  1.7086  0.4200

 Free energy of the ion-electron system (eV)
  ---------------------------------------------------
  alpha Z        PSCENC =       469.20087323
  Ewald energy   TEWEN  =    -11957.43465530
  -Hartree energ DENC   =     -1670.58773200
  -exchange      EXHF   =         0.00000000
  -V(xc)+E(xc)   XCENC  =     -1033.27651615
  PAW double counting   =     26683.77319021   -24732.04954038
  entropy T*S    EENTRO =        -0.00270174
  eigenvalues    EBANDS =      -743.28691154
  atomic energy  EATOM  =     12460.60057749
  Solvation  Ediel_sol  =         0.00000000
  ---------------------------------------------------
  free energy    TOTEN  =      -523.06341620 eV

  energy without entropy =     -523.06071445  energy(sigma->0) =     -523.06206533


--------------------------------------------------------------------------------------------------------




--------------------------------------- Iteration      1(   8)  ---------------------------------------


    POTLOK:  cpu time      0.2184: real time      0.2199
    SETDIJ:  cpu time      1.0759: real time      1.0818
     EDDAV:  cpu time     32.7989: real time     33.1165
       DOS:  cpu time      0.0017: real time      0.0017
    CHARGE:  cpu time      1.3002: real time      1.3099
    MIXING:  cpu time      0.0087: real time      0.0087
    --------------------------------------------
      LOOP:  cpu time     35.4037: real time     35.7385

 eigenvalue-minimisations  : 12264
 total energy-change (2. order) : 0.2700343E+01  (-0.1257065E+01)
 number of electron     479.9999998 magnetization       1.0000000
 augmentation part      -49.2740179 magnetization      -0.0521107

 Broyden mixing:
  rms(total) = 0.46333E+00    rms(broyden)= 0.46333E+00
  rms(prec ) = 0.70724E+00
  weight for this iteration     100.00

 eigenvalues of (default mixing * dielectric matrix)
  average eigenvalue GAMMA=   0.9394
  1.8039  0.5071  0.5071

 Free energy of the ion-electron system (eV)
  ---------------------------------------------------
  alpha Z        PSCENC =       469.20087323
  Ewald energy   TEWEN  =    -11957.43465530
  -Hartree energ DENC   =     -1702.14969906
  -exchange      EXHF   =         0.00000000
  -V(xc)+E(xc)   XCENC  =     -1029.22891847
  PAW double counting   =     32062.70909343   -30112.81166628
  entropy T*S    EENTRO =        -0.00343692
  eigenvalues    EBANDS =      -711.24524125
  atomic energy  EATOM  =     12460.60057749
  Solvation  Ediel_sol  =         0.00000000
  ---------------------------------------------------
  free energy    TOTEN  =      -520.36307312 eV

  energy without entropy =     -520.35963620  energy(sigma->0) =     -520.36135466


--------------------------------------------------------------------------------------------------------




--------------------------------------- Iteration      1(   9)  ---------------------------------------


    POTLOK:  cpu time      0.2166: real time      0.2188
    SETDIJ:  cpu time      1.0729: real time      1.0781
     EDDAV:  cpu time     31.2477: real time     31.5244
       DOS:  cpu time      0.0019: real time      0.0019
    CHARGE:  cpu time      1.2879: real time      1.2970
    MIXING:  cpu time      0.0085: real time      0.0086
    --------------------------------------------
      LOOP:  cpu time     33.8355: real time     34.1288

 eigenvalue-minimisations  : 11488
 total energy-change (2. order) : 0.4994527E+00  (-0.3280830E+00)
 number of electron     479.9999998 magnetization       1.0000000
 augmentation part      -49.3313432 magnetization      -0.0519389

 Broyden mixing:
  rms(total) = 0.18632E+00    rms(broyden)= 0.18632E+00
  rms(prec ) = 0.25409E+00
  weight for this iteration     100.00

 eigenvalues of (default mixing * dielectric matrix)
  average eigenvalue GAMMA=   0.9309
  1.7505  0.9780  0.6434  0.3519

 Free energy of the ion-electron system (eV)
  ---------------------------------------------------
  alpha Z        PSCENC =       469.20087323
  Ewald energy   TEWEN  =    -11957.43465530
  -Hartree energ DENC   =     -1707.24565979
  -exchange      EXHF   =         0.00000000
  -V(xc)+E(xc)   XCENC  =     -1027.92071432
  PAW double counting   =     34554.25325536   -32604.98069595
  entropy T*S    EENTRO =        -0.00358827
  eigenvalues    EBANDS =      -706.33301286
  atomic energy  EATOM  =     12460.60057749
  Solvation  Ediel_sol  =         0.00000000
  ---------------------------------------------------
  free energy    TOTEN  =      -519.86362041 eV

  energy without entropy =     -519.86003213  energy(sigma->0) =     -519.86182627


--------------------------------------------------------------------------------------------------------




--------------------------------------- Iteration      1(  10)  ---------------------------------------


    POTLOK:  cpu time      0.2183: real time      0.2197
    SETDIJ:  cpu time      1.0719: real time      1.0775
     EDDAV:  cpu time     29.6634: real time     29.9268
       DOS:  cpu time      0.0017: real time      0.0017
    CHARGE:  cpu time      1.2934: real time      1.3027
    MIXING:  cpu time      0.0083: real time      0.0083
    --------------------------------------------
      LOOP:  cpu time     32.2570: real time     32.5366

 eigenvalue-minimisations  : 10792
 total energy-change (2. order) : 0.5936079E-02  (-0.8462359E-01)
 number of electron     479.9999998 magnetization       1.0000000
 augmentation part      -49.4279362 magnetization      -0.0540675

 Broyden mixing:
  rms(total) = 0.12216E+00    rms(broyden)= 0.12216E+00
  rms(prec ) = 0.17979E+00
  weight for this iteration     100.00

 eigenvalues of (default mixing * dielectric matrix)
  average eigenvalue GAMMA=   0.9015
  1.6285  1.2849  0.7512  0.4683  0.3750

 Free energy of the ion-electron system (eV)
  ---------------------------------------------------
  alpha Z        PSCENC =       469.20087323
  Ewald energy   TEWEN  =    -11957.43465530
  -Hartree energ DENC   =     -1703.52561154
  -exchange      EXHF   =         0.00000000
  -V(xc)+E(xc)   XCENC  =     -1028.20054469
  PAW double counting   =     34970.42667345   -33021.09431584
  entropy T*S    EENTRO =        -0.00398411
  eigenvalues    EBANDS =      -709.82669701
  atomic energy  EATOM  =     12460.60057749
  Solvation  Ediel_sol  =         0.00000000
  ---------------------------------------------------
  free energy    TOTEN  =      -519.85768433 eV

  energy without entropy =     -519.85370022  energy(sigma->0) =     -519.85569227


--------------------------------------------------------------------------------------------------------




--------------------------------------- Iteration      1(  11)  ---------------------------------------


    POTLOK:  cpu time      0.2186: real time      0.2202
    SETDIJ:  cpu time      1.0726: real time      1.0779
     EDDAV:  cpu time     30.1186: real time     30.3896
       DOS:  cpu time      0.0019: real time      0.0019
    CHARGE:  cpu time      1.2999: real time      1.3102
    MIXING:  cpu time      0.0083: real time      0.0084
    --------------------------------------------
      LOOP:  cpu time     32.7200: real time     33.0082

 eigenvalue-minimisations  : 10992
 total energy-change (2. order) : 0.2065045E-01  (-0.2192206E-01)
 number of electron     479.9999998 magnetization       1.0000000
 augmentation part      -49.4579059 magnetization      -0.0531261

 Broyden mixing:
  rms(total) = 0.72414E-01    rms(broyden)= 0.72414E-01
  rms(prec ) = 0.91490E-01
  weight for this iteration     100.00

 eigenvalues of (default mixing * dielectric matrix)
  average eigenvalue GAMMA=   0.9062
  1.5811  1.5811  0.9184  0.3643  0.4962  0.4962

 Free energy of the ion-electron system (eV)
  ---------------------------------------------------
  alpha Z        PSCENC =       469.20087323
  Ewald energy   TEWEN  =    -11957.43465530
  -Hartree energ DENC   =     -1700.49786997
  -exchange      EXHF   =         0.00000000
  -V(xc)+E(xc)   XCENC  =     -1028.50878167
  PAW double counting   =     35043.58374232   -33094.16022018
  entropy T*S    EENTRO =        -0.00380498
  eigenvalues    EBANDS =      -712.61689481
  atomic energy  EATOM  =     12460.60057749
  Solvation  Ediel_sol  =         0.00000000
  ---------------------------------------------------
  free energy    TOTEN  =      -519.83703388 eV

  energy without entropy =     -519.83322890  energy(sigma->0) =     -519.83513139


--------------------------------------------------------------------------------------------------------




--------------------------------------- Iteration      1(  12)  ---------------------------------------


    POTLOK:  cpu time      0.2169: real time      0.2193
    SETDIJ:  cpu time      1.0738: real time      1.0792
     EDDAV:  cpu time     29.6207: real time     29.8827
       DOS:  cpu time      0.0017: real time      0.0017
    CHARGE:  cpu time      1.3005: real time      1.3100
    MIXING:  cpu time      0.0094: real time      0.0094
    --------------------------------------------
      LOOP:  cpu time     32.2230: real time     32.5023

 eigenvalue-minimisations  : 10776
 total energy-change (2. order) : 0.3271308E-02  (-0.5536924E-02)
 number of electron     479.9999998 magnetization       1.0000000
 augmentation part      -49.4627808 magnetization      -0.0534297

 Broyden mixing:
  rms(total) = 0.40321E-01    rms(broyden)= 0.40321E-01
  rms(prec ) = 0.50935E-01
  weight for this iteration     100.00

 eigenvalues of (default mixing * dielectric matrix)
  average eigenvalue GAMMA=   0.9319
  1.6430  1.6430  1.2222  0.6317  0.6317  0.3622  0.3893

 Free energy of the ion-electron system (eV)
  ---------------------------------------------------
  alpha Z        PSCENC =       469.20087323
  Ewald energy   TEWEN  =    -11957.43465530
  -Hartree energ DENC   =     -1699.28719356
  -exchange      EXHF   =         0.00000000
  -V(xc)+E(xc)   XCENC  =     -1028.68334093
  PAW double counting   =     35114.91060251   -33165.44734207
  entropy T*S    EENTRO =        -0.00378759
  eigenvalues    EBANDS =      -713.68949635
  atomic energy  EATOM  =     12460.60057749
  Solvation  Ediel_sol  =         0.00000000
  ---------------------------------------------------
  free energy    TOTEN  =      -519.83376257 eV

  energy without entropy =     -519.82997498  energy(sigma->0) =     -519.83186877


--------------------------------------------------------------------------------------------------------




--------------------------------------- Iteration      1(  13)  ---------------------------------------


    POTLOK:  cpu time      0.2173: real time      0.2196
    SETDIJ:  cpu time      1.0731: real time      1.0784
     EDDAV:  cpu time     29.6479: real time     29.9090
       DOS:  cpu time      0.0019: real time      0.0019
    CHARGE:  cpu time      1.2973: real time      1.3069
    MIXING:  cpu time      0.0094: real time      0.0094
    --------------------------------------------
      LOOP:  cpu time     32.2469: real time     32.5252

 eigenvalue-minimisations  : 10784
 total energy-change (2. order) : 0.3004553E-03  (-0.1691930E-02)
 number of electron     479.9999998 magnetization       1.0000000
 augmentation part      -49.4633497 magnetization      -0.0531881

 Broyden mixing:
  rms(total) = 0.23973E-01    rms(broyden)= 0.23973E-01
  rms(prec ) = 0.32027E-01
  weight for this iteration     100.00

 eigenvalues of (default mixing * dielectric matrix)
  average eigenvalue GAMMA=   0.9385
  1.6660  1.6660  1.5433  0.6912  0.6912  0.5015  0.3962  0.3523

 Free energy of the ion-electron system (eV)
  ---------------------------------------------------
  alpha Z        PSCENC =       469.20087323
  Ewald energy   TEWEN  =    -11957.43465530
  -Hartree energ DENC   =     -1699.50938163
  -exchange      EXHF   =         0.00000000
  -V(xc)+E(xc)   XCENC  =     -1028.69186582
  PAW double counting   =     35152.73695960   -33203.28648979
  entropy T*S    EENTRO =        -0.00397024
  eigenvalues    EBANDS =      -713.44550965
  atomic energy  EATOM  =     12460.60057749
  Solvation  Ediel_sol  =         0.00000000
  ---------------------------------------------------
  free energy    TOTEN  =      -519.83346211 eV

  energy without entropy =     -519.82949187  energy(sigma->0) =     -519.83147699


--------------------------------------------------------------------------------------------------------




--------------------------------------- Iteration      1(  14)  ---------------------------------------


    POTLOK:  cpu time      0.2168: real time      0.2188
    SETDIJ:  cpu time      1.0751: real time      1.0806
     EDDAV:  cpu time     30.1134: real time     30.3851
       DOS:  cpu time      0.0018: real time      0.0018
    CHARGE:  cpu time      1.2850: real time      1.3133
    MIXING:  cpu time      0.0083: real time      0.0084
    --------------------------------------------
      LOOP:  cpu time     32.7004: real time     33.0080

 eigenvalue-minimisations  : 11000
 total energy-change (2. order) : 0.5110560E-03  (-0.5015293E-03)
 number of electron     479.9999998 magnetization       1.0000000
 augmentation part      -49.4629198 magnetization      -0.0532296

 Broyden mixing:
  rms(total) = 0.12814E-01    rms(broyden)= 0.12814E-01
  rms(prec ) = 0.16934E-01
  weight for this iteration     100.00

[...]
   0.180E+02 0.189E+02 0.406E+02   -.157E+02 -.202E+02 -.386E+02   -.188E+01 0.171E+01 -.262E+01   0.288E-04 -.405E-04 0.282E-04
   0.551E+00 -.130E+02 -.114E+01   -.542E+00 0.127E+02 0.869E+00   -.164E+00 -.793E-01 0.585E+00   -.639E-04 -.418E-04 0.267E-04
   -.493E+00 -.154E+01 -.103E+02   0.196E+00 0.205E+01 0.972E+01   0.299E+00 -.737E-01 0.643E+00   -.313E-04 -.277E-04 0.320E-04
   0.158E+02 0.244E+02 -.245E+02   -.141E+02 -.230E+02 0.225E+02   -.233E+01 -.102E+01 0.269E+01   -.657E-04 -.277E-04 0.347E-04
   0.450E+01 -.487E+02 -.401E+02   -.498E+01 0.476E+02 0.397E+02   0.499E+00 0.130E+01 0.650E+00   0.717E-05 0.131E-05 -.126E-04
   0.783E+00 0.251E+01 0.470E+02   0.118E+00 -.320E+01 -.457E+02   -.300E+00 0.104E+01 -.210E+01   0.534E-04 0.698E-04 0.351E-04
   0.153E+02 0.185E+02 0.419E+02   -.137E+02 -.190E+02 -.407E+02   -.149E+01 0.564E+00 -.161E+01   0.232E-04 -.818E-04 0.248E-04
   -.155E+01 -.129E+02 -.117E+01   0.149E+01 0.126E+02 0.154E+01   0.332E+00 0.167E+00 -.119E+00   -.104E-04 -.545E-04 0.141E-04
   -.861E+00 -.197E+01 -.901E+01   0.483E+00 0.215E+01 0.908E+01   0.289E+00 -.564E-01 -.132E+00   -.530E-04 0.977E-04 0.819E-06
   0.232E+02 0.243E+02 -.157E+02   -.216E+02 -.232E+02 0.135E+02   -.206E+01 -.107E+01 0.203E+01   0.304E-04 0.637E-04 0.265E-04
   -.326E+01 -.259E+02 -.412E+01   0.315E+01 0.268E+02 0.336E+01   0.626E-02 -.978E+00 -.716E+00   0.929E-04 -.313E-04 -.964E-05
   -.529E+01 0.361E+02 -.625E+01   0.536E+01 -.360E+02 0.615E+01   -.410E+00 -.218E+00 -.303E+00   0.123E-04 0.780E-05 -.323E-04
   0.538E+00 -.125E+02 0.210E+02   -.299E+00 0.122E+02 -.213E+02   -.237E+00 -.102E+00 -.877E-01   -.202E-04 0.710E-05 -.353E-04
   0.278E+01 0.134E+02 0.181E+01   -.226E+01 -.134E+02 -.287E+01   -.156E+00 -.121E-01 0.117E+01   -.122E-04 -.547E-04 -.564E-04
   -.114E+00 0.153E+02 -.640E+01   0.303E+00 -.155E+02 0.731E+01   -.119E+00 0.222E+00 0.357E+00   0.269E-05 0.433E-04 0.121E-04
   0.130E+02 -.318E+01 0.124E+02   -.128E+02 0.384E+01 -.120E+02   -.164E+00 -.143E+01 0.777E+00   0.315E-04 -.340E-04 0.125E-04
   0.230E+01 -.679E+01 -.272E+02   -.282E+01 0.696E+01 0.268E+02   0.398E+00 -.205E+01 0.211E+01   -.580E-04 -.774E-04 0.139E-05
   0.771E+01 0.321E+02 -.276E+02   -.792E+01 -.325E+02 0.272E+02   -.139E+00 0.603E+00 0.132E+01   -.581E-04 -.697E-07 -.243E-04
   -.114E+00 -.981E+01 0.153E+02   0.286E+00 0.923E+01 -.155E+02   -.172E+00 0.220E+00 -.745E-01   -.425E-05 0.122E-04 0.374E-04
   -.310E+01 0.146E+02 0.570E+01   0.267E+01 -.147E+02 -.563E+01   0.555E-01 0.301E+00 -.264E+00   -.183E-04 0.167E-04 -.458E-04
   0.174E+00 0.737E+01 0.384E+01   -.278E+00 -.770E+01 -.329E+01   0.105E+00 -.336E+00 0.283E+00   -.879E-05 0.645E-04 -.873E-05
   -.221E+02 0.581E+01 0.421E+02   0.240E+02 -.779E+01 -.453E+02   0.498E+01 -.354E+01 -.952E+01   -.167E-04 -.404E-04 -.380E-04
   0.439E+01 0.258E+02 -.322E+02   -.381E+01 -.260E+02 0.322E+02   -.711E+00 -.108E+01 0.109E+01   0.177E-04 0.222E-04 -.249E-04
   0.102E+02 -.190E+02 -.367E+01   -.104E+02 0.190E+02 0.383E+01   0.529E+00 0.813E-01 -.897E+00   0.534E-04 0.756E-04 -.409E-04
   -.774E+00 -.135E+02 -.244E+00   0.856E+00 0.134E+02 0.732E-02   -.158E-01 0.646E+00 0.271E+00   -.282E-05 -.750E-04 -.251E-04
   -.187E+01 0.120E+02 -.102E+02   0.255E+01 -.121E+02 0.109E+02   -.443E+00 0.352E+00 0.623E+00   -.112E-04 -.179E-04 -.754E-04
   0.180E+01 -.431E+02 0.147E+02   -.207E+01 0.441E+02 -.150E+02   -.829E-01 -.409E+00 0.561E+00   0.493E-04 0.285E-04 -.235E-04
   0.291E+01 0.239E+02 0.594E+01   -.309E+01 -.246E+02 -.472E+01   0.205E+00 0.696E-01 0.116E+00   -.167E-05 -.209E-04 -.189E-04
   -.315E+01 0.817E+01 -.649E+01   0.283E+01 -.826E+01 0.593E+01   0.564E-01 0.319E+00 -.121E+01   -.864E-05 -.664E-04 -.195E-04
   -.886E+01 -.147E+02 -.217E+01   0.958E+01 0.152E+02 0.206E+01   -.108E+01 -.781E+00 -.109E+01   -.540E-04 0.682E-04 -.621E-05
   0.750E+00 -.130E+02 -.471E+01   -.815E+00 0.127E+02 0.498E+01   0.298E+00 -.867E-01 -.377E+00   0.180E-04 -.621E-05 -.286E-04
   0.196E+01 0.118E+02 -.210E+02   -.242E+01 -.114E+02 0.216E+02   0.287E+00 0.339E-01 -.320E+00   0.297E-04 0.212E-04 -.122E-04
   -.183E+01 -.356E+02 0.440E+01   0.199E+01 0.355E+02 -.477E+01   0.876E-01 0.655E+00 0.101E+01   -.569E-04 0.167E-04 -.118E-04
   -.589E+01 0.509E+02 0.490E+02   0.702E+01 -.556E+02 -.610E+02   0.155E+01 -.742E+01 -.185E+02   -.183E-04 -.106E-04 -.678E-04
   -.136E+02 0.211E+02 -.191E+02   0.135E+02 -.204E+02 0.187E+02   0.689E+00 -.993E+00 0.913E+00   -.136E-04 0.128E-04 0.755E-05
   -.282E+01 -.208E+02 -.179E+02   0.258E+01 0.205E+02 0.182E+02   0.371E+00 0.480E+00 0.143E+01   0.157E-04 0.129E-03 0.273E-04
   0.123E+01 -.157E+02 -.782E+00   -.998E+00 0.156E+02 0.101E+01   -.224E+00 0.531E-01 -.307E+00   -.447E-04 -.290E-04 -.415E-04
   -.411E+01 0.116E+02 -.144E+02   0.398E+01 -.112E+02 0.157E+02   -.467E+00 -.581E-01 -.221E+00   -.593E-04 -.117E-04 -.241E-04
   -.457E+01 -.386E+02 0.108E+02   0.460E+01 0.399E+02 -.115E+02   0.214E-01 -.324E+00 0.766E+00   -.420E-04 0.303E-04 -.140E-05
   0.230E+02 0.343E+02 0.264E+02   -.234E+02 -.345E+02 -.263E+02   -.298E+01 -.151E+01 -.396E+01   -.521E-05 0.722E-04 -.459E-04
   0.121E+02 0.119E+02 -.193E+02   -.126E+02 -.123E+02 0.193E+02   0.210E+00 -.285E-01 -.454E+00   0.791E-05 -.402E-04 -.162E-05
   0.166E+01 -.139E+02 0.643E+01   -.176E+01 0.145E+02 -.678E+01   0.519E-01 -.406E+00 -.604E+00   -.158E-04 -.120E-04 -.332E-04
   -.932E+00 -.106E+02 -.446E+01   0.956E+00 0.105E+02 0.398E+01   -.241E-01 0.215E+00 0.102E+01   0.295E-04 -.709E-04 -.227E-04
   0.437E+01 0.120E+02 -.183E+02   -.410E+01 -.123E+02 0.181E+02   0.325E+00 0.440E+00 0.987E+00   0.438E-04 -.106E-04 -.216E-04
   0.442E+01 -.390E+02 0.844E+01   -.452E+01 0.394E+02 -.831E+01   -.151E+00 0.862E-01 0.716E+00   0.459E-04 -.804E-05 -.549E-05
   -.199E+02 0.362E+02 0.159E+02   0.199E+02 -.364E+02 -.153E+02   0.168E+01 -.127E+01 -.157E+01   0.269E-04 -.730E-04 -.394E-04
   -.127E+02 -.197E+02 -.217E+02   0.127E+02 0.190E+02 0.212E+02   0.278E-01 0.808E+00 0.750E+00   -.366E-04 -.815E-05 -.364E-04
   -.965E+01 0.318E+02 -.222E+02   0.930E+01 -.313E+02 0.222E+02   0.175E+00 -.166E+00 0.441E+00   -.737E-05 -.495E-05 -.437E-04
   -.129E+01 -.131E+02 0.183E+02   0.126E+01 0.129E+02 -.186E+02   0.125E+00 0.129E+00 -.488E-01   -.613E-04 0.321E-04 0.143E-04
   -.403E+01 0.143E+02 -.194E+01   0.387E+01 -.140E+02 0.790E+00   0.172E+00 -.360E+00 0.111E+01   0.201E-04 0.321E-04 -.752E-04
   -.498E+01 0.104E+02 0.116E+00   0.495E+01 -.103E+02 0.107E+01   -.655E-01 -.272E+00 -.142E+00   0.187E-04 0.113E-03 0.199E-04
   -.986E+01 -.102E+02 0.124E+02   0.964E+01 0.101E+02 -.116E+02   -.319E-01 -.630E-01 0.545E+00   -.619E-04 -.182E-04 0.117E-04
   0.135E+02 -.195E+02 -.982E+01   -.130E+02 0.199E+02 0.845E+01   -.440E+00 -.927E+00 0.379E+00   -.285E-05 -.101E-03 0.111E-04
   0.691E+01 0.368E+02 -.997E+01   -.678E+01 -.374E+02 0.939E+01   0.589E+00 0.128E+00 -.240E+00   0.448E-04 -.147E-04 -.344E-04
   0.991E+00 -.928E+01 0.178E+02   -.124E+01 0.868E+01 -.182E+02   0.821E-01 0.232E+00 0.180E+00   0.885E-04 0.208E-04 -.343E-04
   0.411E+01 0.136E+02 0.982E+01   -.428E+01 -.142E+02 -.971E+01   0.714E-01 0.593E+00 -.489E+00   0.103E-04 -.529E-04 -.705E-04
   0.487E+01 0.132E+02 -.297E+01   -.497E+01 -.138E+02 0.299E+01   0.108E+00 0.963E-02 0.824E+00   -.694E-05 -.438E-04 -.373E-04
   0.188E+02 0.140E+02 0.462E+02   -.214E+02 -.170E+02 -.534E+02   -.492E+01 -.581E+01 -.137E+02   0.422E-04 -.849E-04 -.387E-04
 -----------------------------------------------------------------------------------------------
   -.584E+01 -.167E+02 -.197E+02   0.675E-13 0.323E-12 -.483E-12   0.567E+01 0.168E+02 0.196E+02   0.705E-04 -.100E-03 0.298E-03
 
 
 POSITION                                       TOTAL-FORCE (eV/Angst)
 -----------------------------------------------------------------------------------
      2.12426     14.18951      4.29359         0.489228      1.651996     -1.295504
     15.70177      1.30875      0.00000         0.399896     -0.542116     -0.561435
     12.98627      7.31977      0.85872         0.102051     -0.051815     -0.211697
     10.27077     13.33079      1.71744        -0.370186      0.073487     -0.012540
      7.55526      2.16748      2.57615        -0.104807      0.094245     -0.030157
      4.83976      8.17850      3.43487         0.027573     -0.243608      0.166602
      7.55526     14.18951      4.29359         0.694603      0.263228      0.935209
      4.83977      1.30875      0.00000        -7.166572      4.929134     12.691618
      2.12427      7.31977      0.85872         0.417833     -0.069011     -0.521349
     15.70177     13.33079      1.71744        -0.141678     -0.314847      0.403204
     12.98626      2.16748      2.57615        -0.170178      0.278995     -0.076466
     10.27076      8.17850      3.43487         0.048636     -0.093663      0.001998
     12.98626     14.18951      4.29359        -0.870493      0.739659     -0.537865
     10.27077      1.30875      0.00000         7.575447      8.143788     20.913605
      7.55527      7.31977      0.85872         0.212485     -0.071771     -0.526182
      4.83977     13.33079      1.71744        -0.170784     -0.417242      0.111586
      2.12426      2.16748      2.57615        -0.056884      0.078869      0.172776
     15.70176      8.17850      3.43487         0.264268     -0.141685      0.257490
      3.48201      9.89593      4.29359         0.179312      0.040443      0.869267
      0.76652     14.18950      0.00000         2.920187      1.633280      4.529036
     14.34402      3.02619      0.85872         0.024692      0.478824     -0.751081
     11.62852      9.03721      1.71744        -0.022744     -0.218636     -0.021045
      8.91301     15.04823      2.57615         0.323248     -0.144720     -0.072464
      6.19751      3.88491      3.43487        -0.251887     -0.188896      0.266620
      8.91301      9.89593      4.29359         0.243194     -0.783918     -0.776479
      6.19752     14.18950      0.00000        -1.681966      1.148928      2.018357
      3.48202      3.02619      0.85872        -0.355902      0.371253     -0.363410
      0.76652      9.03721      1.71744         0.016382     -0.247991     -0.073576
     14.34402     15.04823      2.57615         0.316725      0.242594     -0.025347
     11.62852      3.88491      3.43487        -0.063394     -0.115199      0.230499
     14.34401      9.89593      4.29359         0.656491     -0.449256     -1.645472
     11.62852     14.18950      0.00000        -2.503301     12.126873     30.841306
      8.91302      3.02619      0.85872         0.081837      0.584879     -0.556076
      6.19752      9.03721      1.71744         0.015841     -0.181790     -0.017238
      3.48201     15.04823      2.57615         0.405730      0.211699     -0.276772
      0.76651      3.88491      3.43487        -0.268936     -0.218149      0.212412
      2.12426      5.60235      4.29359        -0.092733      0.406572      0.764196
     15.70177      9.89592      0.00000        -0.498556      0.108781     -0.710863
     12.98627     15.90694      0.85872         0.264768      0.504474     -0.252204
     10.27077      4.74362      1.71744        -0.220666     -0.260734      0.247381
      7.55526     10.75464      2.57615        -0.022789      0.303804      0.140818
      4.83977     16.76566      3.43487         0.029929     -0.195625     -0.059862
      7.55526      5.60235      4.29359        -0.325555     -0.209752     -2.268220
      4.83977      9.89592      0.00000        -0.744995     -0.054901     -0.639673
      2.12427     15.90694      0.85872         0.099513      0.266793     -0.753885
     15.70177      4.74362      1.71744        -0.065676     -0.117534      0.145010
     12.98626     10.75464      2.57615        -0.003119      0.130529      0.084551
     10.27077     16.76566      3.43487         0.571243      0.285857      0.330915
     12.98626      5.60235      4.29359        -0.320245      0.028959      0.593870
     10.27077      9.89592      0.00000        -0.155378     -0.236369     -0.670588
      7.55527     15.90694      0.85872        -0.116135      0.216210     -0.113457
      4.83977      4.74362      1.71744        -0.183040     -0.190092      0.126142
      2.12426     10.75464      2.57615        -0.153468      0.335836     -0.082300
     15.70177     16.76566      3.43487        -0.293894     -0.235517     -0.577161
      3.48201      1.30877      4.29359         0.438677      2.357382     -1.997925
      0.76652      5.60233      0.00000         0.143120      0.117441     -0.926667
     14.34402     11.61335      0.85872         0.184493      0.078968     -0.202855
     11.62852      0.45004      1.71744         0.018829     -0.417866      0.345899
      8.91301      6.46106      2.57615         0.165584      0.239069      0.108920
      6.19751     12.47208      3.43487        -0.107302      0.409848     -0.243358
      8.91301      1.30877      4.29359        -0.179219      0.173933      0.478535
      6.19752      5.60233      0.00000         0.116584     -0.319489     -0.532832
      3.48202     11.61335      0.85872         0.401248      0.427283     -0.607413
      0.76652      0.45004      1.71744        -0.154186     -0.415953      0.313885
     14.34402      6.46106      2.57615         0.003674      0.437542      0.075355
     11.62851     12.47208      3.43487        -0.643028      0.407314      0.749515
     14.34402      1.30877      4.29359         0.024419      0.244586      0.288910
     11.62852      5.60233      0.00000         0.603511      0.337415     -0.809303
      8.91302     11.61335      0.85872         0.111027      0.079372     -0.373020
      6.19752      0.45004      1.71744         0.273396     -0.157436      0.242680
      3.48201      6.46106      2.57615        -0.088345      0.122768     -0.054937
      0.76651     12.47208      3.43487        -0.415884      0.002260     -0.143540
     11.76159     16.93471      5.78012        -0.103740     -0.089037     -1.471741
      5.65171     10.25580      6.44690        -0.330747     -0.030424     -0.398258
     15.83484      3.57689      7.11368         0.003117     -0.412274     -0.374288
      9.72496     14.07232      7.78046         0.369562     -0.018670      0.105032
      3.61509      7.39341      8.44723         0.072601     -0.039790      1.270482
     13.79821      0.71450      9.11401         0.113117     -0.776428      1.124246
      3.61509     16.93471      5.78012        -0.121225     -1.878200      1.773840
     13.79821     10.25580      6.44690        -0.340834      0.196880      0.905934
      7.68834      3.57689      7.11368         0.001257     -0.354336     -0.364533
      1.57846     14.07232      7.78046        -0.376434      0.146165     -0.197039
     11.76159      7.39341      8.44723         0.003015     -0.665454      0.832804
      5.65171      0.71450      9.11401         6.966024     -5.518548    -12.729963
      1.57846     12.64112      5.78012        -0.133194     -1.254703      1.130931
     11.76159      5.96222      6.44690         0.330150      0.129298     -0.733758
      5.65171     16.45764      7.11368         0.067573      0.523233      0.035755
     15.83484      9.77874      7.78046         0.235875      0.181286      1.360205
      9.72497      3.09983      8.44724        -0.352714      0.583007      0.261882
      3.61509     13.59525      9.11401         0.025440     -0.600563      1.341350
      9.72496     12.64112      5.78012        -0.267347      0.236631     -1.773254
      3.61509      5.96222      6.44690        -0.354980     -0.353162     -1.201343
     13.79821     16.45764      7.11368         0.234956     -0.381437     -0.101619
      7.68834      9.77874      7.78046        -0.167060      0.418527      0.224124
      1.57847      3.09983      8.44723         0.247161      0.622230      0.645577
     11.76159     13.59525      9.11401         2.682268    -12.162462    -30.471698
     13.79821     12.64112      5.78012         0.657962     -0.286321      0.532034
      7.68834      5.96222      6.44690         0.129936      0.088785      1.777613
      1.57846     16.45764      7.11368         0.012596      0.029930     -0.074260
     11.76159      9.77874      7.78046        -0.603046      0.333319      1.081753
      5.65171      3.09983      8.44723         0.048460      0.933078      0.088305
     15.83484     13.59525      9.11401        -3.348117     -1.767872     -3.786368
      5.65171     12.64112      5.78012        -0.266993     -0.391822     -0.511616
     15.83484      5.96222      6.44690        -0.043947      0.168761     -0.955628
      9.72496     16.45764      7.11368         0.001240      0.148733      0.545188
      3.61509      9.77874      7.78046         0.595863      0.136924      0.716400
     13.79822      3.09983      8.44723        -0.254083      0.561022      0.847860
      7.68834     13.59525      9.11401         1.725775     -1.530600     -0.936192
     15.83484     16.93471      5.78012         0.061825      0.173181      0.245070
      9.72496     10.25580      6.44690        -0.170693      0.308444      0.435654
      3.61509      3.57689      7.11368         0.091925     -0.110116     -0.335771
     13.79821     14.07232      7.78046         0.015535     -0.087117     -0.039997
      7.68834      7.39341      8.44723        -0.095166     -0.164554      1.047094
      1.57846      0.71450      9.11401        -0.250492     -0.108631      1.344056
      7.68834     16.93471      5.78012         0.093988     -0.445527     -0.989585
      1.57846     10.25580      6.44690         0.716138     -0.484104     -0.820720
     11.76159      3.57689      7.11368        -0.168147     -0.369406     -0.307541
      5.65171     14.07232      7.78046        -0.099352      0.010991     -0.373247
     15.83484      7.39341      8.44723         0.008006     -0.670346      0.845300
      9.72496      0.71450      9.11401        -7.544803     -8.788113    -20.856015
 -----------------------------------------------------------------------------------
    total drift:                               -0.176605      0.089954     -0.080231


--------------------------------------------------------------------------------------------------------



  FREE ENERGIE OF THE ION-ELECTRON SYSTEM (eV)
  ---------------------------------------------------
  free  energy   TOTEN  =      -519.83289997 eV

  energy  without entropy=     -519.82901922  energy(sigma->0) =     -519.83095960
 


--------------------------------------------------------------------------------------------------------


    POTLOK:  cpu time      1.2984: real time      1.3045


--------------------------------------------------------------------------------------------------------


     LOOP+:  cpu time    821.3014: real time    829.0545
    4ORBIT:  cpu time      0.0000: real time      0.0000

 total amount of memory used by VASP MPI-rank0   214220. kBytes
=======================================================================

   base      :      30000. kBytes
   nonlr-proj:       6135. kBytes
   fftplans  :      17779. kBytes
   grid      :      14565. kBytes
   one-center:        129. kBytes
   wavefun   :     145612. kBytes
 
  
  
 General timing and accounting informations for this job:
 ========================================================
  
                  Total CPU time used (sec):      891.903
                            User time (sec):      836.269
                          System time (sec):       55.633
                         Elapsed time (sec):      902.130
  
                   Maximum memory used (kb):      479020.
                   Average memory used (kb):          N/A
  
                          Minor page faults:       166307
                          Major page faults:           28
                 Voluntary context switches:         1832
