 264 264   0   0
  0.2770664E+02  0.1946760E-08  0.1946760E-08  0.1930025E-08  0.5000000E-15
  1.000000000000000E-004
  CAR 
 Si and Ge interface calculation         
      6.65902440     -8.87485622  301      4.05585653      1.00000000
     -8.875  0.0000E+00  0.0000E+00  0.0000E+00  0.0000E+00
     -8.823  0.0000E+00  0.0000E+00  0.0000E+00  0.0000E+00
     -8.771  0.0000E+00  0.0000E+00  0.0000E+00  0.0000E+00
     -8.720  0.0000E+00  0.0000E+00  0.0000E+00  0.0000E+00
     -8.668  0.0000E+00  0.0000E+00  0.0000E+00  0.0000E+00
     -8.616  0.0000E+00  0.0000E+00  0.0000E+00  0.0000E+00
     -8.564  0.0000E+00  0.0000E+00  0.0000E+00  0.0000E+00
     -8.512  0.0000E+00  0.0000E+00  0.0000E+00  0.0000E+00
     -8.461  0.0000E+00  0.0000E+00  0.0000E+00  0.0000E+00
     -8.409  0.0000E+00  0.0000E+00  0.0000E+00  0.0000E+00
     -8.357  0.0000E+00  0.0000E+00  0.0000E+00  0.0000E+00
     -8.305  0.0000E+00  0.0000E+00  0.0000E+00  0.0000E+00
     -8.254  0.0000E+00  0.0000E+00  0.0000E+00  0.0000E+00
     -8.202  0.1491E-04  0.4216E-05  0.7721E-06  0.2183E-06
     -8.150  0.9618E+01  0.9578E+01  0.4980E+00  0.4960E+00
     -8.098  0.1929E+02  0.1927E+02  0.1497E+01  0.1494E+01
     -8.046  0.1775E+02  0.1636E+02  0.2416E+01  0.2341E+01
     -7.995  0.2030E+02  0.2053E+02  0.3467E+01  0.3404E+01
     -7.943  0.1029E+02  0.1152E+02  0.4000E+01  0.4000E+01
     -7.891  0.9654E+01  0.9655E+01  0.4500E+01  0.4500E+01
     -7.839  0.2045E+02  0.1993E+02  0.5559E+01  0.5532E+01
     -7.787  0.4829E+02  0.4837E+02  0.8060E+01  0.8037E+01
     -7.736  0.8515E+01  0.8951E+01  0.8500E+01  0.8500E+01
     -7.684  0.2062E+02  0.2000E+02  0.9568E+01  0.9536E+01
     -7.632  0.1800E+02  0.1862E+02  0.1050E+02  0.1050E+02
     -7.580  0.7893E+01  0.7233E+01  0.1091E+02  0.1087E+02
     -7.529  0.1147E+02  0.1210E+02  0.1150E+02  0.1150E+02
     -7.477  0.2277E+02  0.2161E+02  0.1268E+02  0.1262E+02
     -7.425  0.2546E+02  0.2665E+02  0.1400E+02  0.1400E+02
     -7.373  0.2089E+02  0.1997E+02  0.1508E+02  0.1503E+02
     -7.321  0.2430E+02  0.2443E+02  0.1634E+02  0.1630E+02
     -7.270  0.2255E+02  0.2228E+02  0.1751E+02  0.1745E+02
     -7.218  0.3921E+02  0.3979E+02  0.1954E+02  0.1951E+02
     -7.166  0.2985E+02  0.2807E+02  0.2108E+02  0.2097E+02
     -7.114  0.1861E+02  0.2048E+02  0.2205E+02  0.2203E+02
     -7.063  0.5508E+02  0.5422E+02  0.2490E+02  0.2483E+02
     -7.011  0.3888E+02  0.3776E+02  0.2691E+02  0.2679E+02
     -6.959  0.5975E+02  0.6200E+02  0.3001E+02  0.3000E+02
     -6.907  0.1823E+02  0.1769E+02  0.3095E+02  0.3092E+02
     -6.855  0.2201E+02  0.2208E+02  0.3209E+02  0.3206E+02
     -6.804  0.5646E+02  0.5662E+02  0.3501E+02  0.3499E+02
     -6.752  0.4241E+02  0.3996E+02  0.3721E+02  0.3706E+02
     -6.700  0.6263E+02  0.6216E+02  0.4045E+02  0.4028E+02
     -6.648  0.3496E+02  0.3667E+02  0.4226E+02  0.4218E+02
     -6.597  0.5046E+02  0.4966E+02  0.4488E+02  0.4475E+02
     -6.545  0.3131E+02  0.3366E+02  0.4650E+02  0.4649E+02
     -6.493  0.2577E+02  0.2419E+02  0.4783E+02  0.4774E+02
     -6.441  0.3479E+02  0.3535E+02  0.4963E+02  0.4958E+02
     -6.389  0.5693E+02  0.5578E+02  0.5258E+02  0.5246E+02
     -6.338  0.5369E+02  0.5453E+02  0.5536E+02  0.5529E+02
     -6.286  0.2042E+02  0.1982E+02  0.5642E+02  0.5631E+02
     -6.234  0.5173E+02  0.5083E+02  0.5910E+02  0.5895E+02
     -6.182  0.6656E+02  0.6828E+02  0.6254E+02  0.6248E+02
     -6.131  0.7467E+02  0.7328E+02  0.6641E+02  0.6628E+02
     -6.079  0.5294E+02  0.5424E+02  0.6915E+02  0.6908E+02
     -6.027  0.7650E+02  0.7400E+02  0.7311E+02  0.7292E+02
     -5.975  0.8516E+02  0.8763E+02  0.7752E+02  0.7745E+02
     -5.923  0.6202E+02  0.6079E+02  0.8073E+02  0.8060E+02
     -5.872  0.6050E+02  0.6043E+02  0.8386E+02  0.8373E+02
     -5.820  0.8113E+02  0.7933E+02  0.8807E+02  0.8784E+02
     -5.768  0.8352E+02  0.8428E+02  0.9239E+02  0.9220E+02
     -5.716  0.7158E+02  0.7214E+02  0.9610E+02  0.9594E+02
     -5.665  0.9186E+02  0.8990E+02  0.1009E+03  0.1006E+03
     -5.613  0.8733E+02  0.8807E+02  0.1054E+03  0.1052E+03
     -5.561  0.6259E+02  0.6523E+02  0.1086E+03  0.1085E+03
     -5.509  0.6368E+02  0.6209E+02  0.1119E+03  0.1117E+03
     -5.457  0.7496E+02  0.7516E+02  0.1158E+03  0.1156E+03
     -5.406  0.6791E+02  0.6878E+02  0.1193E+03  0.1192E+03
     -5.354  0.7014E+02  0.6828E+02  0.1229E+03  0.1227E+03
     -5.302  0.9192E+02  0.9176E+02  0.1277E+03  0.1275E+03
     -5.250  0.7639E+02  0.7672E+02  0.1317E+03  0.1315E+03
     -5.199  0.7503E+02  0.7438E+02  0.1355E+03  0.1353E+03
     -5.147  0.6590E+02  0.6623E+02  0.1390E+03  0.1387E+03
     -5.095  0.7648E+02  0.7695E+02  0.1429E+03  0.1427E+03
     -5.043  0.7632E+02  0.7539E+02  0.1469E+03  0.1466E+03
     -4.991  0.6219E+02  0.6491E+02  0.1501E+03  0.1500E+03
     -4.940  0.5760E+02  0.5611E+02  0.1531E+03  0.1529E+03
     -4.888  0.6678E+02  0.6620E+02  0.1565E+03  0.1563E+03
     -4.836  0.8870E+02  0.8816E+02  0.1611E+03  0.1609E+03
     -4.784  0.1000E+03  0.9963E+02  0.1663E+03  0.1660E+03
     -4.732  0.8262E+02  0.8322E+02  0.1706E+03  0.1704E+03
     -4.681  0.1215E+03  0.1198E+03  0.1769E+03  0.1766E+03
     -4.629  0.9737E+02  0.9780E+02  0.1819E+03  0.1816E+03
     -4.577  0.1100E+03  0.1108E+03  0.1876E+03  0.1874E+03
     -4.525  0.1273E+03  0.1252E+03  0.1942E+03  0.1938E+03
     -4.474  0.8798E+02  0.8995E+02  0.1988E+03  0.1985E+03
     -4.422  0.9881E+02  0.9617E+02  0.2039E+03  0.2035E+03
     -4.370  0.9131E+02  0.9420E+02  0.2086E+03  0.2084E+03
     -4.318  0.8480E+02  0.8550E+02  0.2130E+03  0.2128E+03
     -4.266  0.6816E+02  0.6763E+02  0.2165E+03  0.2163E+03
     -4.215  0.6401E+02  0.6240E+02  0.2198E+03  0.2195E+03
     -4.163  0.9725E+02  0.9813E+02  0.2249E+03  0.2246E+03
     -4.111  0.7266E+02  0.7424E+02  0.2286E+03  0.2284E+03
     -4.059  0.5338E+02  0.5347E+02  0.2314E+03  0.2312E+03
     -4.008  0.6519E+02  0.6630E+02  0.2348E+03  0.2346E+03
     -3.956  0.4652E+02  0.4417E+02  0.2372E+03  0.2369E+03
     -3.904  0.8113E+02  0.7865E+02  0.2414E+03  0.2410E+03
     -3.852  0.7172E+02  0.7529E+02  0.2451E+03  0.2449E+03
     -3.800  0.7037E+02  0.6866E+02  0.2487E+03  0.2485E+03
     -3.749  0.7093E+02  0.7214E+02  0.2524E+03  0.2522E+03
     -3.697  0.4085E+02  0.4133E+02  0.2545E+03  0.2543E+03
     -3.645  0.9038E+02  0.8467E+02  0.2592E+03  0.2587E+03
     -3.593  0.7420E+02  0.7914E+02  0.2631E+03  0.2628E+03
     -3.542  0.3728E+02  0.4065E+02  0.2650E+03  0.2649E+03
     -3.490  0.5348E+02  0.4852E+02  0.2678E+03  0.2674E+03
     -3.438  0.9729E+02  0.9857E+02  0.2728E+03  0.2725E+03
     -3.386  0.6657E+02  0.6453E+02  0.2762E+03  0.2759E+03
     -3.334  0.8728E+02  0.9135E+02  0.2808E+03  0.2806E+03
     -3.283  0.5868E+02  0.5743E+02  0.2838E+03  0.2836E+03
     -3.231  0.1010E+03  0.9816E+02  0.2890E+03  0.2887E+03
     -3.179  0.6966E+02  0.6812E+02  0.2926E+03  0.2922E+03
     -3.127  0.7825E+02  0.8249E+02  0.2967E+03  0.2965E+03
     -3.076  0.7446E+02  0.7269E+02  0.3005E+03  0.3002E+03
     -3.024  0.7179E+02  0.7379E+02  0.3043E+03  0.3040E+03
     -2.972  0.6167E+02  0.6300E+02  0.3074E+03  0.3073E+03
     -2.920  0.9209E+02  0.8554E+02  0.3122E+03  0.3117E+03
     -2.868  0.9936E+02  0.1019E+03  0.3174E+03  0.3170E+03
     -2.817  0.9667E+02  0.9872E+02  0.3224E+03  0.3221E+03
     -2.765  0.8680E+02  0.8503E+02  0.3269E+03  0.3265E+03
     -2.713  0.1014E+03  0.1026E+03  0.3321E+03  0.3318E+03
     -2.661  0.9715E+02  0.9605E+02  0.3371E+03  0.3368E+03
     -2.610  0.9235E+02  0.9384E+02  0.3419E+03  0.3417E+03
     -2.558  0.1217E+03  0.1200E+03  0.3482E+03  0.3479E+03
     -2.506  0.1231E+03  0.1210E+03  0.3546E+03  0.3541E+03
     -2.454  0.1081E+03  0.1127E+03  0.3602E+03  0.3600E+03
     -2.402  0.7124E+02  0.7098E+02  0.3639E+03  0.3637E+03
     -2.351  0.1000E+03  0.9905E+02  0.3691E+03  0.3688E+03
     -2.299  0.9657E+02  0.9450E+02  0.3741E+03  0.3737E+03
     -2.247  0.1042E+03  0.1059E+03  0.3795E+03  0.3792E+03
     -2.195  0.6688E+02  0.6817E+02  0.3829E+03  0.3827E+03
     -2.144  0.3275E+02  0.3458E+02  0.3846E+03  0.3845E+03
     -2.092  0.6192E+02  0.6243E+02  0.3878E+03  0.3877E+03
     -2.040  0.6804E+02  0.6337E+02  0.3913E+03  0.3910E+03
     -1.988  0.8702E+02  0.8994E+02  0.3959E+03  0.3957E+03
     -1.936  0.8976E+02  0.8671E+02  0.4005E+03  0.4001E+03
     -1.885  0.1004E+03  0.1020E+03  0.4057E+03  0.4054E+03
     -1.833  0.6704E+02  0.6759E+02  0.4092E+03  0.4089E+03
     -1.781  0.8271E+02  0.8056E+02  0.4135E+03  0.4131E+03
     -1.729  0.1045E+03  0.1057E+03  0.4189E+03  0.4186E+03
     -1.677  0.9037E+02  0.9134E+02  0.4235E+03  0.4233E+03
     -1.626  0.8189E+02  0.7995E+02  0.4278E+03  0.4274E+03
     -1.574  0.8192E+02  0.8163E+02  0.4320E+03  0.4317E+03
     -1.522  0.7965E+02  0.8314E+02  0.4361E+03  0.4360E+03
     -1.470  0.6868E+02  0.6837E+02  0.4397E+03  0.4395E+03
     -1.419  0.4474E+02  0.4562E+02  0.4420E+03  0.4419E+03
     -1.367  0.5945E+02  0.5873E+02  0.4451E+03  0.4449E+03
     -1.315  0.7351E+02  0.7413E+02  0.4489E+03  0.4488E+03
     -1.263  0.4145E+02  0.4094E+02  0.4511E+03  0.4509E+03
     -1.211  0.6144E+02  0.6106E+02  0.4542E+03  0.4540E+03
     -1.160  0.4353E+02  0.4575E+02  0.4565E+03  0.4564E+03
     -1.108  0.6388E+02  0.6001E+02  0.4598E+03  0.4595E+03
     -1.056  0.4279E+02  0.4729E+02  0.4620E+03  0.4620E+03
     -1.004  0.7132E+02  0.6994E+02  0.4657E+03  0.4656E+03
     -0.953  0.2891E+02  0.3014E+02  0.4672E+03  0.4671E+03
     -0.901  0.3557E+02  0.3441E+02  0.4690E+03  0.4689E+03
     -0.849  0.7182E+02  0.7062E+02  0.4728E+03  0.4726E+03
     -0.797  0.7796E+02  0.7574E+02  0.4768E+03  0.4765E+03
     -0.745  0.4396E+02  0.4812E+02  0.4791E+03  0.4790E+03
     -0.694  0.6342E+02  0.5849E+02  0.4824E+03  0.4820E+03
     -0.642  0.6770E+02  0.6963E+02  0.4859E+03  0.4856E+03
     -0.590  0.2797E+02  0.3081E+02  0.4873E+03  0.4872E+03
     -0.538  0.3286E+02  0.3237E+02  0.4890E+03  0.4889E+03
     -0.487  0.9048E+01  0.9635E+01  0.4895E+03  0.4894E+03
     -0.435  0.4568E+02  0.4371E+02  0.4918E+03  0.4917E+03
     -0.383  0.4781E+02  0.4854E+02  0.4943E+03  0.4942E+03
     -0.331  0.5539E+02  0.5408E+02  0.4972E+03  0.4970E+03
     -0.279  0.8086E+02  0.8135E+02  0.5014E+03  0.5012E+03
     -0.228  0.6468E+02  0.6357E+02  0.5047E+03  0.5045E+03
     -0.176  0.6902E+02  0.6901E+02  0.5083E+03  0.5081E+03
     -0.124  0.1299E+03  0.1306E+03  0.5150E+03  0.5148E+03
     -0.072  0.1092E+03  0.1080E+03  0.5207E+03  0.5204E+03
     -0.021  0.1185E+03  0.1145E+03  0.5268E+03  0.5263E+03
      0.031  0.1183E+03  0.1211E+03  0.5329E+03  0.5326E+03
      0.083  0.1674E+03  0.1637E+03  0.5416E+03  0.5411E+03
      0.135  0.1217E+03  0.1279E+03  0.5479E+03  0.5477E+03
      0.187  0.7270E+02  0.7378E+02  0.5517E+03  0.5515E+03
      0.238  0.8955E+02  0.8882E+02  0.5563E+03  0.5561E+03
      0.290  0.8907E+02  0.8928E+02  0.5609E+03  0.5607E+03
      0.342  0.7462E+02  0.7548E+02  0.5648E+03  0.5647E+03
      0.394  0.1099E+03  0.1056E+03  0.5705E+03  0.5701E+03
      0.445  0.9010E+02  0.9259E+02  0.5752E+03  0.5749E+03
      0.497  0.5779E+02  0.5988E+02  0.5781E+03  0.5780E+03
      0.549  0.1322E+03  0.1310E+03  0.5850E+03  0.5848E+03
      0.601  0.1444E+03  0.1428E+03  0.5925E+03  0.5922E+03
      0.653  0.1425E+03  0.1407E+03  0.5998E+03  0.5995E+03
      0.704  0.1274E+03  0.1298E+03  0.6064E+03  0.6062E+03
      0.756  0.1161E+03  0.1153E+03  0.6125E+03  0.6122E+03
      0.808  0.1356E+03  0.1367E+03  0.6195E+03  0.6192E+03
      0.860  0.1026E+03  0.1023E+03  0.6248E+03  0.6245E+03
      0.911  0.8638E+02  0.8845E+02  0.6293E+03  0.6291E+03
      0.963  0.9328E+02  0.8889E+02  0.6341E+03  0.6337E+03
      1.015  0.1357E+03  0.1368E+03  0.6411E+03  0.6408E+03
      1.067  0.1645E+03  0.1630E+03  0.6496E+03  0.6492E+03
      1.119  0.1262E+03  0.1270E+03  0.6562E+03  0.6558E+03
      1.170  0.1727E+03  0.1692E+03  0.6651E+03  0.6646E+03
      1.222  0.1611E+03  0.1614E+03  0.6735E+03  0.6729E+03
      1.274  0.1669E+03  0.1683E+03  0.6821E+03  0.6817E+03
      1.326  0.1906E+03  0.1875E+03  0.6920E+03  0.6914E+03
      1.378  0.1814E+03  0.1852E+03  0.7014E+03  0.7010E+03
      1.429  0.1519E+03  0.1528E+03  0.7092E+03  0.7089E+03
      1.481  0.1569E+03  0.1534E+03  0.7173E+03  0.7168E+03
      1.533  0.2084E+03  0.2079E+03  0.7281E+03  0.7276E+03
      1.585  0.1959E+03  0.1954E+03  0.7383E+03  0.7377E+03
      1.636  0.1868E+03  0.1902E+03  0.7479E+03  0.7475E+03
      1.688  0.1618E+03  0.1590E+03  0.7563E+03  0.7558E+03
      1.740  0.1995E+03  0.1985E+03  0.7667E+03  0.7661E+03
      1.792  0.1723E+03  0.1758E+03  0.7756E+03  0.7752E+03
      1.844  0.1821E+03  0.1765E+03  0.7850E+03  0.7843E+03
      1.895  0.1761E+03  0.1783E+03  0.7941E+03  0.7935E+03
      1.947  0.1839E+03  0.1835E+03  0.8037E+03  0.8030E+03
      1.999  0.1854E+03  0.1897E+03  0.8132E+03  0.8129E+03
      2.051  0.1717E+03  0.1694E+03  0.8221E+03  0.8216E+03
      2.102  0.1805E+03  0.1793E+03  0.8315E+03  0.8309E+03
      2.154  0.1860E+03  0.1872E+03  0.8411E+03  0.8406E+03
      2.206  0.1749E+03  0.1771E+03  0.8502E+03  0.8498E+03
      2.258  0.1608E+03  0.1587E+03  0.8585E+03  0.8580E+03
      2.310  0.1680E+03  0.1669E+03  0.8672E+03  0.8666E+03
      2.361  0.1655E+03  0.1653E+03  0.8758E+03  0.8752E+03
      2.413  0.1993E+03  0.2014E+03  0.8861E+03  0.8856E+03
      2.465  0.1578E+03  0.1574E+03  0.8943E+03  0.8938E+03
      2.517  0.1515E+03  0.1493E+03  0.9021E+03  0.9015E+03
      2.568  0.1657E+03  0.1697E+03  0.9107E+03  0.9103E+03
      2.620  0.1362E+03  0.1360E+03  0.9177E+03  0.9173E+03
      2.672  0.1005E+03  0.9928E+02  0.9229E+03  0.9225E+03
      2.724  0.1470E+03  0.1417E+03  0.9305E+03  0.9298E+03
      2.776  0.1361E+03  0.1425E+03  0.9376E+03  0.9372E+03
      2.827  0.1537E+03  0.1500E+03  0.9455E+03  0.9449E+03
      2.879  0.1362E+03  0.1382E+03  0.9526E+03  0.9521E+03
      2.931  0.1335E+03  0.1353E+03  0.9595E+03  0.9591E+03
      2.983  0.1139E+03  0.1141E+03  0.9654E+03  0.9650E+03
      3.034  0.1422E+03  0.1432E+03  0.9728E+03  0.9724E+03
      3.086  0.1240E+03  0.1211E+03  0.9792E+03  0.9787E+03
      3.138  0.1188E+03  0.1190E+03  0.9853E+03  0.9849E+03
      3.190  0.1059E+03  0.1057E+03  0.9908E+03  0.9903E+03
      3.242  0.1173E+03  0.1183E+03  0.9969E+03  0.9965E+03
      3.293  0.1219E+03  0.1188E+03  0.1003E+04  0.1003E+04
      3.345  0.9832E+02  0.1004E+03  0.1008E+04  0.1008E+04
      3.397  0.6666E+02  0.6941E+02  0.1012E+04  0.1011E+04
      3.449  0.8820E+02  0.8604E+02  0.1016E+04  0.1016E+04
      3.500  0.8372E+02  0.8437E+02  0.1021E+04  0.1020E+04
      3.552  0.8522E+02  0.8511E+02  0.1025E+04  0.1025E+04
      3.604  0.1009E+03  0.9610E+02  0.1030E+04  0.1030E+04
      3.656  0.5086E+02  0.6060E+02  0.1033E+04  0.1033E+04
      3.708  0.4678E+02  0.3988E+02  0.1035E+04  0.1035E+04
      3.759  0.6560E+02  0.7140E+02  0.1039E+04  0.1039E+04
      3.811  0.4492E+02  0.4205E+02  0.1041E+04  0.1041E+04
      3.863  0.3881E+02  0.4368E+02  0.1043E+04  0.1043E+04
      3.915  0.3546E+02  0.2899E+02  0.1045E+04  0.1044E+04
      3.966  0.6527E+02  0.5916E+02  0.1048E+04  0.1048E+04
      4.018  0.7309E+02  0.7591E+02  0.1052E+04  0.1051E+04
      4.070  0.1097E+03  0.9715E+02  0.1058E+04  0.1056E+04
      4.122  0.9622E+02  0.1072E+03  0.1063E+04  0.1062E+04
      4.174  0.9761E+02  0.9209E+02  0.1068E+04  0.1067E+04
      4.225  0.8414E+02  0.8949E+02  0.1072E+04  0.1071E+04
      4.277  0.9295E+02  0.9588E+02  0.1077E+04  0.1076E+04
      4.329  0.1020E+03  0.9778E+02  0.1082E+04  0.1081E+04
      4.381  0.1117E+03  0.1091E+03  0.1088E+04  0.1087E+04
      4.433  0.1200E+03  0.1256E+03  0.1094E+04  0.1094E+04
      4.484  0.1078E+03  0.1055E+03  0.1100E+04  0.1099E+04
      4.536  0.1229E+03  0.1211E+03  0.1106E+04  0.1105E+04
      4.588  0.8781E+02  0.9465E+02  0.1111E+04  0.1110E+04
      4.640  0.1040E+03  0.1008E+03  0.1116E+04  0.1115E+04
      4.691  0.1194E+03  0.1152E+03  0.1122E+04  0.1121E+04
      4.743  0.1233E+03  0.1285E+03  0.1129E+04  0.1128E+04
      4.795  0.1277E+03  0.1229E+03  0.1135E+04  0.1134E+04
      4.847  0.1282E+03  0.1328E+03  0.1142E+04  0.1141E+04
      4.899  0.1041E+03  0.1046E+03  0.1147E+04  0.1147E+04
      4.950  0.1103E+03  0.1035E+03  0.1153E+04  0.1152E+04
      5.002  0.1246E+03  0.1259E+03  0.1159E+04  0.1159E+04
      5.054  0.1173E+03  0.1204E+03  0.1166E+04  0.1165E+04
      5.106  0.1287E+03  0.1321E+03  0.1172E+04  0.1172E+04
      5.157  0.9635E+02  0.9685E+02  0.1177E+04  0.1177E+04
      5.209  0.9663E+02  0.9731E+02  0.1182E+04  0.1182E+04
      5.261  0.9621E+02  0.9605E+02  0.1187E+04  0.1187E+04
      5.313  0.1164E+03  0.1169E+03  0.1193E+04  0.1193E+04
      5.365  0.1282E+03  0.1278E+03  0.1200E+04  0.1199E+04
      5.416  0.1455E+03  0.1453E+03  0.1207E+04  0.1207E+04
      5.468  0.1246E+03  0.1274E+03  0.1214E+04  0.1214E+04
      5.520  0.1387E+03  0.1336E+03  0.1221E+04  0.1220E+04
      5.572  0.1623E+03  0.1636E+03  0.1229E+04  0.1229E+04
      5.623  0.1135E+03  0.1134E+03  0.1235E+04  0.1235E+04
      5.675  0.1287E+03  0.1325E+03  0.1242E+04  0.1242E+04
      5.727  0.1354E+03  0.1338E+03  0.1249E+04  0.1249E+04
      5.779  0.1224E+03  0.1229E+03  0.1255E+04  0.1255E+04
      5.831  0.1378E+03  0.1351E+03  0.1262E+04  0.1262E+04
      5.882  0.1305E+03  0.1347E+03  0.1269E+04  0.1269E+04
      5.934  0.4905E+02  0.4970E+02  0.1272E+04  0.1271E+04
      5.986  0.4787E+01  0.1028E+02  0.1272E+04  0.1272E+04
      6.038  0.0000E+00  0.0000E+00  0.1272E+04  0.1272E+04
      6.089  0.0000E+00  0.0000E+00  0.1272E+04  0.1272E+04
      6.141  0.0000E+00  0.0000E+00  0.1272E+04  0.1272E+04
      6.193  0.0000E+00  0.0000E+00  0.1272E+04  0.1272E+04
      6.245  0.0000E+00  0.0000E+00  0.1272E+04  0.1272E+04
      6.297  0.0000E+00  0.0000E+00  0.1272E+04  0.1272E+04
      6.348  0.0000E+00  0.0000E+00  0.1272E+04  0.1272E+04
      6.400  0.0000E+00  0.0000E+00  0.1272E+04  0.1272E+04
      6.452  0.0000E+00  0.0000E+00  0.1272E+04  0.1272E+04
      6.504  0.0000E+00  0.0000E+00  0.1272E+04  0.1272E+04
      6.555  0.0000E+00  0.0000E+00  0.1272E+04  0.1272E+04
      6.607  0.0000E+00  0.0000E+00  0.1272E+04  0.1272E+04
      6.659  0.0000E+00  0.0000E+00  0.1272E+04  0.1272E+04
