<?xml version="1.0" encoding="ISO-8859-1"?>
<modeling>
 <generator>
  <i name="program" type="string">vasp </i>
  <i name="version" type="string">6.4.3  </i>
  <i name="subversion" type="string">19Mar24 (build Oct 22 2024 11:23:12) complex                          parallel </i>
  <i name="platform" type="string">LinuxIFC </i>
  <i name="date" type="string">2025 06 08 </i>
  <i name="time" type="string">16:27:01 </i>
 </generator>
 <incar>
  <i type="string" name="SYSTEM">Si and Ge interface calculation</i>
  <i type="int" name="ISTART">     0</i>
  <i type="logical" name="ADDGRID"> T  </i>
  <i type="int" name="ISPIN">     2</i>
  <i name="AMIX">      0.60000000</i>
  <i type="int" name="ICHARG">     2</i>
  <i type="int" name="NELM">   100</i>
  <i name="EDIFF">      0.00000010</i>
  <i name="ENCUT">    700.00000000</i>
  <i name="ENAUG">    900.00000000</i>
  <i type="int" name="NBANDS">   288</i>
  <i name="NUPDOWN">      1.00000000</i>
  <i name="NELECT">    480.00000000</i>
  <i type="string" name="LREAL">AUTO</i>
  <i type="int" name="ISMEAR">     0</i>
  <i name="SIGMA">      0.01000000</i>
  <i type="int" name="LMAXMIX">     6</i>
  <i type="logical" name="LWAVE"> F  </i>
  <i type="logical" name="LVTOT"> F  </i>
  <i type="logical" name="LVHAR"> T  </i>
  <i type="logical" name="LASPH"> T  </i>
  <i type="logical" name="LMIXTAU"> T  </i>
 </incar>
 <primitive_cell>
  <structure name="primitive_cell" >
   <crystal>
    <varray name="basis" >
     <v>      -0.00000048       6.48920059       0.00000000 </v>
     <v>      -9.17711449       0.00000000       0.00000000 </v>
     <v>       0.00000000       0.00000000      21.07214165 </v>
    </varray>
    <i name="volume">   1254.89106123 </i>
    <varray name="rec_basis" >
     <v>       0.00000000       0.15410219       0.00000000 </v>
     <v>      -0.10896671      -0.00000001       0.00000000 </v>
     <v>       0.00000000       0.00000000       0.04745602 </v>
    </varray>
   </crystal>
   <varray name="positions" >
    <v>       0.96404099       0.98202050       0.00000001 </v>
    <v>       0.46404096       0.73202051       0.10887733 </v>
    <v>       0.96404088       0.48202044       0.21775471 </v>
    <v>       0.46404076       0.23202044       0.32663202 </v>
    <v>       0.96404076       0.98202041       0.43550938 </v>
    <v>       0.46404064       0.73202032       0.54438674 </v>
    <v>       0.96404099       0.48202046       0.00000001 </v>
    <v>       0.46404099       0.23202050       0.10887735 </v>
    <v>       0.96404088       0.98202044       0.21775471 </v>
    <v>       0.46404088       0.73202038       0.32663202 </v>
    <v>       0.96404076       0.48202047       0.43550938 </v>
    <v>       0.46404076       0.23202032       0.54438674 </v>
    <v>       0.21404088       0.73202050       0.00000001 </v>
    <v>       0.71404088       0.48202050       0.10887735 </v>
    <v>       0.21404088       0.23202041       0.21775471 </v>
    <v>       0.71404064       0.98202041       0.32663202 </v>
    <v>       0.21404076       0.73202044       0.43550941 </v>
    <v>       0.71404076       0.48202041       0.54438674 </v>
    <v>       0.21404088       0.23202050       0.00000001 </v>
    <v>       0.71404088       0.98202050       0.10887735 </v>
    <v>       0.21404088       0.73202050       0.21775469 </v>
    <v>       0.71404064       0.48202041       0.32663202 </v>
    <v>       0.21404076       0.23202047       0.43550938 </v>
    <v>       0.71404052       0.98202032       0.54438674 </v>
    <v>       0.29036793       0.66666667       0.54438674 </v>
    <v>       0.79036790       0.66666672       0.63550937 </v>
    <v>       0.29036775       0.66666670       0.72663200 </v>
    <v>       0.79036748       0.66666657       0.81775463 </v>
    <v>       0.29036725       0.66666651       0.90887719 </v>
    <v>       0.79036713       0.66666651       0.99999982 </v>
    <v>       0.62370133       0.33333337       0.54438674 </v>
    <v>       0.12370121       0.33333336       0.63550937 </v>
    <v>       0.62370098       0.33333331       0.72663200 </v>
    <v>       0.12370086       0.33333325       0.81775463 </v>
    <v>       0.62370074       0.33333325       0.90887719 </v>
    <v>       0.12370050       0.33333325       0.99999982 </v>
    <v>       0.95703465       0.00000003       0.54438674 </v>
    <v>       0.45703435       0.99999994       0.63550937 </v>
    <v>       0.95703423       0.99999994       0.72663200 </v>
    <v>       0.45703423       0.99999994       0.81775463 </v>
    <v>       0.95703399       0.99999988       0.90887719 </v>
    <v>       0.45703363       0.99999976       0.99999982 </v>
    <v>       0.29036808       0.91666669       0.54438674 </v>
    <v>       0.79036790       0.91666666       0.63550937 </v>
    <v>       0.29036760       0.91666663       0.72663200 </v>
    <v>       0.79036748       0.91666651       0.81775463 </v>
    <v>       0.29036736       0.91666651       0.90887719 </v>
    <v>       0.79036725       0.91666651       0.99999982 </v>
    <v>       0.62370127       0.58333328       0.54438674 </v>
    <v>       0.12370113       0.58333327       0.63550937 </v>
    <v>       0.62370086       0.58333325       0.72663200 </v>
    <v>       0.12370076       0.58333315       0.81775463 </v>
    <v>       0.62370062       0.58333313       0.90887719 </v>
    <v>       0.12370038       0.58333307       0.99999982 </v>
    <v>       0.95703459       0.25000000       0.54438674 </v>
    <v>       0.45703447       0.24999994       0.63550937 </v>
    <v>       0.95703423       0.24999985       0.72663200 </v>
    <v>       0.45703423       0.24999988       0.81775463 </v>
    <v>       0.95703399       0.24999988       0.90887719 </v>
    <v>       0.45703363       0.24999970       0.99999982 </v>
   </varray>
  </structure>
  <varray name="primitive_index" >
   <v type="int" >        1 </v>
   <v type="int" >        2 </v>
   <v type="int" >        3 </v>
   <v type="int" >        4 </v>
   <v type="int" >        5 </v>
   <v type="int" >        6 </v>
   <v type="int" >       19 </v>
   <v type="int" >       14 </v>
   <v type="int" >       15 </v>
   <v type="int" >       16 </v>
   <v type="int" >       17 </v>
   <v type="int" >       18 </v>
   <v type="int" >       25 </v>
   <v type="int" >       26 </v>
   <v type="int" >       33 </v>
   <v type="int" >       34 </v>
   <v type="int" >       29 </v>
   <v type="int" >       36 </v>
   <v type="int" >       43 </v>
   <v type="int" >       44 </v>
   <v type="int" >       39 </v>
   <v type="int" >       46 </v>
   <v type="int" >       47 </v>
   <v type="int" >       48 </v>
   <v type="int" >       79 </v>
   <v type="int" >       50 </v>
   <v type="int" >       51 </v>
   <v type="int" >       82 </v>
   <v type="int" >       83 </v>
   <v type="int" >       54 </v>
   <v type="int" >       67 </v>
   <v type="int" >       68 </v>
   <v type="int" >       57 </v>
   <v type="int" >       58 </v>
   <v type="int" >       71 </v>
   <v type="int" >       72 </v>
   <v type="int" >       73 </v>
   <v type="int" >       62 </v>
   <v type="int" >       63 </v>
   <v type="int" >       76 </v>
   <v type="int" >       77 </v>
   <v type="int" >       66 </v>
   <v type="int" >       85 </v>
   <v type="int" >       86 </v>
   <v type="int" >      117 </v>
   <v type="int" >      118 </v>
   <v type="int" >       89 </v>
   <v type="int" >       90 </v>
   <v type="int" >       91 </v>
   <v type="int" >       92 </v>
   <v type="int" >      105 </v>
   <v type="int" >      106 </v>
   <v type="int" >       95 </v>
   <v type="int" >       96 </v>
   <v type="int" >      109 </v>
   <v type="int" >       98 </v>
   <v type="int" >       99 </v>
   <v type="int" >      112 </v>
   <v type="int" >      113 </v>
   <v type="int" >      102 </v>
  </varray>
 </primitive_cell>
 <kpoints>
  <generation param="Gamma">
   <v type="int" name="divisions">       4        2        1 </v>
   <v name="usershift">      0.00000000       0.00000000       0.00000000 </v>
   <v name="genvec1">      0.25000000       0.00000000       0.00000000 </v>
   <v name="genvec2">      0.00000000       0.50000000       0.00000000 </v>
   <v name="genvec3">      0.00000000       0.00000000       1.00000000 </v>
   <v name="shift">      0.00000000       0.00000000       0.00000000 </v>
  </generation>
  <varray name="kpointlist" >
   <v>       0.00000000       0.00000000       0.00000000 </v>
   <v>       0.25000000      -0.00000000       0.00000000 </v>
   <v>       0.25000000       0.50000000       0.00000000 </v>
   <v>       0.50000000      -0.00000000       0.00000000 </v>
   <v>       0.00000000       0.50000000       0.00000000 </v>
   <v>       0.50000000       0.50000000       0.00000000 </v>
  </varray>
  <varray name="weights" >
   <v>       0.12500000 </v>
   <v>       0.25000000 </v>
   <v>       0.25000000 </v>
   <v>       0.12500000 </v>
   <v>       0.12500000 </v>
   <v>       0.12500000 </v>
  </varray>
 </kpoints>
 <parameters>
  <separator name="general" >
   <i type="string" name="SYSTEM">Si and Ge interface calculation</i>
   <i type="logical" name="LCOMPAT"> F  </i>
  </separator>
  <separator name="electronic" >
   <i type="string" name="PREC">normal</i>
   <i name="ENMAX">    700.00000000</i>
   <i name="ENAUG">    900.00000000</i>
   <i name="EDIFF">      0.00000010</i>
   <i type="int" name="IALGO">    38</i>
   <i type="int" name="IWAVPR">    10</i>
   <i type="int" name="NBANDS">   288</i>
   <i type="int" name="NBANDSLOW">    -1</i>
   <i type="int" name="NBANDSHIGH">    -1</i>
   <i name="NELECT">    480.00000000</i>
   <i type="int" name="TURBO">     0</i>
   <i type="int" name="IRESTART">     0</i>
   <i type="int" name="NREBOOT">     0</i>
   <i type="int" name="NMIN">     0</i>
   <i name="EREF">      0.00000000</i>
   <separator name="electronic smearing" >
    <i type="int" name="ISMEAR">     0</i>
    <i name="SIGMA">      0.01000000</i>
    <i name="KSPACING">      0.50000000</i>
    <i type="logical" name="KGAMMA"> T  </i>
    <i type="logical" name="KBLOWUP"> T  </i>
   </separator>
   <separator name="electronic projectors" >
    <i type="logical" name="LREAL"> T  </i>
    <v name="ROPT">     -0.00050000     -0.00050000</v>
    <i type="int" name="LMAXPAW">  -100</i>
    <i type="int" name="LMAXMIX">     6</i>
    <i type="logical" name="NLSPLINE"> F  </i>
   </separator>
   <separator name="electronic startup" >
    <i type="int" name="ISTART">     0</i>
    <i type="int" name="ICHARG">     2</i>
    <i type="int" name="INIWAV">     1</i>
   </separator>
   <separator name="electronic spin" >
    <i type="int" name="ISPIN">     2</i>
    <i type="logical" name="LNONCOLLINEAR"> F  </i>
    <v name="MAGMOM">      0.00833333      0.00833333      0.00833333      0.00833333      0.00833333      0.00833333      0.00833333      0.00833333      0.00833333      0.00833333      0.00833333      0.00833333      0.00833333      0.00833333      0.00833333      0.00833333      0.00833333      0.00833333      0.00833333      0.00833333
      0.00833333      0.00833333      0.00833333      0.00833333      0.00833333      0.00833333      0.00833333      0.00833333      0.00833333      0.00833333      0.00833333      0.00833333      0.00833333      0.00833333      0.00833333      0.00833333      0.00833333      0.00833333      0.00833333      0.00833333
      0.00833333      0.00833333      0.00833333      0.00833333      0.00833333      0.00833333      0.00833333      0.00833333      0.00833333      0.00833333      0.00833333      0.00833333      0.00833333      0.00833333      0.00833333      0.00833333      0.00833333      0.00833333      0.00833333      0.00833333
      0.00833333      0.00833333      0.00833333      0.00833333      0.00833333      0.00833333      0.00833333      0.00833333      0.00833333      0.00833333      0.00833333      0.00833333      0.00833333      0.00833333      0.00833333      0.00833333      0.00833333      0.00833333      0.00833333      0.00833333
      0.00833333      0.00833333      0.00833333      0.00833333      0.00833333      0.00833333      0.00833333      0.00833333      0.00833333      0.00833333      0.00833333      0.00833333      0.00833333      0.00833333      0.00833333      0.00833333      0.00833333      0.00833333      0.00833333      0.00833333
      0.00833333      0.00833333      0.00833333      0.00833333      0.00833333      0.00833333      0.00833333      0.00833333      0.00833333      0.00833333      0.00833333      0.00833333      0.00833333      0.00833333      0.00833333      0.00833333      0.00833333      0.00833333      0.00833333      0.00833333
</v>
    <i name="NUPDOWN">      1.00000000</i>
    <i type="logical" name="LSORBIT"> F  </i>
    <v name="SAXIS">      0.00000000      0.00000000      1.00000000</v>
    <i type="logical" name="LSPIRAL"> F  </i>
    <v name="QSPIRAL">      0.00000000      0.00000000      0.00000000</v>
    <i type="logical" name="LZEROZ"> F  </i>
   </separator>
   <separator name="electronic exchange-correlation" >
    <i type="logical" name="LASPH"> T  </i>
   </separator>
   <separator name="electronic convergence" >
    <i type="int" name="NELM">   100</i>
    <i type="int" name="NELMDL">    -5</i>
    <i type="int" name="NELMIN">     2</i>
    <i name="ENINI">    700.00000000</i>
    <separator name="electronic convergence detail" >
     <i type="logical" name="LDIAG"> T  </i>
     <i type="logical" name="LSUBROT"> F  </i>
     <i name="WEIMIN">      0.00000000</i>
     <i name="EBREAK">      0.00000000</i>
     <i name="DEPER">      0.30000000</i>
     <i type="int" name="NRMM">     4</i>
     <i name="TIME">      0.40000000</i>
    </separator>
   </separator>
   <separator name="electronic mixer" >
    <i name="AMIX">      0.60000000</i>
    <i name="BMIX">      1.00000000</i>
    <i name="AMIN">      0.10000000</i>
    <i name="AMIX_MAG">      2.40000000</i>
    <i name="BMIX_MAG">      1.00000000</i>
    <separator name="electronic mixer details" >
     <i type="int" name="IMIX">     4</i>
     <i type="logical" name="MIXFIRST"> F  </i>
     <i type="int" name="MAXMIX">   -45</i>
     <i name="WC">    100.00000000</i>
     <i type="int" name="INIMIX">     1</i>
     <i type="int" name="MIXPRE">     1</i>
     <i type="int" name="MREMOVE">     5</i>
    </separator>
   </separator>
   <separator name="electronic dipolcorrection" >
    <i type="logical" name="LDIPOL"> F  </i>
    <i type="logical" name="LMONO"> F  </i>
    <i type="int" name="IDIPOL">     0</i>
    <i name="EPSILON">      1.00000000</i>
    <v name="DIPOL">   -100.00000000   -100.00000000   -100.00000000</v>
    <i name="EFIELD">      0.00000000</i>
    <i type="logical" name="LVACPOTAV"> F  </i>
   </separator>
  </separator>
  <separator name="grids" >
   <i type="int" name="NGX">    60</i>
   <i type="int" name="NGY">   108</i>
   <i type="int" name="NGZ">   140</i>
   <i type="int" name="NGXF">   120</i>
   <i type="int" name="NGYF">   216</i>
   <i type="int" name="NGZF">   280</i>
   <i type="logical" name="ADDGRID"> T  </i>
  </separator>
  <separator name="ionic" >
   <i type="int" name="NSW">     0</i>
   <i type="int" name="IBRION">    -1</i>
   <i type="int" name="MDALGO">     0</i>
   <i type="int" name="ISIF">     2</i>
   <i name="PSTRESS">      0.00000000</i>
   <i name="EDIFFG">      0.00000100</i>
   <i type="int" name="NFREE">     0</i>
   <i name="POTIM">      0.50000000</i>
   <i name="SMASS">     -3.00000000</i>
   <i name="SCALEE">      1.00000000</i>
  </separator>
  <separator name="ionic md" >
   <i name="TEBEG">      0.00010000</i>
   <i name="TEEND">      0.00010000</i>
   <i type="int" name="NBLOCK">     1</i>
   <i type="int" name="KBLOCK">     1</i>
   <i type="int" name="NPACO">   256</i>
   <i name="APACO">     10.00000000</i>
  </separator>
  <separator name="symmetry" >
   <i type="int" name="ISYM">     2</i>
   <i name="SYMPREC">      0.00001000</i>
  </separator>
  <separator name="dos" >
   <i type="int" name="LORBIT">     0</i>
   <v name="RWIGS">     -1.00000000     -1.00000000</v>
   <i type="int" name="NEDOS">   301</i>
   <i name="EMIN">     10.00000000</i>
   <i name="EMAX">    -10.00000000</i>
   <i name="EFERMI">      0.00000000</i>
  </separator>
  <separator name="writing" >
   <i type="int" name="NWRITE">     2</i>
   <i type="logical" name="LWAVE"> F  </i>
   <i type="logical" name="LDOWNSAMPLE"> F  </i>
   <i type="logical" name="LCHARG"> T  </i>
   <i type="logical" name="LPARD"> F  </i>
   <i type="logical" name="LVTOT"> F  </i>
   <i type="logical" name="LVHAR"> T  </i>
   <i type="logical" name="LELF"> F  </i>
   <i type="logical" name="LOPTICS"> F  </i>
   <v name="STM">      0.00000000      0.00000000      0.00000000      0.00000000      0.00000000      0.00000000      0.00000000</v>
  </separator>
  <separator name="performance" >
   <i type="int" name="NPAR">     4</i>
   <i type="int" name="NSIM">     4</i>
   <i type="int" name="NBLK">    -1</i>
   <i type="logical" name="LPLANE"> T  </i>
   <i type="logical" name="LSCALAPACK"> T  </i>
   <i type="logical" name="LSCAAWARE"> F  </i>
   <i type="logical" name="LSCALU"> F  </i>
   <i type="logical" name="LASYNC"> F  </i>
   <i type="logical" name="LORBITALREAL"> F  </i>
  </separator>
  <separator name="miscellaneous" >
   <i type="int" name="IDIOT">     3</i>
   <i type="int" name="PHON_NSTRUCT">    -1</i>
   <i type="logical" name="LMUSIC"> F  </i>
   <v name="POMASS">    118.71000000     28.08500000</v>
   <v name="DARWINR">      0.00000000      0.00000000</v>
   <v name="DARWINV">      1.00000000      1.00000000</v>
   <i type="logical" name="LCORR"> T  </i>
  </separator>
  <i type="logical" name="GGA_COMPAT"> T  </i>
  <i type="logical" name="LBERRY"> F  </i>
  <i type="int" name="ICORELEVEL">     0</i>
  <i type="logical" name="LDAU"> F  </i>
  <i type="int" name="I_CONSTRAINED_M">     0</i>
  <separator name="electronic exchange-correlation" >
   <i type="string" name="GGA    ">PE</i>
   <i type="string" name="XC_C">1</i>
   <i type="int" name="VOSKOWN">     0</i>
   <i type="logical" name="LHFCALC"> F  </i>
   <i type="string" name="PRECFOCK"></i>
   <i type="logical" name="LSYMGRAD"> F  </i>
   <i type="logical" name="LHFONE"> F  </i>
   <i type="logical" name="LRHFCALC"> F  </i>
   <i type="logical" name="LTHOMAS"> F  </i>
   <i type="logical" name="LMODELHF"> F  </i>
   <i type="logical" name="LFOCKACE"> F  </i>
   <i name="ENCUT4O">     -1.00000000</i>
   <i type="int" name="EXXOEP">     0</i>
   <i type="int" name="FOURORBIT">     0</i>
   <i name="AEXX">      0.00000000</i>
   <i name="HFALPHA">      0.00000000</i>
   <i name="MCALPHA">      0.00000000</i>
   <i name="ALDAX">      1.00000000</i>
   <i name="AGGAX">      1.00000000</i>
   <i name="AMGGAX">      1.00000000</i>
   <i name="ALDAC">      1.00000000</i>
   <i name="AGGAC">      1.00000000</i>
   <i name="AMGGAC">      1.00000000</i>
   <i type="int" name="NKREDX">     1</i>
   <i type="int" name="NKREDY">     1</i>
   <i type="int" name="NKREDZ">     1</i>
   <i type="logical" name="SHIFTRED"> F  </i>
   <i type="logical" name="ODDONLY"> F  </i>
   <i type="logical" name="EVENONLY"> F  </i>
   <i type="int" name="LMAXFOCK">     0</i>
   <i type="int" name="NMAXFOCKAE">     0</i>
   <i type="logical" name="LFOCKAEDFT"> F  </i>
   <i name="HFSCREEN">      0.00000000</i>
   <i name="HFSCREENC">      0.00000000</i>
   <i type="int" name="NBANDSGWLOW">     0</i>
  </separator>
  <separator name="vdW DFT" >
   <i type="logical" name="LUSE_VDW"> F  </i>
   <i type="int" name="IVDW_NL">    -1</i>
   <i type="logical" name="LSPIN_VDW"> F  </i>
   <i name="ZAB_VDW">     -0.84910000</i>
   <i name="GAMMA_VDW">      1.39626340</i>
   <i name="ALPHA_VDW">      0.00000000</i>
   <i name="PARAM1">      0.12340000</i>
   <i name="PARAM2">      1.00000000</i>
   <i name="BPARAM">      6.30000000</i>
   <i name="CPARAM">      0.00930000</i>
  </separator>
  <separator name="model GW" >
   <i type="int" name="MODEL_GW">     0</i>
   <i name="MODEL_EPS0">     12.54891061</i>
   <i name="MODEL_ALPHA">      1.00000000</i>
  </separator>
  <separator name="linear response parameters" >
   <i type="logical" name="LEPSILON"> F  </i>
   <i type="logical" name="LRPA"> F  </i>
   <i type="logical" name="LNABLA"> F  </i>
   <i type="logical" name="LVEL"> F  </i>
   <i name="CSHIFT">      0.10000000</i>
   <i name="OMEGAMAX">     -1.00000000</i>
   <i name="DEG_THRESHOLD">      0.00200000</i>
   <i name="RTIME">     -0.10000000</i>
   <i name="WPLASMAI">      0.00000000</i>
   <v name="DFIELD">      0.00000000      0.00000000      0.00000000</v>
   <v name="WPLASMA">      0.00000000      0.00000000      0.00000000      0.00000000      0.00000000      0.00000000      0.00000000      0.00000000      0.00000000</v>
  </separator>
  <separator name="orbital magnetization" >
   <i type="logical" name="NUCIND"> F  </i>
   <v name="MAGPOS">      0.00000000      0.00000000      0.00000000</v>
   <i type="logical" name="LNICSALL"> T  </i>
   <i type="logical" name="ORBITALMAG"> F  </i>
   <i type="logical" name="LMAGBLOCH"> F  </i>
   <i type="logical" name="LCHIMAG"> F  </i>
   <i type="logical" name="LGAUGE"> T  </i>
   <i type="int" name="MAGATOM">     0</i>
   <v name="MAGDIPOL">      0.00000000      0.00000000      0.00000000</v>
   <v name="AVECCONST">      0.00000000      0.00000000      0.00000000</v>
  </separator>
  <separator name="response functions" >
   <i type="logical" name="LALL_IN_ONE"> F  </i>
   <i type="int" name="IALL_IN_ONE">    -1</i>
   <i type="int" name="NBANDS_WAVE">    -1</i>
   <i type="logical" name="LFINITE_TEMPERATURE"> F  </i>
   <i type="logical" name="LADDER"> F  </i>
   <i type="logical" name="LRPAFORCE"> F  </i>
   <i type="logical" name="LFXC"> F  </i>
   <i type="logical" name="LHARTREE"> T  </i>
   <i type="int" name="IBSE">     0</i>
   <v type="int" name="KPOINT">    -1     0     0     0</v>
   <i type="logical" name="LTCTC"> F  </i>
   <i type="logical" name="LTCTE"> F  </i>
   <i type="logical" name="LTETE"> F  </i>
   <i type="logical" name="LTRIPLET"> F  </i>
   <i type="logical" name="LFXCEPS"> F  </i>
   <i type="logical" name="LFXHEG"> F  </i>
   <i type="int" name="NATURALO">     2</i>
   <i type="logical" name="LHOLEGF"> F  </i>
   <i type="logical" name="L2ORDER"> F  </i>
   <i type="logical" name="LDMP1"> F  </i>
   <i type="logical" name="LMP2LT"> F  </i>
   <i type="logical" name="LSMP2LT"> F  </i>
   <i type="logical" name="LGWLF"> F  </i>
   <i name="ENCUTGW">     -1.60000002</i>
   <i name="ENCUTGWSOFT">     -1.60000002</i>
   <i name="ENCUTLF">     -1.00000000</i>
   <i type="logical" name="ESF_SPLINES"> F  </i>
   <i name="ESF_CONV">      0.01000000</i>
   <i type="int" name="ESF_NINTER">    15</i>
   <i type="int" name="LMAXMP2">    -1</i>
   <i name="SCISSOR">      0.00000000</i>
   <i type="int" name="NOMEGA">     0</i>
   <i type="int" name="NOMEGAR">     0</i>
   <i type="int" name="NBANDSGW">    -1</i>
   <i type="int" name="NBANDSO">    -1</i>
   <i type="int" name="NBANDSV">    -1</i>
   <i type="int" name="NELMGW">     1</i>
   <i type="int" name="NELMHF">     1</i>
   <i type="int" name="DIM">     3</i>
   <i type="int" name="IESPILON">     4</i>
   <i type="int" name="ANTIRES">     0</i>
   <i name="OMEGAMAX">    -30.00000000</i>
   <i name="OMEGAMIN">    -30.00000000</i>
   <i name="OMEGATL">   -200.00000000</i>
   <i type="int" name="OMEGAGRID">     0</i>
   <i name="CSHIFT">     -0.10000000</i>
   <i type="logical" name="LSELFENERGY"> F  </i>
   <i type="logical" name="LSPECTRAL"> F  </i>
   <i type="logical" name="LSPECTRALGW"> F  </i>
   <i type="logical" name="LSINGLES"> F  </i>
   <i type="logical" name="LFERMIGW"> F  </i>
   <i type="logical" name="ODDONLYGW"> F  </i>
   <i type="logical" name="EVENONLYGW"> F  </i>
   <i type="int" name="NKREDLFX">     1</i>
   <i type="int" name="NKREDLFY">     1</i>
   <i type="int" name="NKREDLFZ">     1</i>
   <i type="int" name="MAXMEM">  2800</i>
   <i type="int" name="TELESCOPE">     0</i>
   <i type="int" name="NTAUPAR">    -1</i>
   <i type="int" name="NOMEGAPAR">    -1</i>
   <i name="DAMP_NEWTON">      0.80000001</i>
   <i name="LAMBDA">      1.00000000</i>
  </separator>
  <separator name="External order field" >
   <i name="OFIELD_KAPPA">      0.00000000</i>
   <v name="OFIELD_K">      0.00000000      0.00000000      0.00000000</v>
   <i name="OFIELD_Q6_NEAR">      0.00000000</i>
   <i name="OFIELD_Q6_FAR">      0.00000000</i>
   <i name="OFIELD_A">      0.00000000</i>
  </separator>
  <separator name="optional k-points parameters" >
   <i type="int" name="KPOINTS_OPT_MODE">     1</i>
   <i type="logical" name="LKPOINTS_OPT"> F  </i>
  </separator>
 </parameters>
 <atominfo>
  <atoms>     120 </atoms>
  <types>       2 </types>
  <array name="atoms" >
   <dimension dim="1">ion</dimension>
   <field type="string">element</field>
   <field type="int">atomtype</field>
   <set>
    <rc><c>Sn</c><c>   1</c></rc>
    <rc><c>Sn</c><c>   1</c></rc>
    <rc><c>Sn</c><c>   1</c></rc>
    <rc><c>Sn</c><c>   1</c></rc>
    <rc><c>Sn</c><c>   1</c></rc>
    <rc><c>Sn</c><c>   1</c></rc>
    <rc><c>Sn</c><c>   1</c></rc>
    <rc><c>Sn</c><c>   1</c></rc>
    <rc><c>Sn</c><c>   1</c></rc>
    <rc><c>Sn</c><c>   1</c></rc>
    <rc><c>Sn</c><c>   1</c></rc>
    <rc><c>Sn</c><c>   1</c></rc>
    <rc><c>Sn</c><c>   1</c></rc>
    <rc><c>Sn</c><c>   1</c></rc>
    <rc><c>Sn</c><c>   1</c></rc>
    <rc><c>Sn</c><c>   1</c></rc>
    <rc><c>Sn</c><c>   1</c></rc>
    <rc><c>Sn</c><c>   1</c></rc>
    <rc><c>Sn</c><c>   1</c></rc>
    <rc><c>Sn</c><c>   1</c></rc>
    <rc><c>Sn</c><c>   1</c></rc>
    <rc><c>Sn</c><c>   1</c></rc>
    <rc><c>Sn</c><c>   1</c></rc>
    <rc><c>Sn</c><c>   1</c></rc>
    <rc><c>Sn</c><c>   1</c></rc>
    <rc><c>Sn</c><c>   1</c></rc>
    <rc><c>Sn</c><c>   1</c></rc>
    <rc><c>Sn</c><c>   1</c></rc>
    <rc><c>Sn</c><c>   1</c></rc>
    <rc><c>Sn</c><c>   1</c></rc>
    <rc><c>Sn</c><c>   1</c></rc>
    <rc><c>Sn</c><c>   1</c></rc>
    <rc><c>Sn</c><c>   1</c></rc>
    <rc><c>Sn</c><c>   1</c></rc>
    <rc><c>Sn</c><c>   1</c></rc>
    <rc><c>Sn</c><c>   1</c></rc>
    <rc><c>Sn</c><c>   1</c></rc>
    <rc><c>Sn</c><c>   1</c></rc>
    <rc><c>Sn</c><c>   1</c></rc>
    <rc><c>Sn</c><c>   1</c></rc>
    <rc><c>Sn</c><c>   1</c></rc>
    <rc><c>Sn</c><c>   1</c></rc>
    <rc><c>Sn</c><c>   1</c></rc>
    <rc><c>Sn</c><c>   1</c></rc>
    <rc><c>Sn</c><c>   1</c></rc>
    <rc><c>Sn</c><c>   1</c></rc>
    <rc><c>Sn</c><c>   1</c></rc>
    <rc><c>Sn</c><c>   1</c></rc>
    <rc><c>Si</c><c>   2</c></rc>
    <rc><c>Si</c><c>   2</c></rc>
    <rc><c>Si</c><c>   2</c></rc>
    <rc><c>Si</c><c>   2</c></rc>
    <rc><c>Si</c><c>   2</c></rc>
    <rc><c>Si</c><c>   2</c></rc>
    <rc><c>Si</c><c>   2</c></rc>
    <rc><c>Si</c><c>   2</c></rc>
    <rc><c>Si</c><c>   2</c></rc>
    <rc><c>Si</c><c>   2</c></rc>
    <rc><c>Si</c><c>   2</c></rc>
    <rc><c>Si</c><c>   2</c></rc>
    <rc><c>Si</c><c>   2</c></rc>
    <rc><c>Si</c><c>   2</c></rc>
    <rc><c>Si</c><c>   2</c></rc>
    <rc><c>Si</c><c>   2</c></rc>
    <rc><c>Si</c><c>   2</c></rc>
    <rc><c>Si</c><c>   2</c></rc>
    <rc><c>Si</c><c>   2</c></rc>
    <rc><c>Si</c><c>   2</c></rc>
    <rc><c>Si</c><c>   2</c></rc>
    <rc><c>Si</c><c>   2</c></rc>
    <rc><c>Si</c><c>   2</c></rc>
    <rc><c>Si</c><c>   2</c></rc>
    <rc><c>Si</c><c>   2</c></rc>
    <rc><c>Si</c><c>   2</c></rc>
    <rc><c>Si</c><c>   2</c></rc>
    <rc><c>Si</c><c>   2</c></rc>
    <rc><c>Si</c><c>   2</c></rc>
    <rc><c>Si</c><c>   2</c></rc>
    <rc><c>Si</c><c>   2</c></rc>
    <rc><c>Si</c><c>   2</c></rc>
    <rc><c>Si</c><c>   2</c></rc>
    <rc><c>Si</c><c>   2</c></rc>
    <rc><c>Si</c><c>   2</c></rc>
    <rc><c>Si</c><c>   2</c></rc>
    <rc><c>Si</c><c>   2</c></rc>
    <rc><c>Si</c><c>   2</c></rc>
    <rc><c>Si</c><c>   2</c></rc>
    <rc><c>Si</c><c>   2</c></rc>
    <rc><c>Si</c><c>   2</c></rc>
    <rc><c>Si</c><c>   2</c></rc>
    <rc><c>Si</c><c>   2</c></rc>
    <rc><c>Si</c><c>   2</c></rc>
    <rc><c>Si</c><c>   2</c></rc>
    <rc><c>Si</c><c>   2</c></rc>
    <rc><c>Si</c><c>   2</c></rc>
    <rc><c>Si</c><c>   2</c></rc>
    <rc><c>Si</c><c>   2</c></rc>
    <rc><c>Si</c><c>   2</c></rc>
    <rc><c>Si</c><c>   2</c></rc>
    <rc><c>Si</c><c>   2</c></rc>
    <rc><c>Si</c><c>   2</c></rc>
    <rc><c>Si</c><c>   2</c></rc>
    <rc><c>Si</c><c>   2</c></rc>
    <rc><c>Si</c><c>   2</c></rc>
    <rc><c>Si</c><c>   2</c></rc>
    <rc><c>Si</c><c>   2</c></rc>
    <rc><c>Si</c><c>   2</c></rc>
    <rc><c>Si</c><c>   2</c></rc>
    <rc><c>Si</c><c>   2</c></rc>
    <rc><c>Si</c><c>   2</c></rc>
    <rc><c>Si</c><c>   2</c></rc>
    <rc><c>Si</c><c>   2</c></rc>
    <rc><c>Si</c><c>   2</c></rc>
    <rc><c>Si</c><c>   2</c></rc>
    <rc><c>Si</c><c>   2</c></rc>
    <rc><c>Si</c><c>   2</c></rc>
    <rc><c>Si</c><c>   2</c></rc>
    <rc><c>Si</c><c>   2</c></rc>
    <rc><c>Si</c><c>   2</c></rc>
    <rc><c>Si</c><c>   2</c></rc>
   </set>
  </array>
  <array name="atomtypes" >
   <dimension dim="1">type</dimension>
   <field type="int">atomspertype</field>
   <field type="string">element</field>
   <field>mass</field>
   <field>valence</field>
   <field type="string">pseudopotential</field>
   <set>
    <rc><c>  48</c><c>Sn</c><c>    118.71000000</c><c>      4.00000000</c><c>  PAW_PBE Sn 08Apr2002                  </c></rc>
    <rc><c>  72</c><c>Si</c><c>     28.08500000</c><c>      4.00000000</c><c>  PAW_PBE Si 05Jan2001                  </c></rc>
   </set>
  </array>
 </atominfo>
 <structure name="initialpos" >
  <crystal>
   <varray name="basis" >
    <v>       9.17711449       0.00000000       0.00000000 </v>
    <v>      -9.17711544      12.97840118       0.00000000 </v>
    <v>       0.00000000       0.00000000      21.07214165 </v>
   </varray>
   <i name="volume">   2509.78212246 </i>
   <varray name="rec_basis" >
    <v>       0.10896671       0.07705110       0.00000000 </v>
    <v>       0.00000000       0.07705109       0.00000000 </v>
    <v>       0.00000000       0.00000000       0.04745602 </v>
   </varray>
  </crystal>
  <varray name="positions" >
   <v>       0.50000000       0.48202050       0.00000001 </v>
   <v>       0.49999997       0.23202048       0.10887733 </v>
   <v>       0.50000000       0.98202044       0.21775471 </v>
   <v>       0.49999994       0.73202038       0.32663202 </v>
   <v>       0.49999997       0.48202038       0.43550938 </v>
   <v>       0.50000000       0.23202032       0.54438674 </v>
   <v>       0.00000000       0.98202050       0.00000001 </v>
   <v>       0.00000000       0.73202050       0.10887733 </v>
   <v>       0.00000002       0.48202044       0.21775471 </v>
   <v>       0.00000002       0.23202044       0.32663202 </v>
   <v>       0.00000000       0.98202038       0.43550938 </v>
   <v>       0.00000005       0.73202038       0.54438674 </v>
   <v>       0.49999997       0.98202050       0.00000002 </v>
   <v>       0.50000000       0.73202050       0.10887735 </v>
   <v>       0.50000000       0.48202044       0.21775471 </v>
   <v>       0.50000006       0.23202044       0.32663202 </v>
   <v>       0.49999991       0.98202038       0.43550938 </v>
   <v>       0.50000006       0.73202038       0.54438674 </v>
   <v>       0.00000003       0.48202050       0.00000001 </v>
   <v>       0.00000000       0.23202048       0.10887733 </v>
   <v>       0.00000000       0.98202044       0.21775469 </v>
   <v>       0.00000000       0.73202038       0.32663202 </v>
   <v>       0.99999994       0.48202038       0.43550938 </v>
   <v>       0.00000005       0.23202032       0.54438674 </v>
   <v>       0.87499994       0.60702044       0.00000001 </v>
   <v>       0.87499994       0.35702044       0.10887735 </v>
   <v>       0.87499994       0.10702039       0.21775471 </v>
   <v>       0.87499988       0.85702032       0.32663202 </v>
   <v>       0.87499994       0.60702038       0.43550941 </v>
   <v>       0.87499988       0.35702026       0.54438674 </v>
   <v>       0.37499997       0.10702048       0.00000001 </v>
   <v>       0.37499997       0.85702050       0.10887735 </v>
   <v>       0.37500003       0.60702044       0.21775471 </v>
   <v>       0.37499991       0.35702032       0.32663202 </v>
   <v>       0.37500003       0.10702044       0.43550941 </v>
   <v>       0.37499997       0.85702038       0.54438674 </v>
   <v>       0.87499994       0.10702048       0.00000000 </v>
   <v>       0.87499994       0.85702050       0.10887735 </v>
   <v>       0.87499994       0.60702044       0.21775469 </v>
   <v>       0.87499988       0.35702032       0.32663202 </v>
   <v>       0.87500006       0.10702044       0.43550941 </v>
   <v>       0.87500000       0.85702038       0.54438674 </v>
   <v>       0.37499994       0.60702044       0.00000001 </v>
   <v>       0.37499994       0.35702044       0.10887735 </v>
   <v>       0.37499997       0.10702039       0.21775471 </v>
   <v>       0.37499991       0.85702032       0.32663202 </v>
   <v>       0.37499991       0.60702038       0.43550938 </v>
   <v>       0.37499994       0.35702026       0.54438674 </v>
   <v>       0.97851729       0.64518404       0.54438674 </v>
   <v>       0.72851723       0.39518395       0.63550937 </v>
   <v>       0.47851718       0.14518388       0.72663200 </v>
   <v>       0.22851718       0.89518380       0.81775463 </v>
   <v>       0.97851706       0.64518368       0.90887719 </v>
   <v>       0.72851706       0.39518356       0.99999982 </v>
   <v>       0.97851729       0.31185064       0.54438674 </v>
   <v>       0.72851723       0.06185057       0.63550937 </v>
   <v>       0.47851718       0.81185049       0.72663200 </v>
   <v>       0.22851718       0.56185043       0.81775463 </v>
   <v>       0.97851706       0.31185031       0.90887719 </v>
   <v>       0.72851706       0.06185025       0.99999982 </v>
   <v>       0.97851729       0.97851729       0.54438674 </v>
   <v>       0.72851723       0.72851718       0.63550937 </v>
   <v>       0.47851718       0.47851712       0.72663200 </v>
   <v>       0.22851718       0.22851706       0.81775463 </v>
   <v>       0.97851706       0.97851694       0.90887719 </v>
   <v>       0.72851706       0.72851682       0.99999982 </v>
   <v>       0.47851729       0.81185067       0.54438674 </v>
   <v>       0.22851725       0.56185061       0.63550937 </v>
   <v>       0.97851723       0.31185055       0.72663200 </v>
   <v>       0.72851718       0.06185049       0.81775463 </v>
   <v>       0.47851712       0.81185037       0.90887719 </v>
   <v>       0.22851700       0.56185025       0.99999982 </v>
   <v>       0.47851729       0.47851732       0.54438674 </v>
   <v>       0.22851725       0.22851723       0.63550937 </v>
   <v>       0.97851723       0.97851718       0.72663200 </v>
   <v>       0.72851718       0.72851712       0.81775463 </v>
   <v>       0.47851712       0.47851700       0.90887719 </v>
   <v>       0.22851700       0.22851694       0.99999982 </v>
   <v>       0.47851729       0.14518397       0.54438674 </v>
   <v>       0.22851725       0.89518386       0.63550937 </v>
   <v>       0.97851723       0.64518380       0.72663200 </v>
   <v>       0.72851718       0.39518374       0.81775463 </v>
   <v>       0.47851712       0.14518362       0.90887719 </v>
   <v>       0.22851700       0.89518356       0.99999982 </v>
   <v>       0.72851735       0.64518404       0.54438674 </v>
   <v>       0.47851729       0.39518395       0.63550937 </v>
   <v>       0.22851726       0.14518391       0.72663200 </v>
   <v>       0.97851723       0.89518386       0.81775463 </v>
   <v>       0.72851718       0.64518368       0.90887719 </v>
   <v>       0.47851712       0.39518362       0.99999982 </v>
   <v>       0.72851735       0.31185064       0.54438674 </v>
   <v>       0.47851729       0.06185056       0.63550937 </v>
   <v>       0.22851726       0.81185049       0.72663200 </v>
   <v>       0.97851723       0.56185043       0.81775463 </v>
   <v>       0.72851718       0.31185031       0.90887719 </v>
   <v>       0.47851712       0.06185019       0.99999982 </v>
   <v>       0.72851735       0.97851729       0.54438674 </v>
   <v>       0.47851729       0.72851723       0.63550937 </v>
   <v>       0.22851726       0.47851712       0.72663200 </v>
   <v>       0.97851723       0.22851706       0.81775463 </v>
   <v>       0.72851718       0.97851694       0.90887719 </v>
   <v>       0.47851712       0.72851682       0.99999982 </v>
   <v>       0.22851729       0.81185061       0.54438674 </v>
   <v>       0.97851723       0.56185049       0.63550937 </v>
   <v>       0.72851718       0.31185043       0.72663200 </v>
   <v>       0.47851723       0.06185038       0.81775463 </v>
   <v>       0.22851712       0.81185025       0.90887719 </v>
   <v>       0.97851706       0.56185013       0.99999982 </v>
   <v>       0.22851729       0.47851729       0.54438674 </v>
   <v>       0.97851723       0.22851723       0.63550937 </v>
   <v>       0.72851718       0.97851718       0.72663200 </v>
   <v>       0.47851723       0.72851712       0.81775463 </v>
   <v>       0.22851712       0.47851700       0.90887719 </v>
   <v>       0.97851706       0.22851688       0.99999982 </v>
   <v>       0.22851729       0.14518395       0.54438674 </v>
   <v>       0.97851723       0.89518386       0.63550937 </v>
   <v>       0.72851718       0.64518380       0.72663200 </v>
   <v>       0.47851723       0.39518374       0.81775463 </v>
   <v>       0.22851712       0.14518356       0.90887719 </v>
   <v>       0.97851706       0.89518356       0.99999982 </v>
  </varray>
 </structure>
 <calculation>
  <scstep>
   <time name="dav">   20.60   20.78</time>
   <time name="total">   22.19   22.38</time>
   <energy>
    <i name="alphaZ">    402.97513309 </i>
    <i name="ewald">  -5958.85853268 </i>
    <i name="hartreedc">  -7105.06583835 </i>
    <i name="XCdc">  -6328.39151556 </i>
    <i name="pawpsdc">  15436.84863564 </i>
    <i name="pawaedc">  -8225.15040161 </i>
    <i name="eentropy">     -0.00133800 </i>
    <i name="bandstr">   3023.75486285 </i>
    <i name="atom">  11936.92408711 </i>
    <i name="e_fr_energy">   3183.03509250 </i>
    <i name="e_wo_entrp">   3183.03643050 </i>
    <i name="e_0_energy">   3183.03576150 </i>
   </energy>
  </scstep>
  <scstep>
   <time name="dav">   23.77   23.96</time>
   <time name="total">   23.78   23.97</time>
   <energy>
    <i name="e_fr_energy">    498.63033594 </i>
    <i name="e_wo_entrp">    498.63314551 </i>
    <i name="e_0_energy">    498.63174073 </i>
   </energy>
  </scstep>
  <scstep>
   <time name="dav">   25.46   25.67</time>
   <time name="total">   25.46   25.67</time>
   <energy>
    <i name="e_fr_energy">    215.18785550 </i>
    <i name="e_wo_entrp">    215.18952654 </i>
    <i name="e_0_energy">    215.18869102 </i>
   </energy>
  </scstep>
  <scstep>
   <time name="dav">   27.53   27.76</time>
   <time name="total">   27.53   27.76</time>
   <energy>
    <i name="e_fr_energy">    198.98902913 </i>
    <i name="e_wo_entrp">    198.99282609 </i>
    <i name="e_0_energy">    198.99092761 </i>
   </energy>
  </scstep>
  <scstep>
   <time name="dav">   29.17   29.44</time>
   <time name="total">   30.72   31.01</time>
   <energy>
    <i name="e_fr_energy">    198.22831753 </i>
    <i name="e_wo_entrp">    198.23220850 </i>
    <i name="e_0_energy">    198.23026301 </i>
   </energy>
  </scstep>
  <scstep>
   <time name="dav">   27.67   27.91</time>
   <time name="total">   30.76   31.03</time>
   <energy>
    <i name="e_fr_energy">    243.79053652 </i>
    <i name="e_wo_entrp">    243.79239777 </i>
    <i name="e_0_energy">    243.79146715 </i>
   </energy>
  </scstep>
  <scstep>
   <time name="dav">   30.46   30.72</time>
   <time name="total">   33.55   33.84</time>
   <energy>
    <i name="e_fr_energy">     44.81579957 </i>
    <i name="e_wo_entrp">     44.81780751 </i>
    <i name="e_0_energy">     44.81680354 </i>
   </energy>
  </scstep>
  <scstep>
   <time name="dav">   28.94   29.20</time>
   <time name="total">   32.04   32.32</time>
   <energy>
    <i name="e_fr_energy">    265.66954081 </i>
    <i name="e_wo_entrp">    265.67128229 </i>
    <i name="e_0_energy">    265.67041155 </i>
   </energy>
  </scstep>
  <scstep>
   <time name="dav">   24.86   25.07</time>
   <time name="total">   27.96   28.20</time>
   <energy>
    <i name="e_fr_energy">    261.93814786 </i>
    <i name="e_wo_entrp">    261.94153111 </i>
    <i name="e_0_energy">    261.93983949 </i>
   </energy>
  </scstep>
  <scstep>
   <time name="dav">   23.95   24.15</time>
   <time name="total">   27.04   27.27</time>
   <energy>
    <i name="e_fr_energy">    263.68844767 </i>
    <i name="e_wo_entrp">    263.69182517 </i>
    <i name="e_0_energy">    263.69013642 </i>
   </energy>
  </scstep>
  <scstep>
   <time name="dav">   24.17   24.58</time>
   <time name="total">   27.27   27.70</time>
   <energy>
    <i name="e_fr_energy">    264.93750563 </i>
    <i name="e_wo_entrp">    264.93987698 </i>
    <i name="e_0_energy">    264.93869130 </i>
   </energy>
  </scstep>
  <scstep>
   <time name="dav">   24.69   24.90</time>
   <time name="total">   27.79   28.02</time>
   <energy>
    <i name="e_fr_energy">    265.87582202 </i>
    <i name="e_wo_entrp">    265.87735923 </i>
    <i name="e_0_energy">    265.87659063 </i>
   </energy>
  </scstep>
  <scstep>
   <time name="dav">   23.45   23.65</time>
   <time name="total">   26.54   26.77</time>
   <energy>
    <i name="e_fr_energy">    265.87558187 </i>
    <i name="e_wo_entrp">    265.87648897 </i>
    <i name="e_0_energy">    265.87603542 </i>
   </energy>
  </scstep>
  <scstep>
   <time name="dav">   26.81   27.04</time>
   <time name="total">   29.90   30.15</time>
   <energy>
    <i name="e_fr_energy">    265.82869518 </i>
    <i name="e_wo_entrp">    265.82970775 </i>
    <i name="e_0_energy">    265.82920147 </i>
   </energy>
  </scstep>
  <scstep>
   <time name="dav">   24.06   24.26</time>
   <time name="total">   27.15   27.38</time>
   <energy>
    <i name="e_fr_energy">    265.86660632 </i>
    <i name="e_wo_entrp">    265.86752994 </i>
    <i name="e_0_energy">    265.86706813 </i>
   </energy>
  </scstep>
  <scstep>
   <time name="dav">   24.20   24.41</time>
   <time name="total">   27.30   27.53</time>
   <energy>
    <i name="e_fr_energy">    265.96710563 </i>
    <i name="e_wo_entrp">    265.96800089 </i>
    <i name="e_0_energy">    265.96755326 </i>
   </energy>
  </scstep>
  <scstep>
   <time name="dav">   24.90   25.11</time>
   <time name="total">   28.00   28.23</time>
   <energy>
    <i name="e_fr_energy">    265.98106438 </i>
    <i name="e_wo_entrp">    265.98190489 </i>
    <i name="e_0_energy">    265.98148463 </i>
   </energy>
  </scstep>
  <scstep>
   <time name="dav">   25.26   25.47</time>
   <time name="total">   28.36   28.59</time>
   <energy>
    <i name="e_fr_energy">    265.98268638 </i>
    <i name="e_wo_entrp">    265.98352657 </i>
    <i name="e_0_energy">    265.98310647 </i>
   </energy>
  </scstep>
  <scstep>
   <time name="dav">   25.55   25.77</time>
   <time name="total">   28.65   28.89</time>
   <energy>
    <i name="e_fr_energy">    265.98365133 </i>
    <i name="e_wo_entrp">    265.98449239 </i>
    <i name="e_0_energy">    265.98407186 </i>
   </energy>
  </scstep>
  <scstep>
   <time name="dav">   25.30   25.51</time>
   <time name="total">   28.41   28.64</time>
   <energy>
    <i name="e_fr_energy">    265.98451296 </i>
    <i name="e_wo_entrp">    265.98535527 </i>
    <i name="e_0_energy">    265.98493411 </i>
   </energy>
  </scstep>
  <scstep>
   <time name="dav">   25.94   26.16</time>
   <time name="total">   29.07   29.31</time>
   <energy>
    <i name="e_fr_energy">    265.98470345 </i>
    <i name="e_wo_entrp">    265.98554827 </i>
    <i name="e_0_energy">    265.98512586 </i>
   </energy>
  </scstep>
  <scstep>
   <time name="dav">   22.93   23.12</time>
   <time name="total">   26.04   26.25</time>
   <energy>
    <i name="e_fr_energy">    265.98468649 </i>
    <i name="e_wo_entrp">    265.98553168 </i>
    <i name="e_0_energy">    265.98510908 </i>
   </energy>
  </scstep>
  <scstep>
   <time name="dav">   25.22   25.46</time>
   <time name="total">   28.33   28.59</time>
   <energy>
    <i name="e_fr_energy">    265.98470293 </i>
    <i name="e_wo_entrp">    265.98554723 </i>
    <i name="e_0_energy">    265.98512508 </i>
   </energy>
  </scstep>
  <scstep>
   <time name="dav">   24.25   24.47</time>
   <time name="total">   27.35   27.60</time>
   <energy>
    <i name="e_fr_energy">    265.98471057 </i>
    <i name="e_wo_entrp">    265.98555490 </i>
    <i name="e_0_energy">    265.98513273 </i>
   </energy>
  </scstep>
  <scstep>
   <time name="dav">   26.11   26.33</time>
   <time name="total">   29.22   29.46</time>
   <energy>
    <i name="e_fr_energy">    265.98471358 </i>
    <i name="e_wo_entrp">    265.98555670 </i>
    <i name="e_0_energy">    265.98513514 </i>
   </energy>
  </scstep>
  <scstep>
   <time name="dav">   23.76   23.96</time>
   <time name="total">   26.87   27.09</time>
   <energy>
    <i name="e_fr_energy">    265.98471643 </i>
    <i name="e_wo_entrp">    265.98556010 </i>
    <i name="e_0_energy">    265.98513826 </i>
   </energy>
  </scstep>
  <scstep>
   <time name="dav">   24.24   24.45</time>
   <time name="total">   27.34   27.57</time>
   <energy>
    <i name="e_fr_energy">    265.98471841 </i>
    <i name="e_wo_entrp">    265.98556244 </i>
    <i name="e_0_energy">    265.98514043 </i>
   </energy>
  </scstep>
  <scstep>
   <time name="dav">   24.93   25.16</time>
   <time name="total">   28.04   28.29</time>
   <energy>
    <i name="e_fr_energy">    265.98471870 </i>
    <i name="e_wo_entrp">    265.98556253 </i>
    <i name="e_0_energy">    265.98514062 </i>
   </energy>
  </scstep>
  <scstep>
   <time name="dav">   23.07   23.26</time>
   <time name="total">   24.63   24.84</time>
   <energy>
    <i name="alphaZ">    402.97513309 </i>
    <i name="ewald">  -5958.85853268 </i>
    <i name="hartreedc">  -7407.27720969 </i>
    <i name="XCdc">  -6277.54202922 </i>
    <i name="pawpsdc"> 623130.30995577 </i>
    <i name="pawaedc">-616000.15021229 </i>
    <i name="eentropy">     -0.00084382 </i>
    <i name="bandstr">    439.60437038 </i>
    <i name="atom">  11936.92408711 </i>
    <i name="e_fr_energy">    265.98471866 </i>
    <i name="e_wo_entrp">    265.98556248 </i>
    <i name="e_0_energy">    265.98514057 </i>
   </energy>
  </scstep>
  <structure>
   <crystal>
    <varray name="basis" >
     <v>       9.17711449       0.00000000       0.00000000 </v>
     <v>      -9.17711544      12.97840118       0.00000000 </v>
     <v>       0.00000000       0.00000000      21.07214165 </v>
    </varray>
    <i name="volume">   2509.78212246 </i>
    <varray name="rec_basis" >
     <v>       0.10896671       0.07705110       0.00000000 </v>
     <v>       0.00000000       0.07705109       0.00000000 </v>
     <v>       0.00000000       0.00000000       0.04745602 </v>
    </varray>
   </crystal>
   <varray name="positions" >
    <v>       0.50000000       0.48202050       0.00000001 </v>
    <v>       0.49999997       0.23202048       0.10887733 </v>
    <v>       0.50000000       0.98202044       0.21775471 </v>
    <v>       0.49999994       0.73202038       0.32663202 </v>
    <v>       0.49999997       0.48202038       0.43550938 </v>
    <v>       0.50000000       0.23202032       0.54438674 </v>
    <v>       0.00000000       0.98202050       0.00000001 </v>
    <v>       0.00000000       0.73202050       0.10887733 </v>
    <v>       0.00000002       0.48202044       0.21775471 </v>
    <v>       0.00000002       0.23202044       0.32663202 </v>
    <v>       0.00000000       0.98202038       0.43550938 </v>
    <v>       0.00000005       0.73202038       0.54438674 </v>
    <v>       0.49999997       0.98202050       0.00000002 </v>
    <v>       0.50000000       0.73202050       0.10887735 </v>
    <v>       0.50000000       0.48202044       0.21775471 </v>
    <v>       0.50000006       0.23202044       0.32663202 </v>
    <v>       0.49999991       0.98202038       0.43550938 </v>
    <v>       0.50000006       0.73202038       0.54438674 </v>
    <v>       0.00000003       0.48202050       0.00000001 </v>
    <v>       0.00000000       0.23202048       0.10887733 </v>
    <v>       0.00000000       0.98202044       0.21775469 </v>
    <v>       0.00000000       0.73202038       0.32663202 </v>
    <v>       0.99999994       0.48202038       0.43550938 </v>
    <v>       0.00000005       0.23202032       0.54438674 </v>
    <v>       0.87499994       0.60702044       0.00000001 </v>
    <v>       0.87499994       0.35702044       0.10887735 </v>
    <v>       0.87499994       0.10702039       0.21775471 </v>
    <v>       0.87499988       0.85702032       0.32663202 </v>
    <v>       0.87499994       0.60702038       0.43550941 </v>
    <v>       0.87499988       0.35702026       0.54438674 </v>
    <v>       0.37499997       0.10702048       0.00000001 </v>
    <v>       0.37499997       0.85702050       0.10887735 </v>
    <v>       0.37500003       0.60702044       0.21775471 </v>
    <v>       0.37499991       0.35702032       0.32663202 </v>
    <v>       0.37500003       0.10702044       0.43550941 </v>
    <v>       0.37499997       0.85702038       0.54438674 </v>
    <v>       0.87499994       0.10702048       0.00000000 </v>
    <v>       0.87499994       0.85702050       0.10887735 </v>
    <v>       0.87499994       0.60702044       0.21775469 </v>
    <v>       0.87499988       0.35702032       0.32663202 </v>
    <v>       0.87500006       0.10702044       0.43550941 </v>
    <v>       0.87500000       0.85702038       0.54438674 </v>
    <v>       0.37499994       0.60702044       0.00000001 </v>
    <v>       0.37499994       0.35702044       0.10887735 </v>
    <v>       0.37499997       0.10702039       0.21775471 </v>
    <v>       0.37499991       0.85702032       0.32663202 </v>
    <v>       0.37499991       0.60702038       0.43550938 </v>
    <v>       0.37499994       0.35702026       0.54438674 </v>
    <v>       0.97851729       0.64518404       0.54438674 </v>
    <v>       0.72851723       0.39518395       0.63550937 </v>
    <v>       0.47851718       0.14518388       0.72663200 </v>
    <v>       0.22851718       0.89518380       0.81775463 </v>
    <v>       0.97851706       0.64518368       0.90887719 </v>
    <v>       0.72851706       0.39518356       0.99999982 </v>
    <v>       0.97851729       0.31185064       0.54438674 </v>
    <v>       0.72851723       0.06185057       0.63550937 </v>
    <v>       0.47851718       0.81185049       0.72663200 </v>
    <v>       0.22851718       0.56185043       0.81775463 </v>
    <v>       0.97851706       0.31185031       0.90887719 </v>
    <v>       0.72851706       0.06185025       0.99999982 </v>
    <v>       0.97851729       0.97851729       0.54438674 </v>
    <v>       0.72851723       0.72851718       0.63550937 </v>
    <v>       0.47851718       0.47851712       0.72663200 </v>
    <v>       0.22851718       0.22851706       0.81775463 </v>
    <v>       0.97851706       0.97851694       0.90887719 </v>
    <v>       0.72851706       0.72851682       0.99999982 </v>
    <v>       0.47851729       0.81185067       0.54438674 </v>
    <v>       0.22851725       0.56185061       0.63550937 </v>
    <v>       0.97851723       0.31185055       0.72663200 </v>
    <v>       0.72851718       0.06185049       0.81775463 </v>
    <v>       0.47851712       0.81185037       0.90887719 </v>
    <v>       0.22851700       0.56185025       0.99999982 </v>
    <v>       0.47851729       0.47851732       0.54438674 </v>
    <v>       0.22851725       0.22851723       0.63550937 </v>
    <v>       0.97851723       0.97851718       0.72663200 </v>
    <v>       0.72851718       0.72851712       0.81775463 </v>
    <v>       0.47851712       0.47851700       0.90887719 </v>
    <v>       0.22851700       0.22851694       0.99999982 </v>
    <v>       0.47851729       0.14518397       0.54438674 </v>
    <v>       0.22851725       0.89518386       0.63550937 </v>
    <v>       0.97851723       0.64518380       0.72663200 </v>
    <v>       0.72851718       0.39518374       0.81775463 </v>
    <v>       0.47851712       0.14518362       0.90887719 </v>
    <v>       0.22851700       0.89518356       0.99999982 </v>
    <v>       0.72851735       0.64518404       0.54438674 </v>
    <v>       0.47851729       0.39518395       0.63550937 </v>
    <v>       0.22851726       0.14518391       0.72663200 </v>
    <v>       0.97851723       0.89518386       0.81775463 </v>
    <v>       0.72851718       0.64518368       0.90887719 </v>
    <v>       0.47851712       0.39518362       0.99999982 </v>
    <v>       0.72851735       0.31185064       0.54438674 </v>
    <v>       0.47851729       0.06185056       0.63550937 </v>
    <v>       0.22851726       0.81185049       0.72663200 </v>
    <v>       0.97851723       0.56185043       0.81775463 </v>
    <v>       0.72851718       0.31185031       0.90887719 </v>
    <v>       0.47851712       0.06185019       0.99999982 </v>
    <v>       0.72851735       0.97851729       0.54438674 </v>
    <v>       0.47851729       0.72851723       0.63550937 </v>
    <v>       0.22851726       0.47851712       0.72663200 </v>
    <v>       0.97851723       0.22851706       0.81775463 </v>
    <v>       0.72851718       0.97851694       0.90887719 </v>
    <v>       0.47851712       0.72851682       0.99999982 </v>
    <v>       0.22851729       0.81185061       0.54438674 </v>
    <v>       0.97851723       0.56185049       0.63550937 </v>
    <v>       0.72851718       0.31185043       0.72663200 </v>
    <v>       0.47851723       0.06185038       0.81775463 </v>
    <v>       0.22851712       0.81185025       0.90887719 </v>
    <v>       0.97851706       0.56185013       0.99999982 </v>
    <v>       0.22851729       0.47851729       0.54438674 </v>
    <v>       0.97851723       0.22851723       0.63550937 </v>
    <v>       0.72851718       0.97851718       0.72663200 </v>
    <v>       0.47851723       0.72851712       0.81775463 </v>
    <v>       0.22851712       0.47851700       0.90887719 </v>
    <v>       0.97851706       0.22851688       0.99999982 </v>
    <v>       0.22851729       0.14518395       0.54438674 </v>
    <v>       0.97851723       0.89518386       0.63550937 </v>
    <v>       0.72851718       0.64518380       0.72663200 </v>
    <v>       0.47851723       0.39518374       0.81775463 </v>
    <v>       0.22851712       0.14518356       0.90887719 </v>
    <v>       0.97851706       0.89518356       0.99999982 </v>
   </varray>
  </structure>
  <varray name="forces" >
   <v>     -52.79477089     100.02208794      16.75572819 </v>
   <v>       0.07490268       0.41831413       0.63504809 </v>
   <v>      -0.09580292       0.09423543       0.06144318 </v>
   <v>       0.02992217       0.14346243      -0.20630549 </v>
   <v>       0.51007430       0.67230387      -5.48593668 </v>
   <v>     -72.85725509      86.23535686       0.49017380 </v>
   <v>     -52.79477089     100.02208794      16.75572819 </v>
   <v>       0.07490268       0.41831413       0.63504809 </v>
   <v>      -0.09580292       0.09423543       0.06144318 </v>
   <v>       0.02992217       0.14346243      -0.20630549 </v>
   <v>       0.51007430       0.67230387      -5.48593668 </v>
   <v>     -72.85725509      86.23535686       0.49017380 </v>
   <v>      41.32325731     -83.05803136       0.81886962 </v>
   <v>       0.05798976       1.53354564       4.94330248 </v>
   <v>       0.04566406       0.27480829       0.06193831 </v>
   <v>       0.06316950       0.10744358      -0.21795340 </v>
   <v>       0.11303627       0.80424776      -1.19468149 </v>
   <v>      61.37505310     -68.16221749     -17.89403622 </v>
   <v>      41.32325731     -83.05803136       0.81886962 </v>
   <v>       0.05798976       1.53354564       4.94330248 </v>
   <v>       0.04566406       0.27480829       0.06193831 </v>
   <v>       0.06316950       0.10744358      -0.21795340 </v>
   <v>       0.11303627       0.80424776      -1.19468149 </v>
   <v>      61.37505310     -68.16221749     -17.89403622 </v>
   <v>     -68.74085704      29.06541259      10.98780226 </v>
   <v>      -0.07394654      -0.84132103       1.22801058 </v>
   <v>       0.00600836      -0.15378717       0.31957384 </v>
   <v>      -0.09610679      -0.24044298      -0.06173780 </v>
   <v>       0.01647305      -1.72498560      -3.28063209 </v>
   <v>      75.72137099     116.63188493      -1.22382943 </v>
   <v>     -68.74085704      29.06541259      10.98780226 </v>
   <v>      -0.07394654      -0.84132103       1.22801058 </v>
   <v>       0.00600836      -0.15378717       0.31957384 </v>
   <v>      -0.09610679      -0.24044298      -0.06173780 </v>
   <v>       0.01647305      -1.72498560      -3.28063209 </v>
   <v>      75.72137099     116.63188493      -1.22382943 </v>
   <v>     146.60215990      37.31676100       0.55391020 </v>
   <v>      -0.47515327      -0.86013529       3.83503328 </v>
   <v>      -0.06950468      -0.12732124       0.18753978 </v>
   <v>       0.02608175      -0.13740678      -0.03238795 </v>
   <v>      -0.13183516      -0.30982416      -0.46604966 </v>
   <v>       3.67128192     -54.37219929     -10.23367879 </v>
   <v>     146.60215990      37.31676100       0.55391020 </v>
   <v>      -0.47515327      -0.86013529       3.83503328 </v>
   <v>      -0.06950468      -0.12732124       0.18753978 </v>
   <v>       0.02608175      -0.13740678      -0.03238795 </v>
   <v>      -0.13183516      -0.30982416      -0.46604966 </v>
   <v>       3.67128192     -54.37219929     -10.23367879 </v>
   <v>      54.85076743    -102.83704611       1.60969813 </v>
   <v>      -0.52596087       0.62533980       1.43773482 </v>
   <v>       0.15181660      -0.27416324       0.03121514 </v>
   <v>       0.19770113      -0.31062542      -0.04016157 </v>
   <v>       3.12640169       2.61554703     -10.05156831 </v>
   <v>      -8.10276595      -7.85506324      -0.47366024 </v>
   <v>       8.81107009      38.63652481       0.12886061 </v>
   <v>       0.09459789      -0.67950617       0.35872538 </v>
   <v>      -0.01116537      -0.02916164       0.22946781 </v>
   <v>       0.14846410      -0.22907813      -0.02842651 </v>
   <v>       0.24183667      -0.32766671      -0.34835490 </v>
   <v>    -113.43137922     -72.01698376      -1.05411667 </v>
   <v>      -5.58432198      52.75902077       3.36612057 </v>
   <v>       0.32239551      -1.90336305       2.52564990 </v>
   <v>      -0.08603681      -0.06191795       0.11804690 </v>
   <v>       0.19916248      -0.42460523      -0.34054238 </v>
   <v>      -1.34514569      -0.46285688     -17.90122919 </v>
   <v>       1.80594176      -0.10613163      -0.69735085 </v>
   <v>       8.81107009      38.63652481       0.12886061 </v>
   <v>       0.09459789      -0.67950617       0.35872538 </v>
   <v>      -0.01116537      -0.02916164       0.22946781 </v>
   <v>       0.14846410      -0.22907813      -0.02842651 </v>
   <v>       0.24183667      -0.32766671      -0.34835490 </v>
   <v>    -113.43137922     -72.01698376      -1.05411667 </v>
   <v>      -5.58432198      52.75902077       3.36612057 </v>
   <v>       0.32239551      -1.90336305       2.52564990 </v>
   <v>      -0.08603681      -0.06191795       0.11804690 </v>
   <v>       0.19916248      -0.42460523      -0.34054238 </v>
   <v>      -1.34514569      -0.46285688     -17.90122919 </v>
   <v>       1.80594176      -0.10613163      -0.69735085 </v>
   <v>      54.85076743    -102.83704611       1.60969813 </v>
   <v>      -0.52596087       0.62533980       1.43773482 </v>
   <v>       0.15181660      -0.27416324       0.03121514 </v>
   <v>       0.19770113      -0.31062542      -0.04016157 </v>
   <v>       3.12640169       2.61554703     -10.05156831 </v>
   <v>      -8.10276595      -7.85506324      -0.47366024 </v>
   <v>     -10.22067026      -5.58791888       0.38882336 </v>
   <v>       3.04470708       3.02883497      10.39913733 </v>
   <v>      -0.04368355       0.54864163       0.29345502 </v>
   <v>       0.02207480      -0.02097330      -0.10035225 </v>
   <v>      -1.24442301       1.37405284      -1.72923527 </v>
   <v>      53.36692543    -100.15448179      -1.32300225 </v>
   <v>    -117.36104063     -65.64072969       0.81472517 </v>
   <v>      -0.18533233       0.32740428       0.24096608 </v>
   <v>      -0.21788575       0.20578049       0.11456504 </v>
   <v>      -0.14731906      -0.03027355      -0.20112051 </v>
   <v>      -0.50126576      -0.06851572      -0.16529800 </v>
   <v>       5.34678849      38.63146372      -0.33776693 </v>
   <v>      -0.25249223       1.93368875       0.47854026 </v>
   <v>      -1.17248553      -0.85600011      17.34320738 </v>
   <v>      -0.27730051       0.25722215       0.05635180 </v>
   <v>      -0.17321043       0.22169766      -0.04279367 </v>
   <v>      -0.04878485      -1.07765320      -2.31881403 </v>
   <v>      -5.09919411      56.45730443      -3.36264179 </v>
   <v>    -117.36104063     -65.64072969       0.81472517 </v>
   <v>      -0.18533233       0.32740428       0.24096608 </v>
   <v>      -0.21788575       0.20578049       0.11456504 </v>
   <v>      -0.14731906      -0.03027355      -0.20112051 </v>
   <v>      -0.50126576      -0.06851572      -0.16529800 </v>
   <v>       5.34678849      38.63146372      -0.33776693 </v>
   <v>      -0.25249223       1.93368875       0.47854026 </v>
   <v>      -1.17248553      -0.85600011      17.34320738 </v>
   <v>      -0.27730051       0.25722215       0.05635180 </v>
   <v>      -0.17321043       0.22169766      -0.04279367 </v>
   <v>      -0.04878485      -1.07765320      -2.31881403 </v>
   <v>      -5.09919411      56.45730443      -3.36264179 </v>
   <v>     -10.22067026      -5.58791888       0.38882336 </v>
   <v>       3.04470708       3.02883497      10.39913733 </v>
   <v>      -0.04368355       0.54864163       0.29345502 </v>
   <v>       0.02207480      -0.02097330      -0.10035225 </v>
   <v>      -1.24442301       1.37405284      -1.72923527 </v>
   <v>      53.36692543    -100.15448179      -1.32300225 </v>
  </varray>
  <varray name="stress" >
   <v>    1100.60371096    -109.04583767      -2.97412172 </v>
   <v>    -109.04587658    1085.32246508       3.89570224 </v>
   <v>      -2.97418968       3.89583579     269.26837247 </v>
  </varray>
  <energy>
   <i name="e_fr_energy">    265.98471866 </i>
   <i name="e_wo_entrp">    265.98556248 </i>
   <i name="e_0_energy">    265.98514057 </i>
  </energy>
  <time name="totalsc">  858.81  867.62</time>
  <eigenvalues>
   <array>
    <dimension dim="1">band</dimension>
    <dimension dim="2">kpoint</dimension>
    <dimension dim="3">spin</dimension>
    <field>eigene</field>
    <field>occ</field>
    <set>
     <set comment="spin 1">
      <set comment="kpoint 1">
       <r>   -8.8731    1.0000 </r>
       <r>   -8.7480    1.0000 </r>
       <r>   -8.6300    1.0000 </r>
       <r>   -8.4212    1.0000 </r>
       <r>   -7.3841    1.0000 </r>
       <r>   -7.3501    1.0000 </r>
       <r>   -7.2663    1.0000 </r>
       <r>   -7.1924    1.0000 </r>
       <r>   -7.1801    1.0000 </r>
       <r>   -7.1097    1.0000 </r>
       <r>   -7.0436    1.0000 </r>
       <r>   -7.0182    1.0000 </r>
       <r>   -6.4359    1.0000 </r>
       <r>   -6.1456    1.0000 </r>
       <r>   -5.8595    1.0000 </r>
       <r>   -5.6314    1.0000 </r>
       <r>   -5.5055    1.0000 </r>
       <r>   -5.2859    1.0000 </r>
       <r>   -5.2496    1.0000 </r>
       <r>   -5.0205    1.0000 </r>
       <r>   -4.9023    1.0000 </r>
       <r>   -4.8476    1.0000 </r>
       <r>   -4.6514    1.0000 </r>
       <r>   -4.5025    1.0000 </r>
       <r>   -4.3252    1.0000 </r>
       <r>   -4.3128    1.0000 </r>
       <r>   -4.2112    1.0000 </r>
       <r>   -4.0022    1.0000 </r>
       <r>   -3.9489    1.0000 </r>
       <r>   -3.8360    1.0000 </r>
       <r>   -3.7723    1.0000 </r>
       <r>   -3.7285    1.0000 </r>
       <r>   -3.6270    1.0000 </r>
       <r>   -3.4450    1.0000 </r>
       <r>   -3.4383    1.0000 </r>
       <r>   -3.3693    1.0000 </r>
       <r>   -3.3578    1.0000 </r>
       <r>   -3.2196    1.0000 </r>
       <r>   -3.2040    1.0000 </r>
       <r>   -3.1106    1.0000 </r>
       <r>   -3.0860    1.0000 </r>
       <r>   -2.9770    1.0000 </r>
       <r>   -2.8564    1.0000 </r>
       <r>   -2.8052    1.0000 </r>
       <r>   -2.7995    1.0000 </r>
       <r>   -2.7961    1.0000 </r>
       <r>   -2.7360    1.0000 </r>
       <r>   -2.6322    1.0000 </r>
       <r>   -2.6233    1.0000 </r>
       <r>   -2.5501    1.0000 </r>
       <r>   -2.5047    1.0000 </r>
       <r>   -2.4926    1.0000 </r>
       <r>   -2.4583    1.0000 </r>
       <r>   -2.3035    1.0000 </r>
       <r>   -2.2511    1.0000 </r>
       <r>   -2.2034    1.0000 </r>
       <r>   -2.1783    1.0000 </r>
       <r>   -2.0961    1.0000 </r>
       <r>   -2.0456    1.0000 </r>
       <r>   -1.8808    1.0000 </r>
       <r>   -1.8009    1.0000 </r>
       <r>   -1.7765    1.0000 </r>
       <r>   -1.7734    1.0000 </r>
       <r>   -1.7338    1.0000 </r>
       <r>   -1.6326    1.0000 </r>
       <r>   -1.6121    1.0000 </r>
       <r>   -1.6023    1.0000 </r>
       <r>   -1.4310    1.0000 </r>
       <r>   -1.3867    1.0000 </r>
       <r>   -1.3319    1.0000 </r>
       <r>   -1.3317    1.0000 </r>
       <r>   -1.3256    1.0000 </r>
       <r>   -1.2570    1.0000 </r>
       <r>   -1.2131    1.0000 </r>
       <r>   -1.1368    1.0000 </r>
       <r>   -1.1011    1.0000 </r>
       <r>   -1.0382    1.0000 </r>
       <r>   -1.0013    1.0000 </r>
       <r>   -0.8853    1.0000 </r>
       <r>   -0.7724    1.0000 </r>
       <r>   -0.7214    1.0000 </r>
       <r>   -0.7200    1.0000 </r>
       <r>   -0.5752    1.0000 </r>
       <r>   -0.5405    1.0000 </r>
       <r>   -0.5214    1.0000 </r>
       <r>   -0.4218    1.0000 </r>
       <r>   -0.3104    1.0000 </r>
       <r>   -0.2807    1.0000 </r>
       <r>   -0.1789    1.0000 </r>
       <r>   -0.1101    1.0000 </r>
       <r>   -0.0592    1.0000 </r>
       <r>   -0.0454    1.0000 </r>
       <r>   -0.0243    1.0000 </r>
       <r>    0.1394    1.0000 </r>
       <r>    0.1492    1.0000 </r>
       <r>    0.1606    1.0000 </r>
       <r>    0.1979    1.0000 </r>
       <r>    0.2197    1.0000 </r>
       <r>    0.2473    1.0000 </r>
       <r>    0.3437    1.0000 </r>
       <r>    0.4073    1.0000 </r>
       <r>    0.4358    1.0000 </r>
       <r>    0.4702    1.0000 </r>
       <r>    0.5511    1.0000 </r>
       <r>    0.5995    1.0000 </r>
       <r>    0.7244    1.0000 </r>
       <r>    0.8749    1.0000 </r>
       <r>    0.9039    1.0000 </r>
       <r>    0.9319    1.0000 </r>
       <r>    0.9871    1.0000 </r>
       <r>    1.0053    1.0000 </r>
       <r>    1.0661    1.0000 </r>
       <r>    1.1396    1.0000 </r>
       <r>    1.1472    1.0000 </r>
       <r>    1.2141    1.0000 </r>
       <r>    1.2175    1.0000 </r>
       <r>    1.2831    1.0000 </r>
       <r>    1.3168    1.0000 </r>
       <r>    1.3224    1.0000 </r>
       <r>    1.3845    1.0000 </r>
       <r>    1.4748    1.0000 </r>
       <r>    1.5383    1.0000 </r>
       <r>    1.5907    1.0000 </r>
       <r>    1.6451    1.0000 </r>
       <r>    1.7151    1.0000 </r>
       <r>    1.7320    1.0000 </r>
       <r>    1.7510    1.0000 </r>
       <r>    1.8033    1.0000 </r>
       <r>    1.9255    1.0000 </r>
       <r>    1.9666    1.0000 </r>
       <r>    1.9723    1.0000 </r>
       <r>    2.0128    1.0000 </r>
       <r>    2.0182    1.0000 </r>
       <r>    2.2379    1.0000 </r>
       <r>    2.2481    1.0000 </r>
       <r>    2.2883    1.0000 </r>
       <r>    2.3262    1.0000 </r>
       <r>    2.3812    1.0000 </r>
       <r>    2.4265    1.0000 </r>
       <r>    2.4406    1.0000 </r>
       <r>    2.5342    1.0000 </r>
       <r>    2.5632    1.0000 </r>
       <r>    2.5969    1.0000 </r>
       <r>    2.6135    1.0000 </r>
       <r>    2.7402    1.0000 </r>
       <r>    2.7416    1.0000 </r>
       <r>    2.7893    1.0000 </r>
       <r>    2.8620    1.0000 </r>
       <r>    2.8728    1.0000 </r>
       <r>    2.8965    1.0000 </r>
       <r>    2.9248    1.0000 </r>
       <r>    2.9639    1.0000 </r>
       <r>    3.0501    1.0000 </r>
       <r>    3.0940    1.0000 </r>
       <r>    3.1302    1.0000 </r>
       <r>    3.1715    1.0000 </r>
       <r>    3.2147    1.0000 </r>
       <r>    3.2372    1.0000 </r>
       <r>    3.2440    1.0000 </r>
       <r>    3.3331    1.0000 </r>
       <r>    3.3525    1.0000 </r>
       <r>    3.4017    1.0000 </r>
       <r>    3.4812    1.0000 </r>
       <r>    3.5717    1.0000 </r>
       <r>    3.6049    1.0000 </r>
       <r>    3.6342    1.0000 </r>
       <r>    3.6830    1.0000 </r>
       <r>    3.7536    1.0000 </r>
       <r>    3.7562    1.0000 </r>
       <r>    3.7697    1.0000 </r>
       <r>    3.8111    1.0000 </r>
       <r>    3.8212    1.0000 </r>
       <r>    3.8797    1.0000 </r>
       <r>    3.9099    1.0000 </r>
       <r>    3.9492    1.0000 </r>
       <r>    3.9904    1.0000 </r>
       <r>    3.9956    1.0000 </r>
       <r>    4.0252    1.0000 </r>
       <r>    4.0306    1.0000 </r>
       <r>    4.0663    1.0000 </r>
       <r>    4.1244    1.0000 </r>
       <r>    4.1736    1.0000 </r>
       <r>    4.2590    1.0000 </r>
       <r>    4.2590    1.0000 </r>
       <r>    4.2781    1.0000 </r>
       <r>    4.2953    1.0000 </r>
       <r>    4.3056    1.0000 </r>
       <r>    4.3598    1.0000 </r>
       <r>    4.3955    1.0000 </r>
       <r>    4.4039    1.0000 </r>
       <r>    4.4842    1.0000 </r>
       <r>    4.5438    1.0000 </r>
       <r>    4.6234    1.0000 </r>
       <r>    4.6440    1.0000 </r>
       <r>    4.6774    1.0000 </r>
       <r>    4.7113    1.0000 </r>
       <r>    4.7794    1.0000 </r>
       <r>    4.7870    1.0000 </r>
       <r>    4.8264    1.0000 </r>
       <r>    4.8687    1.0000 </r>
       <r>    4.8912    1.0000 </r>
       <r>    4.9909    1.0000 </r>
       <r>    5.0025    1.0000 </r>
       <r>    5.0175    1.0000 </r>
       <r>    5.0546    1.0000 </r>
       <r>    5.1071    1.0000 </r>
       <r>    5.1128    1.0000 </r>
       <r>    5.1532    1.0000 </r>
       <r>    5.1996    1.0000 </r>
       <r>    5.3445    1.0000 </r>
       <r>    5.3660    1.0000 </r>
       <r>    5.3917    1.0000 </r>
       <r>    5.4136    1.0000 </r>
       <r>    5.4390    1.0000 </r>
       <r>    5.5620    1.0000 </r>
       <r>    5.5715    1.0000 </r>
       <r>    5.5880    1.0000 </r>
       <r>    5.6088    1.0000 </r>
       <r>    5.7485    1.0000 </r>
       <r>    5.7684    1.0000 </r>
       <r>    5.8280    1.0000 </r>
       <r>    5.8699    1.0000 </r>
       <r>    5.9783    1.0000 </r>
       <r>    6.0426    1.0000 </r>
       <r>    6.0833    1.0000 </r>
       <r>    6.1139    1.0000 </r>
       <r>    6.1303    1.0000 </r>
       <r>    6.2724    1.0000 </r>
       <r>    6.3203    1.0000 </r>
       <r>    6.3601    1.0000 </r>
       <r>    6.3975    1.0000 </r>
       <r>    6.4163    1.0000 </r>
       <r>    6.4397    1.0000 </r>
       <r>    6.5038    1.0000 </r>
       <r>    6.5855    1.0000 </r>
       <r>    6.6431    1.0000 </r>
       <r>    6.6640    1.0000 </r>
       <r>    6.7759    1.0000 </r>
       <r>    6.8133    1.0000 </r>
       <r>    6.8319    1.0000 </r>
       <r>    6.8723    0.9995 </r>
       <r>    6.9177    0.0008 </r>
       <r>    6.9889    0.0000 </r>
       <r>    7.0120    0.0000 </r>
       <r>    7.0590    0.0000 </r>
       <r>    7.0596    0.0000 </r>
       <r>    7.1271    0.0000 </r>
       <r>    7.1624    0.0000 </r>
       <r>    7.2051    0.0000 </r>
       <r>    7.2691    0.0000 </r>
       <r>    7.3040    0.0000 </r>
       <r>    7.3340    0.0000 </r>
       <r>    7.3808    0.0000 </r>
       <r>    7.4861    0.0000 </r>
       <r>    7.4905    0.0000 </r>
       <r>    7.5411    0.0000 </r>
       <r>    7.5651    0.0000 </r>
       <r>    7.6009    0.0000 </r>
       <r>    7.7258    0.0000 </r>
       <r>    7.7329    0.0000 </r>
       <r>    7.8277    0.0000 </r>
       <r>    7.8478    0.0000 </r>
       <r>    7.8523    0.0000 </r>
       <r>    7.9003    0.0000 </r>
       <r>    7.9165    0.0000 </r>
       <r>    7.9376    0.0000 </r>
       <r>    8.0113    0.0000 </r>
       <r>    8.0719    0.0000 </r>
       <r>    8.0838    0.0000 </r>
       <r>    8.1128    0.0000 </r>
       <r>    8.1331    0.0000 </r>
       <r>    8.1753    0.0000 </r>
       <r>    8.1979    0.0000 </r>
       <r>    8.2117    0.0000 </r>
       <r>    8.2353    0.0000 </r>
       <r>    8.2737    0.0000 </r>
       <r>    8.2755    0.0000 </r>
       <r>    8.3351    0.0000 </r>
       <r>    8.3362    0.0000 </r>
       <r>    8.3520    0.0000 </r>
       <r>    8.3528    0.0000 </r>
       <r>    8.4121    0.0000 </r>
       <r>    8.4343    0.0000 </r>
       <r>    8.4497    0.0000 </r>
       <r>    8.5274    0.0000 </r>
       <r>    8.5492    0.0000 </r>
       <r>    8.5741    0.0000 </r>
       <r>    8.6049    0.0000 </r>
      </set>
      <set comment="kpoint 2">
       <r>   -8.8096    1.0000 </r>
       <r>   -8.7322    1.0000 </r>
       <r>   -8.5216    1.0000 </r>
       <r>   -8.3863    1.0000 </r>
       <r>   -7.7969    1.0000 </r>
       <r>   -7.6578    1.0000 </r>
       <r>   -7.6569    1.0000 </r>
       <r>   -7.4549    1.0000 </r>
       <r>   -7.0692    1.0000 </r>
       <r>   -6.8662    1.0000 </r>
       <r>   -6.7604    1.0000 </r>
       <r>   -6.5745    1.0000 </r>
       <r>   -6.1451    1.0000 </r>
       <r>   -5.9648    1.0000 </r>
       <r>   -5.8204    1.0000 </r>
       <r>   -5.6466    1.0000 </r>
       <r>   -5.4530    1.0000 </r>
       <r>   -5.3381    1.0000 </r>
       <r>   -5.1994    1.0000 </r>
       <r>   -5.0744    1.0000 </r>
       <r>   -4.7959    1.0000 </r>
       <r>   -4.7368    1.0000 </r>
       <r>   -4.6203    1.0000 </r>
       <r>   -4.4550    1.0000 </r>
       <r>   -4.4122    1.0000 </r>
       <r>   -4.3577    1.0000 </r>
       <r>   -4.2658    1.0000 </r>
       <r>   -4.2336    1.0000 </r>
       <r>   -4.0598    1.0000 </r>
       <r>   -3.9754    1.0000 </r>
       <r>   -3.8543    1.0000 </r>
       <r>   -3.8011    1.0000 </r>
       <r>   -3.6286    1.0000 </r>
       <r>   -3.5512    1.0000 </r>
       <r>   -3.4517    1.0000 </r>
       <r>   -3.3333    1.0000 </r>
       <r>   -3.3163    1.0000 </r>
       <r>   -3.2944    1.0000 </r>
       <r>   -3.1775    1.0000 </r>
       <r>   -3.1321    1.0000 </r>
       <r>   -3.1158    1.0000 </r>
       <r>   -2.9902    1.0000 </r>
       <r>   -2.9035    1.0000 </r>
       <r>   -2.8553    1.0000 </r>
       <r>   -2.8125    1.0000 </r>
       <r>   -2.7912    1.0000 </r>
       <r>   -2.7038    1.0000 </r>
       <r>   -2.6548    1.0000 </r>
       <r>   -2.5525    1.0000 </r>
       <r>   -2.5440    1.0000 </r>
       <r>   -2.4916    1.0000 </r>
       <r>   -2.4529    1.0000 </r>
       <r>   -2.4189    1.0000 </r>
       <r>   -2.3774    1.0000 </r>
       <r>   -2.2322    1.0000 </r>
       <r>   -2.1742    1.0000 </r>
       <r>   -2.1647    1.0000 </r>
       <r>   -2.1315    1.0000 </r>
       <r>   -2.0878    1.0000 </r>
       <r>   -1.9969    1.0000 </r>
       <r>   -1.9039    1.0000 </r>
       <r>   -1.8372    1.0000 </r>
       <r>   -1.8210    1.0000 </r>
       <r>   -1.7048    1.0000 </r>
       <r>   -1.6751    1.0000 </r>
       <r>   -1.6440    1.0000 </r>
       <r>   -1.5946    1.0000 </r>
       <r>   -1.5223    1.0000 </r>
       <r>   -1.4856    1.0000 </r>
       <r>   -1.3551    1.0000 </r>
       <r>   -1.3342    1.0000 </r>
       <r>   -1.2762    1.0000 </r>
       <r>   -1.2416    1.0000 </r>
       <r>   -1.1926    1.0000 </r>
       <r>   -1.0835    1.0000 </r>
       <r>   -1.0094    1.0000 </r>
       <r>   -0.9186    1.0000 </r>
       <r>   -0.8602    1.0000 </r>
       <r>   -0.8393    1.0000 </r>
       <r>   -0.7961    1.0000 </r>
       <r>   -0.7383    1.0000 </r>
       <r>   -0.6398    1.0000 </r>
       <r>   -0.5445    1.0000 </r>
       <r>   -0.4832    1.0000 </r>
       <r>   -0.4171    1.0000 </r>
       <r>   -0.3936    1.0000 </r>
       <r>   -0.2878    1.0000 </r>
       <r>   -0.2257    1.0000 </r>
       <r>   -0.1991    1.0000 </r>
       <r>   -0.1093    1.0000 </r>
       <r>   -0.1069    1.0000 </r>
       <r>   -0.0479    1.0000 </r>
       <r>   -0.0083    1.0000 </r>
       <r>    0.0650    1.0000 </r>
       <r>    0.1390    1.0000 </r>
       <r>    0.1876    1.0000 </r>
       <r>    0.1882    1.0000 </r>
       <r>    0.2061    1.0000 </r>
       <r>    0.2772    1.0000 </r>
       <r>    0.3964    1.0000 </r>
       <r>    0.4093    1.0000 </r>
       <r>    0.4572    1.0000 </r>
       <r>    0.4578    1.0000 </r>
       <r>    0.5945    1.0000 </r>
       <r>    0.6519    1.0000 </r>
       <r>    0.6688    1.0000 </r>
       <r>    0.8294    1.0000 </r>
       <r>    0.8300    1.0000 </r>
       <r>    0.9280    1.0000 </r>
       <r>    0.9550    1.0000 </r>
       <r>    1.0226    1.0000 </r>
       <r>    1.0555    1.0000 </r>
       <r>    1.0733    1.0000 </r>
       <r>    1.1680    1.0000 </r>
       <r>    1.1770    1.0000 </r>
       <r>    1.2895    1.0000 </r>
       <r>    1.3111    1.0000 </r>
       <r>    1.3421    1.0000 </r>
       <r>    1.3876    1.0000 </r>
       <r>    1.4295    1.0000 </r>
       <r>    1.4951    1.0000 </r>
       <r>    1.5231    1.0000 </r>
       <r>    1.5876    1.0000 </r>
       <r>    1.6955    1.0000 </r>
       <r>    1.7111    1.0000 </r>
       <r>    1.7494    1.0000 </r>
       <r>    1.8045    1.0000 </r>
       <r>    1.8721    1.0000 </r>
       <r>    1.8940    1.0000 </r>
       <r>    1.9274    1.0000 </r>
       <r>    2.0865    1.0000 </r>
       <r>    2.1144    1.0000 </r>
       <r>    2.1582    1.0000 </r>
       <r>    2.2095    1.0000 </r>
       <r>    2.2330    1.0000 </r>
       <r>    2.2745    1.0000 </r>
       <r>    2.3612    1.0000 </r>
       <r>    2.4063    1.0000 </r>
       <r>    2.4231    1.0000 </r>
       <r>    2.5059    1.0000 </r>
       <r>    2.5232    1.0000 </r>
       <r>    2.5782    1.0000 </r>
       <r>    2.5965    1.0000 </r>
       <r>    2.6667    1.0000 </r>
       <r>    2.7399    1.0000 </r>
       <r>    2.7713    1.0000 </r>
       <r>    2.8403    1.0000 </r>
       <r>    2.8874    1.0000 </r>
       <r>    2.9061    1.0000 </r>
       <r>    2.9325    1.0000 </r>
       <r>    2.9649    1.0000 </r>
       <r>    3.0268    1.0000 </r>
       <r>    3.0291    1.0000 </r>
       <r>    3.1749    1.0000 </r>
       <r>    3.2032    1.0000 </r>
       <r>    3.2427    1.0000 </r>
       <r>    3.2646    1.0000 </r>
       <r>    3.3243    1.0000 </r>
       <r>    3.3872    1.0000 </r>
       <r>    3.4030    1.0000 </r>
       <r>    3.4109    1.0000 </r>
       <r>    3.4435    1.0000 </r>
       <r>    3.4756    1.0000 </r>
       <r>    3.4777    1.0000 </r>
       <r>    3.5333    1.0000 </r>
       <r>    3.5744    1.0000 </r>
       <r>    3.5749    1.0000 </r>
       <r>    3.6720    1.0000 </r>
       <r>    3.7026    1.0000 </r>
       <r>    3.7530    1.0000 </r>
       <r>    3.7747    1.0000 </r>
[...]
       <r>    -5.7461     6.8056    29.6110 </r>
       <r>    -5.6814     2.1499    29.7500 </r>
       <r>    -5.6168    14.8986    30.7133 </r>
       <r>    -5.5521     1.4366    30.8077 </r>
       <r>    -5.4875    16.9775    31.9054 </r>
       <r>    -5.4228    27.2037    33.6643 </r>
       <r>    -5.3582     1.3219    33.7500 </r>
       <r>    -5.2935     7.7476    34.2509 </r>
       <r>    -5.2288    13.3082    35.1114 </r>
       <r>    -5.1642    24.1541    36.6731 </r>
       <r>    -5.0995    16.6583    37.7503 </r>
       <r>    -5.0349    23.5077    39.2703 </r>
       <r>    -4.9702    23.4686    40.7877 </r>
       <r>    -4.9056     3.4616    41.0120 </r>
       <r>    -4.8409    16.7625    42.0958 </r>
       <r>    -4.7762    20.4047    43.4151 </r>
       <r>    -4.7116     9.7924    44.0483 </r>
       <r>    -4.6469    11.6556    44.8043 </r>
       <r>    -4.5823    26.2743    46.5031 </r>
       <r>    -4.5176     3.7688    46.7512 </r>
       <r>    -4.4530    17.1013    47.8569 </r>
       <r>    -4.3883    27.4418    49.6322 </r>
       <r>    -4.3237    14.0251    50.5450 </r>
       <r>    -4.2590    31.5798    52.5869 </r>
       <r>    -4.1943    33.2184    54.7347 </r>
       <r>    -4.1297    14.0680    55.6443 </r>
       <r>    -4.0650    12.5619    56.4565 </r>
       <r>    -4.0004    19.3097    57.7050 </r>
       <r>    -3.9357    19.0238    58.9350 </r>
       <r>    -3.8711    16.4758    60.0003 </r>
       <r>    -3.8064    31.9167    62.0639 </r>
       <r>    -3.7417    22.2201    63.5007 </r>
       <r>    -3.6771     7.7051    63.9993 </r>
       <r>    -3.6124    26.1643    65.6937 </r>
       <r>    -3.5478    14.7197    66.6455 </r>
       <r>    -3.4831    26.5544    68.3624 </r>
       <r>    -3.4185    25.1113    69.9860 </r>
       <r>    -3.3538    30.4677    71.9571 </r>
       <r>    -3.2891    34.5341    74.1899 </r>
       <r>    -3.2245    16.4987    75.2584 </r>
       <r>    -3.1598    36.3005    77.6055 </r>
       <r>    -3.0952    50.2762    80.8562 </r>
       <r>    -3.0305    20.7699    82.1992 </r>
       <r>    -2.9659    30.5833    84.1766 </r>
       <r>    -2.9012    28.4418    86.0192 </r>
       <r>    -2.8366    18.8871    87.2409 </r>
       <r>    -2.7719    58.5838    91.0288 </r>
       <r>    -2.7072    47.0959    94.0744 </r>
       <r>    -2.6426    31.8665    96.1372 </r>
       <r>    -2.5779    18.0036    97.3012 </r>
       <r>    -2.5133    45.6905   100.2554 </r>
       <r>    -2.4486    42.6829   103.0155 </r>
       <r>    -2.3840    38.2298   105.4873 </r>
       <r>    -2.3193     7.9822   106.0034 </r>
       <r>    -2.2546    25.1243   107.6279 </r>
       <r>    -2.1900    43.6021   110.4470 </r>
       <r>    -2.1253    46.8363   113.4753 </r>
       <r>    -2.0607    31.0408   115.4830 </r>
       <r>    -1.9960    22.9593   116.9685 </r>
       <r>    -1.9314    34.9660   119.2293 </r>
       <r>    -1.8667    40.3965   121.8412 </r>
       <r>    -1.8020    45.7992   124.8064 </r>
       <r>    -1.7374    28.6761   126.6605 </r>
       <r>    -1.6727    37.9977   129.1173 </r>
       <r>    -1.6081    31.3305   131.1433 </r>
       <r>    -1.5434    39.2933   133.6865 </r>
       <r>    -1.4788    31.5919   135.7296 </r>
       <r>    -1.4141    42.3173   138.4657 </r>
       <r>    -1.3495    23.3591   139.9765 </r>
       <r>    -1.2848    50.7040   143.2549 </r>
       <r>    -1.2201    29.7605   145.1792 </r>
       <r>    -1.1555    33.9330   147.3732 </r>
       <r>    -1.0908    30.0356   149.3152 </r>
       <r>    -1.0262    35.9193   151.6426 </r>
       <r>    -0.9615    27.3105   153.4084 </r>
       <r>    -0.8969    32.2157   155.4914 </r>
       <r>    -0.8322    33.8786   157.6829 </r>
       <r>    -0.7675    30.6213   159.6641 </r>
       <r>    -0.7029    24.9737   161.2807 </r>
       <r>    -0.6382    31.5637   163.3216 </r>
       <r>    -0.5736    16.0021   164.3562 </r>
       <r>    -0.5089    44.2104   167.2147 </r>
       <r>    -0.4443    27.6112   169.0005 </r>
       <r>    -0.3796    30.4143   170.9671 </r>
       <r>    -0.3149    30.8977   172.9648 </r>
       <r>    -0.2503    41.7626   175.6654 </r>
       <r>    -0.1856    28.4423   177.5045 </r>
       <r>    -0.1210    33.5990   179.6769 </r>
       <r>    -0.0563    44.3641   182.5454 </r>
       <r>     0.0083    44.8277   185.4454 </r>
       <r>     0.0730    13.5483   186.3215 </r>
       <r>     0.1376    23.3126   187.8288 </r>
       <r>     0.2023    51.4633   191.1563 </r>
       <r>     0.2670    54.0692   194.6522 </r>
       <r>     0.3316    24.4563   196.2336 </r>
       <r>     0.3963    35.0837   198.5020 </r>
       <r>     0.4609    49.0867   201.6757 </r>
       <r>     0.5256    26.9872   203.4222 </r>
       <r>     0.5902    39.6738   205.9874 </r>
       <r>     0.6549    34.8763   208.2426 </r>
       <r>     0.7196    47.5140   211.3147 </r>
       <r>     0.7842    20.9972   212.6741 </r>
       <r>     0.8489    34.6695   214.9158 </r>
       <r>     0.9135    28.3156   216.7465 </r>
       <r>     0.9782    40.0583   219.3374 </r>
       <r>     1.0428    52.6430   222.7411 </r>
       <r>     1.1075    31.2646   224.7626 </r>
       <r>     1.1722    41.2497   227.4326 </r>
       <r>     1.2368    54.2971   230.9468 </r>
       <r>     1.3015    32.3171   233.0363 </r>
       <r>     1.3661    38.8495   235.5482 </r>
       <r>     1.4308    39.2039   238.0900 </r>
       <r>     1.4954    38.6293   240.5904 </r>
       <r>     1.5601    41.1080   243.2484 </r>
       <r>     1.6247    35.4062   245.5377 </r>
       <r>     1.6894    25.4082   247.1819 </r>
       <r>     1.7541    55.8101   250.7904 </r>
       <r>     1.8187    50.9279   254.0833 </r>
       <r>     1.8834    22.8020   255.5576 </r>
       <r>     1.9480    45.1279   258.4813 </r>
       <r>     2.0127    24.7007   260.0784 </r>
       <r>     2.0773    37.5133   262.5039 </r>
       <r>     2.1420    46.0087   265.4786 </r>
       <r>     2.2067    31.1529   267.4976 </r>
       <r>     2.2713    27.9034   269.3031 </r>
       <r>     2.3360    46.8589   272.3364 </r>
       <r>     2.4006    37.0583   274.7324 </r>
       <r>     2.4653    51.6161   278.0713 </r>
       <r>     2.5299    33.0026   280.2072 </r>
       <r>     2.5946    35.4152   282.5025 </r>
       <r>     2.6593    34.8750   284.7603 </r>
       <r>     2.7239    42.0263   287.4778 </r>
       <r>     2.7886    48.9226   290.6412 </r>
       <r>     2.8532    42.5662   293.3934 </r>
       <r>     2.9179    55.9109   297.0084 </r>
       <r>     2.9825    58.8869   300.8186 </r>
       <r>     3.0472    43.4076   303.6252 </r>
       <r>     3.1119    48.1327   306.7377 </r>
       <r>     3.1765    40.7754   309.3741 </r>
       <r>     3.2412    55.0876   312.9359 </r>
       <r>     3.3058    49.3279   316.1270 </r>
       <r>     3.3705    42.1715   318.8537 </r>
       <r>     3.4351    42.0629   321.5772 </r>
       <r>     3.4998    72.5333   326.2775 </r>
       <r>     3.5644    32.7981   328.4066 </r>
       <r>     3.6291    43.3876   331.2121 </r>
       <r>     3.6938    46.4898   334.2188 </r>
       <r>     3.7584    66.3086   338.5135 </r>
       <r>     3.8231    56.0057   342.1349 </r>
       <r>     3.8877    62.1080   346.1508 </r>
       <r>     3.9524    59.2097   349.9813 </r>
       <r>     4.0170    52.9505   353.4056 </r>
       <r>     4.0817    52.9918   356.8346 </r>
       <r>     4.1464    78.6619   361.9206 </r>
       <r>     4.2110    56.9208   365.6045 </r>
       <r>     4.2757    62.4477   369.6433 </r>
       <r>     4.3403    76.6549   374.5996 </r>
       <r>     4.4050    58.2801   378.3681 </r>
       <r>     4.4696    59.3058   382.2033 </r>
       <r>     4.5343    54.7888   385.7457 </r>
       <r>     4.5990    44.4727   388.6227 </r>
       <r>     4.6636    74.3117   393.4274 </r>
       <r>     4.7283    47.5500   396.5054 </r>
       <r>     4.7929    63.0275   400.5805 </r>
       <r>     4.8576    35.2467   402.8613 </r>
       <r>     4.9222    53.9033   406.3467 </r>
       <r>     4.9869    37.2405   408.7553 </r>
       <r>     5.0515    46.3010   411.7503 </r>
       <r>     5.1162    67.6735   416.1258 </r>
       <r>     5.1809    48.5040   419.2702 </r>
       <r>     5.2455    17.2291   420.3874 </r>
       <r>     5.3102    29.1334   422.2711 </r>
       <r>     5.3748    45.6045   425.2199 </r>
       <r>     5.4395    59.6105   429.0745 </r>
       <r>     5.5041    15.3840   430.0714 </r>
       <r>     5.5688    32.8819   432.1974 </r>
       <r>     5.6335    38.2191   434.6729 </r>
       <r>     5.6981    36.8013   437.0588 </r>
       <r>     5.7628    31.5958   439.1020 </r>
       <r>     5.8274    12.8341   439.9318 </r>
       <r>     5.8921    46.4167   442.9329 </r>
       <r>     5.9567    33.4296   445.0944 </r>
       <r>     6.0214    25.2752   446.7286 </r>
       <r>     6.0861    39.1079   449.2572 </r>
       <r>     6.1507    45.9454   452.2283 </r>
       <r>     6.2154    24.3058   453.7998 </r>
       <r>     6.2800    43.1990   456.5964 </r>
       <r>     6.3447    32.3740   458.6930 </r>
       <r>     6.4093    29.8347   460.6242 </r>
       <r>     6.4740    45.1560   463.5438 </r>
       <r>     6.5386    32.4650   465.6460 </r>
       <r>     6.6033    42.8186   468.4152 </r>
       <r>     6.6680    38.5865   470.9101 </r>
       <r>     6.7326    32.9300   473.0438 </r>
       <r>     6.7973    43.9082   475.8828 </r>
       <r>     6.8619    48.8394   479.0460 </r>
       <r>     6.9266    34.3932   481.2718 </r>
       <r>     6.9912    56.1325   484.9011 </r>
       <r>     7.0559    42.2555   487.6396 </r>
       <r>     7.1206    33.3258   489.7956 </r>
       <r>     7.1852    54.2545   493.3035 </r>
       <r>     7.2499    42.4546   496.0485 </r>
       <r>     7.3145    46.8430   499.0773 </r>
       <r>     7.3792    52.0094   502.4400 </r>
       <r>     7.4438    58.4109   506.2167 </r>
       <r>     7.5085    51.7207   509.5615 </r>
       <r>     7.5732    27.6537   511.3495 </r>
       <r>     7.6378    37.3911   513.7702 </r>
       <r>     7.7025    58.5436   517.5570 </r>
       <r>     7.7671    30.3975   519.5246 </r>
       <r>     7.8318    53.5499   522.9870 </r>
       <r>     7.8964    52.1194   526.3569 </r>
       <r>     7.9611    44.4442   529.2351 </r>
       <r>     8.0257    45.0158   532.1456 </r>
       <r>     8.0904    50.5128   535.4116 </r>
       <r>     8.1551    72.4817   540.1017 </r>
       <r>     8.2197    57.8288   543.8407 </r>
       <r>     8.2844    73.3246   548.5817 </r>
       <r>     8.3490    59.6296   552.4424 </r>
       <r>     8.4137    64.7483   556.6288 </r>
       <r>     8.4783    73.5136   561.3820 </r>
       <r>     8.5430    67.3134   565.7386 </r>
       <r>     8.6077    61.2103   569.7024 </r>
       <r>     8.6723    66.1511   573.9799 </r>
       <r>     8.7370    27.3248   575.7501 </r>
       <r>     8.8016     3.8649   576.0000 </r>
       <r>     8.8663     0.0000   576.0000 </r>
       <r>     8.9309     0.0000   576.0000 </r>
       <r>     8.9956     0.0000   576.0000 </r>
       <r>     9.0603     0.0000   576.0000 </r>
       <r>     9.1249     0.0000   576.0000 </r>
       <r>     9.1896     0.0000   576.0000 </r>
       <r>     9.2542     0.0000   576.0000 </r>
       <r>     9.3189     0.0000   576.0000 </r>
       <r>     9.3835     0.0000   576.0000 </r>
       <r>     9.4482     0.0000   576.0000 </r>
       <r>     9.5128     0.0000   576.0000 </r>
       <r>     9.5775     0.0000   576.0000 </r>
       <r>     9.6422     0.0000   576.0000 </r>
      </set>
     </set>
    </array>
   </total>
  </dos>
 </calculation>
 <structure name="finalpos" >
  <crystal>
   <varray name="basis" >
    <v>       9.17711449       0.00000000       0.00000000 </v>
    <v>      -9.17711544      12.97840118       0.00000000 </v>
    <v>       0.00000000       0.00000000      21.07214165 </v>
   </varray>
   <i name="volume">   2509.78212246 </i>
   <varray name="rec_basis" >
    <v>       0.10896671       0.07705110       0.00000000 </v>
    <v>       0.00000000       0.07705109       0.00000000 </v>
    <v>       0.00000000       0.00000000       0.04745602 </v>
   </varray>
  </crystal>
  <varray name="positions" >
   <v>       0.50000000       0.48202050       0.00000001 </v>
   <v>       0.49999997       0.23202048       0.10887733 </v>
   <v>       0.50000000       0.98202044       0.21775471 </v>
   <v>       0.49999994       0.73202038       0.32663202 </v>
   <v>       0.49999997       0.48202038       0.43550938 </v>
   <v>       0.50000000       0.23202032       0.54438674 </v>
   <v>       0.00000000       0.98202050       0.00000001 </v>
   <v>       0.00000000       0.73202050       0.10887733 </v>
   <v>       0.00000002       0.48202044       0.21775471 </v>
   <v>       0.00000002       0.23202044       0.32663202 </v>
   <v>       0.00000000       0.98202038       0.43550938 </v>
   <v>       0.00000005       0.73202038       0.54438674 </v>
   <v>       0.49999997       0.98202050       0.00000002 </v>
   <v>       0.50000000       0.73202050       0.10887735 </v>
   <v>       0.50000000       0.48202044       0.21775471 </v>
   <v>       0.50000006       0.23202044       0.32663202 </v>
   <v>       0.49999991       0.98202038       0.43550938 </v>
   <v>       0.50000006       0.73202038       0.54438674 </v>
   <v>       0.00000003       0.48202050       0.00000001 </v>
   <v>       0.00000000       0.23202048       0.10887733 </v>
   <v>       0.00000000       0.98202044       0.21775469 </v>
   <v>       0.00000000       0.73202038       0.32663202 </v>
   <v>       0.99999994       0.48202038       0.43550938 </v>
   <v>       0.00000005       0.23202032       0.54438674 </v>
   <v>       0.87499994       0.60702044       0.00000001 </v>
   <v>       0.87499994       0.35702044       0.10887735 </v>
   <v>       0.87499994       0.10702039       0.21775471 </v>
   <v>       0.87499988       0.85702032       0.32663202 </v>
   <v>       0.87499994       0.60702038       0.43550941 </v>
   <v>       0.87499988       0.35702026       0.54438674 </v>
   <v>       0.37499997       0.10702048       0.00000001 </v>
   <v>       0.37499997       0.85702050       0.10887735 </v>
   <v>       0.37500003       0.60702044       0.21775471 </v>
   <v>       0.37499991       0.35702032       0.32663202 </v>
   <v>       0.37500003       0.10702044       0.43550941 </v>
   <v>       0.37499997       0.85702038       0.54438674 </v>
   <v>       0.87499994       0.10702048       0.00000000 </v>
   <v>       0.87499994       0.85702050       0.10887735 </v>
   <v>       0.87499994       0.60702044       0.21775469 </v>
   <v>       0.87499988       0.35702032       0.32663202 </v>
   <v>       0.87500006       0.10702044       0.43550941 </v>
   <v>       0.87500000       0.85702038       0.54438674 </v>
   <v>       0.37499994       0.60702044       0.00000001 </v>
   <v>       0.37499994       0.35702044       0.10887735 </v>
   <v>       0.37499997       0.10702039       0.21775471 </v>
   <v>       0.37499991       0.85702032       0.32663202 </v>
   <v>       0.37499991       0.60702038       0.43550938 </v>
   <v>       0.37499994       0.35702026       0.54438674 </v>
   <v>       0.97851729       0.64518404       0.54438674 </v>
   <v>       0.72851723       0.39518395       0.63550937 </v>
   <v>       0.47851718       0.14518388       0.72663200 </v>
   <v>       0.22851718       0.89518380       0.81775463 </v>
   <v>       0.97851706       0.64518368       0.90887719 </v>
   <v>       0.72851706       0.39518356       0.99999982 </v>
   <v>       0.97851729       0.31185064       0.54438674 </v>
   <v>       0.72851723       0.06185057       0.63550937 </v>
   <v>       0.47851718       0.81185049       0.72663200 </v>
   <v>       0.22851718       0.56185043       0.81775463 </v>
   <v>       0.97851706       0.31185031       0.90887719 </v>
   <v>       0.72851706       0.06185025       0.99999982 </v>
   <v>       0.97851729       0.97851729       0.54438674 </v>
   <v>       0.72851723       0.72851718       0.63550937 </v>
   <v>       0.47851718       0.47851712       0.72663200 </v>
   <v>       0.22851718       0.22851706       0.81775463 </v>
   <v>       0.97851706       0.97851694       0.90887719 </v>
   <v>       0.72851706       0.72851682       0.99999982 </v>
   <v>       0.47851729       0.81185067       0.54438674 </v>
   <v>       0.22851725       0.56185061       0.63550937 </v>
   <v>       0.97851723       0.31185055       0.72663200 </v>
   <v>       0.72851718       0.06185049       0.81775463 </v>
   <v>       0.47851712       0.81185037       0.90887719 </v>
   <v>       0.22851700       0.56185025       0.99999982 </v>
   <v>       0.47851729       0.47851732       0.54438674 </v>
   <v>       0.22851725       0.22851723       0.63550937 </v>
   <v>       0.97851723       0.97851718       0.72663200 </v>
   <v>       0.72851718       0.72851712       0.81775463 </v>
   <v>       0.47851712       0.47851700       0.90887719 </v>
   <v>       0.22851700       0.22851694       0.99999982 </v>
   <v>       0.47851729       0.14518397       0.54438674 </v>
   <v>       0.22851725       0.89518386       0.63550937 </v>
   <v>       0.97851723       0.64518380       0.72663200 </v>
   <v>       0.72851718       0.39518374       0.81775463 </v>
   <v>       0.47851712       0.14518362       0.90887719 </v>
   <v>       0.22851700       0.89518356       0.99999982 </v>
   <v>       0.72851735       0.64518404       0.54438674 </v>
   <v>       0.47851729       0.39518395       0.63550937 </v>
   <v>       0.22851726       0.14518391       0.72663200 </v>
   <v>       0.97851723       0.89518386       0.81775463 </v>
   <v>       0.72851718       0.64518368       0.90887719 </v>
   <v>       0.47851712       0.39518362       0.99999982 </v>
   <v>       0.72851735       0.31185064       0.54438674 </v>
   <v>       0.47851729       0.06185056       0.63550937 </v>
   <v>       0.22851726       0.81185049       0.72663200 </v>
   <v>       0.97851723       0.56185043       0.81775463 </v>
   <v>       0.72851718       0.31185031       0.90887719 </v>
   <v>       0.47851712       0.06185019       0.99999982 </v>
   <v>       0.72851735       0.97851729       0.54438674 </v>
   <v>       0.47851729       0.72851723       0.63550937 </v>
   <v>       0.22851726       0.47851712       0.72663200 </v>
   <v>       0.97851723       0.22851706       0.81775463 </v>
   <v>       0.72851718       0.97851694       0.90887719 </v>
   <v>       0.47851712       0.72851682       0.99999982 </v>
   <v>       0.22851729       0.81185061       0.54438674 </v>
   <v>       0.97851723       0.56185049       0.63550937 </v>
   <v>       0.72851718       0.31185043       0.72663200 </v>
   <v>       0.47851723       0.06185038       0.81775463 </v>
   <v>       0.22851712       0.81185025       0.90887719 </v>
   <v>       0.97851706       0.56185013       0.99999982 </v>
   <v>       0.22851729       0.47851729       0.54438674 </v>
   <v>       0.97851723       0.22851723       0.63550937 </v>
   <v>       0.72851718       0.97851718       0.72663200 </v>
   <v>       0.47851723       0.72851712       0.81775463 </v>
   <v>       0.22851712       0.47851700       0.90887719 </v>
   <v>       0.97851706       0.22851688       0.99999982 </v>
   <v>       0.22851729       0.14518395       0.54438674 </v>
   <v>       0.97851723       0.89518386       0.63550937 </v>
   <v>       0.72851718       0.64518380       0.72663200 </v>
   <v>       0.47851723       0.39518374       0.81775463 </v>
   <v>       0.22851712       0.14518356       0.90887719 </v>
   <v>       0.97851706       0.89518356       0.99999982 </v>
  </varray>
 </structure>
</modeling>
