Si and Ge interface calculation         
           1
     9.177114    0.000000    0.000000
    -9.177115   12.978401    0.000000
     0.000000    0.000000   21.072142
   Sn   Si
    48    72
Direct configuration=     1
   0.50000000  0.48202050  0.00000001
   0.49999997  0.23202048  0.10887733
   0.50000000  0.98202044  0.21775471
   0.49999994  0.73202038  0.32663202
   0.49999997  0.48202038  0.43550938
   0.50000000  0.23202032  0.54438674
   0.00000000  0.98202050  0.00000001
   0.00000000  0.73202050  0.10887733
   0.00000002  0.48202044  0.21775471
   0.00000002  0.23202044  0.32663202
   0.00000000  0.98202038  0.43550938
   0.00000005  0.73202038  0.54438674
   0.49999997  0.98202050  0.00000002
   0.50000000  0.73202050  0.10887735
   0.50000000  0.48202044  0.21775471
   0.50000006  0.23202044  0.32663202
   0.49999991  0.98202038  0.43550938
   0.50000006  0.73202038  0.54438674
   0.00000003  0.48202050  0.00000001
   0.00000000  0.23202048  0.10887733
   0.00000000  0.98202044  0.21775469
   0.00000000  0.73202038  0.32663202
   0.99999994  0.48202038  0.43550938
   0.00000005  0.23202032  0.54438674
   0.87499994  0.60702044  0.00000001
   0.87499994  0.35702044  0.10887735
   0.87499994  0.10702039  0.21775471
   0.87499988  0.85702032  0.32663202
   0.87499994  0.60702038  0.43550941
   0.87499988  0.35702026  0.54438674
   0.37499997  0.10702048  0.00000001
   0.37499997  0.85702050  0.10887735
   0.37500003  0.60702044  0.21775471
   0.37499991  0.35702032  0.32663202
   0.37500003  0.10702044  0.43550941
   0.37499997  0.85702038  0.54438674
   0.87499994  0.10702048  0.00000000
   0.87499994  0.85702050  0.10887735
   0.87499994  0.60702044  0.21775469
   0.87499988  0.35702032  0.32663202
   0.87500006  0.10702044  0.43550941
   0.87500000  0.85702038  0.54438674
   0.37499994  0.60702044  0.00000001
   0.37499994  0.35702044  0.10887735
   0.37499997  0.10702039  0.21775471
   0.37499991  0.85702032  0.32663202
   0.37499991  0.60702038  0.43550938
   0.37499994  0.35702026  0.54438674
   0.97851729  0.64518404  0.54438674
   0.72851723  0.39518395  0.63550937
   0.47851718  0.14518388  0.72663200
   0.22851718  0.89518380  0.81775463
   0.97851706  0.64518368  0.90887719
   0.72851706  0.39518356  0.99999982
   0.97851729  0.31185064  0.54438674
   0.72851723  0.06185057  0.63550937
   0.47851718  0.81185049  0.72663200
   0.22851718  0.56185043  0.81775463
   0.97851706  0.31185031  0.90887719
   0.72851706  0.06185025  0.99999982
   0.97851729  0.97851729  0.54438674
   0.72851723  0.72851718  0.63550937
   0.47851718  0.47851712  0.72663200
   0.22851718  0.22851706  0.81775463
   0.97851706  0.97851694  0.90887719
   0.72851706  0.72851682  0.99999982
   0.47851729  0.81185067  0.54438674
   0.22851725  0.56185061  0.63550937
   0.97851723  0.31185055  0.72663200
   0.72851718  0.06185049  0.81775463
   0.47851712  0.81185037  0.90887719
   0.22851700  0.56185025  0.99999982
   0.47851729  0.47851732  0.54438674
   0.22851725  0.22851723  0.63550937
   0.97851723  0.97851718  0.72663200
   0.72851718  0.72851712  0.81775463
   0.47851712  0.47851700  0.90887719
   0.22851700  0.22851694  0.99999982
   0.47851729  0.14518397  0.54438674
   0.22851725  0.89518386  0.63550937
   0.97851723  0.64518380  0.72663200
   0.72851718  0.39518374  0.81775463
   0.47851712  0.14518362  0.90887719
   0.22851700  0.89518356  0.99999982
   0.72851735  0.64518404  0.54438674
   0.47851729  0.39518395  0.63550937
   0.22851726  0.14518391  0.72663200
   0.97851723  0.89518386  0.81775463
   0.72851718  0.64518368  0.90887719
   0.47851712  0.39518362  0.99999982
   0.72851735  0.31185064  0.54438674
   0.47851729  0.06185056  0.63550937
   0.22851726  0.81185049  0.72663200
   0.97851723  0.56185043  0.81775463
   0.72851718  0.31185031  0.90887719
   0.47851712  0.06185019  0.99999982
   0.72851735  0.97851729  0.54438674
   0.47851729  0.72851723  0.63550937
   0.22851726  0.47851712  0.72663200
   0.97851723  0.22851706  0.81775463
   0.72851718  0.97851694  0.90887719
   0.47851712  0.72851682  0.99999982
   0.22851729  0.81185061  0.54438674
   0.97851723  0.56185049  0.63550937
   0.72851718  0.31185043  0.72663200
   0.47851723  0.06185038  0.81775463
   0.22851712  0.81185025  0.90887719
   0.97851706  0.56185013  0.99999982
   0.22851729  0.47851729  0.54438674
   0.97851723  0.22851723  0.63550937
   0.72851718  0.97851718  0.72663200
   0.47851723  0.72851712  0.81775463
   0.22851712  0.47851700  0.90887719
   0.97851706  0.22851688  0.99999982
   0.22851729  0.14518395  0.54438674
   0.97851723  0.89518386  0.63550937
   0.72851718  0.64518380  0.72663200
   0.47851723  0.39518374  0.81775463
   0.22851712  0.14518356  0.90887719
   0.97851706  0.89518356  0.99999982
