Si and Ge interface calculation         
           1
    16.293001    0.000000    0.000000
   -10.862000   12.144086    0.000000
     0.000000    0.000000    8.192404
   Si   C 
    36    84
Direct configuration=     1
   0.97435850  0.98290563  0.00000000
   0.67435843  0.78290558  0.14823598
   0.37435842  0.58290553  0.29647195
   0.30769178  0.98290563  0.00000000
   0.00769173  0.78290558  0.14823598
   0.70769167  0.58290553  0.29647195
   0.64102507  0.98290563  0.00000000
   0.34102503  0.78290558  0.14823598
   0.04102499  0.58290553  0.29647195
   0.15769197  0.63290560  0.07411784
   0.85769194  0.43290553  0.22235382
   0.55769193  0.23290551  0.37058976
   0.49102521  0.63290560  0.07411784
   0.19102515  0.43290553  0.22235382
   0.89102519  0.23290551  0.37058976
   0.82435846  0.63290560  0.07411784
   0.52435839  0.43290553  0.22235382
   0.22435850  0.23290551  0.37058976
   0.14102516  0.48290560  0.00000000
   0.84102511  0.28290549  0.14823598
   0.54102510  0.08290543  0.29647195
   0.47435844  0.48290560  0.00000000
   0.17435838  0.28290549  0.14823598
   0.87435836  0.08290543  0.29647195
   0.80769169  0.48290560  0.00000000
   0.50769168  0.28290549  0.14823598
   0.20769163  0.08290543  0.29647195
   0.99102521  0.13290566  0.07411785
   0.69102514  0.93290561  0.22235382
   0.39102519  0.73290557  0.37058976
   0.32435846  0.13290566  0.07411785
   0.02435841  0.93290561  0.22235382
   0.72435844  0.73290557  0.37058976
   0.65769166  0.13290566  0.07411785
   0.35769162  0.93290561  0.22235382
   0.05769165  0.73290557  0.37058976
   0.74516821  0.32818735  0.75831014
   0.97373962  0.38532996  0.56360275
   0.85945392  0.85675871  0.66095650
   0.60231101  0.04247308  0.75831014
   0.83088249  0.09961569  0.56360275
   0.71659672  0.57104444  0.66095650
   0.45945388  0.75675881  0.75831014
   0.68802530  0.81390142  0.56360275
   0.57373953  0.28533018  0.66095650
   0.31659681  0.47104454  0.75831014
   0.54516822  0.52818704  0.56360275
   0.43088251  0.99961591  0.66095650
   0.17373967  0.18533027  0.75831014
   0.40231109  0.24247289  0.56360275
   0.28802538  0.71390164  0.66095650
   0.03088248  0.89961600  0.75831014
   0.25945395  0.95675856  0.56360275
   0.14516820  0.42818737  0.66095650
   0.88802540  0.61390162  0.75831014
   0.11659682  0.67104429  0.56360275
   0.00231111  0.14247298  0.66095650
   0.79516828  0.77818739  0.80698693
   0.02373970  0.83532989  0.61227953
   0.90945405  0.30675876  0.70963323
   0.65231109  0.49247312  0.80698693
   0.88088244  0.54961574  0.61227953
   0.76659674  0.02104437  0.70963323
   0.50945401  0.20675838  0.80698693
   0.73802537  0.26390111  0.61227959
   0.62373972  0.73532987  0.70963323
   0.36659685  0.92104435  0.80698693
   0.59516823  0.97818696  0.61227959
   0.48088252  0.44961572  0.70963323
   0.22373965  0.63533008  0.80698693
   0.45231110  0.69247282  0.61227953
   0.33802533  0.16390145  0.70963323
   0.08088267  0.34961605  0.80698693
   0.30945405  0.40675867  0.61227953
   0.19516835  0.87818730  0.70963323
   0.93802536  0.06390131  0.80698693
   0.16659685  0.12104404  0.61227953
   0.05231106  0.59247279  0.70963323
   0.81659669  0.97104454  0.75831014
   0.04516828  0.02818716  0.56360275
   0.93088239  0.49961591  0.66095650
   0.67373949  0.68533027  0.75831014
   0.90231097  0.74247289  0.56360281
   0.78802520  0.21390152  0.66095650
   0.53088242  0.39961588  0.75831014
   0.75945389  0.45675850  0.56360275
   0.64516819  0.92818737  0.66095650
   0.38802528  0.11390162  0.75831014
   0.61659682  0.17104435  0.56360275
   0.50231105  0.64247298  0.66095650
   0.24516824  0.82818747  0.75831014
   0.47373968  0.88532996  0.56360275
   0.35945392  0.35675871  0.66095650
   0.10231101  0.54247296  0.75831014
   0.33088249  0.59961557  0.56360281
   0.21659683  0.07104444  0.66095650
   0.95945394  0.25675869  0.75831014
   0.18802537  0.31390142  0.56360281
   0.07373977  0.78533030  0.66095650
   0.86659682  0.42104435  0.80698693
   0.09516835  0.47818708  0.61227953
   0.98088252  0.94961560  0.70963323
   0.72373968  0.13533032  0.80698693
   0.95231098  0.19247270  0.61227953
   0.83802533  0.66390157  0.70963323
   0.58088255  0.84961557  0.80698693
   0.80945390  0.90675819  0.61227953
   0.69516820  0.37818694  0.70963323
   0.43802541  0.56390142  0.80698693
   0.66659683  0.62104404  0.61227953
   0.55231118  0.09247279  0.70963323
   0.29516825  0.27818728  0.80698693
   0.52373970  0.33532989  0.61227953
   0.40945399  0.80675852  0.70963323
   0.15231110  0.99247312  0.80698693
   0.38088256  0.04961574  0.61227953
   0.26659685  0.52104449  0.70963323
   0.00945413  0.70675862  0.80698693
   0.23802549  0.76390111  0.61227953
   0.12373984  0.23532999  0.70963317
