Si and Ge interface calculation         
           1
    14.510292    0.000000    0.000000
     0.000000   19.467602    0.000000
     0.000000    0.000000   17.404436
   Sn   Ge
    36   144
Direct configuration=     1
   0.98290563  0.65242130  0.00000001
   0.78290558  0.48575461  0.08337129
   0.58290541  0.31908789  0.16674255
   0.98290563  0.31908801  0.00000001
   0.78290558  0.15242132  0.08337129
   0.58290541  0.98575461  0.16674255
   0.98290563  0.98575473  0.00000001
   0.78290558  0.81908804  0.08337129
   0.58290541  0.65242130  0.16674255
   0.63290560  0.90242141  0.04168557
   0.43290553  0.73575473  0.12505685
   0.23290543  0.56908804  0.20842809
   0.63290560  0.56908798  0.04168557
   0.43290553  0.40242130  0.12505685
   0.23290543  0.23575461  0.20842809
   0.63290560  0.23575476  0.04168557
   0.43290553  0.06908806  0.12505685
   0.23290543  0.90242136  0.20842809
   0.48290560  0.81908792  0.00000000
   0.28290546  0.65242124  0.08337127
   0.08290535  0.48575458  0.16674258
   0.48290560  0.48575467  0.00000000
   0.28290546  0.31908798  0.08337127
   0.08290535  0.15242128  0.16674258
   0.48290560  0.15242136  0.00000000
   0.28290546  0.98575467  0.08337127
   0.08290535  0.81908798  0.16674258
   0.13290565  0.73575467  0.04168556
   0.93290555  0.56908798  0.12505682
   0.73290551  0.40242130  0.20842809
   0.13290565  0.40242138  0.04168556
   0.93290555  0.23575471  0.12505682
   0.73290551  0.06908801  0.20842809
   0.13290565  0.06908801  0.04168556
   0.93290555  0.90242136  0.12505682
   0.73290551  0.73575461  0.20842809
   0.97937846  0.63402057  0.31688291
   0.72937834  0.63402057  0.43181536
   0.47937822  0.63402051  0.54674780
   0.22937822  0.63402045  0.66168028
   0.97937822  0.63402033  0.77661270
   0.72937798  0.63402033  0.89154524
   0.31271177  0.80068731  0.31688288
   0.06271167  0.80068725  0.43181536
   0.81271160  0.80068719  0.54674780
   0.56271154  0.80068713  0.66168022
   0.31271148  0.80068707  0.77661264
   0.06271136  0.80068702  0.89154524
   0.64604503  0.96735394  0.31688288
   0.39604497  0.96735388  0.43181536
   0.14604483  0.96735382  0.54674780
   0.89604485  0.96735382  0.66168022
   0.64604473  0.96735370  0.77661264
   0.39604467  0.96735364  0.89154524
   0.97937846  0.13402061  0.31688291
   0.72937834  0.13402057  0.43181533
   0.47937828  0.13402045  0.54674780
   0.22937828  0.13402045  0.66168022
   0.97937822  0.13402033  0.77661264
   0.72937810  0.13402033  0.89154524
   0.31271177  0.30068725  0.31688291
   0.06271169  0.30068722  0.43181533
   0.81271160  0.30068713  0.54674774
   0.56271154  0.30068707  0.66168022
   0.31271148  0.30068704  0.77661270
   0.06271136  0.30068696  0.89154524
   0.64604515  0.46735394  0.31688291
   0.39604500  0.46735388  0.43181536
   0.14604492  0.46735382  0.54674774
   0.89604485  0.46735376  0.66168022
   0.64604485  0.46735370  0.77661270
   0.39604473  0.46735364  0.89154524
   0.14604510  0.96735400  0.31688288
   0.89604497  0.96735394  0.43181533
   0.64604485  0.96735388  0.54674780
   0.39604479  0.96735382  0.66168028
   0.14604485  0.96735376  0.77661276
   0.89604473  0.96735364  0.89154518
   0.14604510  0.46735394  0.31688291
   0.89604503  0.46735388  0.43181536
   0.64604491  0.46735382  0.54674780
   0.39604491  0.46735376  0.66168028
   0.14604485  0.46735370  0.77661264
   0.89604473  0.46735364  0.89154518
   0.47937849  0.63402063  0.31688291
   0.22937836  0.63402057  0.43181536
   0.97937822  0.63402051  0.54674780
   0.72937822  0.63402039  0.66168028
   0.47937816  0.63402039  0.77661264
   0.22937804  0.63402027  0.89154518
   0.81271166  0.80068731  0.31688291
   0.56271166  0.80068725  0.43181536
   0.31271154  0.80068713  0.54674774
   0.06271150  0.80068713  0.66168028
   0.81271142  0.80068707  0.77661270
   0.56271136  0.80068696  0.89154518
   0.47937843  0.13402061  0.31688291
   0.22937836  0.13402057  0.43181536
   0.97937822  0.13402045  0.54674774
   0.72937822  0.13402045  0.66168028
   0.47937816  0.13402033  0.77661270
   0.22937804  0.13402033  0.89154524
   0.81271177  0.30068728  0.31688291
   0.56271172  0.30068719  0.43181536
   0.31271166  0.30068719  0.54674774
   0.06271160  0.30068713  0.66168028
   0.81271160  0.30068704  0.77661264
   0.56271148  0.30068702  0.89154524
   0.14604515  0.84235400  0.31688288
   0.89604497  0.84235394  0.43181536
   0.64604491  0.84235388  0.54674780
   0.39604485  0.84235382  0.66168028
   0.14604485  0.84235376  0.77661264
   0.89604473  0.84235370  0.89154518
   0.47937843  0.00902069  0.31688288
   0.22937839  0.00902057  0.43181536
   0.97937822  0.00902057  0.54674780
   0.72937822  0.00902045  0.66168028
   0.47937822  0.00902033  0.77661264
   0.22937810  0.00902033  0.89154518
   0.14604509  0.34235394  0.31688291
   0.89604503  0.34235388  0.43181533
   0.64604491  0.34235382  0.54674774
   0.39604485  0.34235376  0.66168028
   0.14604485  0.34235370  0.77661270
   0.89604473  0.34235364  0.89154518
   0.47937849  0.50902063  0.31688291
   0.22937837  0.50902057  0.43181536
   0.97937828  0.50902051  0.54674780
   0.72937822  0.50902045  0.66168028
   0.47937822  0.50902039  0.77661270
   0.22937804  0.50902033  0.89154518
   0.81271177  0.67568731  0.31688291
   0.56271177  0.67568725  0.43181536
   0.31271163  0.67568719  0.54674780
   0.06271158  0.67568713  0.66168028
   0.81271154  0.67568707  0.77661270
   0.56271148  0.67568702  0.89154518
   0.81271184  0.17568727  0.31688288
   0.56271172  0.17568719  0.43181536
   0.31271163  0.17568713  0.54674780
   0.06271157  0.17568710  0.66168028
   0.81271154  0.17568703  0.77661270
   0.56271148  0.17568696  0.89154524
   0.97937852  0.00902069  0.31688288
   0.72937834  0.00902057  0.43181533
   0.47937828  0.00902045  0.54674780
   0.22937822  0.00902045  0.66168028
   0.97937822  0.00902033  0.77661276
   0.72937810  0.00902033  0.89154518
   0.97937846  0.50902057  0.31688288
   0.72937834  0.50902051  0.43181536
   0.47937828  0.50902045  0.54674780
   0.22937822  0.50902039  0.66168022
   0.97937822  0.50902033  0.77661264
   0.72937810  0.50902027  0.89154518
   0.31271184  0.67568731  0.31688288
   0.06271169  0.67568725  0.43181536
   0.81271160  0.67568719  0.54674780
   0.56271154  0.67568713  0.66168028
   0.31271154  0.67568707  0.77661270
   0.06271142  0.67568702  0.89154524
   0.64604509  0.84235394  0.31688288
   0.39604500  0.84235388  0.43181536
   0.14604490  0.84235382  0.54674780
   0.89604485  0.84235376  0.66168022
   0.64604485  0.84235370  0.77661264
   0.39604473  0.84235364  0.89154518
   0.31271175  0.17568725  0.31688291
   0.06271169  0.17568721  0.43181533
   0.81271160  0.17568715  0.54674774
   0.56271154  0.17568709  0.66168028
   0.31271154  0.17568704  0.77661270
   0.06271142  0.17568698  0.89154518
   0.64604521  0.34235397  0.31688291
   0.39604506  0.34235388  0.43181533
   0.14604494  0.34235382  0.54674774
   0.89604491  0.34235376  0.66168028
   0.64604485  0.34235370  0.77661270
   0.39604473  0.34235364  0.89154518
