 264 264   0   0
  0.2770664E+02  0.1946760E-08  0.1946760E-08  0.1930025E-08  0.5000000E-15
  1.000000000000000E-004
  CAR 
 Si and Ge interface calculation         
      6.64850170     -8.92226937  301      4.04729085      1.00000000
     -8.922  0.0000E+00  0.0000E+00  0.0000E+00  0.0000E+00
     -8.870  0.0000E+00  0.0000E+00  0.0000E+00  0.0000E+00
     -8.818  0.0000E+00  0.0000E+00  0.0000E+00  0.0000E+00
     -8.767  0.0000E+00  0.0000E+00  0.0000E+00  0.0000E+00
     -8.715  0.0000E+00  0.0000E+00  0.0000E+00  0.0000E+00
     -8.663  0.0000E+00  0.0000E+00  0.0000E+00  0.0000E+00
     -8.611  0.0000E+00  0.0000E+00  0.0000E+00  0.0000E+00
     -8.559  0.0000E+00  0.0000E+00  0.0000E+00  0.0000E+00
     -8.507  0.0000E+00  0.0000E+00  0.0000E+00  0.0000E+00
     -8.455  0.0000E+00  0.0000E+00  0.0000E+00  0.0000E+00
     -8.403  0.0000E+00  0.0000E+00  0.0000E+00  0.0000E+00
     -8.351  0.0000E+00  0.0000E+00  0.0000E+00  0.0000E+00
     -8.299  0.0000E+00  0.0000E+00  0.0000E+00  0.0000E+00
     -8.248  0.1419E-04  0.4116E-05  0.7366E-06  0.2137E-06
     -8.196  0.1005E+02  0.9802E+01  0.5214E+00  0.5088E+00
     -8.144  0.2746E+02  0.2720E+02  0.1947E+01  0.1920E+01
     -8.092  0.1024E+01  0.1535E+01  0.2000E+01  0.2000E+01
     -8.040  0.1813E+02  0.1678E+02  0.2941E+01  0.2871E+01
     -7.988  0.1088E+02  0.1218E+02  0.3505E+01  0.3503E+01
     -7.936  0.1684E+02  0.1608E+02  0.4380E+01  0.4338E+01
     -7.884  0.2506E+01  0.3223E+01  0.4510E+01  0.4505E+01
     -7.832  0.3798E+02  0.3784E+02  0.6481E+01  0.6469E+01
     -7.780  0.8654E+01  0.7364E+01  0.6930E+01  0.6851E+01
     -7.729  0.3012E+02  0.3154E+02  0.8493E+01  0.8488E+01
     -7.677  0.1921E+02  0.1912E+02  0.9490E+01  0.9481E+01
     -7.625  0.1944E+02  0.1962E+02  0.1050E+02  0.1050E+02
     -7.573  0.1007E-01  0.2329E-01  0.1050E+02  0.1050E+02
     -7.521  0.3598E+00  0.2004E+00  0.1052E+02  0.1051E+02
     -7.469  0.2831E+02  0.2787E+02  0.1199E+02  0.1196E+02
     -7.417  0.4901E+02  0.4771E+02  0.1453E+02  0.1443E+02
     -7.365  0.2596E+02  0.2711E+02  0.1588E+02  0.1584E+02
     -7.313  0.1223E+02  0.1286E+02  0.1651E+02  0.1651E+02
     -7.261  0.2011E+02  0.1761E+02  0.1756E+02  0.1742E+02
     -7.209  0.4696E+02  0.4946E+02  0.2000E+02  0.1999E+02
     -7.158  0.7863E+01  0.6111E+01  0.2040E+02  0.2031E+02
     -7.106  0.3373E+02  0.3456E+02  0.2215E+02  0.2210E+02
     -7.054  0.4039E+02  0.3986E+02  0.2425E+02  0.2417E+02
     -7.002  0.6609E+02  0.6630E+02  0.2768E+02  0.2761E+02
     -6.950  0.1122E+02  0.1097E+02  0.2826E+02  0.2818E+02
     -6.898  0.5247E+02  0.5245E+02  0.3099E+02  0.3090E+02
     -6.846  0.2520E+02  0.2597E+02  0.3229E+02  0.3225E+02
     -6.794  0.4224E+02  0.4080E+02  0.3449E+02  0.3437E+02
     -6.742  0.4842E+02  0.5072E+02  0.3700E+02  0.3700E+02
     -6.690  0.4840E+02  0.4457E+02  0.3951E+02  0.3931E+02
     -6.639  0.5634E+02  0.5922E+02  0.4244E+02  0.4239E+02
     -6.587  0.4648E+02  0.4660E+02  0.4485E+02  0.4481E+02
     -6.535  0.3743E+02  0.3607E+02  0.4679E+02  0.4668E+02
     -6.483  0.5490E+02  0.5522E+02  0.4964E+02  0.4954E+02
     -6.431  0.3225E+02  0.3221E+02  0.5132E+02  0.5122E+02
     -6.379  0.3309E+02  0.3474E+02  0.5303E+02  0.5302E+02
     -6.327  0.4504E+02  0.4431E+02  0.5537E+02  0.5532E+02
     -6.275  0.4018E+02  0.3763E+02  0.5746E+02  0.5727E+02
     -6.223  0.5083E+02  0.5100E+02  0.6009E+02  0.5992E+02
     -6.171  0.6965E+02  0.7091E+02  0.6371E+02  0.6360E+02
     -6.120  0.5942E+02  0.5747E+02  0.6679E+02  0.6658E+02
     -6.068  0.8995E+02  0.8977E+02  0.7146E+02  0.7124E+02
     -6.016  0.8483E+02  0.8760E+02  0.7586E+02  0.7579E+02
     -5.964  0.4805E+02  0.4705E+02  0.7836E+02  0.7823E+02
     -5.912  0.5067E+02  0.5064E+02  0.8099E+02  0.8086E+02
     -5.860  0.7473E+02  0.7496E+02  0.8487E+02  0.8475E+02
     -5.808  0.6124E+02  0.6087E+02  0.8805E+02  0.8791E+02
     -5.756  0.8061E+02  0.8055E+02  0.9223E+02  0.9209E+02
     -5.704  0.8896E+02  0.8714E+02  0.9685E+02  0.9661E+02
     -5.652  0.7961E+02  0.8133E+02  0.1010E+03  0.1008E+03
     -5.601  0.8310E+02  0.8235E+02  0.1053E+03  0.1051E+03
     -5.549  0.8485E+02  0.8460E+02  0.1097E+03  0.1095E+03
     -5.497  0.5191E+02  0.5358E+02  0.1124E+03  0.1123E+03
     -5.445  0.7577E+02  0.7425E+02  0.1163E+03  0.1161E+03
     -5.393  0.5924E+02  0.6023E+02  0.1194E+03  0.1193E+03
     -5.341  0.7743E+02  0.7695E+02  0.1234E+03  0.1233E+03
     -5.289  0.8229E+02  0.8149E+02  0.1277E+03  0.1275E+03
     -5.237  0.8568E+02  0.8585E+02  0.1321E+03  0.1319E+03
     -5.185  0.7001E+02  0.7158E+02  0.1358E+03  0.1357E+03
     -5.133  0.5969E+02  0.5966E+02  0.1389E+03  0.1387E+03
     -5.081  0.6751E+02  0.6572E+02  0.1424E+03  0.1422E+03
     -5.030  0.9044E+02  0.9179E+02  0.1471E+03  0.1469E+03
     -4.978  0.6372E+02  0.6377E+02  0.1504E+03  0.1502E+03
     -4.926  0.6078E+02  0.5947E+02  0.1535E+03  0.1533E+03
     -4.874  0.8038E+02  0.8043E+02  0.1577E+03  0.1575E+03
     -4.822  0.9420E+02  0.9371E+02  0.1626E+03  0.1624E+03
     -4.770  0.1011E+03  0.1002E+03  0.1678E+03  0.1676E+03
     -4.718  0.9957E+02  0.9880E+02  0.1730E+03  0.1727E+03
     -4.666  0.9975E+02  0.1008E+03  0.1782E+03  0.1779E+03
     -4.614  0.1211E+03  0.1207E+03  0.1845E+03  0.1842E+03
     -4.562  0.1090E+03  0.1082E+03  0.1901E+03  0.1898E+03
     -4.511  0.1077E+03  0.1080E+03  0.1957E+03  0.1954E+03
     -4.459  0.1015E+03  0.9844E+02  0.2010E+03  0.2005E+03
     -4.407  0.1140E+03  0.1167E+03  0.2069E+03  0.2066E+03
     -4.355  0.7194E+02  0.7372E+02  0.2106E+03  0.2104E+03
     -4.303  0.7953E+02  0.7934E+02  0.2148E+03  0.2145E+03
     -4.251  0.6893E+02  0.6988E+02  0.2183E+03  0.2181E+03
     -4.199  0.6493E+02  0.6404E+02  0.2217E+03  0.2215E+03
     -4.147  0.9963E+02  0.1003E+03  0.2269E+03  0.2267E+03
     -4.095  0.5541E+02  0.5597E+02  0.2298E+03  0.2296E+03
     -4.043  0.7078E+02  0.6942E+02  0.2334E+03  0.2332E+03
     -3.992  0.5261E+02  0.5316E+02  0.2362E+03  0.2359E+03
     -3.940  0.6386E+02  0.6450E+02  0.2395E+03  0.2393E+03
     -3.888  0.6679E+02  0.6671E+02  0.2429E+03  0.2428E+03
     -3.836  0.7423E+02  0.7208E+02  0.2468E+03  0.2465E+03
     -3.784  0.6357E+02  0.6562E+02  0.2501E+03  0.2499E+03
     -3.732  0.6469E+02  0.6454E+02  0.2535E+03  0.2532E+03
     -3.680  0.7545E+02  0.7548E+02  0.2574E+03  0.2572E+03
     -3.628  0.6332E+02  0.6126E+02  0.2607E+03  0.2603E+03
     -3.576  0.6604E+02  0.6962E+02  0.2641E+03  0.2640E+03
     -3.524  0.3317E+02  0.3412E+02  0.2658E+03  0.2657E+03
     -3.472  0.8117E+02  0.7642E+02  0.2700E+03  0.2697E+03
     -3.421  0.5791E+02  0.5983E+02  0.2730E+03  0.2728E+03
     -3.369  0.9580E+02  0.9130E+02  0.2780E+03  0.2775E+03
     -3.317  0.7145E+02  0.7753E+02  0.2817E+03  0.2816E+03
     -3.265  0.7833E+02  0.7559E+02  0.2858E+03  0.2855E+03
     -3.213  0.8722E+02  0.8568E+02  0.2903E+03  0.2899E+03
     -3.161  0.7281E+02  0.7341E+02  0.2941E+03  0.2937E+03
     -3.109  0.8547E+02  0.8564E+02  0.2985E+03  0.2982E+03
     -3.057  0.6051E+02  0.6214E+02  0.3016E+03  0.3014E+03
     -3.005  0.8164E+02  0.8166E+02  0.3059E+03  0.3057E+03
     -2.953  0.6002E+02  0.5755E+02  0.3090E+03  0.3086E+03
     -2.902  0.1120E+03  0.1094E+03  0.3148E+03  0.3143E+03
     -2.850  0.9893E+02  0.1008E+03  0.3200E+03  0.3196E+03
     -2.798  0.6775E+02  0.7146E+02  0.3235E+03  0.3233E+03
     -2.746  0.1049E+03  0.1026E+03  0.3289E+03  0.3286E+03
     -2.694  0.1097E+03  0.1108E+03  0.3346E+03  0.3343E+03
     -2.642  0.8313E+02  0.8373E+02  0.3389E+03  0.3387E+03
     -2.590  0.9407E+02  0.9025E+02  0.3438E+03  0.3434E+03
     -2.538  0.1384E+03  0.1378E+03  0.3510E+03  0.3505E+03
     -2.486  0.1160E+03  0.1200E+03  0.3570E+03  0.3567E+03
     -2.434  0.9021E+02  0.9040E+02  0.3617E+03  0.3614E+03
     -2.383  0.9007E+02  0.8957E+02  0.3664E+03  0.3661E+03
     -2.331  0.9522E+02  0.9486E+02  0.3713E+03  0.3710E+03
     -2.279  0.9319E+02  0.9346E+02  0.3761E+03  0.3759E+03
     -2.227  0.9724E+02  0.9979E+02  0.3812E+03  0.3810E+03
     -2.175  0.4501E+02  0.4572E+02  0.3835E+03  0.3834E+03
     -2.123  0.4742E+02  0.4498E+02  0.3860E+03  0.3857E+03
     -2.071  0.5730E+02  0.5809E+02  0.3890E+03  0.3888E+03
     -2.019  0.7407E+02  0.7201E+02  0.3928E+03  0.3925E+03
     -1.967  0.8775E+02  0.8778E+02  0.3974E+03  0.3971E+03
     -1.915  0.1030E+03  0.1032E+03  0.4027E+03  0.4024E+03
     -1.864  0.9708E+02  0.9954E+02  0.4077E+03  0.4076E+03
     -1.812  0.6832E+02  0.6641E+02  0.4113E+03  0.4110E+03
     -1.760  0.8560E+02  0.8397E+02  0.4157E+03  0.4154E+03
     -1.708  0.1066E+03  0.1076E+03  0.4213E+03  0.4210E+03
     -1.656  0.8703E+02  0.8840E+02  0.4258E+03  0.4256E+03
     -1.604  0.7995E+02  0.7855E+02  0.4299E+03  0.4296E+03
     -1.552  0.7834E+02  0.8172E+02  0.4340E+03  0.4339E+03
     -1.500  0.7212E+02  0.7180E+02  0.4377E+03  0.4376E+03
     -1.448  0.6580E+02  0.6541E+02  0.4412E+03  0.4410E+03
     -1.396  0.2942E+02  0.2854E+02  0.4427E+03  0.4425E+03
     -1.344  0.8860E+02  0.8723E+02  0.4473E+03  0.4470E+03
     -1.293  0.5115E+02  0.5484E+02  0.4499E+03  0.4499E+03
     -1.241  0.4129E+02  0.3895E+02  0.4521E+03  0.4519E+03
     -1.189  0.6950E+02  0.6891E+02  0.4557E+03  0.4554E+03
     -1.137  0.3388E+02  0.3419E+02  0.4574E+03  0.4572E+03
     -1.085  0.7279E+02  0.7428E+02  0.4612E+03  0.4611E+03
     -1.033  0.5025E+02  0.4979E+02  0.4638E+03  0.4637E+03
     -0.981  0.5226E+02  0.5266E+02  0.4665E+03  0.4664E+03
     -0.929  0.3515E+02  0.3639E+02  0.4684E+03  0.4683E+03
     -0.877  0.5433E+02  0.5249E+02  0.4712E+03  0.4710E+03
     -0.825  0.6406E+02  0.6324E+02  0.4745E+03  0.4743E+03
     -0.774  0.6844E+02  0.6821E+02  0.4781E+03  0.4778E+03
     -0.722  0.4655E+02  0.4589E+02  0.4805E+03  0.4802E+03
     -0.670  0.6938E+02  0.7120E+02  0.4841E+03  0.4839E+03
     -0.618  0.4582E+02  0.4843E+02  0.4865E+03  0.4864E+03
     -0.566  0.3492E+02  0.3255E+02  0.4883E+03  0.4881E+03
     -0.514  0.1882E+02  0.2192E+02  0.4893E+03  0.4893E+03
     -0.462  0.3691E+02  0.3528E+02  0.4912E+03  0.4911E+03
     -0.410  0.3741E+02  0.3657E+02  0.4931E+03  0.4930E+03
     -0.358  0.4816E+02  0.4739E+02  0.4956E+03  0.4954E+03
     -0.306  0.8803E+02  0.8894E+02  0.5002E+03  0.5001E+03
     -0.255  0.5989E+02  0.5763E+02  0.5033E+03  0.5030E+03
     -0.203  0.7434E+02  0.7616E+02  0.5071E+03  0.5070E+03
     -0.151  0.1078E+03  0.1048E+03  0.5127E+03  0.5124E+03
     -0.099  0.1193E+03  0.1205E+03  0.5189E+03  0.5187E+03
     -0.047  0.9531E+02  0.9412E+02  0.5239E+03  0.5236E+03
      0.005  0.1338E+03  0.1352E+03  0.5308E+03  0.5306E+03
      0.057  0.1334E+03  0.1306E+03  0.5377E+03  0.5374E+03
      0.109  0.1468E+03  0.1505E+03  0.5454E+03  0.5452E+03
      0.161  0.9066E+02  0.9026E+02  0.5501E+03  0.5499E+03
      0.213  0.7938E+02  0.7839E+02  0.5542E+03  0.5539E+03
      0.264  0.9788E+02  0.9866E+02  0.5593E+03  0.5591E+03
      0.316  0.8053E+02  0.8089E+02  0.5634E+03  0.5633E+03
      0.368  0.7887E+02  0.7656E+02  0.5675E+03  0.5672E+03
      0.420  0.1032E+03  0.1046E+03  0.5729E+03  0.5727E+03
      0.472  0.8555E+02  0.8646E+02  0.5773E+03  0.5771E+03
      0.524  0.9812E+02  0.9613E+02  0.5824E+03  0.5821E+03
      0.576  0.1384E+03  0.1370E+03  0.5896E+03  0.5892E+03
      0.628  0.1421E+03  0.1419E+03  0.5970E+03  0.5966E+03
      0.680  0.1360E+03  0.1357E+03  0.6040E+03  0.6037E+03
      0.732  0.1280E+03  0.1296E+03  0.6107E+03  0.6104E+03
      0.784  0.1211E+03  0.1202E+03  0.6170E+03  0.6166E+03
      0.835  0.1133E+03  0.1165E+03  0.6229E+03  0.6227E+03
      0.887  0.9730E+02  0.9549E+02  0.6279E+03  0.6276E+03
      0.939  0.8919E+02  0.8852E+02  0.6325E+03  0.6322E+03
      0.991  0.1146E+03  0.1148E+03  0.6385E+03  0.6382E+03
      1.043  0.1475E+03  0.1426E+03  0.6461E+03  0.6456E+03
      1.095  0.1490E+03  0.1552E+03  0.6539E+03  0.6536E+03
      1.147  0.1443E+03  0.1399E+03  0.6614E+03  0.6609E+03
      1.199  0.1618E+03  0.1618E+03  0.6698E+03  0.6693E+03
      1.251  0.1819E+03  0.1832E+03  0.6792E+03  0.6788E+03
      1.303  0.1545E+03  0.1509E+03  0.6872E+03  0.6866E+03
      1.354  0.2052E+03  0.2086E+03  0.6979E+03  0.6975E+03
      1.406  0.1745E+03  0.1758E+03  0.7069E+03  0.7066E+03
      1.458  0.1298E+03  0.1284E+03  0.7137E+03  0.7132E+03
      1.510  0.1960E+03  0.1915E+03  0.7238E+03  0.7232E+03
      1.562  0.2036E+03  0.2049E+03  0.7344E+03  0.7338E+03
      1.614  0.2081E+03  0.2090E+03  0.7452E+03  0.7447E+03
      1.666  0.1586E+03  0.1585E+03  0.7534E+03  0.7529E+03
      1.718  0.1816E+03  0.1786E+03  0.7629E+03  0.7622E+03
      1.770  0.1929E+03  0.1968E+03  0.7729E+03  0.7724E+03
      1.822  0.1782E+03  0.1791E+03  0.7821E+03  0.7817E+03
      1.873  0.1522E+03  0.1504E+03  0.7900E+03  0.7895E+03
      1.925  0.1916E+03  0.1927E+03  0.8000E+03  0.7995E+03
      1.977  0.2022E+03  0.2001E+03  0.8105E+03  0.8099E+03
      2.029  0.1543E+03  0.1556E+03  0.8185E+03  0.8179E+03
      2.081  0.1832E+03  0.1850E+03  0.8280E+03  0.8275E+03
      2.133  0.1791E+03  0.1783E+03  0.8373E+03  0.8368E+03
      2.185  0.1945E+03  0.1929E+03  0.8474E+03  0.8468E+03
      2.237  0.1513E+03  0.1545E+03  0.8552E+03  0.8548E+03
      2.289  0.1795E+03  0.1764E+03  0.8645E+03  0.8640E+03
      2.341  0.1543E+03  0.1548E+03  0.8725E+03  0.8720E+03
      2.392  0.2023E+03  0.1993E+03  0.8830E+03  0.8824E+03
      2.444  0.1674E+03  0.1697E+03  0.8917E+03  0.8912E+03
      2.496  0.1366E+03  0.1385E+03  0.8988E+03  0.8984E+03
      2.548  0.1707E+03  0.1691E+03  0.9077E+03  0.9071E+03
      2.600  0.1492E+03  0.1481E+03  0.9154E+03  0.9148E+03
      2.652  0.1171E+03  0.1210E+03  0.9215E+03  0.9211E+03
      2.704  0.1328E+03  0.1257E+03  0.9284E+03  0.9276E+03
      2.756  0.1491E+03  0.1551E+03  0.9361E+03  0.9357E+03
      2.808  0.1472E+03  0.1412E+03  0.9438E+03  0.9430E+03
      2.860  0.1391E+03  0.1402E+03  0.9510E+03  0.9503E+03
      2.912  0.1401E+03  0.1460E+03  0.9583E+03  0.9579E+03
      2.963  0.1068E+03  0.1042E+03  0.9638E+03  0.9633E+03
      3.015  0.1255E+03  0.1241E+03  0.9703E+03  0.9697E+03
      3.067  0.1387E+03  0.1401E+03  0.9775E+03  0.9770E+03
      3.119  0.1166E+03  0.1160E+03  0.9836E+03  0.9830E+03
      3.171  0.1011E+03  0.1015E+03  0.9888E+03  0.9883E+03
      3.223  0.1198E+03  0.1199E+03  0.9950E+03  0.9945E+03
      3.275  0.1072E+03  0.1029E+03  0.1001E+04  0.9998E+03
      3.327  0.9524E+02  0.1019E+03  0.1006E+04  0.1005E+04
      3.379  0.8233E+02  0.8299E+02  0.1010E+04  0.1009E+04
      3.431  0.7541E+02  0.7785E+02  0.1014E+04  0.1013E+04
      3.482  0.8413E+02  0.8114E+02  0.1018E+04  0.1018E+04
      3.534  0.8461E+02  0.8363E+02  0.1022E+04  0.1022E+04
      3.586  0.9031E+02  0.8984E+02  0.1027E+04  0.1027E+04
      3.638  0.8574E+02  0.8827E+02  0.1032E+04  0.1031E+04
      3.690  0.4028E+02  0.4054E+02  0.1034E+04  0.1033E+04
      3.742  0.7408E+02  0.6967E+02  0.1038E+04  0.1037E+04
      3.794  0.4058E+02  0.4561E+02  0.1040E+04  0.1039E+04
      3.846  0.5696E+02  0.5733E+02  0.1043E+04  0.1042E+04
      3.898  0.3906E+02  0.3752E+02  0.1045E+04  0.1044E+04
      3.950  0.4906E+02  0.4510E+02  0.1047E+04  0.1047E+04
      4.001  0.7713E+02  0.7949E+02  0.1051E+04  0.1051E+04
      4.053  0.1116E+03  0.9727E+02  0.1057E+04  0.1056E+04
      4.105  0.8313E+02  0.8478E+02  0.1061E+04  0.1060E+04
      4.157  0.1061E+03  0.1129E+03  0.1067E+04  0.1066E+04
      4.209  0.8483E+02  0.8499E+02  0.1071E+04  0.1070E+04
      4.261  0.1032E+03  0.1038E+03  0.1077E+04  0.1076E+04
      4.313  0.8783E+02  0.8622E+02  0.1081E+04  0.1080E+04
      4.365  0.1123E+03  0.1048E+03  0.1087E+04  0.1086E+04
      4.417  0.1279E+03  0.1331E+03  0.1094E+04  0.1093E+04
      4.469  0.9822E+02  0.1021E+03  0.1099E+04  0.1098E+04
      4.520  0.1157E+03  0.1133E+03  0.1105E+04  0.1104E+04
      4.572  0.9673E+02  0.9567E+02  0.1110E+04  0.1109E+04
      4.624  0.1024E+03  0.1070E+03  0.1115E+04  0.1114E+04
      4.676  0.1358E+03  0.1348E+03  0.1122E+04  0.1121E+04
      4.728  0.1141E+03  0.1161E+03  0.1128E+04  0.1127E+04
      4.780  0.1147E+03  0.1124E+03  0.1134E+04  0.1133E+04
      4.832  0.1428E+03  0.1479E+03  0.1141E+04  0.1141E+04
      4.884  0.1184E+03  0.1136E+03  0.1148E+04  0.1147E+04
      4.936  0.9279E+02  0.9303E+02  0.1152E+04  0.1152E+04
      4.988  0.1318E+03  0.1251E+03  0.1159E+04  0.1158E+04
      5.040  0.1031E+03  0.1116E+03  0.1165E+04  0.1164E+04
      5.091  0.1299E+03  0.1309E+03  0.1171E+04  0.1171E+04
      5.143  0.1108E+03  0.1129E+03  0.1177E+04  0.1177E+04
      5.195  0.9898E+02  0.9838E+02  0.1182E+04  0.1182E+04
      5.247  0.9809E+02  0.9937E+02  0.1187E+04  0.1187E+04
      5.299  0.9097E+02  0.8924E+02  0.1192E+04  0.1191E+04
      5.351  0.1227E+03  0.1240E+03  0.1198E+04  0.1198E+04
      5.403  0.1345E+03  0.1302E+03  0.1205E+04  0.1205E+04
      5.455  0.1448E+03  0.1477E+03  0.1213E+04  0.1212E+04
      5.507  0.1352E+03  0.1373E+03  0.1220E+04  0.1219E+04
      5.559  0.1509E+03  0.1476E+03  0.1228E+04  0.1227E+04
      5.610  0.1227E+03  0.1240E+03  0.1234E+04  0.1234E+04
      5.662  0.1315E+03  0.1309E+03  0.1241E+04  0.1240E+04
      5.714  0.1334E+03  0.1345E+03  0.1248E+04  0.1247E+04
      5.766  0.1292E+03  0.1294E+03  0.1255E+04  0.1254E+04
      5.818  0.1335E+03  0.1344E+03  0.1261E+04  0.1261E+04
      5.870  0.1272E+03  0.1359E+03  0.1268E+04  0.1268E+04
      5.922  0.7055E+02  0.6976E+02  0.1272E+04  0.1272E+04
      5.974  0.5557E+01  0.5824E+01  0.1272E+04  0.1272E+04
      6.026  0.0000E+00  0.0000E+00  0.1272E+04  0.1272E+04
      6.078  0.0000E+00  0.0000E+00  0.1272E+04  0.1272E+04
      6.129  0.0000E+00  0.0000E+00  0.1272E+04  0.1272E+04
      6.181  0.0000E+00  0.0000E+00  0.1272E+04  0.1272E+04
      6.233  0.0000E+00  0.0000E+00  0.1272E+04  0.1272E+04
      6.285  0.0000E+00  0.0000E+00  0.1272E+04  0.1272E+04
      6.337  0.0000E+00  0.0000E+00  0.1272E+04  0.1272E+04
      6.389  0.0000E+00  0.0000E+00  0.1272E+04  0.1272E+04
      6.441  0.0000E+00  0.0000E+00  0.1272E+04  0.1272E+04
      6.493  0.0000E+00  0.0000E+00  0.1272E+04  0.1272E+04
      6.545  0.0000E+00  0.0000E+00  0.1272E+04  0.1272E+04
      6.597  0.0000E+00  0.0000E+00  0.1272E+04  0.1272E+04
      6.649  0.0000E+00  0.0000E+00  0.1272E+04  0.1272E+04
