Si and Ge interface calculation         
           1
    19.467600    0.000000    0.000000
     0.000000   19.467600    0.000000
     0.000000    0.000000   19.300253
   Sn   Si
   108   156
Direct configuration=     1
   0.04803419  0.91213548  0.88601178
   0.82836843  0.66666669  0.16811179
   0.66170174  0.66666669  0.33622354
   0.99503511  0.33333334  0.00000000
   0.82836843  0.33333334  0.16811179
   0.91341883  0.58521235  0.53426754
   0.08649552  0.71982777  0.88601178
   0.82836843  0.00000000  0.16811179
   0.04803419  0.91213542  0.60461640
   0.32836846  0.66666669  0.00000000
   0.16170174  0.66666669  0.16811179
   0.99503511  0.66666669  0.33622354
   0.97111100  0.29675081  0.88601178
   0.27880311  0.75828928  0.88601178
   0.99503511  0.33333334  0.33622354
   0.32836846  0.00000000  0.00000000
   0.54803401  0.41213542  0.88601178
   0.99503511  0.00000000  0.33622354
   0.66170180  0.66666669  0.00000000
   0.49503511  0.66666669  0.16811179
   0.32836846  0.66666669  0.33622354
   0.24034166  0.95059699  0.88601178
   0.12495697  0.52752006  0.88601178
   0.32836846  0.33333334  0.33622354
   0.66170180  0.00000000  0.00000000
   0.49503511  0.00000000  0.16811179
   0.32836846  0.00000000  0.33622354
   0.07836843  0.91666675  0.08405589
   0.91170180  0.91666675  0.25216761
   0.79803419  0.16213530  0.53426754
   0.35572636  0.87367392  0.74531406
   0.02880335  0.00828922  0.53426754
   0.74503505  0.58333343  0.42027944
   0.85572624  0.87367392  0.88601178
   0.29803419  0.66213542  0.53426754
   0.83649576  0.96982771  0.53426754
   0.41170177  0.91666675  0.08405589
   0.24503510  0.91666675  0.25216761
   0.07836838  0.91666675  0.42027944
   0.89418793  0.68136621  0.88601178
   0.87495732  0.77751988  0.53426754
   0.72111112  0.54675072  0.53426754
   0.41170177  0.25000000  0.08405589
   0.24503510  0.25000000  0.25216761
   0.07836838  0.25000000  0.42027944
   0.74503517  0.91666675  0.08405589
   0.57836855  0.91666675  0.25216761
   0.41170180  0.91666675  0.42027944
   0.66341859  0.83521235  0.88601178
   0.57836855  0.58333343  0.25216761
   0.99034184  0.20059687  0.53426754
   0.74503517  0.25000000  0.08405589
   0.57836855  0.25000000  0.25216761
   0.41170180  0.25000000  0.42027944
   0.43264934  0.98905855  0.88601178
   0.99503505  0.83333331  0.16811179
   0.10572648  0.12367391  0.67496520
   0.16170177  0.50000000  0.00000000
   0.35572624  0.37367386  0.88601178
   0.60572648  0.12367377  0.53426754
   0.93264949  0.48905852  0.88601178
   0.47111088  0.79675090  0.88601178
   0.82836843  0.16666667  0.33622354
   0.49503511  0.83333331  0.00000000
   0.32836843  0.83333331  0.16811179
   0.64418805  0.93136609  0.53426754
   0.49503511  0.50000000  0.00000000
   0.74034178  0.45059699  0.88601178
   0.16170175  0.50000000  0.33622354
   0.49503511  0.16666667  0.00000000
   0.00957251  0.10444319  0.88601178
   0.16170175  0.16666667  0.33622354
   0.82836855  0.83333331  0.00000000
   0.66170186  0.83333331  0.16811179
   0.41341877  0.08521221  0.53426754
   0.82836855  0.50000000  0.00000000
   0.66170186  0.50000000  0.16811179
   0.49503520  0.50000000  0.33622354
   0.82836855  0.16666667  0.00000000
   0.66170186  0.16666667  0.16811179
   0.49503520  0.16666667  0.33622354
   0.24503510  0.75000006  0.08405589
   0.49034184  0.70059687  0.53426754
   0.91170174  0.75000006  0.42027944
   0.24503510  0.41666672  0.08405589
   0.75957269  0.35444304  0.53426754
   0.68264961  0.73905850  0.53426754
   0.24503510  0.08333334  0.08405589
   0.07836843  0.08333334  0.25216761
   0.18264961  0.23905837  0.53426754
   0.57836848  0.75000006  0.08405589
   0.41170186  0.75000006  0.25216761
   0.24503513  0.75000006  0.42027944
   0.57836848  0.41666672  0.08405589
   0.41170186  0.41666672  0.25216761
   0.24503513  0.41666672  0.42027944
   0.57836848  0.08333334  0.08405589
   0.41170186  0.08333334  0.25216761
   0.24503513  0.08333334  0.42027944
   0.29803395  0.66213548  0.81566292
   0.10572648  0.62367380  0.53426754
   0.57836837  0.75000006  0.42027944
   0.91170174  0.41666672  0.08405589
   0.22111106  0.04675078  0.53426754
   0.57836837  0.41666672  0.42027944
   0.16341853  0.33521238  0.88601178
   0.74503505  0.08333334  0.25216761
   0.57836837  0.08333334  0.42027944
   0.91170174  0.08333334  0.42027944
   0.06726503  0.31598151  0.67496520
   0.95188028  0.39290467  0.81566292
   0.33649588  0.46982759  0.53426754
   0.22111106  0.54675066  0.67496520
   0.10572648  0.62367386  0.81566292
   0.74503505  0.91666675  0.42027944
   0.68264949  0.23905843  0.67496520
   0.56726479  0.31598157  0.81566292
   0.95188040  0.39290458  0.53426754
   0.83649564  0.46982771  0.67496520
   0.72111094  0.54675084  0.81566292
   0.74503505  0.75000006  0.25216761
   0.99034178  0.70059693  0.67496520
   0.87495708  0.77752006  0.81566292
   0.25957262  0.85444313  0.53426754
   0.14418793  0.93136627  0.67496520
   0.02880323  0.00828934  0.81566292
   0.49503520  0.83333331  0.33622354
   0.29803407  0.16213533  0.67496520
   0.18264937  0.23905846  0.81566292
   0.56726492  0.31598148  0.53426754
   0.45188025  0.39290461  0.67496520
   0.33649552  0.46982774  0.81566292
   0.07836838  0.58333343  0.42027944
   0.60572642  0.62367386  0.67496520
   0.49034169  0.70059699  0.81566292
   0.24503510  0.58333343  0.25216761
   0.75957262  0.85444301  0.67496520
   0.64418787  0.93136615  0.81566292
   0.91170180  0.58333343  0.25216761
   0.91341871  0.08521234  0.67496520
   0.79803401  0.16213548  0.81566292
   0.07836843  0.75000006  0.25216761
   0.37495708  0.77752000  0.67496520
   0.25957251  0.85444319  0.81566292
   0.16170175  0.83333331  0.33622354
   0.52880335  0.00828910  0.67496520
   0.41341853  0.08521234  0.81566292
   0.39418793  0.18136609  0.60461640
   0.27880335  0.25828922  0.74531406
   0.91170174  0.08333334  0.08405589
   0.00957262  0.10444307  0.60461640
   0.89418793  0.18136621  0.74531406
   0.77880323  0.25828934  0.88601178
   0.16341889  0.33521223  0.60461640
   0.04803419  0.41213539  0.74531406
   0.16170177  0.16666667  0.00000000
   0.31726503  0.56598145  0.60461640
   0.20188022  0.64290464  0.74531406
   0.99503511  0.00000000  0.00000000
   0.77880347  0.25828916  0.60461640
   0.66341877  0.33521229  0.74531406
   0.16170174  0.00000000  0.16811179
   0.93264955  0.48905846  0.60461640
   0.81726485  0.56598157  0.74531406
   0.70188010  0.64290476  0.88601178
   0.08649564  0.71982765  0.60461640
   0.97111100  0.79675078  0.74531406
   0.07836843  0.25000000  0.08405589
   0.24034190  0.95059693  0.60461640
   0.12495708  0.02752006  0.74531406
   0.32836843  0.16666667  0.16811179
   0.54803419  0.41213533  0.60461640
   0.43264946  0.48905843  0.74531406
   0.31726479  0.56598157  0.88601178
   0.70188034  0.64290464  0.60461640
   0.58649564  0.71982771  0.74531406
   0.99503505  0.16666667  0.16811179
   0.85572648  0.87367380  0.60461640
   0.74034178  0.95059693  0.74531406
   0.62495703  0.02752006  0.88601178
   0.47111109  0.79675072  0.60461640
   0.07836843  0.58333343  0.08405589
   0.66170180  0.33333334  0.00000000
   0.62495726  0.02751994  0.60461640
   0.50957251  0.10444307  0.74531406
   0.39418781  0.18136621  0.88601178
   0.37495732  0.27751997  0.53426754
   0.25957251  0.35444310  0.67496520
   0.14418793  0.43136627  0.81566292
   0.41170180  0.58333343  0.42027944
   0.87495714  0.27752000  0.67496520
   0.75957245  0.35444313  0.81566292
   0.14418817  0.43136618  0.53426754
   0.02880335  0.50828928  0.67496520
   0.91341865  0.58521247  0.81566292
   0.91170180  0.25000000  0.25216761
   0.18264949  0.73905855  0.67496520
   0.06726479  0.81598169  0.81566292
   0.82836843  0.50000000  0.33622354
   0.49034181  0.20059690  0.67496520
   0.37495708  0.27752003  0.81566292
   0.07836843  0.41666672  0.25216761
   0.64418799  0.43136618  0.67496520
   0.52880329  0.50828928  0.81566292
   0.66170174  0.33333334  0.33622354
   0.79803407  0.66213548  0.67496520
   0.68264937  0.73905861  0.81566292
   0.06726492  0.81598151  0.53426754
   0.95188022  0.89290464  0.67496520
   0.83649552  0.96982777  0.81566292
   0.74503505  0.41666672  0.25216761
   0.82836843  0.83333331  0.33622354
   0.99034172  0.20059705  0.81566292
   0.52880341  0.50828922  0.53426754
   0.41341877  0.58521235  0.67496520
   0.91170174  0.75000006  0.08405589
   0.91170174  0.41666672  0.42027944
   0.56726492  0.81598163  0.67496520
   0.45188019  0.89290476  0.81566292
   0.74503505  0.25000000  0.42027944
   0.72111106  0.04675078  0.67496520
   0.60572636  0.12367391  0.81566292
   0.45188031  0.89290458  0.53426754
   0.33649564  0.96982771  0.67496520
   0.22111082  0.04675078  0.81566292
   0.20188046  0.14290453  0.60461640
   0.08649564  0.21982768  0.74531406
   0.32836846  0.33333334  0.00000000
   0.35572648  0.37367377  0.60461640
   0.24034166  0.45059693  0.74531406
   0.49503511  0.33333334  0.16811179
   0.97111118  0.29675070  0.60461640
   0.85572648  0.37367383  0.74531406
   0.32836843  0.50000000  0.16811179
   0.12495732  0.52751994  0.60461640
   0.00957274  0.60444307  0.74531406
   0.41170177  0.58333343  0.08405589
   0.27880359  0.75828922  0.60461640
   0.16341889  0.83521235  0.74531406
   0.99503511  0.66666669  0.00000000
   0.58649576  0.21982756  0.60461640
   0.47111103  0.29675070  0.74531406
   0.99503505  0.50000000  0.16811179
   0.74034190  0.45059687  0.60461640
   0.62495720  0.52752000  0.74531406
   0.50957251  0.60444313  0.88601178
   0.89418805  0.68136609  0.60461640
   0.77880335  0.75828922  0.74531406
   0.74503517  0.58333343  0.08405589
   0.66170174  0.00000000  0.33622354
   0.93264955  0.98905855  0.74531406
   0.81726479  0.06598163  0.88601178
   0.50957262  0.60444301  0.60461640
   0.39418793  0.68136615  0.74531406
   0.16170174  0.33333334  0.16811179
   0.66341877  0.83521223  0.60461640
   0.54803407  0.91213536  0.74531406
   0.16170177  0.83333331  0.00000000
   0.81726503  0.06598151  0.60461640
   0.70188034  0.14290476  0.74531406
   0.58649558  0.21982789  0.88601178
   0.43264955  0.98905837  0.60461640
   0.31726479  0.06598151  0.74531406
   0.20188010  0.14290464  0.88601178
