  60  60   0   0
  0.2197471E+02  0.1330318E-08  0.1629300E-08  0.6663594E-09  0.5000000E-15
  1.000000000000000E-004
  CAR 
 Si and Ge interface calculation         
      8.78876629     -9.27446034  301      6.21076993      1.00000000
     -9.274  0.0000E+00  0.0000E+00  0.0000E+00  0.0000E+00
     -9.214  0.0000E+00  0.0000E+00  0.0000E+00  0.0000E+00
     -9.154  0.0000E+00  0.0000E+00  0.0000E+00  0.0000E+00
     -9.094  0.0000E+00  0.0000E+00  0.0000E+00  0.0000E+00
     -9.034  0.0000E+00  0.0000E+00  0.0000E+00  0.0000E+00
     -8.973  0.0000E+00  0.0000E+00  0.0000E+00  0.0000E+00
     -8.913  0.0000E+00  0.0000E+00  0.0000E+00  0.0000E+00
     -8.853  0.0000E+00  0.0000E+00  0.0000E+00  0.0000E+00
     -8.793  0.0000E+00  0.0000E+00  0.0000E+00  0.0000E+00
     -8.733  0.0000E+00  0.0000E+00  0.0000E+00  0.0000E+00
     -8.672  0.0000E+00  0.0000E+00  0.0000E+00  0.0000E+00
     -8.612  0.0000E+00  0.0000E+00  0.0000E+00  0.0000E+00
     -8.552  0.0000E+00  0.0000E+00  0.0000E+00  0.0000E+00
     -8.492  0.6102E-07  0.2994E-10  0.3674E-08  0.1803E-11
     -8.432  0.3761E+01  0.2292E+01  0.2265E+00  0.1380E+00
     -8.371  0.2010E+02  0.1941E+02  0.1437E+01  0.1307E+01
     -8.311  0.2920E+02  0.2647E+02  0.3195E+01  0.2901E+01
     -8.251  0.1337E+02  0.1825E+02  0.4000E+01  0.4000E+01
     -8.191  0.0000E+00  0.0000E+00  0.4000E+01  0.4000E+01
     -8.130  0.0000E+00  0.0000E+00  0.4000E+01  0.4000E+01
     -8.070  0.0000E+00  0.0000E+00  0.4000E+01  0.4000E+01
     -8.010  0.0000E+00  0.0000E+00  0.4000E+01  0.4000E+01
     -7.950  0.0000E+00  0.0000E+00  0.4000E+01  0.4000E+01
     -7.890  0.0000E+00  0.0000E+00  0.4000E+01  0.4000E+01
     -7.829  0.0000E+00  0.0000E+00  0.4000E+01  0.4000E+01
     -7.769  0.0000E+00  0.0000E+00  0.4000E+01  0.4000E+01
     -7.709  0.3597E-02  0.2154E-04  0.4000E+01  0.4000E+01
     -7.649  0.4672E+02  0.3768E+02  0.6813E+01  0.6269E+01
     -7.589  0.1971E+02  0.2874E+02  0.8000E+01  0.7999E+01
     -7.528  0.0000E+00  0.1064E-01  0.8000E+01  0.8000E+01
     -7.468  0.0000E+00  0.0000E+00  0.8000E+01  0.8000E+01
     -7.408  0.0000E+00  0.0000E+00  0.8000E+01  0.8000E+01
     -7.348  0.0000E+00  0.0000E+00  0.8000E+01  0.8000E+01
     -7.288  0.0000E+00  0.0000E+00  0.8000E+01  0.8000E+01
     -7.227  0.0000E+00  0.0000E+00  0.8000E+01  0.8000E+01
     -7.167  0.0000E+00  0.0000E+00  0.8000E+01  0.8000E+01
     -7.107  0.0000E+00  0.0000E+00  0.8000E+01  0.8000E+01
     -7.047  0.0000E+00  0.0000E+00  0.8000E+01  0.8000E+01
     -6.986  0.0000E+00  0.0000E+00  0.8000E+01  0.8000E+01
     -6.926  0.0000E+00  0.0000E+00  0.8000E+01  0.8000E+01
     -6.866  0.0000E+00  0.0000E+00  0.8000E+01  0.8000E+01
     -6.806  0.0000E+00  0.0000E+00  0.8000E+01  0.8000E+01
     -6.746  0.0000E+00  0.0000E+00  0.8000E+01  0.8000E+01
     -6.685  0.0000E+00  0.0000E+00  0.8000E+01  0.8000E+01
     -6.625  0.0000E+00  0.0000E+00  0.8000E+01  0.8000E+01
     -6.565  0.6109E-05  0.2149E-09  0.8000E+01  0.8000E+01
     -6.505  0.2214E+01  0.2086E+01  0.8133E+01  0.8126E+01
     -6.445  0.6593E+01  0.4773E+01  0.8530E+01  0.8413E+01
     -6.384  0.8792E+01  0.5932E+01  0.9060E+01  0.8770E+01
     -6.324  0.6448E+01  0.9646E+01  0.9448E+01  0.9351E+01
     -6.264  0.2003E+01  0.2047E+01  0.9569E+01  0.9474E+01
     -6.204  0.1383E+02  0.1521E+02  0.1040E+02  0.1039E+02
     -6.144  0.1322E+02  0.1196E+02  0.1120E+02  0.1111E+02
     -6.083  0.5124E-01  0.1480E+01  0.1120E+02  0.1120E+02
     -6.023  0.8380E+01  0.6072E+01  0.1170E+02  0.1157E+02
     -5.963  0.1371E+01  0.2803E+01  0.1179E+02  0.1173E+02
     -5.903  0.3536E+01  0.4411E+01  0.1200E+02  0.1200E+02
     -5.842  0.5414E+00  0.3946E-01  0.1203E+02  0.1200E+02
     -5.782  0.9511E+01  0.7866E+01  0.1261E+02  0.1248E+02
     -5.722  0.3040E+02  0.2953E+02  0.1444E+02  0.1425E+02
     -5.662  0.1899E+02  0.1758E+02  0.1558E+02  0.1531E+02
     -5.602  0.6988E+01  0.1141E+02  0.1600E+02  0.1600E+02
     -5.541  0.5950E+01  0.3947E+01  0.1636E+02  0.1624E+02
     -5.481  0.1095E+02  0.1236E+02  0.1702E+02  0.1698E+02
     -5.421  0.8585E+01  0.8952E+01  0.1753E+02  0.1752E+02
     -5.361  0.1838E+02  0.1401E+02  0.1864E+02  0.1836E+02
     -5.301  0.2031E+02  0.2124E+02  0.1986E+02  0.1964E+02
     -5.240  0.1145E+01  0.4797E+01  0.1993E+02  0.1993E+02
     -5.180  0.1292E+02  0.1069E+02  0.2071E+02  0.2058E+02
     -5.120  0.1348E+02  0.1381E+02  0.2152E+02  0.2141E+02
     -5.060  0.1510E+02  0.1317E+02  0.2243E+02  0.2220E+02
     -4.999  0.2108E+01  0.5520E+01  0.2256E+02  0.2253E+02
     -4.939  0.1242E+02  0.1074E+02  0.2331E+02  0.2318E+02
     -4.879  0.1952E+02  0.2105E+02  0.2448E+02  0.2445E+02
     -4.819  0.7872E+01  0.4423E+01  0.2496E+02  0.2472E+02
     -4.759  0.1480E+02  0.1615E+02  0.2585E+02  0.2569E+02
     -4.698  0.5996E+01  0.7084E+01  0.2621E+02  0.2611E+02
     -4.638  0.1105E+02  0.9410E+01  0.2687E+02  0.2668E+02
     -4.578  0.1094E+02  0.1394E+02  0.2753E+02  0.2752E+02
     -4.518  0.1734E+02  0.1117E+02  0.2858E+02  0.2819E+02
     -4.458  0.1713E+02  0.2016E+02  0.2961E+02  0.2941E+02
     -4.397  0.1125E+02  0.1235E+02  0.3029E+02  0.3015E+02
     -4.337  0.4750E+01  0.6387E+01  0.3057E+02  0.3053E+02
     -4.277  0.1873E+02  0.1492E+02  0.3170E+02  0.3143E+02
     -4.217  0.1597E+02  0.1840E+02  0.3266E+02  0.3254E+02
     -4.157  0.2291E+01  0.4302E+01  0.3280E+02  0.3280E+02
     -4.096  0.2539E+01  0.2082E+01  0.3295E+02  0.3293E+02
     -4.036  0.6375E+01  0.6764E+01  0.3334E+02  0.3333E+02
     -3.976  0.1598E+02  0.1351E+02  0.3430E+02  0.3415E+02
     -3.916  0.1836E+02  0.1924E+02  0.3540E+02  0.3530E+02
     -3.855  0.1312E+02  0.1048E+02  0.3619E+02  0.3594E+02
     -3.795  0.1047E+02  0.1299E+02  0.3682E+02  0.3672E+02
     -3.735  0.4015E+01  0.5638E+01  0.3707E+02  0.3706E+02
     -3.675  0.9376E+01  0.5794E+01  0.3763E+02  0.3741E+02
     -3.615  0.9862E+01  0.1037E+02  0.3823E+02  0.3803E+02
     -3.554  0.1388E+02  0.1519E+02  0.3906E+02  0.3895E+02
     -3.494  0.6663E+01  0.7311E+01  0.3946E+02  0.3939E+02
     -3.434  0.4744E+01  0.3922E+01  0.3975E+02  0.3962E+02
     -3.374  0.1553E+02  0.1513E+02  0.4068E+02  0.4053E+02
     -3.314  0.8561E+01  0.1006E+02  0.4120E+02  0.4114E+02
     -3.253  0.6191E+01  0.5436E+01  0.4157E+02  0.4147E+02
     -3.193  0.1535E+02  0.1427E+02  0.4250E+02  0.4233E+02
     -3.133  0.5446E+01  0.6387E+01  0.4282E+02  0.4271E+02
     -3.073  0.1017E+02  0.8772E+01  0.4344E+02  0.4324E+02
     -3.013  0.1731E+02  0.1901E+02  0.4448E+02  0.4438E+02
     -2.952  0.7541E+01  0.7975E+01  0.4493E+02  0.4486E+02
     -2.892  0.1808E+02  0.1371E+02  0.4602E+02  0.4569E+02
     -2.832  0.2741E+02  0.2789E+02  0.4767E+02  0.4737E+02
     -2.772  0.9215E+01  0.9749E+01  0.4823E+02  0.4796E+02
     -2.711  0.1470E+02  0.1714E+02  0.4911E+02  0.4899E+02
     -2.651  0.2210E+02  0.2113E+02  0.5044E+02  0.5026E+02
     -2.591  0.1943E+02  0.1857E+02  0.5161E+02  0.5138E+02
     -2.531  0.1200E+02  0.1291E+02  0.5233E+02  0.5216E+02
     -2.471  0.2930E+02  0.2313E+02  0.5410E+02  0.5355E+02
     -2.410  0.2070E+02  0.2083E+02  0.5534E+02  0.5480E+02
     -2.350  0.2191E+02  0.2561E+02  0.5666E+02  0.5634E+02
     -2.290  0.1396E+02  0.1519E+02  0.5750E+02  0.5726E+02
     -2.230  0.7486E+01  0.8394E+01  0.5795E+02  0.5776E+02
     -2.170  0.1100E+02  0.1104E+02  0.5862E+02  0.5843E+02
     -2.109  0.9222E+01  0.1035E+02  0.5917E+02  0.5905E+02
     -2.049  0.1385E+02  0.1241E+02  0.6001E+02  0.5980E+02
     -1.989  0.9440E+01  0.1113E+02  0.6057E+02  0.6047E+02
     -1.929  0.1887E+02  0.1645E+02  0.6171E+02  0.6146E+02
     -1.869  0.2289E+02  0.2140E+02  0.6309E+02  0.6275E+02
     -1.808  0.1017E+02  0.1448E+02  0.6370E+02  0.6362E+02
     -1.748  0.1264E+02  0.1230E+02  0.6446E+02  0.6436E+02
     -1.688  0.2720E+02  0.2409E+02  0.6610E+02  0.6581E+02
     -1.628  0.1622E+02  0.1642E+02  0.6708E+02  0.6680E+02
     -1.567  0.1391E+02  0.1703E+02  0.6792E+02  0.6783E+02
     -1.507  0.7998E+01  0.7463E+01  0.6840E+02  0.6828E+02
     -1.447  0.1344E+02  0.1142E+02  0.6921E+02  0.6896E+02
     -1.387  0.1446E+02  0.1591E+02  0.7008E+02  0.6992E+02
     -1.327  0.1326E+02  0.1070E+02  0.7088E+02  0.7057E+02
     -1.266  0.2374E+02  0.2374E+02  0.7231E+02  0.7200E+02
     -1.206  0.1141E+02  0.1264E+02  0.7299E+02  0.7276E+02
     -1.146  0.1507E+02  0.1531E+02  0.7390E+02  0.7368E+02
     -1.086  0.2443E+02  0.2343E+02  0.7537E+02  0.7509E+02
     -1.026  0.1355E+02  0.1460E+02  0.7619E+02  0.7597E+02
     -0.965  0.1354E+02  0.1684E+02  0.7700E+02  0.7698E+02
     -0.905  0.1423E+02  0.1253E+02  0.7786E+02  0.7774E+02
     -0.845  0.1901E+02  0.1714E+02  0.7900E+02  0.7877E+02
     -0.785  0.1675E+02  0.1585E+02  0.8001E+02  0.7972E+02
     -0.725  0.2257E+02  0.2517E+02  0.8137E+02  0.8124E+02
     -0.664  0.6153E+01  0.6997E+01  0.8174E+02  0.8166E+02
     -0.604  0.1568E+02  0.1341E+02  0.8269E+02  0.8247E+02
     -0.544  0.1832E+02  0.1870E+02  0.8379E+02  0.8360E+02
     -0.484  0.1014E+02  0.9006E+01  0.8440E+02  0.8414E+02
     -0.423  0.1472E+02  0.1320E+02  0.8529E+02  0.8493E+02
     -0.363  0.2132E+02  0.2360E+02  0.8657E+02  0.8635E+02
     -0.303  0.2036E+02  0.1753E+02  0.8780E+02  0.8741E+02
     -0.243  0.2201E+02  0.2369E+02  0.8912E+02  0.8883E+02
     -0.183  0.2593E+02  0.2409E+02  0.9068E+02  0.9029E+02
     -0.122  0.1678E+02  0.1769E+02  0.9169E+02  0.9135E+02
     -0.062  0.2355E+02  0.2616E+02  0.9311E+02  0.9293E+02
     -0.002  0.1460E+02  0.1496E+02  0.9399E+02  0.9383E+02
      0.058  0.2241E+02  0.1864E+02  0.9534E+02  0.9495E+02
      0.118  0.2220E+02  0.2123E+02  0.9668E+02  0.9623E+02
      0.179  0.1997E+02  0.2182E+02  0.9788E+02  0.9754E+02
      0.239  0.2812E+02  0.2751E+02  0.9957E+02  0.9920E+02
      0.299  0.2270E+02  0.2549E+02  0.1009E+03  0.1007E+03
      0.359  0.1781E+02  0.1761E+02  0.1020E+03  0.1018E+03
      0.419  0.2315E+02  0.2073E+02  0.1034E+03  0.1030E+03
      0.480  0.1995E+02  0.2119E+02  0.1046E+03  0.1043E+03
      0.540  0.2552E+02  0.2360E+02  0.1061E+03  0.1057E+03
      0.600  0.1411E+02  0.1554E+02  0.1070E+03  0.1067E+03
      0.660  0.2371E+02  0.2152E+02  0.1084E+03  0.1080E+03
      0.721  0.2311E+02  0.2649E+02  0.1098E+03  0.1096E+03
      0.781  0.1695E+02  0.1696E+02  0.1108E+03  0.1106E+03
      0.841  0.2026E+02  0.1290E+02  0.1121E+03  0.1114E+03
      0.901  0.2607E+02  0.3414E+02  0.1136E+03  0.1134E+03
      0.961  0.1764E+02  0.1731E+02  0.1147E+03  0.1145E+03
      1.022  0.2097E+02  0.2163E+02  0.1159E+03  0.1158E+03
      1.082  0.1451E+02  0.1431E+02  0.1168E+03  0.1166E+03
      1.142  0.2042E+02  0.1906E+02  0.1181E+03  0.1178E+03
      1.202  0.1979E+02  0.1805E+02  0.1192E+03  0.1189E+03
      1.262  0.2583E+02  0.2491E+02  0.1208E+03  0.1204E+03
      1.323  0.1981E+02  0.2209E+02  0.1220E+03  0.1217E+03
      1.383  0.1784E+02  0.1975E+02  0.1231E+03  0.1229E+03
      1.443  0.3464E+02  0.2862E+02  0.1252E+03  0.1246E+03
      1.503  0.1196E+02  0.1917E+02  0.1259E+03  0.1258E+03
      1.563  0.1406E+02  0.1193E+02  0.1267E+03  0.1265E+03
      1.624  0.2130E+02  0.1682E+02  0.1280E+03  0.1275E+03
      1.684  0.3871E+02  0.3779E+02  0.1303E+03  0.1298E+03
      1.744  0.2294E+02  0.2381E+02  0.1317E+03  0.1312E+03
      1.804  0.2663E+02  0.3033E+02  0.1333E+03  0.1330E+03
      1.865  0.2048E+02  0.1944E+02  0.1346E+03  0.1342E+03
      1.925  0.2278E+02  0.2243E+02  0.1359E+03  0.1355E+03
      1.985  0.2802E+02  0.2701E+02  0.1376E+03  0.1372E+03
      2.045  0.3388E+02  0.3072E+02  0.1397E+03  0.1390E+03
      2.105  0.1811E+02  0.2300E+02  0.1407E+03  0.1404E+03
      2.166  0.2506E+02  0.2434E+02  0.1422E+03  0.1419E+03
      2.226  0.2654E+02  0.2409E+02  0.1438E+03  0.1433E+03
      2.286  0.3331E+02  0.3402E+02  0.1459E+03  0.1454E+03
      2.346  0.1024E+02  0.1750E+02  0.1465E+03  0.1464E+03
      2.406  0.1885E+02  0.9799E+01  0.1476E+03  0.1470E+03
      2.467  0.2828E+02  0.3409E+02  0.1493E+03  0.1491E+03
      2.527  0.2556E+02  0.2382E+02  0.1508E+03  0.1505E+03
      2.587  0.1987E+02  0.1634E+02  0.1520E+03  0.1515E+03
      2.647  0.2924E+02  0.3074E+02  0.1538E+03  0.1533E+03
      2.707  0.2337E+02  0.2337E+02  0.1552E+03  0.1547E+03
      2.768  0.2196E+02  0.2562E+02  0.1565E+03  0.1563E+03
      2.828  0.2298E+02  0.1985E+02  0.1579E+03  0.1575E+03
      2.888  0.2638E+02  0.3143E+02  0.1595E+03  0.1594E+03
      2.948  0.2036E+02  0.1740E+02  0.1607E+03  0.1604E+03
      3.009  0.2909E+02  0.2637E+02  0.1625E+03  0.1620E+03
      3.069  0.2435E+02  0.2642E+02  0.1640E+03  0.1636E+03
      3.129  0.2131E+02  0.2327E+02  0.1652E+03  0.1650E+03
      3.189  0.1935E+02  0.1785E+02  0.1664E+03  0.1661E+03
      3.249  0.2664E+02  0.2670E+02  0.1680E+03  0.1677E+03
      3.310  0.2415E+02  0.2066E+02  0.1695E+03  0.1689E+03
      3.370  0.1757E+02  0.2056E+02  0.1705E+03  0.1702E+03
      3.430  0.1745E+02  0.1599E+02  0.1716E+03  0.1711E+03
      3.490  0.1912E+02  0.2263E+02  0.1727E+03  0.1725E+03
      3.550  0.1964E+02  0.1935E+02  0.1739E+03  0.1737E+03
      3.611  0.2476E+02  0.2252E+02  0.1754E+03  0.1750E+03
      3.671  0.1733E+02  0.1987E+02  0.1764E+03  0.1762E+03
      3.731  0.3308E+02  0.2697E+02  0.1784E+03  0.1778E+03
      3.791  0.1758E+02  0.2627E+02  0.1795E+03  0.1794E+03
      3.851  0.2343E+02  0.1716E+02  0.1809E+03  0.1805E+03
      3.912  0.3289E+02  0.3251E+02  0.1829E+03  0.1824E+03
      3.972  0.3025E+02  0.2823E+02  0.1847E+03  0.1841E+03
      4.032  0.2457E+02  0.3145E+02  0.1862E+03  0.1860E+03
      4.092  0.1997E+02  0.1622E+02  0.1874E+03  0.1870E+03
      4.153  0.2348E+02  0.2884E+02  0.1888E+03  0.1887E+03
      4.213  0.2025E+02  0.1262E+02  0.1900E+03  0.1895E+03
      4.273  0.2049E+02  0.2554E+02  0.1912E+03  0.1910E+03
      4.333  0.1578E+02  0.1334E+02  0.1922E+03  0.1918E+03
      4.393  0.2283E+02  0.2183E+02  0.1936E+03  0.1931E+03
      4.454  0.1931E+02  0.2151E+02  0.1947E+03  0.1944E+03
      4.514  0.2762E+02  0.2055E+02  0.1964E+03  0.1957E+03
      4.574  0.1602E+02  0.2360E+02  0.1974E+03  0.1971E+03
      4.634  0.2682E+02  0.2280E+02  0.1990E+03  0.1985E+03
      4.694  0.1534E+02  0.2264E+02  0.1999E+03  0.1998E+03
      4.755  0.2422E+02  0.2194E+02  0.2014E+03  0.2011E+03
      4.815  0.2205E+02  0.1651E+02  0.2027E+03  0.2021E+03
      4.875  0.2631E+02  0.3146E+02  0.2043E+03  0.2040E+03
      4.935  0.1873E+02  0.1674E+02  0.2054E+03  0.2050E+03
      4.995  0.2588E+02  0.2181E+02  0.2070E+03  0.2064E+03
      5.056  0.1934E+02  0.2235E+02  0.2081E+03  0.2077E+03
      5.116  0.3591E+02  0.3196E+02  0.2103E+03  0.2096E+03
      5.176  0.2296E+02  0.2472E+02  0.2117E+03  0.2111E+03
      5.236  0.2328E+02  0.2235E+02  0.2131E+03  0.2125E+03
      5.297  0.3770E+02  0.3662E+02  0.2153E+03  0.2147E+03
      5.357  0.1590E+02  0.2238E+02  0.2163E+03  0.2160E+03
      5.417  0.3320E+02  0.2780E+02  0.2183E+03  0.2177E+03
      5.477  0.2271E+02  0.2291E+02  0.2197E+03  0.2191E+03
      5.537  0.2655E+02  0.2541E+02  0.2213E+03  0.2206E+03
      5.598  0.2184E+02  0.2528E+02  0.2226E+03  0.2221E+03
      5.658  0.2638E+02  0.2282E+02  0.2242E+03  0.2235E+03
      5.718  0.3141E+02  0.2810E+02  0.2261E+03  0.2252E+03
      5.778  0.2831E+02  0.3422E+02  0.2278E+03  0.2272E+03
      5.838  0.2938E+02  0.2646E+02  0.2295E+03  0.2288E+03
      5.899  0.1588E+02  0.2141E+02  0.2305E+03  0.2301E+03
      5.959  0.3128E+02  0.2260E+02  0.2324E+03  0.2315E+03
      6.019  0.3158E+02  0.3308E+02  0.2343E+03  0.2335E+03
      6.079  0.2655E+02  0.2685E+02  0.2359E+03  0.2351E+03
      6.139  0.3372E+02  0.3034E+02  0.2379E+03  0.2369E+03
      6.200  0.2574E+02  0.3148E+02  0.2395E+03  0.2388E+03
      6.260  0.2050E+02  0.1759E+02  0.2407E+03  0.2399E+03
      6.320  0.3190E+02  0.2740E+02  0.2426E+03  0.2415E+03
      6.380  0.3775E+02  0.3751E+02  0.2449E+03  0.2438E+03
      6.441  0.2101E+02  0.2878E+02  0.2461E+03  0.2455E+03
      6.501  0.3675E+02  0.3358E+02  0.2484E+03  0.2475E+03
      6.561  0.3014E+02  0.2802E+02  0.2502E+03  0.2492E+03
      6.621  0.3184E+02  0.4136E+02  0.2521E+03  0.2517E+03
      6.681  0.3656E+02  0.2692E+02  0.2543E+03  0.2533E+03
      6.742  0.2159E+02  0.3063E+02  0.2556E+03  0.2552E+03
      6.802  0.3096E+02  0.2387E+02  0.2575E+03  0.2566E+03
      6.862  0.2992E+02  0.3350E+02  0.2593E+03  0.2586E+03
      6.922  0.2454E+02  0.2477E+02  0.2607E+03  0.2601E+03
      6.982  0.3197E+02  0.2751E+02  0.2627E+03  0.2618E+03
      7.043  0.2799E+02  0.3657E+02  0.2643E+03  0.2640E+03
      7.103  0.3118E+02  0.3019E+02  0.2662E+03  0.2658E+03
      7.163  0.3550E+02  0.2560E+02  0.2684E+03  0.2673E+03
      7.223  0.3438E+02  0.3320E+02  0.2704E+03  0.2693E+03
      7.283  0.3234E+02  0.3720E+02  0.2724E+03  0.2716E+03
      7.344  0.3165E+02  0.3351E+02  0.2743E+03  0.2736E+03
      7.404  0.2925E+02  0.2722E+02  0.2760E+03  0.2752E+03
      7.464  0.2623E+02  0.3035E+02  0.2776E+03  0.2771E+03
      7.524  0.2144E+02  0.2557E+02  0.2789E+03  0.2786E+03
      7.585  0.4060E+02  0.3308E+02  0.2814E+03  0.2806E+03
      7.645  0.3068E+02  0.3111E+02  0.2832E+03  0.2825E+03
      7.705  0.2995E+02  0.3271E+02  0.2850E+03  0.2844E+03
      7.765  0.2516E+02  0.2510E+02  0.2865E+03  0.2860E+03
      7.825  0.9279E+01  0.1383E+02  0.2871E+03  0.2868E+03
      7.886  0.7907E+01  0.1194E+02  0.2876E+03  0.2875E+03
      7.946  0.5844E+01  0.5420E+01  0.2879E+03  0.2878E+03
      8.006  0.1407E+01  0.2722E+01  0.2880E+03  0.2880E+03
      8.066  0.0000E+00  0.0000E+00  0.2880E+03  0.2880E+03
      8.126  0.0000E+00  0.0000E+00  0.2880E+03  0.2880E+03
      8.187  0.0000E+00  0.0000E+00  0.2880E+03  0.2880E+03
      8.247  0.0000E+00  0.0000E+00  0.2880E+03  0.2880E+03
      8.307  0.0000E+00  0.0000E+00  0.2880E+03  0.2880E+03
      8.367  0.0000E+00  0.0000E+00  0.2880E+03  0.2880E+03
      8.428  0.0000E+00  0.0000E+00  0.2880E+03  0.2880E+03
      8.488  0.0000E+00  0.0000E+00  0.2880E+03  0.2880E+03
      8.548  0.0000E+00  0.0000E+00  0.2880E+03  0.2880E+03
      8.608  0.0000E+00  0.0000E+00  0.2880E+03  0.2880E+03
      8.668  0.0000E+00  0.0000E+00  0.2880E+03  0.2880E+03
      8.729  0.0000E+00  0.0000E+00  0.2880E+03  0.2880E+03
      8.789  0.0000E+00  0.0000E+00  0.2880E+03  0.2880E+03
