       N       E                     dE             d eps       ncg     rms          rms(c)
DAV:   1     0.169739551365E+04    0.16974E+04   -0.10700E+05  9216   0.173E+03
DAV:   2     0.420188753613E+03   -0.12772E+04   -0.12371E+04 10976   0.219E+02
DAV:   3     0.287169992781E+03   -0.13302E+03   -0.12761E+03 12360   0.634E+01
DAV:   4     0.279087963870E+03   -0.80820E+01   -0.77420E+01 12952   0.160E+01
DAV:   5     0.278605468006E+03   -0.48250E+00   -0.47205E+00 14192   0.366E+00    0.543E+02
DAV:   6     0.303019433051E+03    0.24414E+02   -0.76231E+01 10536   0.168E+01    0.262E+02
DAV:   7     0.294711926831E+03   -0.83075E+01   -0.68906E+01 12144   0.178E+01    0.716E+01
DAV:   8     0.305358557545E+03    0.10647E+02   -0.48705E+01 12528   0.171E+01    0.505E+01
DAV:   9     0.306165282249E+03    0.80672E+00   -0.13315E+01 11864   0.695E+00    0.114E+01
DAV:  10     0.306260188341E+03    0.94906E-01   -0.33284E+00 11192   0.345E+00    0.294E+01
DAV:  11     0.306236838189E+03   -0.23350E-01   -0.38569E-01 12968   0.125E+00    0.288E+01
DAV:  12     0.306219676897E+03   -0.17161E-01   -0.40402E-02 13504   0.399E-01    0.327E+01
DAV:  13     0.306254159885E+03    0.34483E-01   -0.14924E-01 11576   0.802E-01    0.849E+00
DAV:  14     0.306271518477E+03    0.17359E-01   -0.16860E-01 11656   0.899E-01    0.692E+00
DAV:  15     0.306272704732E+03    0.11863E-02   -0.32394E-02 11200   0.350E-01    0.651E+00
DAV:  16     0.306273497934E+03    0.79320E-03   -0.21283E-03 12824   0.983E-02    0.602E+00
DAV:  17     0.306282437355E+03    0.89394E-02   -0.82433E-03 12000   0.163E-01    0.534E+00
DAV:  18     0.306283970453E+03    0.15331E-02   -0.45067E-03 13160   0.130E-01    0.433E+00
DAV:  19     0.306285691672E+03    0.17212E-02   -0.31814E-03 11152   0.120E-01    0.365E+00
DAV:  20     0.306286805308E+03    0.11136E-02   -0.16365E-03 11008   0.851E-02    0.314E+00
DAV:  21     0.306287424412E+03    0.61910E-03   -0.14551E-03 12752   0.600E-02    0.253E+00
DAV:  22     0.306287677279E+03    0.25287E-03   -0.35363E-04 12816   0.335E-02    0.198E+00
DAV:  23     0.306288145735E+03    0.46846E-03   -0.61702E-04 11704   0.414E-02    0.124E+00
DAV:  24     0.306288251471E+03    0.10574E-03   -0.36976E-04 13440   0.325E-02    0.700E-01
DAV:  25     0.306288270491E+03    0.19020E-04   -0.48127E-05 13712   0.128E-02    0.526E-01
DAV:  26     0.306288292236E+03    0.21745E-04   -0.25630E-05 11752   0.936E-03    0.352E-01
DAV:  27     0.306288303298E+03    0.11062E-04   -0.47842E-05 12704   0.114E-02    0.106E-01
DAV:  28     0.306288302718E+03   -0.57979E-06   -0.81633E-06 12176   0.577E-03    0.128E-02
DAV:  29     0.306288302585E+03   -0.13274E-06   -0.12580E-06 11840   0.225E-03    0.101E-02
DAV:  30     0.306288302294E+03   -0.29077E-06   -0.47435E-07  9408   0.145E-03    0.167E-02
DAV:  31     0.306288302409E+03    0.11436E-06   -0.21981E-07  6776   0.101E-03    0.113E-02
DAV:  32     0.306288302611E+03    0.20190E-06   -0.30348E-07  7352   0.109E-03    0.532E-03
DAV:  33     0.306288302624E+03    0.12889E-07   -0.11114E-07  5376   0.758E-04
   1 F= 0.30628830E+03 E0= 0.30628881E+03  d E =-.100670E-02  mag=     1.0000
