Si and Ge interface calculation         
           1
    13.303180    0.000000    0.000000
     6.651589   14.873406    0.000000
     0.000000    0.000000    6.663594
   Si   Sn
    36    24
Direct configuration=     1
   0.98290563  0.65811950  0.00000001
   0.78290558  0.55811930  0.18224537
   0.58290541  0.45811909  0.36449075
   0.98290563  0.32478613  0.00000001
   0.78290558  0.22478597  0.18224537
   0.58290541  0.12478580  0.36449075
   0.98290563  0.99145281  0.00000001
   0.78290558  0.89145267  0.18224537
   0.58290541  0.79145253  0.36449075
   0.63290566  0.69145268  0.09112249
   0.43290559  0.59145248  0.27336785
   0.23290552  0.49145243  0.45561323
   0.63290566  0.35811943  0.09112249
   0.43290559  0.25811928  0.27336785
   0.23290552  0.15811914  0.45561323
   0.63290566  0.02478614  0.09112249
   0.43290559  0.92478597  0.27336785
   0.23290552  0.82478583  0.45561323
   0.48290563  0.65811950  0.00000000
   0.28290555  0.55811930  0.18224537
   0.08290544  0.45811909  0.36449075
   0.48290563  0.32478613  0.00000000
   0.28290555  0.22478595  0.18224537
   0.08290544  0.12478581  0.36449075
   0.48290563  0.99145281  0.00000000
   0.28290555  0.89145267  0.18224537
   0.08290544  0.79145253  0.36449075
   0.13290568  0.69145274  0.09112252
   0.93290555  0.59145248  0.27336785
   0.73290551  0.49145240  0.45561323
   0.13290568  0.35811949  0.09112252
   0.93290555  0.25811928  0.27336785
   0.73290551  0.15811913  0.45561323
   0.13290568  0.02478614  0.09112252
   0.93290555  0.92478597  0.27336785
   0.73290551  0.82478583  0.45561323
   0.98717922  0.02564151  0.45561320
   0.83717918  0.32564157  0.67336804
   0.68717915  0.62564164  0.89112288
   0.48717925  0.02564151  0.45561320
   0.33717915  0.32564157  0.67336804
   0.18717913  0.62564164  0.89112288
   0.28717920  0.67564148  0.56449044
   0.13717918  0.97564149  0.78224522
   0.98717910  0.27564156  0.00000000
   0.78717935  0.67564148  0.56449044
   0.63717931  0.97564149  0.78224522
   0.48717925  0.27564156  0.00000000
   0.98717928  0.52564150  0.45561332
   0.83717918  0.82564151  0.67336804
   0.68717909  0.12564170  0.89112288
   0.48717925  0.52564150  0.45561332
   0.33717924  0.82564151  0.67336804
   0.18717912  0.12564170  0.89112288
   0.28717923  0.17564151  0.56449044
   0.13717917  0.47564155  0.78224522
   0.98717916  0.77564162  0.00000000
   0.78717929  0.17564151  0.56449044
   0.63717925  0.47564155  0.78224522
   0.48717916  0.77564162  0.00000000
