  60  60   0   0
  0.2091484E+02  0.1297840E-08  0.1589523E-08  0.6663594E-09  0.5000000E-15
  1.000000000000000E-004
  CAR 
 Si and Ge interface calculation         
      9.26680484     -8.26247117  301      6.64547252      1.00000000
     -8.262  0.0000E+00  0.0000E+00  0.0000E+00  0.0000E+00
     -8.204  0.0000E+00  0.0000E+00  0.0000E+00  0.0000E+00
     -8.146  0.0000E+00  0.0000E+00  0.0000E+00  0.0000E+00
     -8.087  0.0000E+00  0.0000E+00  0.0000E+00  0.0000E+00
     -8.029  0.0000E+00  0.0000E+00  0.0000E+00  0.0000E+00
     -7.970  0.0000E+00  0.0000E+00  0.0000E+00  0.0000E+00
     -7.912  0.0000E+00  0.0000E+00  0.0000E+00  0.0000E+00
     -7.853  0.0000E+00  0.0000E+00  0.0000E+00  0.0000E+00
     -7.795  0.0000E+00  0.0000E+00  0.0000E+00  0.0000E+00
     -7.737  0.0000E+00  0.0000E+00  0.0000E+00  0.0000E+00
     -7.678  0.0000E+00  0.0000E+00  0.0000E+00  0.0000E+00
     -7.620  0.0000E+00  0.0000E+00  0.0000E+00  0.0000E+00
     -7.561  0.0000E+00  0.0000E+00  0.0000E+00  0.0000E+00
     -7.503  0.8285E-07  0.5281E-10  0.4841E-08  0.3086E-11
     -7.444  0.2047E+01  0.1487E+01  0.1196E+00  0.8687E-01
     -7.386  0.1530E+02  0.1214E+02  0.1014E+01  0.7964E+00
     -7.328  0.1849E+02  0.1712E+02  0.2094E+01  0.1797E+01
     -7.269  0.2598E+02  0.2745E+02  0.3612E+01  0.3401E+01
     -7.211  0.6639E+01  0.1025E+02  0.4000E+01  0.4000E+01
     -7.152  0.4717E+00  0.1471E-01  0.4028E+01  0.4001E+01
     -7.094  0.2416E+01  0.1560E+01  0.4169E+01  0.4092E+01
     -7.035  0.8800E+01  0.9113E+01  0.4683E+01  0.4624E+01
     -6.977  0.8894E+01  0.9835E+01  0.5203E+01  0.5199E+01
     -6.919  0.5449E+01  0.4479E+01  0.5521E+01  0.5461E+01
     -6.860  0.1724E+02  0.1453E+02  0.6529E+01  0.6310E+01
     -6.802  0.4644E+01  0.8388E+01  0.6800E+01  0.6800E+01
     -6.743  0.8903E+01  0.6565E+01  0.7320E+01  0.7184E+01
     -6.685  0.2154E+01  0.3180E+01  0.7446E+01  0.7369E+01
     -6.626  0.6479E+01  0.6269E+01  0.7825E+01  0.7736E+01
     -6.568  0.9788E+01  0.9170E+01  0.8397E+01  0.8272E+01
     -6.510  0.2806E+01  0.2278E+01  0.8560E+01  0.8405E+01
     -6.451  0.2959E+01  0.5588E+01  0.8733E+01  0.8731E+01
     -6.393  0.2023E+02  0.1324E+02  0.9915E+01  0.9505E+01
     -6.334  0.2372E+02  0.2731E+02  0.1130E+02  0.1110E+02
     -6.276  0.1194E+02  0.1511E+02  0.1200E+02  0.1198E+02
     -6.217  0.1747E+02  0.9104E+01  0.1302E+02  0.1252E+02
     -6.159  0.2401E+02  0.2510E+02  0.1442E+02  0.1398E+02
     -6.101  0.2228E+02  0.2550E+02  0.1573E+02  0.1547E+02
     -6.042  0.3686E+01  0.7050E+01  0.1594E+02  0.1588E+02
     -5.984  0.1005E+01  0.1994E+01  0.1600E+02  0.1600E+02
     -5.925  0.0000E+00  0.0000E+00  0.1600E+02  0.1600E+02
     -5.867  0.0000E+00  0.0000E+00  0.1600E+02  0.1600E+02
     -5.808  0.0000E+00  0.0000E+00  0.1600E+02  0.1600E+02
     -5.750  0.3312E+00  0.1885E-01  0.1602E+02  0.1600E+02
     -5.692  0.4358E+01  0.2963E+01  0.1627E+02  0.1617E+02
     -5.633  0.1250E+02  0.1058E+02  0.1700E+02  0.1679E+02
     -5.575  0.2094E+02  0.2040E+02  0.1823E+02  0.1798E+02
     -5.516  0.1244E+02  0.1624E+02  0.1895E+02  0.1893E+02
     -5.458  0.4905E+01  0.4231E+01  0.1924E+02  0.1918E+02
     -5.399  0.7274E+01  0.8110E+01  0.1967E+02  0.1966E+02
     -5.341  0.4125E+01  0.3128E+01  0.1991E+02  0.1984E+02
     -5.282  0.2220E+01  0.2092E+01  0.2004E+02  0.1996E+02
     -5.224  0.1889E+02  0.1452E+02  0.2114E+02  0.2081E+02
     -5.166  0.2555E+02  0.2635E+02  0.2263E+02  0.2235E+02
     -5.107  0.1148E+02  0.1573E+02  0.2330E+02  0.2327E+02
     -5.049  0.8328E+01  0.7071E+01  0.2379E+02  0.2368E+02
     -4.990  0.3568E+01  0.5464E+01  0.2400E+02  0.2400E+02
     -4.932  0.0000E+00  0.0000E+00  0.2400E+02  0.2400E+02
     -4.873  0.0000E+00  0.0000E+00  0.2400E+02  0.2400E+02
     -4.815  0.0000E+00  0.0000E+00  0.2400E+02  0.2400E+02
     -4.757  0.0000E+00  0.0000E+00  0.2400E+02  0.2400E+02
     -4.698  0.0000E+00  0.0000E+00  0.2400E+02  0.2400E+02
     -4.640  0.0000E+00  0.0000E+00  0.2400E+02  0.2400E+02
     -4.581  0.6791E+00  0.1698E-01  0.2404E+02  0.2400E+02
     -4.523  0.1514E+02  0.1098E+02  0.2492E+02  0.2464E+02
     -4.464  0.1994E+02  0.2245E+02  0.2609E+02  0.2595E+02
     -4.406  0.1987E+02  0.1902E+02  0.2725E+02  0.2707E+02
     -4.348  0.8122E+01  0.7548E+01  0.2773E+02  0.2751E+02
     -4.289  0.1177E+02  0.1180E+02  0.2841E+02  0.2820E+02
     -4.231  0.1651E+02  0.1910E+02  0.2938E+02  0.2931E+02
     -4.172  0.3795E+01  0.4906E+01  0.2960E+02  0.2960E+02
     -4.114  0.2229E+01  0.2140E+00  0.2973E+02  0.2961E+02
     -4.055  0.9045E+01  0.9288E+01  0.3026E+02  0.3016E+02
     -3.997  0.2018E+02  0.1802E+02  0.3144E+02  0.3121E+02
     -3.939  0.5062E+01  0.8990E+01  0.3173E+02  0.3173E+02
     -3.880  0.5694E+01  0.5624E+01  0.3207E+02  0.3206E+02
     -3.822  0.8850E+01  0.6867E+01  0.3258E+02  0.3246E+02
     -3.763  0.2966E+01  0.3627E+01  0.3276E+02  0.3268E+02
     -3.705  0.3751E+01  0.3104E+01  0.3298E+02  0.3286E+02
     -3.646  0.9509E+01  0.7849E+01  0.3353E+02  0.3332E+02
     -3.588  0.8166E+01  0.9934E+01  0.3401E+02  0.3390E+02
     -3.530  0.1050E+02  0.9999E+01  0.3462E+02  0.3448E+02
     -3.471  0.5378E+01  0.7151E+01  0.3494E+02  0.3490E+02
     -3.413  0.1144E+02  0.1009E+02  0.3561E+02  0.3549E+02
     -3.354  0.9200E+01  0.1025E+02  0.3614E+02  0.3609E+02
     -3.296  0.2119E+01  0.3072E+01  0.3627E+02  0.3627E+02
     -3.237  0.1337E+02  0.9869E+01  0.3705E+02  0.3684E+02
     -3.179  0.4042E+01  0.6200E+01  0.3728E+02  0.3720E+02
     -3.121  0.4267E+01  0.5398E+01  0.3753E+02  0.3752E+02
     -3.062  0.1207E+02  0.9174E+01  0.3824E+02  0.3806E+02
     -3.004  0.1348E+02  0.1320E+02  0.3903E+02  0.3883E+02
     -2.945  0.1311E+02  0.1302E+02  0.3979E+02  0.3959E+02
     -2.887  0.1684E+02  0.1694E+02  0.4078E+02  0.4058E+02
     -2.828  0.8656E+01  0.1176E+02  0.4128E+02  0.4127E+02
     -2.770  0.1222E+02  0.1043E+02  0.4200E+02  0.4187E+02
     -2.712  0.1579E+02  0.1420E+02  0.4292E+02  0.4270E+02
     -2.653  0.2335E+02  0.2164E+02  0.4428E+02  0.4397E+02
     -2.595  0.1136E+02  0.1255E+02  0.4495E+02  0.4470E+02
     -2.536  0.2168E+02  0.2033E+02  0.4621E+02  0.4589E+02
     -2.478  0.1714E+02  0.1714E+02  0.4722E+02  0.4689E+02
     -2.419  0.1377E+02  0.1612E+02  0.4802E+02  0.4783E+02
     -2.361  0.1539E+02  0.1546E+02  0.4892E+02  0.4874E+02
     -2.303  0.1056E+02  0.1256E+02  0.4954E+02  0.4947E+02
     -2.244  0.1477E+02  0.1206E+02  0.5040E+02  0.5018E+02
     -2.186  0.1390E+02  0.1345E+02  0.5121E+02  0.5096E+02
     -2.127  0.2189E+02  0.2255E+02  0.5249E+02  0.5228E+02
     -2.069  0.1441E+02  0.1756E+02  0.5333E+02  0.5331E+02
     -2.010  0.6105E+01  0.3931E+01  0.5369E+02  0.5354E+02
     -1.952  0.2710E+02  0.2321E+02  0.5527E+02  0.5489E+02
     -1.894  0.1133E+02  0.1555E+02  0.5594E+02  0.5580E+02
     -1.835  0.2406E+02  0.2249E+02  0.5734E+02  0.5711E+02
     -1.777  0.1717E+02  0.1611E+02  0.5834E+02  0.5806E+02
     -1.718  0.2361E+02  0.2541E+02  0.5972E+02  0.5954E+02
     -1.660  0.8084E+01  0.8722E+01  0.6020E+02  0.6005E+02
     -1.601  0.2006E+02  0.1568E+02  0.6137E+02  0.6097E+02
     -1.543  0.1875E+02  0.2024E+02  0.6246E+02  0.6215E+02
     -1.484  0.1697E+02  0.1739E+02  0.6346E+02  0.6316E+02
     -1.426  0.1386E+02  0.1670E+02  0.6427E+02  0.6414E+02
     -1.368  0.1522E+02  0.1135E+02  0.6515E+02  0.6480E+02
     -1.309  0.1506E+02  0.1642E+02  0.6604E+02  0.6576E+02
     -1.251  0.2121E+02  0.2027E+02  0.6727E+02  0.6695E+02
     -1.192  0.1056E+02  0.1239E+02  0.6789E+02  0.6767E+02
     -1.134  0.2147E+02  0.1809E+02  0.6915E+02  0.6873E+02
     -1.075  0.1695E+02  0.2059E+02  0.7014E+02  0.6993E+02
     -1.017  0.2056E+02  0.1927E+02  0.7134E+02  0.7106E+02
     -0.959  0.1949E+02  0.2296E+02  0.7248E+02  0.7240E+02
     -0.900  0.1430E+02  0.1305E+02  0.7331E+02  0.7316E+02
     -0.842  0.7988E+01  0.8371E+01  0.7378E+02  0.7365E+02
     -0.783  0.2357E+02  0.2205E+02  0.7516E+02  0.7494E+02
     -0.725  0.1670E+02  0.1144E+02  0.7613E+02  0.7561E+02
     -0.666  0.1655E+02  0.2322E+02  0.7710E+02  0.7697E+02
     -0.608  0.1725E+02  0.1540E+02  0.7811E+02  0.7787E+02
     -0.550  0.2419E+02  0.2694E+02  0.7952E+02  0.7944E+02
     -0.491  0.1979E+02  0.1307E+02  0.8068E+02  0.8020E+02
     -0.433  0.1763E+02  0.1467E+02  0.8171E+02  0.8106E+02
     -0.374  0.1956E+02  0.2454E+02  0.8285E+02  0.8249E+02
     -0.316  0.1845E+02  0.2089E+02  0.8393E+02  0.8372E+02
     -0.257  0.2010E+02  0.1666E+02  0.8510E+02  0.8469E+02
     -0.199  0.1529E+02  0.1892E+02  0.8600E+02  0.8579E+02
     -0.141  0.1759E+02  0.1384E+02  0.8703E+02  0.8660E+02
     -0.082  0.1554E+02  0.2166E+02  0.8793E+02  0.8787E+02
     -0.024  0.1505E+02  0.1311E+02  0.8881E+02  0.8863E+02
      0.035  0.2103E+02  0.1859E+02  0.9004E+02  0.8972E+02
      0.093  0.2236E+02  0.2611E+02  0.9135E+02  0.9125E+02
      0.152  0.1535E+02  0.1008E+02  0.9225E+02  0.9184E+02
      0.210  0.1262E+02  0.1648E+02  0.9298E+02  0.9280E+02
      0.268  0.1849E+02  0.1933E+02  0.9406E+02  0.9393E+02
      0.327  0.1852E+02  0.1605E+02  0.9515E+02  0.9487E+02
      0.385  0.1265E+02  0.1600E+02  0.9589E+02  0.9580E+02
      0.444  0.1565E+02  0.1297E+02  0.9680E+02  0.9656E+02
      0.502  0.2264E+02  0.1972E+02  0.9812E+02  0.9771E+02
      0.561  0.2099E+02  0.2651E+02  0.9935E+02  0.9926E+02
      0.619  0.2072E+02  0.1741E+02  0.1006E+03  0.1003E+03
      0.677  0.2294E+02  0.2229E+02  0.1019E+03  0.1016E+03
      0.736  0.1337E+02  0.1334E+02  0.1027E+03  0.1024E+03
      0.794  0.2502E+02  0.2656E+02  0.1041E+03  0.1039E+03
      0.853  0.1979E+02  0.1857E+02  0.1053E+03  0.1050E+03
      0.911  0.1482E+02  0.1715E+02  0.1062E+03  0.1060E+03
      0.970  0.2405E+02  0.1791E+02  0.1076E+03  0.1070E+03
      1.028  0.2320E+02  0.2602E+02  0.1089E+03  0.1086E+03
      1.086  0.2335E+02  0.2119E+02  0.1103E+03  0.1098E+03
      1.145  0.1679E+02  0.2218E+02  0.1113E+03  0.1111E+03
      1.203  0.1786E+02  0.1590E+02  0.1123E+03  0.1120E+03
      1.262  0.1714E+02  0.1608E+02  0.1133E+03  0.1130E+03
      1.320  0.2604E+02  0.2765E+02  0.1148E+03  0.1146E+03
      1.379  0.1831E+02  0.2039E+02  0.1159E+03  0.1158E+03
      1.437  0.2685E+02  0.1594E+02  0.1175E+03  0.1167E+03
      1.495  0.2155E+02  0.3286E+02  0.1187E+03  0.1186E+03
      1.554  0.2294E+02  0.1396E+02  0.1201E+03  0.1194E+03
      1.612  0.2033E+02  0.2882E+02  0.1213E+03  0.1211E+03
      1.671  0.1766E+02  0.1520E+02  0.1223E+03  0.1220E+03
      1.729  0.2713E+02  0.2697E+02  0.1239E+03  0.1236E+03
      1.788  0.1782E+02  0.1816E+02  0.1249E+03  0.1247E+03
      1.846  0.1620E+02  0.1778E+02  0.1259E+03  0.1257E+03
      1.905  0.2842E+02  0.2474E+02  0.1275E+03  0.1271E+03
      1.963  0.2238E+02  0.2436E+02  0.1288E+03  0.1286E+03
      2.021  0.1796E+02  0.1953E+02  0.1299E+03  0.1297E+03
      2.080  0.1764E+02  0.1225E+02  0.1309E+03  0.1304E+03
      2.138  0.2451E+02  0.2736E+02  0.1324E+03  0.1320E+03
      2.197  0.2052E+02  0.2152E+02  0.1336E+03  0.1333E+03
      2.255  0.2435E+02  0.2335E+02  0.1350E+03  0.1346E+03
      2.314  0.3105E+02  0.2964E+02  0.1368E+03  0.1364E+03
      2.372  0.1656E+02  0.1952E+02  0.1378E+03  0.1375E+03
      2.430  0.1915E+02  0.1582E+02  0.1389E+03  0.1384E+03
      2.489  0.1936E+02  0.2262E+02  0.1400E+03  0.1398E+03
      2.547  0.1064E+02  0.1227E+02  0.1406E+03  0.1405E+03
      2.606  0.1443E+02  0.1219E+02  0.1415E+03  0.1412E+03
      2.664  0.2444E+02  0.2278E+02  0.1429E+03  0.1425E+03
      2.723  0.2442E+02  0.2581E+02  0.1443E+03  0.1440E+03
      2.781  0.2687E+02  0.2791E+02  0.1459E+03  0.1457E+03
      2.839  0.1014E+02  0.8393E+01  0.1465E+03  0.1461E+03
      2.898  0.2967E+02  0.2976E+02  0.1482E+03  0.1479E+03
      2.956  0.1849E+02  0.2062E+02  0.1493E+03  0.1491E+03
      3.015  0.1437E+02  0.1191E+02  0.1501E+03  0.1498E+03
      3.073  0.3139E+02  0.2188E+02  0.1520E+03  0.1511E+03
      3.132  0.2205E+02  0.3540E+02  0.1533E+03  0.1531E+03
      3.190  0.1877E+02  0.1369E+02  0.1544E+03  0.1539E+03
      3.248  0.1216E+02  0.1724E+02  0.1551E+03  0.1549E+03
      3.307  0.2761E+02  0.2074E+02  0.1567E+03  0.1562E+03
      3.365  0.2100E+02  0.2243E+02  0.1579E+03  0.1575E+03
      3.424  0.2183E+02  0.2365E+02  0.1592E+03  0.1588E+03
      3.482  0.2038E+02  0.2117E+02  0.1604E+03  0.1601E+03
      3.541  0.2379E+02  0.1757E+02  0.1618E+03  0.1611E+03
      3.599  0.2247E+02  0.2367E+02  0.1631E+03  0.1625E+03
      3.657  0.1909E+02  0.2553E+02  0.1642E+03  0.1640E+03
      3.716  0.2867E+02  0.2533E+02  0.1659E+03  0.1655E+03
      3.774  0.2542E+02  0.2691E+02  0.1674E+03  0.1670E+03
      3.833  0.2248E+02  0.1973E+02  0.1687E+03  0.1682E+03
      3.891  0.2005E+02  0.2487E+02  0.1698E+03  0.1696E+03
      3.950  0.1880E+02  0.1567E+02  0.1709E+03  0.1706E+03
      4.008  0.1538E+02  0.1494E+02  0.1718E+03  0.1714E+03
      4.066  0.2833E+02  0.2478E+02  0.1735E+03  0.1729E+03
      4.125  0.2845E+02  0.3227E+02  0.1752E+03  0.1748E+03
      4.183  0.2180E+02  0.2150E+02  0.1764E+03  0.1760E+03
      4.242  0.2015E+02  0.2085E+02  0.1776E+03  0.1772E+03
      4.300  0.2381E+02  0.2117E+02  0.1790E+03  0.1785E+03
      4.359  0.3021E+02  0.3198E+02  0.1808E+03  0.1803E+03
      4.417  0.2071E+02  0.1819E+02  0.1820E+03  0.1814E+03
      4.475  0.2554E+02  0.3074E+02  0.1835E+03  0.1832E+03
      4.534  0.2094E+02  0.2022E+02  0.1847E+03  0.1844E+03
      4.592  0.2469E+02  0.2066E+02  0.1861E+03  0.1856E+03
      4.651  0.2773E+02  0.3033E+02  0.1878E+03  0.1874E+03
      4.709  0.2142E+02  0.1996E+02  0.1890E+03  0.1885E+03
      4.768  0.3099E+02  0.3286E+02  0.1908E+03  0.1905E+03
      4.826  0.3126E+02  0.3326E+02  0.1926E+03  0.1924E+03
      4.884  0.1349E+02  0.1183E+02  0.1934E+03  0.1931E+03
      4.943  0.1985E+02  0.2138E+02  0.1946E+03  0.1943E+03
      5.001  0.1991E+02  0.1869E+02  0.1958E+03  0.1954E+03
      5.060  0.2163E+02  0.1865E+02  0.1970E+03  0.1965E+03
      5.118  0.3148E+02  0.2739E+02  0.1989E+03  0.1981E+03
      5.177  0.2576E+02  0.3181E+02  0.2004E+03  0.2000E+03
      5.235  0.2838E+02  0.3179E+02  0.2020E+03  0.2018E+03
      5.294  0.1908E+02  0.1484E+02  0.2031E+03  0.2027E+03
      5.352  0.2917E+02  0.2746E+02  0.2048E+03  0.2043E+03
      5.410  0.3187E+02  0.2908E+02  0.2067E+03  0.2060E+03
      5.469  0.2008E+02  0.2959E+02  0.2079E+03  0.2077E+03
      5.527  0.1624E+02  0.1416E+02  0.2088E+03  0.2086E+03
      5.586  0.3205E+02  0.2205E+02  0.2107E+03  0.2099E+03
      5.644  0.2759E+02  0.3519E+02  0.2123E+03  0.2119E+03
      5.703  0.2467E+02  0.2150E+02  0.2138E+03  0.2132E+03
      5.761  0.3171E+02  0.3168E+02  0.2156E+03  0.2150E+03
      5.819  0.1988E+02  0.1870E+02  0.2168E+03  0.2161E+03
      5.878  0.2582E+02  0.2478E+02  0.2183E+03  0.2176E+03
      5.936  0.2351E+02  0.2585E+02  0.2197E+03  0.2191E+03
      5.995  0.2589E+02  0.2553E+02  0.2212E+03  0.2206E+03
      6.053  0.2694E+02  0.2391E+02  0.2227E+03  0.2220E+03
      6.112  0.3089E+02  0.3311E+02  0.2245E+03  0.2239E+03
      6.170  0.3043E+02  0.3089E+02  0.2263E+03  0.2257E+03
      6.228  0.2585E+02  0.2256E+02  0.2278E+03  0.2270E+03
      6.287  0.3748E+02  0.3392E+02  0.2300E+03  0.2290E+03
      6.345  0.2969E+02  0.3510E+02  0.2318E+03  0.2310E+03
      6.404  0.2793E+02  0.3020E+02  0.2334E+03  0.2328E+03
      6.462  0.2288E+02  0.2499E+02  0.2347E+03  0.2343E+03
      6.521  0.2984E+02  0.2545E+02  0.2365E+03  0.2358E+03
      6.579  0.2475E+02  0.2910E+02  0.2379E+03  0.2375E+03
      6.637  0.3260E+02  0.2035E+02  0.2398E+03  0.2386E+03
      6.696  0.2593E+02  0.4075E+02  0.2413E+03  0.2410E+03
      6.754  0.2744E+02  0.1865E+02  0.2429E+03  0.2421E+03
      6.813  0.1820E+02  0.2497E+02  0.2440E+03  0.2436E+03
      6.871  0.3354E+02  0.3068E+02  0.2460E+03  0.2454E+03
      6.930  0.3036E+02  0.3201E+02  0.2477E+03  0.2472E+03
      6.988  0.3081E+02  0.2780E+02  0.2495E+03  0.2489E+03
      7.046  0.3471E+02  0.3680E+02  0.2516E+03  0.2510E+03
      7.105  0.2854E+02  0.2671E+02  0.2532E+03  0.2526E+03
      7.163  0.3015E+02  0.2890E+02  0.2550E+03  0.2543E+03
      7.222  0.2534E+02  0.2739E+02  0.2565E+03  0.2559E+03
      7.280  0.3656E+02  0.3774E+02  0.2586E+03  0.2581E+03
      7.339  0.3245E+02  0.3086E+02  0.2605E+03  0.2599E+03
      7.397  0.2129E+02  0.2492E+02  0.2618E+03  0.2613E+03
      7.455  0.3290E+02  0.3039E+02  0.2637E+03  0.2631E+03
      7.514  0.2779E+02  0.2244E+02  0.2653E+03  0.2644E+03
      7.572  0.2316E+02  0.2752E+02  0.2667E+03  0.2660E+03
      7.631  0.3723E+02  0.3170E+02  0.2688E+03  0.2679E+03
      7.689  0.2925E+02  0.3431E+02  0.2705E+03  0.2699E+03
      7.748  0.2761E+02  0.2590E+02  0.2722E+03  0.2714E+03
      7.806  0.3843E+02  0.3832E+02  0.2744E+03  0.2736E+03
      7.864  0.2235E+02  0.2422E+02  0.2757E+03  0.2751E+03
      7.923  0.3062E+02  0.3475E+02  0.2775E+03  0.2771E+03
      7.981  0.2788E+02  0.2454E+02  0.2791E+03  0.2785E+03
      8.040  0.4049E+02  0.3250E+02  0.2815E+03  0.2804E+03
      8.098  0.2901E+02  0.3565E+02  0.2832E+03  0.2825E+03
      8.157  0.2873E+02  0.2634E+02  0.2849E+03  0.2840E+03
      8.215  0.1641E+02  0.2396E+02  0.2858E+03  0.2854E+03
      8.273  0.1947E+02  0.1817E+02  0.2870E+03  0.2865E+03
      8.332  0.6456E+01  0.1048E+02  0.2873E+03  0.2871E+03
      8.390  0.6064E+01  0.6252E+01  0.2877E+03  0.2875E+03
      8.449  0.4282E+01  0.6100E+01  0.2879E+03  0.2878E+03
      8.507  0.1025E+01  0.2858E+01  0.2880E+03  0.2880E+03
      8.566  0.0000E+00  0.0000E+00  0.2880E+03  0.2880E+03
      8.624  0.0000E+00  0.0000E+00  0.2880E+03  0.2880E+03
      8.682  0.0000E+00  0.0000E+00  0.2880E+03  0.2880E+03
      8.741  0.0000E+00  0.0000E+00  0.2880E+03  0.2880E+03
      8.799  0.0000E+00  0.0000E+00  0.2880E+03  0.2880E+03
      8.858  0.0000E+00  0.0000E+00  0.2880E+03  0.2880E+03
      8.916  0.0000E+00  0.0000E+00  0.2880E+03  0.2880E+03
      8.975  0.0000E+00  0.0000E+00  0.2880E+03  0.2880E+03
      9.033  0.0000E+00  0.0000E+00  0.2880E+03  0.2880E+03
      9.092  0.0000E+00  0.0000E+00  0.2880E+03  0.2880E+03
      9.150  0.0000E+00  0.0000E+00  0.2880E+03  0.2880E+03
      9.208  0.0000E+00  0.0000E+00  0.2880E+03  0.2880E+03
      9.267  0.0000E+00  0.0000E+00  0.2880E+03  0.2880E+03
