<?xml version="1.0" encoding="ISO-8859-1"?>
<modeling>
 <generator>
  <i name="program" type="string">vasp </i>
  <i name="version" type="string">6.4.3  </i>
  <i name="subversion" type="string">19Mar24 (build Oct 22 2024 11:23:12) complex                          parallel </i>
  <i name="platform" type="string">LinuxIFC </i>
  <i name="date" type="string">2025 06 08 </i>
  <i name="time" type="string">21:10:48 </i>
 </generator>
 <incar>
  <i type="string" name="SYSTEM">Si and Ge interface calculation</i>
  <i type="int" name="ISTART">     0</i>
  <i type="logical" name="ADDGRID"> T  </i>
  <i type="int" name="ISPIN">     2</i>
  <i name="AMIX">      0.60000000</i>
  <i type="int" name="ICHARG">     2</i>
  <i type="int" name="NELM">   100</i>
  <i name="EDIFF">      0.00000010</i>
  <i name="ENCUT">    700.00000000</i>
  <i name="ENAUG">    900.00000000</i>
  <i type="int" name="NBANDS">   404</i>
  <i name="NUPDOWN">      1.00000000</i>
  <i name="NELECT">    672.00000000</i>
  <i type="string" name="LREAL">AUTO</i>
  <i type="int" name="ISMEAR">     0</i>
  <i name="SIGMA">      0.01000000</i>
  <i type="int" name="LMAXMIX">     6</i>
  <i type="logical" name="LWAVE"> F  </i>
  <i type="logical" name="LVTOT"> F  </i>
  <i type="logical" name="LVHAR"> T  </i>
  <i type="logical" name="LASPH"> T  </i>
  <i type="logical" name="LMIXTAU"> T  </i>
 </incar>
 <primitive_cell>
  <structure name="primitive_cell" >
   <crystal>
    <varray name="basis" >
     <v>       0.00000000      -8.00133800       0.00000000 </v>
     <v>      11.31560040       0.00000000       0.00000000 </v>
     <v>       0.00000000       0.00000000      25.60421562 </v>
    </varray>
    <i name="volume">   2318.20423552 </i>
    <varray name="rec_basis" >
     <v>       0.00000000      -0.12497910       0.00000000 </v>
     <v>       0.08837357       0.00000000       0.00000000 </v>
     <v>       0.00000000       0.00000000       0.03905607 </v>
    </varray>
   </crystal>
   <varray name="positions" >
    <v>       0.08801168       0.97066277       0.00000002 </v>
    <v>       0.83801174       0.72066271       0.07812522 </v>
    <v>       0.58801174       0.47066277       0.15625042 </v>
    <v>       0.33801150       0.22066289       0.23437557 </v>
    <v>       0.08801174       0.97066271       0.31250080 </v>
    <v>       0.83801174       0.72066271       0.39062604 </v>
    <v>       0.08801168       0.47066277       0.00000002 </v>
    <v>       0.83801174       0.22066276       0.07812522 </v>
    <v>       0.58801174       0.97066277       0.15625042 </v>
    <v>       0.33801150       0.72066283       0.23437557 </v>
    <v>       0.08801174       0.47066283       0.31250080 </v>
    <v>       0.83801174       0.22066277       0.39062604 </v>
    <v>       0.58801174       0.97066277       0.00000002 </v>
    <v>       0.33801174       0.72066271       0.07812521 </v>
    <v>       0.08801174       0.47066277       0.15625040 </v>
    <v>       0.83801150       0.22066289       0.23437560 </v>
    <v>       0.58801162       0.97066271       0.31250080 </v>
    <v>       0.33801174       0.72066271       0.39062601 </v>
    <v>       0.58801174       0.47066277       0.00000002 </v>
    <v>       0.33801174       0.22066276       0.07812521 </v>
    <v>       0.08801174       0.97066277       0.15625040 </v>
    <v>       0.83801150       0.72066283       0.23437560 </v>
    <v>       0.58801162       0.47066283       0.31250080 </v>
    <v>       0.33801174       0.22066277       0.39062601 </v>
    <v>       0.83801162       0.34566274       0.00000003 </v>
    <v>       0.58801174       0.09566276       0.07812521 </v>
    <v>       0.33801174       0.84566277       0.15625040 </v>
    <v>       0.08801150       0.59566283       0.23437557 </v>
    <v>       0.83801150       0.34566277       0.31250077 </v>
    <v>       0.58801174       0.09566271       0.39062604 </v>
    <v>       0.83801162       0.84566283       0.00000003 </v>
    <v>       0.58801174       0.59566277       0.07812521 </v>
    <v>       0.33801174       0.34566280       0.15625040 </v>
    <v>       0.08801150       0.09566288       0.23437557 </v>
    <v>       0.83801150       0.84566283       0.31250077 </v>
    <v>       0.58801174       0.59566277       0.39062604 </v>
    <v>       0.33801174       0.34566274       0.00000002 </v>
    <v>       0.08801162       0.09566276       0.07812521 </v>
    <v>       0.83801174       0.84566277       0.15625040 </v>
    <v>       0.58801150       0.59566283       0.23437560 </v>
    <v>       0.33801150       0.34566277       0.31250077 </v>
    <v>       0.08801174       0.09566271       0.39062601 </v>
    <v>       0.33801174       0.84566283       0.00000002 </v>
    <v>       0.08801162       0.59566277       0.07812521 </v>
    <v>       0.83801174       0.34566280       0.15625040 </v>
    <v>       0.58801150       0.09566288       0.23437560 </v>
    <v>       0.33801150       0.84566283       0.31250077 </v>
    <v>       0.08801174       0.59566277       0.39062601 </v>
    <v>       0.27850628       0.11607145       0.47129923 </v>
    <v>       0.77850628       0.11607134       0.56090474 </v>
    <v>       0.27850580       0.11607134       0.65051037 </v>
    <v>       0.77850556       0.11607122       0.74011582 </v>
    <v>       0.27850533       0.11607122       0.82972133 </v>
    <v>       0.77850533       0.11607122       0.91932684 </v>
    <v>       0.61183977       0.44940481       0.47129923 </v>
    <v>       0.11183977       0.44940475       0.56090480 </v>
    <v>       0.61183929       0.44940475       0.65051037 </v>
    <v>       0.11183882       0.44940469       0.74011582 </v>
    <v>       0.61183882       0.44940472       0.82972133 </v>
    <v>       0.11183834       0.44940460       0.91932684 </v>
    <v>       0.94517279       0.78273815       0.47129923 </v>
    <v>       0.44517279       0.78273803       0.56090474 </v>
    <v>       0.94517255       0.78273809       0.65051037 </v>
    <v>       0.44517231       0.78273791       0.74011582 </v>
    <v>       0.94517231       0.78273797       0.82972133 </v>
    <v>       0.44517183       0.78273797       0.91932684 </v>
    <v>       0.61183953       0.19940476       0.47129923 </v>
    <v>       0.11183977       0.19940467       0.56090474 </v>
    <v>       0.61183929       0.19940472       0.65051037 </v>
    <v>       0.11183834       0.19940467       0.74011582 </v>
    <v>       0.61183882       0.19940457       0.82972139 </v>
    <v>       0.11183882       0.19940457       0.91932684 </v>
    <v>       0.94517303       0.53273815       0.47129923 </v>
    <v>       0.44517279       0.53273809       0.56090480 </v>
    <v>       0.94517255       0.53273797       0.65051037 </v>
    <v>       0.44517231       0.53273803       0.74011582 </v>
    <v>       0.94517231       0.53273779       0.82972133 </v>
    <v>       0.44517183       0.53273785       0.91932684 </v>
    <v>       0.27850628       0.86607140       0.47129923 </v>
    <v>       0.77850628       0.86607134       0.56090480 </v>
    <v>       0.27850580       0.86607134       0.65051037 </v>
    <v>       0.77850580       0.86607122       0.74011582 </v>
    <v>       0.27850580       0.86607122       0.82972133 </v>
    <v>       0.77850533       0.86607117       0.91932684 </v>
   </varray>
  </structure>
  <varray name="primitive_index" >
   <v type="int" >        1 </v>
   <v type="int" >       14 </v>
   <v type="int" >        3 </v>
   <v type="int" >        4 </v>
   <v type="int" >       17 </v>
   <v type="int" >        6 </v>
   <v type="int" >        7 </v>
   <v type="int" >       20 </v>
   <v type="int" >        9 </v>
   <v type="int" >       10 </v>
   <v type="int" >       23 </v>
   <v type="int" >       12 </v>
   <v type="int" >       25 </v>
   <v type="int" >       26 </v>
   <v type="int" >       39 </v>
   <v type="int" >       28 </v>
   <v type="int" >       29 </v>
   <v type="int" >       42 </v>
   <v type="int" >       31 </v>
   <v type="int" >       32 </v>
   <v type="int" >       45 </v>
   <v type="int" >       34 </v>
   <v type="int" >       35 </v>
   <v type="int" >       48 </v>
   <v type="int" >       49 </v>
   <v type="int" >       62 </v>
   <v type="int" >       63 </v>
   <v type="int" >       52 </v>
   <v type="int" >       65 </v>
   <v type="int" >       54 </v>
   <v type="int" >       55 </v>
   <v type="int" >       68 </v>
   <v type="int" >       69 </v>
   <v type="int" >       58 </v>
   <v type="int" >       71 </v>
   <v type="int" >       60 </v>
   <v type="int" >       85 </v>
   <v type="int" >       74 </v>
   <v type="int" >       87 </v>
   <v type="int" >       88 </v>
   <v type="int" >       77 </v>
   <v type="int" >       90 </v>
   <v type="int" >       91 </v>
   <v type="int" >       80 </v>
   <v type="int" >       93 </v>
   <v type="int" >       94 </v>
   <v type="int" >       83 </v>
   <v type="int" >       96 </v>
   <v type="int" >      115 </v>
   <v type="int" >      116 </v>
   <v type="int" >       99 </v>
   <v type="int" >      100 </v>
   <v type="int" >      119 </v>
   <v type="int" >      120 </v>
   <v type="int" >      121 </v>
   <v type="int" >      104 </v>
   <v type="int" >      105 </v>
   <v type="int" >      124 </v>
   <v type="int" >      125 </v>
   <v type="int" >      108 </v>
   <v type="int" >      109 </v>
   <v type="int" >      128 </v>
   <v type="int" >      129 </v>
   <v type="int" >      112 </v>
   <v type="int" >      113 </v>
   <v type="int" >      132 </v>
   <v type="int" >      151 </v>
   <v type="int" >      134 </v>
   <v type="int" >      135 </v>
   <v type="int" >      154 </v>
   <v type="int" >      155 </v>
   <v type="int" >      138 </v>
   <v type="int" >      139 </v>
   <v type="int" >      158 </v>
   <v type="int" >      159 </v>
   <v type="int" >      142 </v>
   <v type="int" >      143 </v>
   <v type="int" >      162 </v>
   <v type="int" >      163 </v>
   <v type="int" >      164 </v>
   <v type="int" >      147 </v>
   <v type="int" >      148 </v>
   <v type="int" >      167 </v>
   <v type="int" >      168 </v>
  </varray>
 </primitive_cell>
 <kpoints>
  <generation param="Gamma">
   <v type="int" name="divisions">       3        2        1 </v>
   <v name="usershift">      0.00000000       0.00000000       0.00000000 </v>
   <v name="genvec1">      0.33333333       0.00000000       0.00000000 </v>
   <v name="genvec2">      0.00000000       0.50000000       0.00000000 </v>
   <v name="genvec3">      0.00000000       0.00000000       1.00000000 </v>
   <v name="shift">      0.00000000       0.00000000       0.00000000 </v>
  </generation>
  <varray name="kpointlist" >
   <v>       0.00000000       0.00000000       0.00000000 </v>
   <v>       0.33333333       0.00000000       0.00000000 </v>
   <v>       0.00000000       0.50000000       0.00000000 </v>
   <v>       0.33333333       0.50000000       0.00000000 </v>
  </varray>
  <varray name="weights" >
   <v>       0.16666667 </v>
   <v>       0.33333333 </v>
   <v>       0.16666667 </v>
   <v>       0.33333333 </v>
  </varray>
 </kpoints>
 <parameters>
  <separator name="general" >
   <i type="string" name="SYSTEM">Si and Ge interface calculation</i>
   <i type="logical" name="LCOMPAT"> F  </i>
  </separator>
  <separator name="electronic" >
   <i type="string" name="PREC">normal</i>
   <i name="ENMAX">    700.00000000</i>
   <i name="ENAUG">    900.00000000</i>
   <i name="EDIFF">      0.00000010</i>
   <i type="int" name="IALGO">    38</i>
   <i type="int" name="IWAVPR">    10</i>
   <i type="int" name="NBANDS">   404</i>
   <i type="int" name="NBANDSLOW">    -1</i>
   <i type="int" name="NBANDSHIGH">    -1</i>
   <i name="NELECT">    672.00000000</i>
   <i type="int" name="TURBO">     0</i>
   <i type="int" name="IRESTART">     0</i>
   <i type="int" name="NREBOOT">     0</i>
   <i type="int" name="NMIN">     0</i>
   <i name="EREF">      0.00000000</i>
   <separator name="electronic smearing" >
    <i type="int" name="ISMEAR">     0</i>
    <i name="SIGMA">      0.01000000</i>
    <i name="KSPACING">      0.50000000</i>
    <i type="logical" name="KGAMMA"> T  </i>
    <i type="logical" name="KBLOWUP"> T  </i>
   </separator>
   <separator name="electronic projectors" >
    <i type="logical" name="LREAL"> T  </i>
    <v name="ROPT">     -0.00050000     -0.00050000</v>
    <i type="int" name="LMAXPAW">  -100</i>
    <i type="int" name="LMAXMIX">     6</i>
    <i type="logical" name="NLSPLINE"> F  </i>
   </separator>
   <separator name="electronic startup" >
    <i type="int" name="ISTART">     0</i>
    <i type="int" name="ICHARG">     2</i>
    <i type="int" name="INIWAV">     1</i>
   </separator>
   <separator name="electronic spin" >
    <i type="int" name="ISPIN">     2</i>
    <i type="logical" name="LNONCOLLINEAR"> F  </i>
    <v name="MAGMOM">      0.00595238      0.00595238      0.00595238      0.00595238      0.00595238      0.00595238      0.00595238      0.00595238      0.00595238      0.00595238      0.00595238      0.00595238      0.00595238      0.00595238      0.00595238      0.00595238      0.00595238      0.00595238      0.00595238      0.00595238
      0.00595238      0.00595238      0.00595238      0.00595238      0.00595238      0.00595238      0.00595238      0.00595238      0.00595238      0.00595238      0.00595238      0.00595238      0.00595238      0.00595238      0.00595238      0.00595238      0.00595238      0.00595238      0.00595238      0.00595238
      0.00595238      0.00595238      0.00595238      0.00595238      0.00595238      0.00595238      0.00595238      0.00595238      0.00595238      0.00595238      0.00595238      0.00595238      0.00595238      0.00595238      0.00595238      0.00595238      0.00595238      0.00595238      0.00595238      0.00595238
      0.00595238      0.00595238      0.00595238      0.00595238      0.00595238      0.00595238      0.00595238      0.00595238      0.00595238      0.00595238      0.00595238      0.00595238      0.00595238      0.00595238      0.00595238      0.00595238      0.00595238      0.00595238      0.00595238      0.00595238
      0.00595238      0.00595238      0.00595238      0.00595238      0.00595238      0.00595238      0.00595238      0.00595238      0.00595238      0.00595238      0.00595238      0.00595238      0.00595238      0.00595238      0.00595238      0.00595238      0.00595238      0.00595238      0.00595238      0.00595238
      0.00595238      0.00595238      0.00595238      0.00595238      0.00595238      0.00595238      0.00595238      0.00595238      0.00595238      0.00595238      0.00595238      0.00595238      0.00595238      0.00595238      0.00595238      0.00595238      0.00595238      0.00595238      0.00595238      0.00595238
      0.00595238      0.00595238      0.00595238      0.00595238      0.00595238      0.00595238      0.00595238      0.00595238      0.00595238      0.00595238      0.00595238      0.00595238      0.00595238      0.00595238      0.00595238      0.00595238      0.00595238      0.00595238      0.00595238      0.00595238
      0.00595238      0.00595238      0.00595238      0.00595238      0.00595238      0.00595238      0.00595238      0.00595238      0.00595238      0.00595238      0.00595238      0.00595238      0.00595238      0.00595238      0.00595238      0.00595238      0.00595238      0.00595238      0.00595238      0.00595238
      0.00595238      0.00595238      0.00595238      0.00595238      0.00595238      0.00595238      0.00595238      0.00595238</v>
    <i name="NUPDOWN">      1.00000000</i>
    <i type="logical" name="LSORBIT"> F  </i>
    <v name="SAXIS">      0.00000000      0.00000000      1.00000000</v>
    <i type="logical" name="LSPIRAL"> F  </i>
    <v name="QSPIRAL">      0.00000000      0.00000000      0.00000000</v>
    <i type="logical" name="LZEROZ"> F  </i>
   </separator>
   <separator name="electronic exchange-correlation" >
    <i type="logical" name="LASPH"> T  </i>
   </separator>
   <separator name="electronic convergence" >
    <i type="int" name="NELM">   100</i>
    <i type="int" name="NELMDL">    -5</i>
    <i type="int" name="NELMIN">     2</i>
    <i name="ENINI">    700.00000000</i>
    <separator name="electronic convergence detail" >
     <i type="logical" name="LDIAG"> T  </i>
     <i type="logical" name="LSUBROT"> F  </i>
     <i name="WEIMIN">      0.00000000</i>
     <i name="EBREAK">      0.00000000</i>
     <i name="DEPER">      0.30000000</i>
     <i type="int" name="NRMM">     4</i>
     <i name="TIME">      0.40000000</i>
    </separator>
   </separator>
   <separator name="electronic mixer" >
    <i name="AMIX">      0.60000000</i>
    <i name="BMIX">      1.00000000</i>
    <i name="AMIN">      0.10000000</i>
    <i name="AMIX_MAG">      2.40000000</i>
    <i name="BMIX_MAG">      1.00000000</i>
    <separator name="electronic mixer details" >
     <i type="int" name="IMIX">     4</i>
     <i type="logical" name="MIXFIRST"> F  </i>
     <i type="int" name="MAXMIX">   -45</i>
     <i name="WC">    100.00000000</i>
     <i type="int" name="INIMIX">     1</i>
     <i type="int" name="MIXPRE">     1</i>
     <i type="int" name="MREMOVE">     5</i>
    </separator>
   </separator>
   <separator name="electronic dipolcorrection" >
    <i type="logical" name="LDIPOL"> F  </i>
    <i type="logical" name="LMONO"> F  </i>
    <i type="int" name="IDIPOL">     0</i>
    <i name="EPSILON">      1.00000000</i>
    <v name="DIPOL">   -100.00000000   -100.00000000   -100.00000000</v>
    <i name="EFIELD">      0.00000000</i>
    <i type="logical" name="LVACPOTAV"> F  </i>
   </separator>
  </separator>
  <separator name="grids" >
   <i type="int" name="NGX">    80</i>
   <i type="int" name="NGY">   108</i>
   <i type="int" name="NGZ">   168</i>
   <i type="int" name="NGXF">   160</i>
   <i type="int" name="NGYF">   216</i>
   <i type="int" name="NGZF">   336</i>
   <i type="logical" name="ADDGRID"> T  </i>
  </separator>
  <separator name="ionic" >
   <i type="int" name="NSW">     0</i>
   <i type="int" name="IBRION">    -1</i>
   <i type="int" name="MDALGO">     0</i>
   <i type="int" name="ISIF">     2</i>
   <i name="PSTRESS">      0.00000000</i>
   <i name="EDIFFG">      0.00000100</i>
   <i type="int" name="NFREE">     0</i>
   <i name="POTIM">      0.50000000</i>
   <i name="SMASS">     -3.00000000</i>
   <i name="SCALEE">      1.00000000</i>
  </separator>
  <separator name="ionic md" >
   <i name="TEBEG">      0.00010000</i>
   <i name="TEEND">      0.00010000</i>
   <i type="int" name="NBLOCK">     1</i>
   <i type="int" name="KBLOCK">     1</i>
   <i type="int" name="NPACO">   256</i>
   <i name="APACO">     10.00000000</i>
  </separator>
  <separator name="symmetry" >
   <i type="int" name="ISYM">     2</i>
   <i name="SYMPREC">      0.00001000</i>
  </separator>
  <separator name="dos" >
   <i type="int" name="LORBIT">     0</i>
   <v name="RWIGS">     -1.00000000     -1.00000000</v>
   <i type="int" name="NEDOS">   301</i>
   <i name="EMIN">     10.00000000</i>
   <i name="EMAX">    -10.00000000</i>
   <i name="EFERMI">      0.00000000</i>
  </separator>
  <separator name="writing" >
   <i type="int" name="NWRITE">     2</i>
   <i type="logical" name="LWAVE"> F  </i>
   <i type="logical" name="LDOWNSAMPLE"> F  </i>
   <i type="logical" name="LCHARG"> T  </i>
   <i type="logical" name="LPARD"> F  </i>
   <i type="logical" name="LVTOT"> F  </i>
   <i type="logical" name="LVHAR"> T  </i>
   <i type="logical" name="LELF"> F  </i>
   <i type="logical" name="LOPTICS"> F  </i>
   <v name="STM">      0.00000000      0.00000000      0.00000000      0.00000000      0.00000000      0.00000000      0.00000000</v>
  </separator>
  <separator name="performance" >
   <i type="int" name="NPAR">     4</i>
   <i type="int" name="NSIM">     4</i>
   <i type="int" name="NBLK">    -1</i>
   <i type="logical" name="LPLANE"> T  </i>
   <i type="logical" name="LSCALAPACK"> T  </i>
   <i type="logical" name="LSCAAWARE"> F  </i>
   <i type="logical" name="LSCALU"> F  </i>
   <i type="logical" name="LASYNC"> F  </i>
   <i type="logical" name="LORBITALREAL"> F  </i>
  </separator>
  <separator name="miscellaneous" >
   <i type="int" name="IDIOT">     3</i>
   <i type="int" name="PHON_NSTRUCT">    -1</i>
   <i type="logical" name="LMUSIC"> F  </i>
   <v name="POMASS">     72.61000000    118.71000000</v>
   <v name="DARWINR">      0.00000000      0.00000000</v>
   <v name="DARWINV">      1.00000000      1.00000000</v>
   <i type="logical" name="LCORR"> T  </i>
  </separator>
  <i type="logical" name="GGA_COMPAT"> T  </i>
  <i type="logical" name="LBERRY"> F  </i>
  <i type="int" name="ICORELEVEL">     0</i>
  <i type="logical" name="LDAU"> F  </i>
  <i type="int" name="I_CONSTRAINED_M">     0</i>
  <separator name="electronic exchange-correlation" >
   <i type="string" name="GGA    ">PE</i>
   <i type="string" name="XC_C">1</i>
   <i type="int" name="VOSKOWN">     0</i>
   <i type="logical" name="LHFCALC"> F  </i>
   <i type="string" name="PRECFOCK"></i>
   <i type="logical" name="LSYMGRAD"> F  </i>
   <i type="logical" name="LHFONE"> F  </i>
   <i type="logical" name="LRHFCALC"> F  </i>
   <i type="logical" name="LTHOMAS"> F  </i>
   <i type="logical" name="LMODELHF"> F  </i>
   <i type="logical" name="LFOCKACE"> F  </i>
   <i name="ENCUT4O">     -1.00000000</i>
   <i type="int" name="EXXOEP">     0</i>
   <i type="int" name="FOURORBIT">     0</i>
   <i name="AEXX">      0.00000000</i>
   <i name="HFALPHA">      0.00000000</i>
   <i name="MCALPHA">      0.00000000</i>
   <i name="ALDAX">      1.00000000</i>
   <i name="AGGAX">      1.00000000</i>
   <i name="AMGGAX">      1.00000000</i>
   <i name="ALDAC">      1.00000000</i>
   <i name="AGGAC">      1.00000000</i>
   <i name="AMGGAC">      1.00000000</i>
   <i type="int" name="NKREDX">     1</i>
   <i type="int" name="NKREDY">     1</i>
   <i type="int" name="NKREDZ">     1</i>
   <i type="logical" name="SHIFTRED"> F  </i>
   <i type="logical" name="ODDONLY"> F  </i>
   <i type="logical" name="EVENONLY"> F  </i>
   <i type="int" name="LMAXFOCK">     0</i>
   <i type="int" name="NMAXFOCKAE">     0</i>
   <i type="logical" name="LFOCKAEDFT"> F  </i>
   <i name="HFSCREEN">      0.00000000</i>
   <i name="HFSCREENC">      0.00000000</i>
   <i type="int" name="NBANDSGWLOW">     0</i>
  </separator>
  <separator name="vdW DFT" >
   <i type="logical" name="LUSE_VDW"> F  </i>
   <i type="int" name="IVDW_NL">    -1</i>
   <i type="logical" name="LSPIN_VDW"> F  </i>
   <i name="ZAB_VDW">     -0.84910000</i>
   <i name="GAMMA_VDW">      1.39626340</i>
   <i name="ALPHA_VDW">      0.00000000</i>
   <i name="PARAM1">      0.12340000</i>
   <i name="PARAM2">      1.00000000</i>
   <i name="BPARAM">      6.30000000</i>
   <i name="CPARAM">      0.00930000</i>
  </separator>
  <separator name="model GW" >
   <i type="int" name="MODEL_GW">     0</i>
   <i name="MODEL_EPS0">     16.55860168</i>
   <i name="MODEL_ALPHA">      1.00000000</i>
  </separator>
  <separator name="linear response parameters" >
   <i type="logical" name="LEPSILON"> F  </i>
   <i type="logical" name="LRPA"> F  </i>
   <i type="logical" name="LNABLA"> F  </i>
   <i type="logical" name="LVEL"> F  </i>
   <i name="CSHIFT">      0.10000000</i>
   <i name="OMEGAMAX">     -1.00000000</i>
   <i name="DEG_THRESHOLD">      0.00200000</i>
   <i name="RTIME">     -0.10000000</i>
   <i name="WPLASMAI">      0.00000000</i>
   <v name="DFIELD">      0.00000000      0.00000000      0.00000000</v>
   <v name="WPLASMA">      0.00000000      0.00000000      0.00000000      0.00000000      0.00000000      0.00000000      0.00000000      0.00000000      0.00000000</v>
  </separator>
  <separator name="orbital magnetization" >
   <i type="logical" name="NUCIND"> F  </i>
   <v name="MAGPOS">      0.00000000      0.00000000      0.00000000</v>
   <i type="logical" name="LNICSALL"> T  </i>
   <i type="logical" name="ORBITALMAG"> F  </i>
   <i type="logical" name="LMAGBLOCH"> F  </i>
   <i type="logical" name="LCHIMAG"> F  </i>
   <i type="logical" name="LGAUGE"> T  </i>
   <i type="int" name="MAGATOM">     0</i>
   <v name="MAGDIPOL">      0.00000000      0.00000000      0.00000000</v>
   <v name="AVECCONST">      0.00000000      0.00000000      0.00000000</v>
  </separator>
  <separator name="response functions" >
   <i type="logical" name="LALL_IN_ONE"> F  </i>
   <i type="int" name="IALL_IN_ONE">    -1</i>
   <i type="int" name="NBANDS_WAVE">    -1</i>
   <i type="logical" name="LFINITE_TEMPERATURE"> F  </i>
   <i type="logical" name="LADDER"> F  </i>
   <i type="logical" name="LRPAFORCE"> F  </i>
   <i type="logical" name="LFXC"> F  </i>
   <i type="logical" name="LHARTREE"> T  </i>
   <i type="int" name="IBSE">     0</i>
   <v type="int" name="KPOINT">    -1     0     0     0</v>
   <i type="logical" name="LTCTC"> F  </i>
   <i type="logical" name="LTCTE"> F  </i>
   <i type="logical" name="LTETE"> F  </i>
   <i type="logical" name="LTRIPLET"> F  </i>
   <i type="logical" name="LFXCEPS"> F  </i>
   <i type="logical" name="LFXHEG"> F  </i>
   <i type="int" name="NATURALO">     2</i>
   <i type="logical" name="LHOLEGF"> F  </i>
   <i type="logical" name="L2ORDER"> F  </i>
   <i type="logical" name="LDMP1"> F  </i>
   <i type="logical" name="LMP2LT"> F  </i>
   <i type="logical" name="LSMP2LT"> F  </i>
   <i type="logical" name="LGWLF"> F  </i>
   <i name="ENCUTGW">     -1.60000002</i>
   <i name="ENCUTGWSOFT">     -1.60000002</i>
   <i name="ENCUTLF">     -1.00000000</i>
   <i type="logical" name="ESF_SPLINES"> F  </i>
   <i name="ESF_CONV">      0.01000000</i>
   <i type="int" name="ESF_NINTER">    15</i>
   <i type="int" name="LMAXMP2">    -1</i>
   <i name="SCISSOR">      0.00000000</i>
   <i type="int" name="NOMEGA">     0</i>
   <i type="int" name="NOMEGAR">     0</i>
   <i type="int" name="NBANDSGW">    -1</i>
   <i type="int" name="NBANDSO">    -1</i>
   <i type="int" name="NBANDSV">    -1</i>
   <i type="int" name="NELMGW">     1</i>
   <i type="int" name="NELMHF">     1</i>
   <i type="int" name="DIM">     3</i>
   <i type="int" name="IESPILON">     4</i>
   <i type="int" name="ANTIRES">     0</i>
   <i name="OMEGAMAX">    -30.00000000</i>
   <i name="OMEGAMIN">    -30.00000000</i>
   <i name="OMEGATL">   -200.00000000</i>
   <i type="int" name="OMEGAGRID">     0</i>
   <i name="CSHIFT">     -0.10000000</i>
   <i type="logical" name="LSELFENERGY"> F  </i>
   <i type="logical" name="LSPECTRAL"> F  </i>
   <i type="logical" name="LSPECTRALGW"> F  </i>
   <i type="logical" name="LSINGLES"> F  </i>
   <i type="logical" name="LFERMIGW"> F  </i>
   <i type="logical" name="ODDONLYGW"> F  </i>
   <i type="logical" name="EVENONLYGW"> F  </i>
   <i type="int" name="NKREDLFX">     1</i>
   <i type="int" name="NKREDLFY">     1</i>
   <i type="int" name="NKREDLFZ">     1</i>
   <i type="int" name="MAXMEM">  2800</i>
   <i type="int" name="TELESCOPE">     0</i>
   <i type="int" name="NTAUPAR">    -1</i>
   <i type="int" name="NOMEGAPAR">    -1</i>
   <i name="DAMP_NEWTON">      0.80000001</i>
   <i name="LAMBDA">      1.00000000</i>
  </separator>
  <separator name="External order field" >
   <i name="OFIELD_KAPPA">      0.00000000</i>
   <v name="OFIELD_K">      0.00000000      0.00000000      0.00000000</v>
   <i name="OFIELD_Q6_NEAR">      0.00000000</i>
   <i name="OFIELD_Q6_FAR">      0.00000000</i>
   <i name="OFIELD_A">      0.00000000</i>
  </separator>
  <separator name="optional k-points parameters" >
   <i type="int" name="KPOINTS_OPT_MODE">     1</i>
   <i type="logical" name="LKPOINTS_OPT"> F  </i>
  </separator>
 </parameters>
 <atominfo>
  <atoms>     168 </atoms>
  <types>       2 </types>
  <array name="atoms" >
   <dimension dim="1">ion</dimension>
   <field type="string">element</field>
   <field type="int">atomtype</field>
   <set>
    <rc><c>Ge</c><c>   1</c></rc>
    <rc><c>Ge</c><c>   1</c></rc>
    <rc><c>Ge</c><c>   1</c></rc>
    <rc><c>Ge</c><c>   1</c></rc>
    <rc><c>Ge</c><c>   1</c></rc>
    <rc><c>Ge</c><c>   1</c></rc>
    <rc><c>Ge</c><c>   1</c></rc>
    <rc><c>Ge</c><c>   1</c></rc>
    <rc><c>Ge</c><c>   1</c></rc>
    <rc><c>Ge</c><c>   1</c></rc>
    <rc><c>Ge</c><c>   1</c></rc>
    <rc><c>Ge</c><c>   1</c></rc>
    <rc><c>Ge</c><c>   1</c></rc>
    <rc><c>Ge</c><c>   1</c></rc>
    <rc><c>Ge</c><c>   1</c></rc>
    <rc><c>Ge</c><c>   1</c></rc>
    <rc><c>Ge</c><c>   1</c></rc>
    <rc><c>Ge</c><c>   1</c></rc>
    <rc><c>Ge</c><c>   1</c></rc>
    <rc><c>Ge</c><c>   1</c></rc>
    <rc><c>Ge</c><c>   1</c></rc>
    <rc><c>Ge</c><c>   1</c></rc>
    <rc><c>Ge</c><c>   1</c></rc>
    <rc><c>Ge</c><c>   1</c></rc>
    <rc><c>Ge</c><c>   1</c></rc>
    <rc><c>Ge</c><c>   1</c></rc>
    <rc><c>Ge</c><c>   1</c></rc>
    <rc><c>Ge</c><c>   1</c></rc>
    <rc><c>Ge</c><c>   1</c></rc>
    <rc><c>Ge</c><c>   1</c></rc>
    <rc><c>Ge</c><c>   1</c></rc>
    <rc><c>Ge</c><c>   1</c></rc>
    <rc><c>Ge</c><c>   1</c></rc>
    <rc><c>Ge</c><c>   1</c></rc>
    <rc><c>Ge</c><c>   1</c></rc>
    <rc><c>Ge</c><c>   1</c></rc>
    <rc><c>Ge</c><c>   1</c></rc>
    <rc><c>Ge</c><c>   1</c></rc>
    <rc><c>Ge</c><c>   1</c></rc>
    <rc><c>Ge</c><c>   1</c></rc>
    <rc><c>Ge</c><c>   1</c></rc>
    <rc><c>Ge</c><c>   1</c></rc>
    <rc><c>Ge</c><c>   1</c></rc>
    <rc><c>Ge</c><c>   1</c></rc>
    <rc><c>Ge</c><c>   1</c></rc>
    <rc><c>Ge</c><c>   1</c></rc>
    <rc><c>Ge</c><c>   1</c></rc>
    <rc><c>Ge</c><c>   1</c></rc>
    <rc><c>Ge</c><c>   1</c></rc>
    <rc><c>Ge</c><c>   1</c></rc>
    <rc><c>Ge</c><c>   1</c></rc>
    <rc><c>Ge</c><c>   1</c></rc>
    <rc><c>Ge</c><c>   1</c></rc>
    <rc><c>Ge</c><c>   1</c></rc>
    <rc><c>Ge</c><c>   1</c></rc>
    <rc><c>Ge</c><c>   1</c></rc>
    <rc><c>Ge</c><c>   1</c></rc>
    <rc><c>Ge</c><c>   1</c></rc>
    <rc><c>Ge</c><c>   1</c></rc>
    <rc><c>Ge</c><c>   1</c></rc>
    <rc><c>Ge</c><c>   1</c></rc>
    <rc><c>Ge</c><c>   1</c></rc>
    <rc><c>Ge</c><c>   1</c></rc>
    <rc><c>Ge</c><c>   1</c></rc>
    <rc><c>Ge</c><c>   1</c></rc>
    <rc><c>Ge</c><c>   1</c></rc>
    <rc><c>Ge</c><c>   1</c></rc>
    <rc><c>Ge</c><c>   1</c></rc>
    <rc><c>Ge</c><c>   1</c></rc>
    <rc><c>Ge</c><c>   1</c></rc>
    <rc><c>Ge</c><c>   1</c></rc>
    <rc><c>Ge</c><c>   1</c></rc>
    <rc><c>Ge</c><c>   1</c></rc>
    <rc><c>Ge</c><c>   1</c></rc>
    <rc><c>Ge</c><c>   1</c></rc>
    <rc><c>Ge</c><c>   1</c></rc>
    <rc><c>Ge</c><c>   1</c></rc>
    <rc><c>Ge</c><c>   1</c></rc>
    <rc><c>Ge</c><c>   1</c></rc>
    <rc><c>Ge</c><c>   1</c></rc>
    <rc><c>Ge</c><c>   1</c></rc>
    <rc><c>Ge</c><c>   1</c></rc>
    <rc><c>Ge</c><c>   1</c></rc>
    <rc><c>Ge</c><c>   1</c></rc>
    <rc><c>Ge</c><c>   1</c></rc>
    <rc><c>Ge</c><c>   1</c></rc>
    <rc><c>Ge</c><c>   1</c></rc>
    <rc><c>Ge</c><c>   1</c></rc>
    <rc><c>Ge</c><c>   1</c></rc>
    <rc><c>Ge</c><c>   1</c></rc>
    <rc><c>Ge</c><c>   1</c></rc>
    <rc><c>Ge</c><c>   1</c></rc>
    <rc><c>Ge</c><c>   1</c></rc>
    <rc><c>Ge</c><c>   1</c></rc>
    <rc><c>Ge</c><c>   1</c></rc>
    <rc><c>Ge</c><c>   1</c></rc>
    <rc><c>Sn</c><c>   2</c></rc>
    <rc><c>Sn</c><c>   2</c></rc>
    <rc><c>Sn</c><c>   2</c></rc>
    <rc><c>Sn</c><c>   2</c></rc>
    <rc><c>Sn</c><c>   2</c></rc>
    <rc><c>Sn</c><c>   2</c></rc>
    <rc><c>Sn</c><c>   2</c></rc>
    <rc><c>Sn</c><c>   2</c></rc>
    <rc><c>Sn</c><c>   2</c></rc>
    <rc><c>Sn</c><c>   2</c></rc>
    <rc><c>Sn</c><c>   2</c></rc>
    <rc><c>Sn</c><c>   2</c></rc>
    <rc><c>Sn</c><c>   2</c></rc>
    <rc><c>Sn</c><c>   2</c></rc>
    <rc><c>Sn</c><c>   2</c></rc>
    <rc><c>Sn</c><c>   2</c></rc>
    <rc><c>Sn</c><c>   2</c></rc>
    <rc><c>Sn</c><c>   2</c></rc>
    <rc><c>Sn</c><c>   2</c></rc>
    <rc><c>Sn</c><c>   2</c></rc>
    <rc><c>Sn</c><c>   2</c></rc>
    <rc><c>Sn</c><c>   2</c></rc>
    <rc><c>Sn</c><c>   2</c></rc>
    <rc><c>Sn</c><c>   2</c></rc>
    <rc><c>Sn</c><c>   2</c></rc>
    <rc><c>Sn</c><c>   2</c></rc>
    <rc><c>Sn</c><c>   2</c></rc>
    <rc><c>Sn</c><c>   2</c></rc>
    <rc><c>Sn</c><c>   2</c></rc>
    <rc><c>Sn</c><c>   2</c></rc>
    <rc><c>Sn</c><c>   2</c></rc>
    <rc><c>Sn</c><c>   2</c></rc>
    <rc><c>Sn</c><c>   2</c></rc>
    <rc><c>Sn</c><c>   2</c></rc>
    <rc><c>Sn</c><c>   2</c></rc>
    <rc><c>Sn</c><c>   2</c></rc>
    <rc><c>Sn</c><c>   2</c></rc>
    <rc><c>Sn</c><c>   2</c></rc>
    <rc><c>Sn</c><c>   2</c></rc>
    <rc><c>Sn</c><c>   2</c></rc>
    <rc><c>Sn</c><c>   2</c></rc>
    <rc><c>Sn</c><c>   2</c></rc>
    <rc><c>Sn</c><c>   2</c></rc>
    <rc><c>Sn</c><c>   2</c></rc>
    <rc><c>Sn</c><c>   2</c></rc>
    <rc><c>Sn</c><c>   2</c></rc>
    <rc><c>Sn</c><c>   2</c></rc>
    <rc><c>Sn</c><c>   2</c></rc>
    <rc><c>Sn</c><c>   2</c></rc>
    <rc><c>Sn</c><c>   2</c></rc>
    <rc><c>Sn</c><c>   2</c></rc>
    <rc><c>Sn</c><c>   2</c></rc>
    <rc><c>Sn</c><c>   2</c></rc>
    <rc><c>Sn</c><c>   2</c></rc>
    <rc><c>Sn</c><c>   2</c></rc>
    <rc><c>Sn</c><c>   2</c></rc>
    <rc><c>Sn</c><c>   2</c></rc>
    <rc><c>Sn</c><c>   2</c></rc>
    <rc><c>Sn</c><c>   2</c></rc>
    <rc><c>Sn</c><c>   2</c></rc>
    <rc><c>Sn</c><c>   2</c></rc>
    <rc><c>Sn</c><c>   2</c></rc>
    <rc><c>Sn</c><c>   2</c></rc>
    <rc><c>Sn</c><c>   2</c></rc>
    <rc><c>Sn</c><c>   2</c></rc>
    <rc><c>Sn</c><c>   2</c></rc>
    <rc><c>Sn</c><c>   2</c></rc>
    <rc><c>Sn</c><c>   2</c></rc>
    <rc><c>Sn</c><c>   2</c></rc>
    <rc><c>Sn</c><c>   2</c></rc>
    <rc><c>Sn</c><c>   2</c></rc>
    <rc><c>Sn</c><c>   2</c></rc>
   </set>
  </array>
  <array name="atomtypes" >
   <dimension dim="1">type</dimension>
   <field type="int">atomspertype</field>
   <field type="string">element</field>
   <field>mass</field>
   <field>valence</field>
   <field type="string">pseudopotential</field>
   <set>
    <rc><c>  96</c><c>Ge</c><c>     72.61000000</c><c>      4.00000000</c><c>  PAW_PBE Ge 05Jan2001                  </c></rc>
    <rc><c>  72</c><c>Sn</c><c>    118.71000000</c><c>      4.00000000</c><c>  PAW_PBE Sn 08Apr2002                  </c></rc>
   </set>
  </array>
 </atominfo>
 <structure name="initialpos" >
  <crystal>
   <varray name="basis" >
    <v>      11.31560040       0.00000000       0.00000000 </v>
    <v>       0.00000000      16.00267601       0.00000000 </v>
    <v>       0.00000000       0.00000000      25.60421562 </v>
   </varray>
   <i name="volume">   4636.40847104 </i>
   <varray name="rec_basis" >
    <v>       0.08837357       0.00000000       0.00000000 </v>
    <v>       0.00000000       0.06248955       0.00000000 </v>
    <v>       0.00000000       0.00000000       0.03905607 </v>
   </varray>
  </crystal>
  <varray name="positions" >
   <v>       0.97066277       0.45599416       0.00000002 </v>
   <v>       0.72066271       0.08099414       0.07812521 </v>
   <v>       0.47066277       0.70599413       0.15625042 </v>
   <v>       0.22066289       0.33099425       0.23437557 </v>
   <v>       0.97066271       0.95599413       0.31250077 </v>
   <v>       0.72066271       0.58099413       0.39062604 </v>
   <v>       0.47066277       0.45599416       0.00000002 </v>
   <v>       0.22066276       0.08099414       0.07812521 </v>
   <v>       0.97066277       0.70599413       0.15625042 </v>
   <v>       0.72066283       0.33099425       0.23437557 </v>
   <v>       0.47066283       0.95599413       0.31250077 </v>
   <v>       0.22066277       0.58099413       0.39062604 </v>
   <v>       0.97066277       0.95599413       0.00000002 </v>
   <v>       0.72066271       0.58099413       0.07812522 </v>
   <v>       0.47066277       0.20599413       0.15625040 </v>
   <v>       0.22066289       0.83099437       0.23437557 </v>
   <v>       0.97066271       0.45599413       0.31250080 </v>
   <v>       0.72066271       0.08099413       0.39062601 </v>
   <v>       0.47066277       0.95599413       0.00000002 </v>
   <v>       0.22066276       0.58099413       0.07812522 </v>
   <v>       0.97066277       0.20599413       0.15625040 </v>
   <v>       0.72066283       0.83099437       0.23437557 </v>
   <v>       0.47066283       0.45599413       0.31250080 </v>
   <v>       0.22066277       0.08099413       0.39062601 </v>
   <v>       0.97066277       0.70599413       0.00000002 </v>
   <v>       0.72066271       0.33099413       0.07812521 </v>
   <v>       0.47066277       0.95599413       0.15625040 </v>
   <v>       0.22066289       0.58099425       0.23437560 </v>
   <v>       0.97066271       0.20599419       0.31250080 </v>
   <v>       0.72066271       0.83099413       0.39062604 </v>
   <v>       0.47066277       0.70599413       0.00000002 </v>
   <v>       0.22066276       0.33099413       0.07812521 </v>
   <v>       0.97066277       0.95599413       0.15625040 </v>
   <v>       0.72066283       0.58099425       0.23437560 </v>
   <v>       0.47066283       0.20599419       0.31250080 </v>
   <v>       0.22066277       0.83099413       0.39062604 </v>
   <v>       0.97066277       0.20599414       0.00000002 </v>
   <v>       0.72066271       0.83099413       0.07812521 </v>
   <v>       0.47066277       0.45599413       0.15625040 </v>
   <v>       0.22066289       0.08099425       0.23437560 </v>
   <v>       0.97066271       0.70599425       0.31250077 </v>
   <v>       0.72066271       0.33099413       0.39062601 </v>
   <v>       0.47066277       0.20599414       0.00000002 </v>
   <v>       0.22066276       0.83099413       0.07812521 </v>
   <v>       0.97066277       0.45599413       0.15625040 </v>
   <v>       0.72066283       0.08099425       0.23437560 </v>
   <v>       0.47066283       0.70599425       0.31250077 </v>
   <v>       0.22066277       0.33099413       0.39062601 </v>
   <v>       0.34566274       0.58099419       0.00000003 </v>
   <v>       0.09566276       0.20599416       0.07812521 </v>
   <v>       0.84566277       0.83099413       0.15625040 </v>
   <v>       0.59566283       0.45599425       0.23437557 </v>
   <v>       0.34566277       0.08099419       0.31250080 </v>
   <v>       0.09566271       0.70599413       0.39062604 </v>
   <v>       0.84566283       0.58099419       0.00000003 </v>
   <v>       0.59566277       0.20599416       0.07812521 </v>
   <v>       0.34566280       0.83099413       0.15625040 </v>
   <v>       0.09566288       0.45599425       0.23437557 </v>
   <v>       0.84566283       0.08099419       0.31250080 </v>
   <v>       0.59566277       0.70599413       0.39062604 </v>
   <v>       0.34566274       0.08099414       0.00000001 </v>
   <v>       0.09566276       0.70599413       0.07812521 </v>
   <v>       0.84566277       0.33099413       0.15625040 </v>
   <v>       0.59566283       0.95599425       0.23437560 </v>
   <v>       0.34566277       0.58099425       0.31250077 </v>
   <v>       0.09566271       0.20599401       0.39062601 </v>
   <v>       0.84566283       0.08099414       0.00000001 </v>
   <v>       0.59566277       0.70599413       0.07812521 </v>
   <v>       0.34566280       0.33099413       0.15625040 </v>
   <v>       0.09566288       0.95599425       0.23437560 </v>
   <v>       0.84566283       0.58099425       0.31250077 </v>
   <v>       0.59566277       0.20599401       0.39062601 </v>
   <v>       0.34566274       0.83099419       0.00000000 </v>
   <v>       0.09566276       0.45599419       0.07812521 </v>
   <v>       0.84566277       0.08099417       0.15625040 </v>
   <v>       0.59566283       0.70599431       0.23437557 </v>
   <v>       0.34566277       0.33099425       0.31250077 </v>
   <v>       0.09566271       0.95599413       0.39062598 </v>
   <v>       0.84566283       0.83099419       0.00000000 </v>
   <v>       0.59566277       0.45599419       0.07812521 </v>
   <v>       0.34566280       0.08099417       0.15625040 </v>
   <v>       0.09566288       0.70599431       0.23437557 </v>
   <v>       0.84566283       0.33099425       0.31250077 </v>
   <v>       0.59566277       0.95599413       0.39062598 </v>
   <v>       0.34566274       0.33099413       0.00000002 </v>
   <v>       0.09566276       0.95599413       0.07812522 </v>
   <v>       0.84566277       0.58099413       0.15625040 </v>
   <v>       0.59566283       0.20599425       0.23437560 </v>
   <v>       0.34566277       0.83099413       0.31250077 </v>
   <v>       0.09566271       0.45599413       0.39062601 </v>
   <v>       0.84566283       0.33099413       0.00000002 </v>
   <v>       0.59566277       0.95599413       0.07812522 </v>
   <v>       0.34566280       0.58099413       0.15625040 </v>
   <v>       0.09566288       0.20599425       0.23437560 </v>
   <v>       0.84566283       0.83099413       0.31250077 </v>
   <v>       0.59566277       0.45599413       0.39062601 </v>
   <v>       0.11607143       0.86074680       0.47129923 </v>
   <v>       0.11607134       0.11074686       0.56090480 </v>
   <v>       0.11607134       0.36074710       0.65051037 </v>
   <v>       0.11607122       0.61074722       0.74011582 </v>
   <v>       0.11607122       0.86074728       0.82972133 </v>
   <v>       0.11607122       0.11074734       0.91932684 </v>
   <v>       0.44940481       0.19408011       0.47129923 </v>
   <v>       0.44940475       0.44408011       0.56090480 </v>
   <v>       0.44940475       0.69408035       0.65051037 </v>
   <v>       0.44940466       0.94408053       0.74011582 </v>
   <v>       0.44940466       0.19408059       0.82972133 </v>
   <v>       0.44940460       0.44408083       0.91932684 </v>
   <v>       0.78273815       0.52741361       0.47129923 </v>
   <v>       0.78273809       0.77741361       0.56090480 </v>
   <v>       0.78273821       0.02741384       0.65051037 </v>
   <v>       0.78273791       0.27741384       0.74011582 </v>
   <v>       0.78273797       0.52741384       0.82972133 </v>
   <v>       0.78273797       0.77741408       0.91932684 </v>
   <v>       0.11607145       0.36074686       0.47129923 </v>
   <v>       0.11607134       0.61074686       0.56090474 </v>
   <v>       0.11607134       0.86074704       0.65051037 </v>
   <v>       0.11607134       0.11074710       0.74011582 </v>
   <v>       0.11607122       0.36074734       0.82972133 </v>
   <v>       0.11607122       0.61074734       0.91932684 </v>
   <v>       0.44940481       0.69408011       0.47129923 </v>
   <v>       0.44940478       0.94408029       0.56090474 </v>
   <v>       0.44940481       0.19408059       0.65051037 </v>
   <v>       0.44940469       0.44408059       0.74011582 </v>
   <v>       0.44940472       0.69408059       0.82972133 </v>
   <v>       0.44940454       0.94408089       0.91932684 </v>
   <v>       0.78273821       0.02741349       0.47129923 </v>
   <v>       0.78273803       0.27741361       0.56090474 </v>
   <v>       0.78273809       0.52741373       0.65051037 </v>
   <v>       0.78273803       0.77741384       0.74011582 </v>
   <v>       0.78273791       0.02741384       0.82972133 </v>
   <v>       0.78273797       0.27741408       0.91932684 </v>
   <v>       0.19940475       0.19408011       0.47129923 </v>
   <v>       0.19940467       0.44408011       0.56090474 </v>
   <v>       0.19940472       0.69408035       0.65051037 </v>
   <v>       0.19940455       0.94408041       0.74011582 </v>
   <v>       0.19940455       0.19408059       0.82972133 </v>
   <v>       0.19940457       0.44408059       0.91932684 </v>
   <v>       0.53273815       0.52741349       0.47129923 </v>
   <v>       0.53273803       0.77741361       0.56090480 </v>
   <v>       0.53273809       0.02741384       0.65051037 </v>
   <v>       0.53273803       0.27741384       0.74011582 </v>
   <v>       0.53273779       0.52741384       0.82972133 </v>
   <v>       0.53273791       0.77741408       0.91932684 </v>
   <v>       0.86607140       0.86074686       0.47129923 </v>
   <v>       0.86607140       0.11074686       0.56090480 </v>
   <v>       0.86607134       0.36074710       0.65051037 </v>
   <v>       0.86607122       0.61074710       0.74011582 </v>
   <v>       0.86607122       0.86074728       0.82972133 </v>
   <v>       0.86607122       0.11074734       0.91932684 </v>
   <v>       0.19940476       0.69408023       0.47129923 </v>
   <v>       0.19940470       0.94408029       0.56090480 </v>
   <v>       0.19940466       0.19408035       0.65051031 </v>
   <v>       0.19940467       0.44408083       0.74011582 </v>
   <v>       0.19940457       0.69408059       0.82972139 </v>
   <v>       0.19940451       0.94408089       0.91932684 </v>
   <v>       0.53273815       0.02741349       0.47129923 </v>
   <v>       0.53273809       0.27741361       0.56090480 </v>
   <v>       0.53273797       0.52741373       0.65051037 </v>
   <v>       0.53273797       0.77741384       0.74011582 </v>
   <v>       0.53273797       0.02741384       0.82972133 </v>
   <v>       0.53273785       0.27741408       0.91932684 </v>
   <v>       0.86607140       0.36074686       0.47129923 </v>
   <v>       0.86607134       0.61074686       0.56090480 </v>
   <v>       0.86607140       0.86074704       0.65051037 </v>
   <v>       0.86607128       0.11074710       0.74011582 </v>
   <v>       0.86607122       0.36074710       0.82972133 </v>
   <v>       0.86607117       0.61074734       0.91932684 </v>
  </varray>
 </structure>
 <calculation>
  <scstep>
   <time name="dav">   35.50   35.80</time>
   <time name="total">   38.50   38.82</time>
   <energy>
    <i name="alphaZ">    991.21889800 </i>
    <i name="ewald"> -11786.66518712 </i>
    <i name="hartreedc">  -6446.60283755 </i>
    <i name="XCdc">  -9238.41977959 </i>
    <i name="pawpsdc">  22099.84193803 </i>
    <i name="pawaedc"> -11791.56227843 </i>
    <i name="eentropy">     -0.00206554 </i>
    <i name="bandstr">   2777.32259137 </i>
    <i name="atom">  16853.79812076 </i>
    <i name="e_fr_energy">   3458.92939993 </i>
    <i name="e_wo_entrp">   3458.93146547 </i>
    <i name="e_0_energy">   3458.93043270 </i>
   </energy>
  </scstep>
  <scstep>
   <time name="dav">   39.88   40.21</time>
   <time name="total">   39.88   40.22</time>
   <energy>
    <i name="e_fr_energy">   -253.90768108 </i>
    <i name="e_wo_entrp">   -253.90618212 </i>
    <i name="e_0_energy">   -253.90693160 </i>
   </energy>
  </scstep>
  <scstep>
   <time name="dav">   41.28   41.62</time>
   <time name="total">   41.29   41.63</time>
   <energy>
    <i name="e_fr_energy">   -664.36594008 </i>
    <i name="e_wo_entrp">   -664.36450487 </i>
    <i name="e_0_energy">   -664.36522247 </i>
   </energy>
  </scstep>
  <scstep>
   <time name="dav">   41.13   41.48</time>
   <time name="total">   41.14   41.48</time>
   <energy>
    <i name="e_fr_energy">   -681.27013566 </i>
    <i name="e_wo_entrp">   -681.26708430 </i>
    <i name="e_0_energy">   -681.26860998 </i>
   </energy>
  </scstep>
  <scstep>
   <time name="dav">   43.80   44.16</time>
   <time name="total">   46.06   46.45</time>
   <energy>
    <i name="e_fr_energy">   -681.94946123 </i>
    <i name="e_wo_entrp">   -681.94637513 </i>
    <i name="e_0_energy">   -681.94791818 </i>
   </energy>
  </scstep>
  <scstep>
   <time name="dav">   50.02   50.50</time>
   <time name="total">   55.24   55.76</time>
   <energy>
    <i name="e_fr_energy">   -672.44176222 </i>
    <i name="e_wo_entrp">   -672.43975444 </i>
    <i name="e_0_energy">   -672.44075833 </i>
   </energy>
  </scstep>
  <scstep>
   <time name="dav">   47.05   47.45</time>
   <time name="total">   52.30   52.74</time>
   <energy>
    <i name="e_fr_energy">   -675.74100571 </i>
    <i name="e_wo_entrp">   -675.73806397 </i>
    <i name="e_0_energy">   -675.73953484 </i>
   </energy>
  </scstep>
  <scstep>
   <time name="dav">   51.01   51.49</time>
   <time name="total">   56.25   56.77</time>
   <energy>
    <i name="e_fr_energy">   -671.07272381 </i>
    <i name="e_wo_entrp">   -671.06983781 </i>
    <i name="e_0_energy">   -671.07128081 </i>
   </energy>
  </scstep>
  <scstep>
   <time name="dav">   43.35   43.73</time>
   <time name="total">   48.59   49.00</time>
   <energy>
    <i name="e_fr_energy">   -670.46690917 </i>
    <i name="e_wo_entrp">   -670.46523874 </i>
    <i name="e_0_energy">   -670.46607396 </i>
   </energy>
  </scstep>
  <scstep>
   <time name="dav">   39.08   39.42</time>
   <time name="total">   44.34   44.72</time>
   <energy>
    <i name="e_fr_energy">   -670.44856127 </i>
    <i name="e_wo_entrp">   -670.44685431 </i>
    <i name="e_0_energy">   -670.44770779 </i>
   </energy>
  </scstep>
  <scstep>
   <time name="dav">   42.72   43.09</time>
   <time name="total">   47.96   48.37</time>
   <energy>
    <i name="e_fr_energy">   -670.43788634 </i>
    <i name="e_wo_entrp">   -670.43436336 </i>
    <i name="e_0_energy">   -670.43612485 </i>
   </energy>
  </scstep>
  <scstep>
   <time name="dav">   40.10   40.45</time>
   <time name="total">   45.34   45.73</time>
   <energy>
    <i name="e_fr_energy">   -670.44060890 </i>
    <i name="e_wo_entrp">   -670.43793640 </i>
    <i name="e_0_energy">   -670.43927265 </i>
   </energy>
  </scstep>
  <scstep>
   <time name="dav">   39.34   39.69</time>
   <time name="total">   44.58   44.97</time>
   <energy>
    <i name="e_fr_energy">   -670.44166466 </i>
    <i name="e_wo_entrp">   -670.43882186 </i>
    <i name="e_0_energy">   -670.44024326 </i>
   </energy>
  </scstep>
  <scstep>
   <time name="dav">   40.04   40.38</time>
   <time name="total">   45.28   45.67</time>
   <energy>
    <i name="e_fr_energy">   -670.44211802 </i>
    <i name="e_wo_entrp">   -670.43916063 </i>
    <i name="e_0_energy">   -670.44063933 </i>
   </energy>
  </scstep>
  <scstep>
   <time name="dav">   40.19   40.54</time>
   <time name="total">   45.45   45.84</time>
   <energy>
    <i name="e_fr_energy">   -670.44218633 </i>
    <i name="e_wo_entrp">   -670.43931048 </i>
    <i name="e_0_energy">   -670.44074840 </i>
   </energy>
  </scstep>
  <scstep>
   <time name="dav">   38.15   38.48</time>
   <time name="total">   43.42   43.78</time>
   <energy>
    <i name="e_fr_energy">   -670.44225553 </i>
    <i name="e_wo_entrp">   -670.43941097 </i>
    <i name="e_0_energy">   -670.44083325 </i>
   </energy>
  </scstep>
  <scstep>
   <time name="dav">   39.26   39.60</time>
   <time name="total">   44.52   44.89</time>
   <energy>
    <i name="e_fr_energy">   -670.44228122 </i>
    <i name="e_wo_entrp">   -670.43941670 </i>
    <i name="e_0_energy">   -670.44084896 </i>
   </energy>
  </scstep>
  <scstep>
   <time name="dav">   40.46   40.81</time>
   <time name="total">   45.70   46.09</time>
   <energy>
    <i name="e_fr_energy">   -670.44228568 </i>
    <i name="e_wo_entrp">   -670.43943464 </i>
    <i name="e_0_energy">   -670.44086016 </i>
   </energy>
  </scstep>
  <scstep>
   <time name="dav">   40.48   40.82</time>
   <time name="total">   45.73   46.11</time>
   <energy>
    <i name="e_fr_energy">   -670.44229372 </i>
    <i name="e_wo_entrp">   -670.43945632 </i>
    <i name="e_0_energy">   -670.44087502 </i>
   </energy>
  </scstep>
  <scstep>
   <time name="dav">   39.49   39.83</time>
   <time name="total">   44.74   45.12</time>
   <energy>
    <i name="e_fr_energy">   -670.44230361 </i>
    <i name="e_wo_entrp">   -670.43946938 </i>
    <i name="e_0_energy">   -670.44088649 </i>
   </energy>
  </scstep>
  <scstep>
   <time name="dav">   40.72   41.06</time>
   <time name="total">   45.97   46.35</time>
   <energy>
    <i name="e_fr_energy">   -670.44231006 </i>
    <i name="e_wo_entrp">   -670.43947873 </i>
    <i name="e_0_energy">   -670.44089439 </i>
   </energy>
  </scstep>
  <scstep>
   <time name="dav">   40.40   40.73</time>
   <time name="total">   45.66   46.03</time>
   <energy>
    <i name="e_fr_energy">   -670.44231207 </i>
    <i name="e_wo_entrp">   -670.43948827 </i>
    <i name="e_0_energy">   -670.44090017 </i>
   </energy>
  </scstep>
  <scstep>
   <time name="dav">   39.98   40.32</time>
   <time name="total">   45.24   45.61</time>
   <energy>
    <i name="e_fr_energy">   -670.44231280 </i>
    <i name="e_wo_entrp">   -670.43948643 </i>
    <i name="e_0_energy">   -670.44089962 </i>
   </energy>
  </scstep>
  <scstep>
   <time name="dav">   34.98   35.28</time>
   <time name="total">   40.25   40.58</time>
   <energy>
    <i name="e_fr_energy">   -670.44231332 </i>
    <i name="e_wo_entrp">   -670.43948533 </i>
    <i name="e_0_energy">   -670.44089932 </i>
   </energy>
  </scstep>
  <scstep>
   <time name="dav">   25.22   25.43</time>
   <time name="total">   30.48   30.72</time>
   <energy>
    <i name="e_fr_energy">   -670.44231349 </i>
    <i name="e_wo_entrp">   -670.43948608 </i>
    <i name="e_0_energy">   -670.44089979 </i>
   </energy>
  </scstep>
  <scstep>
   <time name="dav">   24.71   24.91</time>
   <time name="total">   27.67   27.89</time>
   <energy>
    <i name="alphaZ">    991.21889800 </i>
    <i name="ewald"> -11786.66518712 </i>
    <i name="hartreedc">  -6705.12442287 </i>
    <i name="XCdc">  -9184.83668906 </i>
    <i name="pawpsdc">  44494.90539013 </i>
    <i name="pawaedc"> -34230.92998531 </i>
    <i name="eentropy">     -0.00282732 </i>
    <i name="bandstr">  -1102.80561074 </i>
    <i name="atom">  16853.79812076 </i>
    <i name="e_fr_energy">   -670.44231352 </i>
    <i name="e_wo_entrp">   -670.43948620 </i>
    <i name="e_0_energy">   -670.44089986 </i>
   </energy>
  </scstep>
  <structure>
   <crystal>
    <varray name="basis" >
     <v>      11.31560040       0.00000000       0.00000000 </v>
     <v>       0.00000000      16.00267601       0.00000000 </v>
     <v>       0.00000000       0.00000000      25.60421562 </v>
    </varray>
    <i name="volume">   4636.40847104 </i>
    <varray name="rec_basis" >
     <v>       0.08837357       0.00000000       0.00000000 </v>
     <v>       0.00000000       0.06248955       0.00000000 </v>
     <v>       0.00000000       0.00000000       0.03905607 </v>
    </varray>
   </crystal>
   <varray name="positions" >
    <v>       0.97066277       0.45599416       0.00000002 </v>
    <v>       0.72066271       0.08099414       0.07812521 </v>
    <v>       0.47066277       0.70599413       0.15625042 </v>
    <v>       0.22066289       0.33099425       0.23437557 </v>
    <v>       0.97066271       0.95599413       0.31250077 </v>
    <v>       0.72066271       0.58099413       0.39062604 </v>
    <v>       0.47066277       0.45599416       0.00000002 </v>
    <v>       0.22066276       0.08099414       0.07812521 </v>
    <v>       0.97066277       0.70599413       0.15625042 </v>
    <v>       0.72066283       0.33099425       0.23437557 </v>
    <v>       0.47066283       0.95599413       0.31250077 </v>
    <v>       0.22066277       0.58099413       0.39062604 </v>
    <v>       0.97066277       0.95599413       0.00000002 </v>
    <v>       0.72066271       0.58099413       0.07812522 </v>
    <v>       0.47066277       0.20599413       0.15625040 </v>
    <v>       0.22066289       0.83099437       0.23437557 </v>
    <v>       0.97066271       0.45599413       0.31250080 </v>
    <v>       0.72066271       0.08099413       0.39062601 </v>
    <v>       0.47066277       0.95599413       0.00000002 </v>
    <v>       0.22066276       0.58099413       0.07812522 </v>
    <v>       0.97066277       0.20599413       0.15625040 </v>
    <v>       0.72066283       0.83099437       0.23437557 </v>
    <v>       0.47066283       0.45599413       0.31250080 </v>
    <v>       0.22066277       0.08099413       0.39062601 </v>
    <v>       0.97066277       0.70599413       0.00000002 </v>
    <v>       0.72066271       0.33099413       0.07812521 </v>
    <v>       0.47066277       0.95599413       0.15625040 </v>
    <v>       0.22066289       0.58099425       0.23437560 </v>
    <v>       0.97066271       0.20599419       0.31250080 </v>
    <v>       0.72066271       0.83099413       0.39062604 </v>
    <v>       0.47066277       0.70599413       0.00000002 </v>
    <v>       0.22066276       0.33099413       0.07812521 </v>
    <v>       0.97066277       0.95599413       0.15625040 </v>
    <v>       0.72066283       0.58099425       0.23437560 </v>
    <v>       0.47066283       0.20599419       0.31250080 </v>
    <v>       0.22066277       0.83099413       0.39062604 </v>
    <v>       0.97066277       0.20599414       0.00000002 </v>
    <v>       0.72066271       0.83099413       0.07812521 </v>
    <v>       0.47066277       0.45599413       0.15625040 </v>
    <v>       0.22066289       0.08099425       0.23437560 </v>
    <v>       0.97066271       0.70599425       0.31250077 </v>
    <v>       0.72066271       0.33099413       0.39062601 </v>
    <v>       0.47066277       0.20599414       0.00000002 </v>
    <v>       0.22066276       0.83099413       0.07812521 </v>
    <v>       0.97066277       0.45599413       0.15625040 </v>
    <v>       0.72066283       0.08099425       0.23437560 </v>
    <v>       0.47066283       0.70599425       0.31250077 </v>
    <v>       0.22066277       0.33099413       0.39062601 </v>
    <v>       0.34566274       0.58099419       0.00000003 </v>
    <v>       0.09566276       0.20599416       0.07812521 </v>
    <v>       0.84566277       0.83099413       0.15625040 </v>
    <v>       0.59566283       0.45599425       0.23437557 </v>
    <v>       0.34566277       0.08099419       0.31250080 </v>
    <v>       0.09566271       0.70599413       0.39062604 </v>
    <v>       0.84566283       0.58099419       0.00000003 </v>
    <v>       0.59566277       0.20599416       0.07812521 </v>
    <v>       0.34566280       0.83099413       0.15625040 </v>
    <v>       0.09566288       0.45599425       0.23437557 </v>
    <v>       0.84566283       0.08099419       0.31250080 </v>
    <v>       0.59566277       0.70599413       0.39062604 </v>
    <v>       0.34566274       0.08099414       0.00000001 </v>
    <v>       0.09566276       0.70599413       0.07812521 </v>
    <v>       0.84566277       0.33099413       0.15625040 </v>
    <v>       0.59566283       0.95599425       0.23437560 </v>
    <v>       0.34566277       0.58099425       0.31250077 </v>
    <v>       0.09566271       0.20599401       0.39062601 </v>
    <v>       0.84566283       0.08099414       0.00000001 </v>
    <v>       0.59566277       0.70599413       0.07812521 </v>
    <v>       0.34566280       0.33099413       0.15625040 </v>
    <v>       0.09566288       0.95599425       0.23437560 </v>
    <v>       0.84566283       0.58099425       0.31250077 </v>
    <v>       0.59566277       0.20599401       0.39062601 </v>
    <v>       0.34566274       0.83099419       0.00000000 </v>
    <v>       0.09566276       0.45599419       0.07812521 </v>
    <v>       0.84566277       0.08099417       0.15625040 </v>
    <v>       0.59566283       0.70599431       0.23437557 </v>
    <v>       0.34566277       0.33099425       0.31250077 </v>
    <v>       0.09566271       0.95599413       0.39062598 </v>
    <v>       0.84566283       0.83099419       0.00000000 </v>
    <v>       0.59566277       0.45599419       0.07812521 </v>
    <v>       0.34566280       0.08099417       0.15625040 </v>
    <v>       0.09566288       0.70599431       0.23437557 </v>
    <v>       0.84566283       0.33099425       0.31250077 </v>
    <v>       0.59566277       0.95599413       0.39062598 </v>
    <v>       0.34566274       0.33099413       0.00000002 </v>
    <v>       0.09566276       0.95599413       0.07812522 </v>
    <v>       0.84566277       0.58099413       0.15625040 </v>
    <v>       0.59566283       0.20599425       0.23437560 </v>
    <v>       0.34566277       0.83099413       0.31250077 </v>
    <v>       0.09566271       0.45599413       0.39062601 </v>
    <v>       0.84566283       0.33099413       0.00000002 </v>
    <v>       0.59566277       0.95599413       0.07812522 </v>
    <v>       0.34566280       0.58099413       0.15625040 </v>
    <v>       0.09566288       0.20599425       0.23437560 </v>
    <v>       0.84566283       0.83099413       0.31250077 </v>
    <v>       0.59566277       0.45599413       0.39062601 </v>
    <v>       0.11607143       0.86074680       0.47129923 </v>
    <v>       0.11607134       0.11074686       0.56090480 </v>
    <v>       0.11607134       0.36074710       0.65051037 </v>
    <v>       0.11607122       0.61074722       0.74011582 </v>
    <v>       0.11607122       0.86074728       0.82972133 </v>
    <v>       0.11607122       0.11074734       0.91932684 </v>
    <v>       0.44940481       0.19408011       0.47129923 </v>
    <v>       0.44940475       0.44408011       0.56090480 </v>
    <v>       0.44940475       0.69408035       0.65051037 </v>
    <v>       0.44940466       0.94408053       0.74011582 </v>
    <v>       0.44940466       0.19408059       0.82972133 </v>
    <v>       0.44940460       0.44408083       0.91932684 </v>
    <v>       0.78273815       0.52741361       0.47129923 </v>
    <v>       0.78273809       0.77741361       0.56090480 </v>
    <v>       0.78273821       0.02741384       0.65051037 </v>
    <v>       0.78273791       0.27741384       0.74011582 </v>
    <v>       0.78273797       0.52741384       0.82972133 </v>
    <v>       0.78273797       0.77741408       0.91932684 </v>
    <v>       0.11607145       0.36074686       0.47129923 </v>
    <v>       0.11607134       0.61074686       0.56090474 </v>
    <v>       0.11607134       0.86074704       0.65051037 </v>
    <v>       0.11607134       0.11074710       0.74011582 </v>
    <v>       0.11607122       0.36074734       0.82972133 </v>
    <v>       0.11607122       0.61074734       0.91932684 </v>
    <v>       0.44940481       0.69408011       0.47129923 </v>
    <v>       0.44940478       0.94408029       0.56090474 </v>
    <v>       0.44940481       0.19408059       0.65051037 </v>
    <v>       0.44940469       0.44408059       0.74011582 </v>
    <v>       0.44940472       0.69408059       0.82972133 </v>
    <v>       0.44940454       0.94408089       0.91932684 </v>
    <v>       0.78273821       0.02741349       0.47129923 </v>
    <v>       0.78273803       0.27741361       0.56090474 </v>
    <v>       0.78273809       0.52741373       0.65051037 </v>
    <v>       0.78273803       0.77741384       0.74011582 </v>
    <v>       0.78273791       0.02741384       0.82972133 </v>
    <v>       0.78273797       0.27741408       0.91932684 </v>
    <v>       0.19940475       0.19408011       0.47129923 </v>
    <v>       0.19940467       0.44408011       0.56090474 </v>
    <v>       0.19940472       0.69408035       0.65051037 </v>
    <v>       0.19940455       0.94408041       0.74011582 </v>
    <v>       0.19940455       0.19408059       0.82972133 </v>
    <v>       0.19940457       0.44408059       0.91932684 </v>
    <v>       0.53273815       0.52741349       0.47129923 </v>
    <v>       0.53273803       0.77741361       0.56090480 </v>
    <v>       0.53273809       0.02741384       0.65051037 </v>
    <v>       0.53273803       0.27741384       0.74011582 </v>
    <v>       0.53273779       0.52741384       0.82972133 </v>
    <v>       0.53273791       0.77741408       0.91932684 </v>
    <v>       0.86607140       0.86074686       0.47129923 </v>
    <v>       0.86607140       0.11074686       0.56090480 </v>
    <v>       0.86607134       0.36074710       0.65051037 </v>
    <v>       0.86607122       0.61074710       0.74011582 </v>
    <v>       0.86607122       0.86074728       0.82972133 </v>
    <v>       0.86607122       0.11074734       0.91932684 </v>
    <v>       0.19940476       0.69408023       0.47129923 </v>
    <v>       0.19940470       0.94408029       0.56090480 </v>
    <v>       0.19940466       0.19408035       0.65051031 </v>
    <v>       0.19940467       0.44408083       0.74011582 </v>
    <v>       0.19940457       0.69408059       0.82972139 </v>
    <v>       0.19940451       0.94408089       0.91932684 </v>
    <v>       0.53273815       0.02741349       0.47129923 </v>
    <v>       0.53273809       0.27741361       0.56090480 </v>
    <v>       0.53273797       0.52741373       0.65051037 </v>
    <v>       0.53273797       0.77741384       0.74011582 </v>
    <v>       0.53273797       0.02741384       0.82972133 </v>
    <v>       0.53273785       0.27741408       0.91932684 </v>
    <v>       0.86607140       0.36074686       0.47129923 </v>
    <v>       0.86607134       0.61074686       0.56090480 </v>
    <v>       0.86607140       0.86074704       0.65051037 </v>
    <v>       0.86607128       0.11074710       0.74011582 </v>
    <v>       0.86607122       0.36074710       0.82972133 </v>
    <v>       0.86607117       0.61074734       0.91932684 </v>
   </varray>
  </structure>
  <varray name="forces" >
   <v>       0.97658877      -0.27771476      -0.20937824 </v>
   <v>      -0.09797449      -0.03478883      -0.17415401 </v>
   <v>      -0.04416775       0.00191836       0.01221439 </v>
   <v>      -0.11046831       0.02481707       0.06094960 </v>
   <v>      -0.22872064      -0.07182926       0.11085460 </v>
   <v>      -0.00464171       1.24981493      -3.38898704 </v>
   <v>       1.53861214       1.40348286      10.59849287 </v>
   <v>      -0.10487018       0.17668789       0.02538567 </v>
   <v>      -0.07165898       0.05437055      -0.07762340 </v>
   <v>      -0.00617354       0.00124263      -0.05691633 </v>
   <v>      -0.01866208      -0.05643549      -0.06865348 </v>
   <v>       0.51523762      -0.59436208      -0.18330142 </v>
   <v>       0.97658877      -0.27771476      -0.20937824 </v>
   <v>      -0.09797449      -0.03478883      -0.17415401 </v>
   <v>      -0.04416775       0.00191836       0.01221439 </v>
   <v>      -0.11046831       0.02481707       0.06094960 </v>
   <v>      -0.22872064      -0.07182926       0.11085460 </v>
   <v>      -0.00464171       1.24981493      -3.38898704 </v>
   <v>       1.53861214       1.40348286      10.59849287 </v>
   <v>      -0.10487018       0.17668789       0.02538567 </v>
   <v>      -0.07165898       0.05437055      -0.07762340 </v>
   <v>      -0.00617354       0.00124263      -0.05691633 </v>
   <v>      -0.01866208      -0.05643549      -0.06865348 </v>
   <v>       0.51523762      -0.59436208      -0.18330142 </v>
   <v>       1.64767681       0.28086985       0.97669170 </v>
   <v>       0.00231946      -0.10307822       0.02714845 </v>
   <v>      -0.05964019       0.01687799       0.04275150 </v>
   <v>      -0.03292566       0.02324751       0.05320876 </v>
   <v>      -0.34538039      -0.06289578       0.12606483 </v>
   <v>       0.32773688      -0.16152709       0.21659256 </v>
   <v>      -0.40126506      -0.72893961       1.07999177 </v>
   <v>      -0.21017066       0.12154072       0.08998560 </v>
   <v>      -0.05017333       0.04014923      -0.07532581 </v>
   <v>      -0.01468954       0.04177367      -0.06345518 </v>
   <v>       0.08570102      -0.03794758      -0.16529765 </v>
   <v>       1.90527944      -0.32562011      -2.82789492 </v>
   <v>       1.64767681       0.28086985       0.97669170 </v>
   <v>       0.00231946      -0.10307822       0.02714845 </v>
   <v>      -0.05964019       0.01687799       0.04275150 </v>
   <v>      -0.03292566       0.02324751       0.05320876 </v>
   <v>      -0.34538039      -0.06289578       0.12606483 </v>
   <v>       0.32773688      -0.16152709       0.21659256 </v>
   <v>      -0.40126506      -0.72893961       1.07999177 </v>
   <v>      -0.21017066       0.12154072       0.08998560 </v>
   <v>      -0.05017333       0.04014923      -0.07532581 </v>
   <v>      -0.01468954       0.04177367      -0.06345518 </v>
   <v>       0.08570102      -0.03794758      -0.16529765 </v>
   <v>       1.90527944      -0.32562011      -2.82789492 </v>
   <v>      -0.86147688       0.40964247       0.00997268 </v>
   <v>       0.23166371      -0.10714078       0.16017883 </v>
   <v>       0.03512145      -0.02353270       0.03584228 </v>
   <v>       0.04406006      -0.06001036      -0.02390318 </v>
   <v>       0.16552448      -0.01720690       0.15838483 </v>
   <v>      -2.04681282      -0.05153879      -3.03347279 </v>
   <v>      -1.26845176      -2.31834841       8.47747580 </v>
   <v>       0.00749860       0.07432695       0.02397677 </v>
   <v>       0.05750900      -0.07108179      -0.06743217 </v>
   <v>       0.08086065      -0.01955344       0.08321874 </v>
   <v>       0.04462922       0.12962658      -0.02200530 </v>
   <v>      -0.17610245       0.32653674       0.02351957 </v>
   <v>      -0.86147688       0.40964247       0.00997268 </v>
   <v>       0.23166371      -0.10714078       0.16017883 </v>
   <v>       0.03512145      -0.02353270       0.03584228 </v>
   <v>       0.04406006      -0.06001036      -0.02390318 </v>
   <v>       0.16552448      -0.01720690       0.15838483 </v>
   <v>      -2.04681282      -0.05153879      -3.03347279 </v>
   <v>      -1.26845176      -2.31834841       8.47747580 </v>
   <v>       0.00749860       0.07432695       0.02397677 </v>
   <v>       0.05750900      -0.07108179      -0.06743217 </v>
   <v>       0.08086065      -0.01955344       0.08321874 </v>
   <v>       0.04462922       0.12962658      -0.02200530 </v>
   <v>      -0.17610245       0.32653674       0.02351957 </v>
   <v>      -1.50557910      -0.04147252       0.61179082 </v>
   <v>       0.01689641      -0.13946861       0.07538574 </v>
   <v>       0.04662587      -0.02746485       0.05170794 </v>
   <v>       0.03135600       0.01317751      -0.01624433 </v>
   <v>       0.41636832       0.11350995       0.11435109 </v>
   <v>      -0.38115622       1.17918394      -0.79617006 </v>
   <v>       1.04833715       1.32339458       2.57139321 </v>
   <v>       0.10299087       0.08352162      -0.23850064 </v>
   <v>       0.04939725      -0.03067960      -0.07352660 </v>
   <v>       0.11485785      -0.01335762       0.05400912 </v>
   <v>      -0.08099673       0.06735049      -0.15452187 </v>
   <v>      -0.40425180      -0.75325742      -1.80299117 </v>
   <v>      -1.50557910      -0.04147252       0.61179082 </v>
   <v>       0.01689641      -0.13946861       0.07538574 </v>
   <v>       0.04662587      -0.02746485       0.05170794 </v>
   <v>       0.03135600       0.01317751      -0.01624433 </v>
   <v>       0.41636832       0.11350995       0.11435109 </v>
   <v>      -0.38115622       1.17918394      -0.79617006 </v>
   <v>       1.04833715       1.32339458       2.57139321 </v>
   <v>       0.10299087       0.08352162      -0.23850064 </v>
   <v>       0.04939725      -0.03067960      -0.07352660 </v>
   <v>       0.11485785      -0.01335762       0.05400912 </v>
   <v>      -0.08099673       0.06735049      -0.15452187 </v>
   <v>      -0.40425180      -0.75325742      -1.80299117 </v>
   <v>      -1.22818765       1.10014946       3.42329059 </v>
   <v>      -0.11609177      -0.15224130       0.22190736 </v>
   <v>      -0.09908875      -0.02556216      -0.01576311 </v>
   <v>      -0.05797391      -0.06660578       0.01483997 </v>
   <v>      -0.12635862      -0.09760290      -0.08999747 </v>
   <v>       0.56820487       0.60161207       0.41646416 </v>
   <v>       0.20213690       0.05378081      -0.04347189 </v>
   <v>      -0.07089955      -0.12599029      -0.14127369 </v>
   <v>      -0.02314453      -0.03699590      -0.01044225 </v>
   <v>      -0.00619751      -0.04497599       0.01918366 </v>
   <v>      -0.01222009      -0.08988195       0.02662888 </v>
   <v>      -0.22553269      -0.66409186     -10.90288439 </v>
   <v>       1.59005708      -0.65298201       3.56318939 </v>
   <v>      -0.05584023      -0.04326048       0.09877586 </v>
   <v>      -0.01722569      -0.05108442       0.01199861 </v>
   <v>      -0.05453118      -0.03476152       0.01949753 </v>
   <v>      -0.01069000      -0.09556383      -0.08935018 </v>
   <v>      -1.40969976      -0.68910650      -3.43891169 </v>
   <v>      -1.22818765       1.10014946       3.42329059 </v>
   <v>      -0.11609177      -0.15224130       0.22190736 </v>
   <v>      -0.09908875      -0.02556216      -0.01576311 </v>
   <v>      -0.05797391      -0.06660578       0.01483997 </v>
   <v>      -0.12635862      -0.09760290      -0.08999747 </v>
   <v>       0.56820487       0.60161207       0.41646416 </v>
   <v>       0.20213690       0.05378081      -0.04347189 </v>
   <v>      -0.07089955      -0.12599029      -0.14127369 </v>
   <v>      -0.02314453      -0.03699590      -0.01044225 </v>
   <v>      -0.00619751      -0.04497599       0.01918366 </v>
   <v>      -0.01222009      -0.08988195       0.02662888 </v>
   <v>      -0.22553269      -0.66409186     -10.90288439 </v>
   <v>       1.59005708      -0.65298201       3.56318939 </v>
   <v>      -0.05584023      -0.04326048       0.09877586 </v>
   <v>      -0.01722569      -0.05108442       0.01199861 </v>
   <v>      -0.05453118      -0.03476152       0.01949753 </v>
   <v>      -0.01069000      -0.09556383      -0.08935018 </v>
   <v>      -1.40969976      -0.68910650      -3.43891169 </v>
   <v>       1.32608182      -1.28498892       3.18509778 </v>
   <v>       0.12933723       0.16342211       0.13367714 </v>
   <v>       0.08384947       0.02641445      -0.00807159 </v>
   <v>       0.04137154       0.05890515       0.00433811 </v>
   <v>       0.12892182       0.16584452      -0.03886409 </v>
   <v>      -0.78557959      -0.64405887       0.57722192 </v>
   <v>      -1.20895376       0.02564855       2.22437697 </v>
   <v>       0.05726418       0.08362767       0.13178577 </v>
   <v>      -0.02694215       0.04251945       0.02590273 </v>
   <v>       0.01883917       0.00291344       0.00287359 </v>
   <v>       0.02210439       0.07922980      -0.07551517 </v>
   <v>       0.91654242      -0.00122494      -2.12819330 </v>
   <v>      -0.38264353      -0.21879476      -0.05728634 </v>
   <v>       0.08178532       0.11973239      -0.16457393 </v>
   <v>       0.01604339       0.02197194       0.00617640 </v>
   <v>      -0.01001483       0.04161833       0.00975043 </v>
   <v>       0.03613890       0.08192458       0.04379531 </v>
   <v>      -0.25730141       1.32264813      -9.30795717 </v>
   <v>       1.32608182      -1.28498892       3.18509778 </v>
   <v>       0.12933723       0.16342211       0.13367714 </v>
   <v>       0.08384947       0.02641445      -0.00807159 </v>
   <v>       0.04137154       0.05890515       0.00433811 </v>
   <v>       0.12892182       0.16584452      -0.03886409 </v>
   <v>      -0.78557959      -0.64405887       0.57722192 </v>
   <v>      -1.20895376       0.02564855       2.22437697 </v>
   <v>       0.05726418       0.08362767       0.13178577 </v>
   <v>      -0.02694215       0.04251945       0.02590273 </v>
   <v>       0.01883917       0.00291344       0.00287359 </v>
   <v>       0.02210439       0.07922980      -0.07551517 </v>
   <v>       0.91654242      -0.00122494      -2.12819330 </v>
   <v>      -0.38264353      -0.21879476      -0.05728634 </v>
   <v>       0.08178532       0.11973239      -0.16457393 </v>
   <v>       0.01604339       0.02197194       0.00617640 </v>
   <v>      -0.01001483       0.04161833       0.00975043 </v>
   <v>       0.03613890       0.08192458       0.04379531 </v>
   <v>      -0.25730141       1.32264813      -9.30795717 </v>
  </varray>
  <varray name="stress" >
   <v>      45.12913412       3.69301724       2.24697553 </v>
   <v>       3.69301507      45.87916365      -1.44879517 </v>
   <v>       2.24697463      -1.44879482      90.16195436 </v>
  </varray>
  <energy>
   <i name="e_fr_energy">   -670.44231352 </i>
   <i name="e_wo_entrp">   -670.43948620 </i>
   <i name="e_0_energy">   -670.44089986 </i>
  </energy>
  <time name="totalsc"> 1228.99 1239.98</time>
  <eigenvalues>
   <array>
    <dimension dim="1">band</dimension>
    <dimension dim="2">kpoint</dimension>
    <dimension dim="3">spin</dimension>
    <field>eigene</field>
    <field>occ</field>
    <set>
     <set comment="spin 1">
      <set comment="kpoint 1">
       <r>   -9.1288    1.0000 </r>
       <r>   -8.9188    1.0000 </r>
       <r>   -8.7030    1.0000 </r>
       <r>   -8.6925    1.0000 </r>
       <r>   -8.6188    1.0000 </r>
       <r>   -8.5836    1.0000 </r>
       <r>   -8.5173    1.0000 </r>
       <r>   -8.4706    1.0000 </r>
       <r>   -8.3681    1.0000 </r>
       <r>   -8.2395    1.0000 </r>
       <r>   -8.1152    1.0000 </r>
       <r>   -7.9324    1.0000 </r>
       <r>   -7.9276    1.0000 </r>
       <r>   -7.8209    1.0000 </r>
       <r>   -7.7592    1.0000 </r>
       <r>   -7.6833    1.0000 </r>
       <r>   -7.5999    1.0000 </r>
       <r>   -7.5708    1.0000 </r>
       <r>   -7.4887    1.0000 </r>
       <r>   -7.4453    1.0000 </r>
       <r>   -7.4288    1.0000 </r>
       <r>   -7.4183    1.0000 </r>
       <r>   -7.3577    1.0000 </r>
       <r>   -7.2785    1.0000 </r>
       <r>   -7.2056    1.0000 </r>
       <r>   -7.1588    1.0000 </r>
       <r>   -7.0304    1.0000 </r>
       <r>   -7.0091    1.0000 </r>
       <r>   -6.9944    1.0000 </r>
       <r>   -6.9756    1.0000 </r>
       <r>   -6.9234    1.0000 </r>
       <r>   -6.9039    1.0000 </r>
       <r>   -6.8473    1.0000 </r>
       <r>   -6.8188    1.0000 </r>
       <r>   -6.8119    1.0000 </r>
       <r>   -6.7505    1.0000 </r>
       <r>   -6.6979    1.0000 </r>
       <r>   -6.6425    1.0000 </r>
       <r>   -6.5959    1.0000 </r>
       <r>   -6.3940    1.0000 </r>
       <r>   -6.3144    1.0000 </r>
       <r>   -6.3064    1.0000 </r>
       <r>   -6.2965    1.0000 </r>
       <r>   -6.2036    1.0000 </r>
       <r>   -6.1996    1.0000 </r>
       <r>   -6.0623    1.0000 </r>
       <r>   -5.9778    1.0000 </r>
       <r>   -5.9534    1.0000 </r>
       <r>   -5.8631    1.0000 </r>
       <r>   -5.8528    1.0000 </r>
       <r>   -5.7390    1.0000 </r>
       <r>   -5.7331    1.0000 </r>
       <r>   -5.6899    1.0000 </r>
       <r>   -5.6672    1.0000 </r>
       <r>   -5.5804    1.0000 </r>
       <r>   -5.5694    1.0000 </r>
       <r>   -5.5647    1.0000 </r>
       <r>   -5.5104    1.0000 </r>
       <r>   -5.4552    1.0000 </r>
       <r>   -5.4312    1.0000 </r>
       <r>   -5.3896    1.0000 </r>
       <r>   -5.3757    1.0000 </r>
       <r>   -5.3571    1.0000 </r>
       <r>   -5.3421    1.0000 </r>
       <r>   -5.3270    1.0000 </r>
       <r>   -5.2783    1.0000 </r>
       <r>   -5.2285    1.0000 </r>
       <r>   -5.2117    1.0000 </r>
       <r>   -5.2050    1.0000 </r>
       <r>   -5.1595    1.0000 </r>
       <r>   -5.1055    1.0000 </r>
       <r>   -5.0919    1.0000 </r>
       <r>   -5.0761    1.0000 </r>
       <r>   -5.0743    1.0000 </r>
       <r>   -5.0637    1.0000 </r>
       <r>   -5.0303    1.0000 </r>
       <r>   -4.9753    1.0000 </r>
       <r>   -4.9116    1.0000 </r>
       <r>   -4.8668    1.0000 </r>
       <r>   -4.8597    1.0000 </r>
       <r>   -4.8180    1.0000 </r>
       <r>   -4.7836    1.0000 </r>
       <r>   -4.7456    1.0000 </r>
       <r>   -4.7267    1.0000 </r>
       <r>   -4.5858    1.0000 </r>
       <r>   -4.5842    1.0000 </r>
       <r>   -4.5359    1.0000 </r>
       <r>   -4.5241    1.0000 </r>
       <r>   -4.5035    1.0000 </r>
       <r>   -4.4649    1.0000 </r>
       <r>   -4.4582    1.0000 </r>
       <r>   -4.4106    1.0000 </r>
       <r>   -4.3761    1.0000 </r>
       <r>   -4.3447    1.0000 </r>
       <r>   -4.1585    1.0000 </r>
       <r>   -4.1315    1.0000 </r>
       <r>   -4.0846    1.0000 </r>
       <r>   -4.0809    1.0000 </r>
       <r>   -4.0547    1.0000 </r>
       <r>   -3.9618    1.0000 </r>
       <r>   -3.9273    1.0000 </r>
       <r>   -3.9006    1.0000 </r>
       <r>   -3.8769    1.0000 </r>
       <r>   -3.8761    1.0000 </r>
[...]
       <r>    -3.1235    33.3421   239.0352 </r>
       <r>    -3.0691    31.3229   240.7396 </r>
       <r>    -3.0147    40.1824   242.9261 </r>
       <r>    -2.9603    60.8153   246.2352 </r>
       <r>    -2.9059    86.5735   250.9460 </r>
       <r>    -2.8515    25.6948   252.3441 </r>
       <r>    -2.7970    32.8040   254.1291 </r>
       <r>    -2.7426    42.8642   256.4615 </r>
       <r>    -2.6882    43.3613   258.8209 </r>
       <r>    -2.6338    34.6187   260.7048 </r>
       <r>    -2.5794    79.1761   265.0130 </r>
       <r>    -2.5250    69.7696   268.8094 </r>
       <r>    -2.4706    45.6811   271.2951 </r>
       <r>    -2.4162    30.3354   272.9457 </r>
       <r>    -2.3617    61.6798   276.3020 </r>
       <r>    -2.3073    51.8306   279.1223 </r>
       <r>    -2.2529    28.8734   280.6934 </r>
       <r>    -2.1985    54.5853   283.6636 </r>
       <r>    -2.1441    36.8484   285.6686 </r>
       <r>    -2.0897    13.7681   286.4178 </r>
       <r>    -2.0353    47.1345   288.9825 </r>
       <r>    -1.9808    47.7058   291.5784 </r>
       <r>    -1.9264     7.4696   291.9849 </r>
       <r>    -1.8720    30.9936   293.6714 </r>
       <r>    -1.8176    52.2358   296.5137 </r>
       <r>    -1.7632    36.8421   298.5185 </r>
       <r>    -1.7088    45.4956   300.9940 </r>
       <r>    -1.6544    31.7212   302.7202 </r>
       <r>    -1.6000    33.8134   304.5601 </r>
       <r>    -1.5455    27.6502   306.0647 </r>
       <r>    -1.4911    41.3332   308.3137 </r>
       <r>    -1.4367    28.2009   309.8483 </r>
       <r>    -1.3823    39.2295   311.9829 </r>
       <r>    -1.3279     6.4816   312.3356 </r>
       <r>    -1.2735    18.9830   313.3685 </r>
       <r>    -1.2191    11.6054   314.0000 </r>
       <r>    -1.1646    17.2714   314.9398 </r>
       <r>    -1.1102    25.7382   316.3403 </r>
       <r>    -1.0558     7.8920   316.7697 </r>
       <r>    -1.0014    22.4129   317.9893 </r>
       <r>    -0.9470    21.2835   319.1474 </r>
       <r>    -0.8926    37.7554   321.2018 </r>
       <r>    -0.8382     2.9591   321.3628 </r>
       <r>    -0.7838    18.1048   322.3479 </r>
       <r>    -0.7293    32.6837   324.1264 </r>
       <r>    -0.6749    39.4105   326.2708 </r>
       <r>    -0.6205    37.9132   328.3338 </r>
       <r>    -0.5661    64.6584   331.8521 </r>
       <r>    -0.5117    52.4693   334.7071 </r>
       <r>    -0.4573    68.2476   338.4207 </r>
       <r>    -0.4029    74.8195   342.4919 </r>
       <r>    -0.3484    61.1828   345.8211 </r>
       <r>    -0.2940    89.3240   350.6815 </r>
       <r>    -0.2396    55.5602   353.7047 </r>
       <r>    -0.1852    91.4747   358.6822 </r>
       <r>    -0.1308    57.5635   361.8144 </r>
       <r>    -0.0764    66.2672   365.4202 </r>
       <r>    -0.0220    73.5016   369.4197 </r>
       <r>     0.0324    92.7888   374.4686 </r>
       <r>     0.0869    56.8607   377.5626 </r>
       <r>     0.1413    95.3121   382.7489 </r>
       <r>     0.1957    66.3312   386.3582 </r>
       <r>     0.2501    93.0750   391.4228 </r>
       <r>     0.3045    79.5299   395.7503 </r>
       <r>     0.3589    98.8389   401.1285 </r>
       <r>     0.4133    97.4953   406.4335 </r>
       <r>     0.4678   106.3245   412.2190 </r>
       <r>     0.5222    96.1980   417.4535 </r>
       <r>     0.5766   132.3496   424.6551 </r>
       <r>     0.6310   106.4712   430.4486 </r>
       <r>     0.6854   133.7926   437.7287 </r>
       <r>     0.7398   173.2430   447.1555 </r>
       <r>     0.7942    72.7154   451.1122 </r>
       <r>     0.8486   101.2379   456.6209 </r>
       <r>     0.9031   116.6100   462.9661 </r>
       <r>     0.9575   106.0723   468.7379 </r>
       <r>     1.0119    84.2102   473.3200 </r>
       <r>     1.0663    74.6497   477.3820 </r>
       <r>     1.1207   130.0183   484.4568 </r>
       <r>     1.1751   104.2288   490.1282 </r>
       <r>     1.2295   106.0267   495.8975 </r>
       <r>     1.2840   153.9374   504.2738 </r>
       <r>     1.3384   115.0276   510.5328 </r>
       <r>     1.3928    93.1389   515.6008 </r>
       <r>     1.4472   112.7412   521.7354 </r>
       <r>     1.5016   119.6833   528.2478 </r>
       <r>     1.5560   123.1018   534.9462 </r>
       <r>     1.6104   102.4863   540.5230 </r>
       <r>     1.6648   101.9101   546.0682 </r>
       <r>     1.7193   115.3742   552.3461 </r>
       <r>     1.7737    97.0089   557.6247 </r>
       <r>     1.8281   132.1052   564.8130 </r>
       <r>     1.8825   100.4068   570.2765 </r>
       <r>     1.9369    61.9340   573.6465 </r>
       <r>     1.9913   119.9736   580.1747 </r>
       <r>     2.0457    94.1733   585.2990 </r>
       <r>     2.1002    96.8286   590.5677 </r>
       <r>     2.1546    68.9741   594.3210 </r>
       <r>     2.2090    99.5206   599.7362 </r>
       <r>     2.2634    93.0209   604.7978 </r>
       <r>     2.3178    75.1804   608.8886 </r>
       <r>     2.3722    71.1026   612.7575 </r>
       <r>     2.4266    59.5136   615.9959 </r>
       <r>     2.4810    64.0172   619.4794 </r>
       <r>     2.5355    90.2078   624.3879 </r>
       <r>     2.5899    95.8099   629.6013 </r>
       <r>     2.6443    47.5007   632.1860 </r>
       <r>     2.6987    61.1888   635.5154 </r>
       <r>     2.7531    83.8867   640.0800 </r>
       <r>     2.8075    57.7536   643.2226 </r>
       <r>     2.8619    60.1167   646.4937 </r>
       <r>     2.9164    50.9148   649.2642 </r>
       <r>     2.9708    26.2339   650.6917 </r>
       <r>     3.0252    70.2356   654.5135 </r>
       <r>     3.0796    51.0609   657.2919 </r>
       <r>     3.1340    31.5511   659.0087 </r>
       <r>     3.1884    28.5655   660.5631 </r>
       <r>     3.2428    66.4989   664.1815 </r>
       <r>     3.2972    54.8924   667.1684 </r>
       <r>     3.3517    32.1994   668.9204 </r>
       <r>     3.4061    31.0751   670.6113 </r>
       <r>     3.4605    25.6520   672.0071 </r>
       <r>     3.5149    25.8904   673.4159 </r>
       <r>     3.5693    21.7178   674.5977 </r>
       <r>     3.6237    62.8355   678.0168 </r>
       <r>     3.6781    36.8042   680.0194 </r>
       <r>     3.7326    50.4995   682.7673 </r>
       <r>     3.7870     4.2773   683.0000 </r>
       <r>     3.8414    16.2492   683.8842 </r>
       <r>     3.8958     7.3849   684.2861 </r>
       <r>     3.9502    37.6242   686.3333 </r>
       <r>     4.0046     0.0000   686.3333 </r>
       <r>     4.0590    26.6756   687.7848 </r>
       <r>     4.1134    10.3183   688.3463 </r>
       <r>     4.1679    39.0973   690.4737 </r>
       <r>     4.2223    58.1629   693.6386 </r>
       <r>     4.2767    30.0198   695.2721 </r>
       <r>     4.3311     1.1256   695.3333 </r>
       <r>     4.3855    43.7830   697.7157 </r>
       <r>     4.4399    50.3656   700.4563 </r>
       <r>     4.4943    63.0169   703.8852 </r>
       <r>     4.5488    50.9477   706.6575 </r>
       <r>     4.6032    85.4954   711.3096 </r>
       <r>     4.6576    79.3561   715.6276 </r>
       <r>     4.7120    46.9257   718.1811 </r>
       <r>     4.7664   107.0801   724.0078 </r>
       <r>     4.8208    84.6208   728.6123 </r>
       <r>     4.8752    56.0035   731.6596 </r>
       <r>     4.9296   105.8387   737.4187 </r>
       <r>     4.9841    96.6627   742.6784 </r>
       <r>     5.0385   101.1009   748.1796 </r>
       <r>     5.0929   102.9947   753.7839 </r>
       <r>     5.1473   119.4553   760.2839 </r>
       <r>     5.2017    92.9772   765.3431 </r>
       <r>     5.2561   107.8437   771.2114 </r>
       <r>     5.3105    81.2671   775.6335 </r>
       <r>     5.3650    97.0385   780.9137 </r>
       <r>     5.4194   119.5499   787.4188 </r>
       <r>     5.4738   112.7974   793.5565 </r>
       <r>     5.5282   128.0204   800.5225 </r>
       <r>     5.5826    69.1691   804.2862 </r>
       <r>     5.6370    35.7552   806.2318 </r>
       <r>     5.6914    20.2757   807.3350 </r>
       <r>     5.7458    12.2204   808.0000 </r>
       <r>     5.8003     0.0000   808.0000 </r>
       <r>     5.8547     0.0000   808.0000 </r>
       <r>     5.9091     0.0000   808.0000 </r>
       <r>     5.9635     0.0000   808.0000 </r>
       <r>     6.0179     0.0000   808.0000 </r>
       <r>     6.0723     0.0000   808.0000 </r>
       <r>     6.1267     0.0000   808.0000 </r>
       <r>     6.1812     0.0000   808.0000 </r>
       <r>     6.2356     0.0000   808.0000 </r>
       <r>     6.2900     0.0000   808.0000 </r>
       <r>     6.3444     0.0000   808.0000 </r>
       <r>     6.3988     0.0000   808.0000 </r>
       <r>     6.4532     0.0000   808.0000 </r>
      </set>
     </set>
    </array>
   </total>
  </dos>
 </calculation>
 <structure name="finalpos" >
  <crystal>
   <varray name="basis" >
    <v>      11.31560040       0.00000000       0.00000000 </v>
    <v>       0.00000000      16.00267601       0.00000000 </v>
    <v>       0.00000000       0.00000000      25.60421562 </v>
   </varray>
   <i name="volume">   4636.40847104 </i>
   <varray name="rec_basis" >
    <v>       0.08837357       0.00000000       0.00000000 </v>
    <v>       0.00000000       0.06248955       0.00000000 </v>
    <v>       0.00000000       0.00000000       0.03905607 </v>
   </varray>
  </crystal>
  <varray name="positions" >
   <v>       0.97066277       0.45599416       0.00000002 </v>
   <v>       0.72066271       0.08099414       0.07812521 </v>
   <v>       0.47066277       0.70599413       0.15625042 </v>
   <v>       0.22066289       0.33099425       0.23437557 </v>
   <v>       0.97066271       0.95599413       0.31250077 </v>
   <v>       0.72066271       0.58099413       0.39062604 </v>
   <v>       0.47066277       0.45599416       0.00000002 </v>
   <v>       0.22066276       0.08099414       0.07812521 </v>
   <v>       0.97066277       0.70599413       0.15625042 </v>
   <v>       0.72066283       0.33099425       0.23437557 </v>
   <v>       0.47066283       0.95599413       0.31250077 </v>
   <v>       0.22066277       0.58099413       0.39062604 </v>
   <v>       0.97066277       0.95599413       0.00000002 </v>
   <v>       0.72066271       0.58099413       0.07812522 </v>
   <v>       0.47066277       0.20599413       0.15625040 </v>
   <v>       0.22066289       0.83099437       0.23437557 </v>
   <v>       0.97066271       0.45599413       0.31250080 </v>
   <v>       0.72066271       0.08099413       0.39062601 </v>
   <v>       0.47066277       0.95599413       0.00000002 </v>
   <v>       0.22066276       0.58099413       0.07812522 </v>
   <v>       0.97066277       0.20599413       0.15625040 </v>
   <v>       0.72066283       0.83099437       0.23437557 </v>
   <v>       0.47066283       0.45599413       0.31250080 </v>
   <v>       0.22066277       0.08099413       0.39062601 </v>
   <v>       0.97066277       0.70599413       0.00000002 </v>
   <v>       0.72066271       0.33099413       0.07812521 </v>
   <v>       0.47066277       0.95599413       0.15625040 </v>
   <v>       0.22066289       0.58099425       0.23437560 </v>
   <v>       0.97066271       0.20599419       0.31250080 </v>
   <v>       0.72066271       0.83099413       0.39062604 </v>
   <v>       0.47066277       0.70599413       0.00000002 </v>
   <v>       0.22066276       0.33099413       0.07812521 </v>
   <v>       0.97066277       0.95599413       0.15625040 </v>
   <v>       0.72066283       0.58099425       0.23437560 </v>
   <v>       0.47066283       0.20599419       0.31250080 </v>
   <v>       0.22066277       0.83099413       0.39062604 </v>
   <v>       0.97066277       0.20599414       0.00000002 </v>
   <v>       0.72066271       0.83099413       0.07812521 </v>
   <v>       0.47066277       0.45599413       0.15625040 </v>
   <v>       0.22066289       0.08099425       0.23437560 </v>
   <v>       0.97066271       0.70599425       0.31250077 </v>
   <v>       0.72066271       0.33099413       0.39062601 </v>
   <v>       0.47066277       0.20599414       0.00000002 </v>
   <v>       0.22066276       0.83099413       0.07812521 </v>
   <v>       0.97066277       0.45599413       0.15625040 </v>
   <v>       0.72066283       0.08099425       0.23437560 </v>
   <v>       0.47066283       0.70599425       0.31250077 </v>
   <v>       0.22066277       0.33099413       0.39062601 </v>
   <v>       0.34566274       0.58099419       0.00000003 </v>
   <v>       0.09566276       0.20599416       0.07812521 </v>
   <v>       0.84566277       0.83099413       0.15625040 </v>
   <v>       0.59566283       0.45599425       0.23437557 </v>
   <v>       0.34566277       0.08099419       0.31250080 </v>
   <v>       0.09566271       0.70599413       0.39062604 </v>
   <v>       0.84566283       0.58099419       0.00000003 </v>
   <v>       0.59566277       0.20599416       0.07812521 </v>
   <v>       0.34566280       0.83099413       0.15625040 </v>
   <v>       0.09566288       0.45599425       0.23437557 </v>
   <v>       0.84566283       0.08099419       0.31250080 </v>
   <v>       0.59566277       0.70599413       0.39062604 </v>
   <v>       0.34566274       0.08099414       0.00000001 </v>
   <v>       0.09566276       0.70599413       0.07812521 </v>
   <v>       0.84566277       0.33099413       0.15625040 </v>
   <v>       0.59566283       0.95599425       0.23437560 </v>
   <v>       0.34566277       0.58099425       0.31250077 </v>
   <v>       0.09566271       0.20599401       0.39062601 </v>
   <v>       0.84566283       0.08099414       0.00000001 </v>
   <v>       0.59566277       0.70599413       0.07812521 </v>
   <v>       0.34566280       0.33099413       0.15625040 </v>
   <v>       0.09566288       0.95599425       0.23437560 </v>
   <v>       0.84566283       0.58099425       0.31250077 </v>
   <v>       0.59566277       0.20599401       0.39062601 </v>
   <v>       0.34566274       0.83099419       0.00000000 </v>
   <v>       0.09566276       0.45599419       0.07812521 </v>
   <v>       0.84566277       0.08099417       0.15625040 </v>
   <v>       0.59566283       0.70599431       0.23437557 </v>
   <v>       0.34566277       0.33099425       0.31250077 </v>
   <v>       0.09566271       0.95599413       0.39062598 </v>
   <v>       0.84566283       0.83099419       0.00000000 </v>
   <v>       0.59566277       0.45599419       0.07812521 </v>
   <v>       0.34566280       0.08099417       0.15625040 </v>
   <v>       0.09566288       0.70599431       0.23437557 </v>
   <v>       0.84566283       0.33099425       0.31250077 </v>
   <v>       0.59566277       0.95599413       0.39062598 </v>
   <v>       0.34566274       0.33099413       0.00000002 </v>
   <v>       0.09566276       0.95599413       0.07812522 </v>
   <v>       0.84566277       0.58099413       0.15625040 </v>
   <v>       0.59566283       0.20599425       0.23437560 </v>
   <v>       0.34566277       0.83099413       0.31250077 </v>
   <v>       0.09566271       0.45599413       0.39062601 </v>
   <v>       0.84566283       0.33099413       0.00000002 </v>
   <v>       0.59566277       0.95599413       0.07812522 </v>
   <v>       0.34566280       0.58099413       0.15625040 </v>
   <v>       0.09566288       0.20599425       0.23437560 </v>
   <v>       0.84566283       0.83099413       0.31250077 </v>
   <v>       0.59566277       0.45599413       0.39062601 </v>
   <v>       0.11607143       0.86074680       0.47129923 </v>
   <v>       0.11607134       0.11074686       0.56090480 </v>
   <v>       0.11607134       0.36074710       0.65051037 </v>
   <v>       0.11607122       0.61074722       0.74011582 </v>
   <v>       0.11607122       0.86074728       0.82972133 </v>
   <v>       0.11607122       0.11074734       0.91932684 </v>
   <v>       0.44940481       0.19408011       0.47129923 </v>
   <v>       0.44940475       0.44408011       0.56090480 </v>
   <v>       0.44940475       0.69408035       0.65051037 </v>
   <v>       0.44940466       0.94408053       0.74011582 </v>
   <v>       0.44940466       0.19408059       0.82972133 </v>
   <v>       0.44940460       0.44408083       0.91932684 </v>
   <v>       0.78273815       0.52741361       0.47129923 </v>
   <v>       0.78273809       0.77741361       0.56090480 </v>
   <v>       0.78273821       0.02741384       0.65051037 </v>
   <v>       0.78273791       0.27741384       0.74011582 </v>
   <v>       0.78273797       0.52741384       0.82972133 </v>
   <v>       0.78273797       0.77741408       0.91932684 </v>
   <v>       0.11607145       0.36074686       0.47129923 </v>
   <v>       0.11607134       0.61074686       0.56090474 </v>
   <v>       0.11607134       0.86074704       0.65051037 </v>
   <v>       0.11607134       0.11074710       0.74011582 </v>
   <v>       0.11607122       0.36074734       0.82972133 </v>
   <v>       0.11607122       0.61074734       0.91932684 </v>
   <v>       0.44940481       0.69408011       0.47129923 </v>
   <v>       0.44940478       0.94408029       0.56090474 </v>
   <v>       0.44940481       0.19408059       0.65051037 </v>
   <v>       0.44940469       0.44408059       0.74011582 </v>
   <v>       0.44940472       0.69408059       0.82972133 </v>
   <v>       0.44940454       0.94408089       0.91932684 </v>
   <v>       0.78273821       0.02741349       0.47129923 </v>
   <v>       0.78273803       0.27741361       0.56090474 </v>
   <v>       0.78273809       0.52741373       0.65051037 </v>
   <v>       0.78273803       0.77741384       0.74011582 </v>
   <v>       0.78273791       0.02741384       0.82972133 </v>
   <v>       0.78273797       0.27741408       0.91932684 </v>
   <v>       0.19940475       0.19408011       0.47129923 </v>
   <v>       0.19940467       0.44408011       0.56090474 </v>
   <v>       0.19940472       0.69408035       0.65051037 </v>
   <v>       0.19940455       0.94408041       0.74011582 </v>
   <v>       0.19940455       0.19408059       0.82972133 </v>
   <v>       0.19940457       0.44408059       0.91932684 </v>
   <v>       0.53273815       0.52741349       0.47129923 </v>
   <v>       0.53273803       0.77741361       0.56090480 </v>
   <v>       0.53273809       0.02741384       0.65051037 </v>
   <v>       0.53273803       0.27741384       0.74011582 </v>
   <v>       0.53273779       0.52741384       0.82972133 </v>
   <v>       0.53273791       0.77741408       0.91932684 </v>
   <v>       0.86607140       0.86074686       0.47129923 </v>
   <v>       0.86607140       0.11074686       0.56090480 </v>
   <v>       0.86607134       0.36074710       0.65051037 </v>
   <v>       0.86607122       0.61074710       0.74011582 </v>
   <v>       0.86607122       0.86074728       0.82972133 </v>
   <v>       0.86607122       0.11074734       0.91932684 </v>
   <v>       0.19940476       0.69408023       0.47129923 </v>
   <v>       0.19940470       0.94408029       0.56090480 </v>
   <v>       0.19940466       0.19408035       0.65051031 </v>
   <v>       0.19940467       0.44408083       0.74011582 </v>
   <v>       0.19940457       0.69408059       0.82972139 </v>
   <v>       0.19940451       0.94408089       0.91932684 </v>
   <v>       0.53273815       0.02741349       0.47129923 </v>
   <v>       0.53273809       0.27741361       0.56090480 </v>
   <v>       0.53273797       0.52741373       0.65051037 </v>
   <v>       0.53273797       0.77741384       0.74011582 </v>
   <v>       0.53273797       0.02741384       0.82972133 </v>
   <v>       0.53273785       0.27741408       0.91932684 </v>
   <v>       0.86607140       0.36074686       0.47129923 </v>
   <v>       0.86607134       0.61074686       0.56090480 </v>
   <v>       0.86607140       0.86074704       0.65051037 </v>
   <v>       0.86607128       0.11074710       0.74011582 </v>
   <v>       0.86607122       0.36074710       0.82972133 </v>
   <v>       0.86607117       0.61074734       0.91932684 </v>
  </varray>
 </structure>
</modeling>
