  72  72   0   0
  0.8137584E+01  0.7975608E-09  0.1286028E-08  0.1151358E-08  0.5000000E-15
  1.000000000000000E-004
  CAR 
 Si and Ge interface calculation         
     16.19506761    -15.67073937  301     11.54209536      1.00000000
    -15.671  0.0000E+00  0.0000E+00  0.0000E+00  0.0000E+00
    -15.565  0.0000E+00  0.0000E+00  0.0000E+00  0.0000E+00
    -15.458  0.0000E+00  0.0000E+00  0.0000E+00  0.0000E+00
    -15.352  0.0000E+00  0.0000E+00  0.0000E+00  0.0000E+00
    -15.246  0.0000E+00  0.0000E+00  0.0000E+00  0.0000E+00
    -15.140  0.0000E+00  0.0000E+00  0.0000E+00  0.0000E+00
    -15.033  0.0000E+00  0.0000E+00  0.0000E+00  0.0000E+00
    -14.927  0.0000E+00  0.0000E+00  0.0000E+00  0.0000E+00
    -14.821  0.0000E+00  0.0000E+00  0.0000E+00  0.0000E+00
    -14.715  0.0000E+00  0.0000E+00  0.0000E+00  0.0000E+00
    -14.609  0.0000E+00  0.0000E+00  0.0000E+00  0.0000E+00
    -14.502  0.0000E+00  0.0000E+00  0.0000E+00  0.0000E+00
    -14.396  0.0000E+00  0.0000E+00  0.0000E+00  0.0000E+00
    -14.290  0.0000E+00  0.0000E+00  0.0000E+00  0.0000E+00
    -14.184  0.1407E+01  0.1366E+01  0.1494E+00  0.1451E+00
    -14.077  0.4903E+01  0.4798E+01  0.6708E+00  0.6596E+00
    -13.971  0.2696E+01  0.2544E+01  0.1136E+01  0.1120E+01
    -13.865  0.1883E+01  0.1883E+01  0.1450E+01  0.1450E+01
    -13.759  0.1883E+01  0.2824E+01  0.1750E+01  0.1750E+01
    -13.653  0.1755E+01  0.1632E+01  0.1936E+01  0.1923E+01
    -13.546  0.9444E+00  0.1883E+01  0.2150E+01  0.2150E+01
    -13.440  0.2228E-01  0.4431E-02  0.2252E+01  0.2250E+01
    -13.334  0.1883E+01  0.1883E+01  0.2550E+01  0.2550E+01
    -13.228  0.5663E+00  0.2625E+00  0.2610E+01  0.2578E+01
    -13.121  0.9414E+00  0.9414E+00  0.2850E+01  0.2850E+01
    -13.015  0.1201E+01  0.1071E+01  0.2978E+01  0.2964E+01
    -12.909  0.5556E+01  0.5118E+01  0.3690E+01  0.3594E+01
    -12.803  0.5624E+01  0.5528E+01  0.4397E+01  0.4387E+01
    -12.697  0.4336E+01  0.3913E+01  0.4861E+01  0.4816E+01
    -12.590  0.6104E+01  0.5162E+01  0.5648E+01  0.5448E+01
    -12.484  0.4601E+01  0.3734E+01  0.6189E+01  0.6097E+01
    -12.378  0.5228E+01  0.3623E+01  0.6755E+01  0.6585E+01
    -12.272  0.2824E+01  0.2085E+01  0.7150E+01  0.7071E+01
    -12.166  0.4647E+01  0.3513E+01  0.7644E+01  0.7523E+01
    -12.059  0.1877E+01  0.9643E+00  0.7849E+01  0.7752E+01
    -11.953  0.2824E+01  0.2816E+01  0.8150E+01  0.8149E+01
    -11.847  0.5215E+01  0.3493E+01  0.8704E+01  0.8521E+01
    -11.741  0.3717E+01  0.3503E+01  0.9245E+01  0.9122E+01
    -11.634  0.2992E+01  0.2183E+01  0.9568E+01  0.9482E+01
    -11.528  0.4139E+01  0.2060E+01  0.1004E+02  0.9819E+01
    -11.422  0.3330E+01  0.3706E+01  0.1055E+02  0.1049E+02
    -11.316  0.2029E+01  0.2786E+01  0.1092E+02  0.1090E+02
    -11.210  0.5245E+01  0.4108E+01  0.1156E+02  0.1144E+02
    -11.103  0.7370E+01  0.4779E+01  0.1248E+02  0.1211E+02
    -10.997  0.4661E+01  0.3869E+01  0.1305E+02  0.1276E+02
    -10.891  0.6116E+01  0.9497E+01  0.1400E+02  0.1396E+02
    -10.785  0.4256E+01  0.3602E+01  0.1445E+02  0.1438E+02
    -10.678  0.5604E+01  0.3607E+01  0.1510E+02  0.1488E+02
    -10.572  0.5096E+01  0.5504E+01  0.1574E+02  0.1568E+02
    -10.466  0.1977E+01  0.3014E+01  0.1616E+02  0.1607E+02
    -10.360  0.3954E+01  0.4731E+01  0.1677E+02  0.1665E+02
    -10.254  0.4178E+01  0.2618E+01  0.1729E+02  0.1713E+02
    -10.147  0.8473E+01  0.9957E+01  0.1865E+02  0.1851E+02
    -10.041  0.5178E+01  0.4613E+01  0.1920E+02  0.1914E+02
     -9.935  0.5538E+01  0.3778E+01  0.1979E+02  0.1955E+02
     -9.829  0.5759E+01  0.6916E+01  0.2066E+02  0.2053E+02
     -9.722  0.8459E+01  0.7526E+01  0.2175E+02  0.2155E+02
     -9.616  0.2884E+01  0.2856E+01  0.2206E+02  0.2195E+02
     -9.510  0.3886E+01  0.3111E+01  0.2276E+02  0.2248E+02
     -9.404  0.7102E+01  0.6560E+01  0.2370E+02  0.2345E+02
     -9.298  0.4707E+01  0.5649E+01  0.2445E+02  0.2435E+02
     -9.191  0.2804E+01  0.1809E+01  0.2475E+02  0.2464E+02
     -9.085  0.2903E+01  0.2249E+01  0.2506E+02  0.2499E+02
     -8.979  0.7214E+01  0.7969E+01  0.2612E+02  0.2600E+02
     -8.873  0.9465E+01  0.9665E+01  0.2771E+02  0.2743E+02
     -8.766  0.9368E+01  0.6817E+01  0.2910E+02  0.2852E+02
     -8.660  0.7443E+01  0.7780E+01  0.3014E+02  0.2978E+02
     -8.554  0.5947E+01  0.6860E+01  0.3088E+02  0.3078E+02
     -8.448  0.7610E+01  0.5133E+01  0.3176E+02  0.3150E+02
     -8.342  0.3137E+01  0.3444E+01  0.3258E+02  0.3232E+02
     -8.235  0.9417E+00  0.1563E+01  0.3285E+02  0.3282E+02
     -8.129  0.7745E+01  0.7689E+01  0.3377E+02  0.3367E+02
     -8.023  0.2332E+01  0.2034E+01  0.3410E+02  0.3397E+02
     -7.917  0.6520E+01  0.7139E+01  0.3479E+02  0.3476E+02
     -7.811  0.3785E+01  0.2464E+01  0.3530E+02  0.3516E+02
     -7.704  0.7567E+01  0.6471E+01  0.3640E+02  0.3609E+02
     -7.598  0.4170E+01  0.6133E+01  0.3714E+02  0.3695E+02
     -7.492  0.5885E+01  0.5835E+01  0.3793E+02  0.3782E+02
     -7.386  0.3884E+01  0.4987E+01  0.3856E+02  0.3848E+02
     -7.279  0.2935E+01  0.3856E+01  0.3921E+02  0.3901E+02
     -7.173  0.5177E+01  0.9271E+01  0.4035E+02  0.4018E+02
     -7.067  0.1963E+01  0.1684E+01  0.4066E+02  0.4053E+02
     -6.961  0.9104E+01  0.8352E+01  0.4192E+02  0.4154E+02
     -6.855  0.8406E+01  0.9714E+01  0.4314E+02  0.4278E+02
     -6.748  0.4781E+01  0.9478E+01  0.4411E+02  0.4401E+02
     -6.642  0.3815E+01  0.2859E+01  0.4471E+02  0.4440E+02
     -6.536  0.5804E+01  0.5477E+01  0.4542E+02  0.4523E+02
     -6.430  0.8007E+01  0.6128E+01  0.4645E+02  0.4615E+02
     -6.323  0.6547E+01  0.6666E+01  0.4735E+02  0.4706E+02
     -6.217  0.5162E+01  0.5885E+01  0.4810E+02  0.4798E+02
     -6.111  0.5697E+01  0.3719E+01  0.4876E+02  0.4845E+02
     -6.005  0.2218E+01  0.3173E+01  0.4914E+02  0.4909E+02
     -5.899  0.5881E+01  0.9122E+01  0.5027E+02  0.5007E+02
     -5.792  0.7301E+01  0.7515E+01  0.5133E+02  0.5105E+02
     -5.686  0.6017E+01  0.8037E+01  0.5229E+02  0.5204E+02
     -5.580  0.9802E+01  0.7618E+01  0.5344E+02  0.5321E+02
     -5.474  0.7129E+01  0.6222E+01  0.5436E+02  0.5411E+02
     -5.367  0.1016E+02  0.8541E+01  0.5556E+02  0.5511E+02
     -5.261  0.8642E+01  0.1038E+02  0.5697E+02  0.5665E+02
     -5.155  0.6858E+01  0.9566E+01  0.5810E+02  0.5792E+02
     -5.049  0.5450E+01  0.2692E+01  0.5868E+02  0.5839E+02
     -4.943  0.9150E+01  0.7578E+01  0.5972E+02  0.5945E+02
     -4.836  0.6976E+01  0.6947E+01  0.6084E+02  0.6044E+02
     -4.730  0.5568E+01  0.8328E+01  0.6199E+02  0.6178E+02
     -4.624  0.1004E+02  0.1019E+02  0.6327E+02  0.6298E+02
     -4.518  0.1084E+02  0.1299E+02  0.6475E+02  0.6458E+02
     -4.411  0.4897E+01  0.7117E+01  0.6562E+02  0.6556E+02
     -4.305  0.4760E+01  0.5632E+01  0.6641E+02  0.6630E+02
     -4.199  0.1385E+01  0.2588E+01  0.6685E+02  0.6677E+02
     -4.093  0.6193E+01  0.2918E+01  0.6776E+02  0.6711E+02
     -3.987  0.9602E+01  0.1330E+02  0.6932E+02  0.6896E+02
     -3.880  0.3100E+01  0.9063E+01  0.7040E+02  0.7026E+02
     -3.774  0.1224E+02  0.1088E+02  0.7180E+02  0.7156E+02
     -3.668  0.7866E+01  0.4539E+01  0.7264E+02  0.7228E+02
     -3.562  0.1452E+02  0.1321E+02  0.7444E+02  0.7400E+02
     -3.456  0.5425E+01  0.5475E+01  0.7508E+02  0.7498E+02
     -3.349  0.4675E+01  0.6129E+01  0.7590E+02  0.7565E+02
     -3.243  0.5654E+01  0.5473E+01  0.7660E+02  0.7648E+02
     -3.137  0.2056E+02  0.1427E+02  0.7905E+02  0.7812E+02
     -3.031  0.3579E+01  0.8359E+01  0.7988E+02  0.7974E+02
     -2.924  0.4330E+01  0.3766E+01  0.8046E+02  0.8030E+02
     -2.818  0.1019E+02  0.8495E+01  0.8178E+02  0.8120E+02
     -2.712  0.1016E+02  0.9729E+01  0.8308E+02  0.8273E+02
     -2.606  0.8239E+01  0.6631E+01  0.8423E+02  0.8375E+02
     -2.500  0.9675E+01  0.7120E+01  0.8553E+02  0.8489E+02
     -2.393  0.3893E+01  0.6548E+01  0.8616E+02  0.8605E+02
     -2.287  0.8587E+01  0.7926E+01  0.8730E+02  0.8706E+02
     -2.181  0.1245E+02  0.1161E+02  0.8899E+02  0.8850E+02
     -2.075  0.6924E+01  0.6211E+01  0.8989E+02  0.8956E+02
     -1.968  0.5913E+01  0.4857E+01  0.9073E+02  0.9062E+02
     -1.862  0.1458E+02  0.1272E+02  0.9255E+02  0.9208E+02
     -1.756  0.7297E+01  0.1029E+02  0.9378E+02  0.9359E+02
     -1.650  0.9689E+01  0.9361E+01  0.9503E+02  0.9474E+02
     -1.544  0.1219E+02  0.1148E+02  0.9658E+02  0.9624E+02
     -1.437  0.1375E+02  0.9314E+01  0.9829E+02  0.9749E+02
     -1.331  0.1239E+02  0.1809E+02  0.1002E+03  0.9997E+02
     -1.225  0.1486E+02  0.1317E+02  0.1021E+03  0.1016E+03
     -1.119  0.1208E+02  0.7878E+01  0.1037E+03  0.1031E+03
     -1.012  0.1076E+02  0.1154E+02  0.1052E+03  0.1048E+03
     -0.906  0.1596E+02  0.1700E+02  0.1074E+03  0.1069E+03
     -0.800  0.9806E+01  0.1118E+02  0.1089E+03  0.1085E+03
     -0.694  0.1362E+02  0.1574E+02  0.1109E+03  0.1105E+03
     -0.588  0.1158E+02  0.9164E+01  0.1125E+03  0.1118E+03
     -0.481  0.9216E+01  0.8595E+01  0.1139E+03  0.1136E+03
     -0.375  0.1101E+02  0.9828E+01  0.1156E+03  0.1149E+03
     -0.269  0.1823E+02  0.1855E+02  0.1180E+03  0.1174E+03
     -0.163  0.9419E+01  0.9389E+01  0.1195E+03  0.1190E+03
     -0.056  0.1395E+02  0.1259E+02  0.1212E+03  0.1208E+03
      0.050  0.1587E+02  0.1463E+02  0.1235E+03  0.1229E+03
      0.156  0.1200E+02  0.1203E+02  0.1251E+03  0.1247E+03
      0.262  0.1370E+02  0.1079E+02  0.1269E+03  0.1264E+03
      0.368  0.1222E+02  0.1610E+02  0.1287E+03  0.1285E+03
      0.475  0.1541E+02  0.1484E+02  0.1308E+03  0.1304E+03
      0.581  0.1451E+02  0.1526E+02  0.1330E+03  0.1325E+03
      0.687  0.1536E+02  0.1525E+02  0.1351E+03  0.1347E+03
      0.793  0.1408E+02  0.1454E+02  0.1370E+03  0.1366E+03
      0.899  0.1827E+02  0.1611E+02  0.1393E+03  0.1388E+03
      1.006  0.1617E+02  0.1672E+02  0.1417E+03  0.1412E+03
      1.112  0.1857E+02  0.2073E+02  0.1441E+03  0.1439E+03
      1.218  0.1981E+02  0.1393E+02  0.1464E+03  0.1457E+03
      1.324  0.1489E+02  0.1108E+02  0.1485E+03  0.1479E+03
      1.431  0.1666E+02  0.1650E+02  0.1511E+03  0.1505E+03
      1.537  0.1525E+02  0.1651E+02  0.1533E+03  0.1530E+03
      1.643  0.1752E+02  0.1549E+02  0.1555E+03  0.1550E+03
      1.749  0.1634E+02  0.1648E+02  0.1576E+03  0.1573E+03
      1.855  0.1498E+02  0.1440E+02  0.1596E+03  0.1591E+03
      1.962  0.1512E+02  0.1430E+02  0.1616E+03  0.1612E+03
      2.068  0.1431E+02  0.1599E+02  0.1637E+03  0.1634E+03
      2.174  0.1023E+02  0.9201E+01  0.1652E+03  0.1649E+03
      2.280  0.1413E+02  0.1344E+02  0.1672E+03  0.1667E+03
      2.387  0.1428E+02  0.1355E+02  0.1691E+03  0.1688E+03
      2.493  0.1719E+02  0.1563E+02  0.1714E+03  0.1710E+03
      2.599  0.1172E+02  0.1339E+02  0.1731E+03  0.1729E+03
      2.705  0.1563E+02  0.1405E+02  0.1749E+03  0.1746E+03
      2.811  0.1749E+02  0.1811E+02  0.1775E+03  0.1771E+03
      2.918  0.2043E+02  0.1690E+02  0.1801E+03  0.1793E+03
      3.024  0.1464E+02  0.1622E+02  0.1823E+03  0.1819E+03
      3.130  0.1327E+02  0.1263E+02  0.1841E+03  0.1836E+03
      3.236  0.1440E+02  0.1270E+02  0.1859E+03  0.1855E+03
      3.343  0.1351E+02  0.1046E+02  0.1877E+03  0.1870E+03
      3.449  0.1326E+02  0.1532E+02  0.1897E+03  0.1892E+03
      3.555  0.1059E+02  0.1088E+02  0.1912E+03  0.1909E+03
      3.661  0.1561E+02  0.1551E+02  0.1933E+03  0.1929E+03
      3.767  0.1678E+02  0.1499E+02  0.1955E+03  0.1951E+03
      3.874  0.1530E+02  0.1376E+02  0.1976E+03  0.1971E+03
      3.980  0.1191E+02  0.1017E+02  0.1995E+03  0.1989E+03
      4.086  0.1259E+02  0.1357E+02  0.2013E+03  0.2011E+03
      4.192  0.1771E+02  0.1599E+02  0.2036E+03  0.2030E+03
      4.298  0.9481E+01  0.9306E+01  0.2050E+03  0.2047E+03
      4.405  0.1172E+02  0.1271E+02  0.2066E+03  0.2064E+03
      4.511  0.1113E+02  0.1134E+02  0.2083E+03  0.2079E+03
      4.617  0.1216E+02  0.1081E+02  0.2099E+03  0.2096E+03
      4.723  0.1261E+02  0.1421E+02  0.2118E+03  0.2116E+03
      4.830  0.1118E+02  0.1074E+02  0.2134E+03  0.2131E+03
      4.936  0.9617E+01  0.7874E+01  0.2147E+03  0.2144E+03
      5.042  0.9946E+01  0.1027E+02  0.2162E+03  0.2159E+03
      5.148  0.6718E+01  0.8411E+01  0.2173E+03  0.2172E+03
      5.254  0.6986E+01  0.5973E+01  0.2182E+03  0.2180E+03
      5.361  0.9960E+01  0.9393E+01  0.2196E+03  0.2193E+03
      5.467  0.1034E+02  0.1193E+02  0.2211E+03  0.2210E+03
      5.573  0.8805E+01  0.6734E+01  0.2222E+03  0.2219E+03
      5.679  0.5155E+01  0.6905E+01  0.2231E+03  0.2230E+03
      5.786  0.5876E+01  0.7030E+01  0.2240E+03  0.2238E+03
      5.892  0.8103E+01  0.8392E+01  0.2251E+03  0.2249E+03
      5.998  0.7734E+01  0.8162E+01  0.2263E+03  0.2262E+03
      6.104  0.4873E+01  0.4822E+01  0.2271E+03  0.2269E+03
      6.210  0.6555E+01  0.6231E+01  0.2278E+03  0.2277E+03
      6.317  0.1029E+02  0.8835E+01  0.2291E+03  0.2289E+03
      6.423  0.8046E+01  0.6289E+01  0.2301E+03  0.2298E+03
      6.529  0.6440E+01  0.7972E+01  0.2312E+03  0.2310E+03
      6.635  0.7470E+01  0.6388E+01  0.2321E+03  0.2320E+03
      6.742  0.6770E+01  0.7784E+01  0.2332E+03  0.2332E+03
      6.848  0.3907E+01  0.3776E+01  0.2337E+03  0.2337E+03
      6.954  0.3739E+01  0.3552E+01  0.2341E+03  0.2341E+03
      7.060  0.8290E+01  0.8340E+01  0.2352E+03  0.2351E+03
      7.166  0.1550E+02  0.1565E+02  0.2372E+03  0.2369E+03
      7.273  0.1355E+02  0.1576E+02  0.2393E+03  0.2391E+03
      7.379  0.1458E+02  0.1424E+02  0.2413E+03  0.2409E+03
      7.485  0.1240E+02  0.1467E+02  0.2432E+03  0.2430E+03
      7.591  0.1147E+02  0.1080E+02  0.2446E+03  0.2443E+03
      7.698  0.9928E+01  0.1215E+02  0.2463E+03  0.2461E+03
      7.804  0.1009E+02  0.8945E+01  0.2475E+03  0.2473E+03
      7.910  0.8984E+01  0.9246E+01  0.2488E+03  0.2486E+03
      8.016  0.8352E+01  0.5890E+01  0.2498E+03  0.2494E+03
      8.122  0.8999E+01  0.8037E+01  0.2509E+03  0.2506E+03
      8.229  0.1102E+02  0.1109E+02  0.2523E+03  0.2520E+03
      8.335  0.1215E+02  0.1103E+02  0.2538E+03  0.2535E+03
      8.441  0.8468E+01  0.9847E+01  0.2552E+03  0.2550E+03
      8.547  0.9798E+01  0.9904E+01  0.2567E+03  0.2565E+03
      8.653  0.9856E+01  0.8505E+01  0.2580E+03  0.2577E+03
      8.760  0.9386E+01  0.1166E+02  0.2595E+03  0.2593E+03
      8.866  0.4381E+01  0.4387E+01  0.2602E+03  0.2600E+03
      8.972  0.7921E+01  0.7589E+01  0.2613E+03  0.2611E+03
      9.078  0.8652E+01  0.9365E+01  0.2625E+03  0.2623E+03
      9.185  0.1001E+02  0.8604E+01  0.2638E+03  0.2635E+03
      9.291  0.1074E+02  0.1035E+02  0.2651E+03  0.2650E+03
      9.397  0.6301E+01  0.7042E+01  0.2660E+03  0.2660E+03
      9.503  0.5088E+01  0.4804E+01  0.2666E+03  0.2666E+03
      9.609  0.7388E+01  0.7722E+01  0.2676E+03  0.2675E+03
      9.716  0.6666E+01  0.6850E+01  0.2686E+03  0.2685E+03
      9.822  0.8208E+01  0.8721E+01  0.2697E+03  0.2695E+03
      9.928  0.7942E+01  0.8142E+01  0.2708E+03  0.2707E+03
     10.034  0.1161E+02  0.1028E+02  0.2723E+03  0.2721E+03
     10.141  0.1000E+02  0.7775E+01  0.2736E+03  0.2733E+03
     10.247  0.1337E+02  0.1168E+02  0.2756E+03  0.2753E+03
     10.353  0.3934E+01  0.5190E+01  0.2762E+03  0.2760E+03
     10.459  0.1057E+02  0.7093E+01  0.2776E+03  0.2769E+03
     10.565  0.3955E+01  0.6532E+01  0.2784E+03  0.2780E+03
     10.672  0.4004E+01  0.2510E+01  0.2788E+03  0.2784E+03
     10.778  0.6033E+01  0.4738E+01  0.2796E+03  0.2790E+03
     10.884  0.5987E+01  0.4614E+01  0.2804E+03  0.2797E+03
     10.990  0.1138E+02  0.8310E+01  0.2817E+03  0.2808E+03
     11.097  0.1027E+02  0.9412E+01  0.2831E+03  0.2820E+03
     11.203  0.1072E+02  0.4655E+01  0.2845E+03  0.2828E+03
     11.309  0.1109E+02  0.6276E+01  0.2862E+03  0.2839E+03
     11.415  0.6492E+01  0.9356E+01  0.2871E+03  0.2852E+03
     11.521  0.9937E+01  0.9295E+01  0.2884E+03  0.2865E+03
     11.628  0.9138E+01  0.1167E+02  0.2897E+03  0.2883E+03
     11.734  0.1152E+02  0.1153E+02  0.2913E+03  0.2899E+03
     11.840  0.1206E+02  0.1557E+02  0.2929E+03  0.2919E+03
     11.946  0.1077E+02  0.1236E+02  0.2946E+03  0.2936E+03
     12.053  0.1116E+02  0.1501E+02  0.2964E+03  0.2956E+03
     12.159  0.1107E+02  0.1258E+02  0.2980E+03  0.2973E+03
     12.265  0.1212E+02  0.1249E+02  0.2998E+03  0.2992E+03
     12.371  0.1271E+02  0.1110E+02  0.3016E+03  0.3008E+03
     12.477  0.1301E+02  0.1308E+02  0.3035E+03  0.3027E+03
     12.584  0.1398E+02  0.1346E+02  0.3054E+03  0.3044E+03
     12.690  0.1409E+02  0.1545E+02  0.3073E+03  0.3065E+03
     12.796  0.1513E+02  0.1707E+02  0.3098E+03  0.3088E+03
     12.902  0.1358E+02  0.1557E+02  0.3118E+03  0.3110E+03
     13.008  0.1466E+02  0.1797E+02  0.3140E+03  0.3134E+03
     13.115  0.1498E+02  0.1528E+02  0.3163E+03  0.3154E+03
     13.221  0.1517E+02  0.1689E+02  0.3186E+03  0.3179E+03
     13.327  0.1824E+02  0.1696E+02  0.3211E+03  0.3202E+03
     13.433  0.1467E+02  0.1578E+02  0.3232E+03  0.3225E+03
     13.540  0.2055E+02  0.1967E+02  0.3258E+03  0.3252E+03
     13.646  0.1462E+02  0.1289E+02  0.3277E+03  0.3271E+03
     13.752  0.1672E+02  0.1719E+02  0.3300E+03  0.3296E+03
     13.858  0.2183E+02  0.2186E+02  0.3331E+03  0.3323E+03
     13.964  0.1891E+02  0.1854E+02  0.3357E+03  0.3351E+03
     14.071  0.1811E+02  0.1651E+02  0.3382E+03  0.3375E+03
     14.177  0.2137E+02  0.2061E+02  0.3412E+03  0.3404E+03
     14.283  0.2052E+02  0.1870E+02  0.3439E+03  0.3432E+03
     14.389  0.1883E+02  0.1896E+02  0.3467E+03  0.3460E+03
     14.496  0.1777E+02  0.1840E+02  0.3492E+03  0.3487E+03
     14.602  0.1461E+02  0.1867E+02  0.3514E+03  0.3512E+03
     14.708  0.1883E+01  0.4043E+01  0.3520E+03  0.3520E+03
     14.814  0.0000E+00  0.3138E+00  0.3520E+03  0.3520E+03
     14.920  0.0000E+00  0.0000E+00  0.3520E+03  0.3520E+03
     15.027  0.0000E+00  0.0000E+00  0.3520E+03  0.3520E+03
     15.133  0.0000E+00  0.0000E+00  0.3520E+03  0.3520E+03
     15.239  0.0000E+00  0.0000E+00  0.3520E+03  0.3520E+03
     15.345  0.0000E+00  0.0000E+00  0.3520E+03  0.3520E+03
     15.452  0.0000E+00  0.0000E+00  0.3520E+03  0.3520E+03
     15.558  0.0000E+00  0.0000E+00  0.3520E+03  0.3520E+03
     15.664  0.0000E+00  0.0000E+00  0.3520E+03  0.3520E+03
     15.770  0.0000E+00  0.0000E+00  0.3520E+03  0.3520E+03
     15.876  0.0000E+00  0.0000E+00  0.3520E+03  0.3520E+03
     15.983  0.0000E+00  0.0000E+00  0.3520E+03  0.3520E+03
     16.089  0.0000E+00  0.0000E+00  0.3520E+03  0.3520E+03
     16.195  0.0000E+00  0.0000E+00  0.3520E+03  0.3520E+03
