  48  48   0   0
  0.3605712E+02  0.1297840E-08  0.1946760E-08  0.9190412E-09  0.5000000E-15
  1.000000000000000E-004
  CAR 
 Si and Ge interface calculation         
      3.83676623    -10.82612104  301      1.69100002      1.00000000
    -10.826  0.0000E+00  0.0000E+00  0.0000E+00  0.0000E+00
    -10.777  0.0000E+00  0.0000E+00  0.0000E+00  0.0000E+00
    -10.728  0.0000E+00  0.0000E+00  0.0000E+00  0.0000E+00
    -10.679  0.0000E+00  0.0000E+00  0.0000E+00  0.0000E+00
    -10.631  0.0000E+00  0.0000E+00  0.0000E+00  0.0000E+00
    -10.582  0.0000E+00  0.0000E+00  0.0000E+00  0.0000E+00
    -10.533  0.0000E+00  0.0000E+00  0.0000E+00  0.0000E+00
    -10.484  0.0000E+00  0.0000E+00  0.0000E+00  0.0000E+00
    -10.435  0.0000E+00  0.0000E+00  0.0000E+00  0.0000E+00
    -10.386  0.0000E+00  0.0000E+00  0.0000E+00  0.0000E+00
    -10.337  0.0000E+00  0.0000E+00  0.0000E+00  0.0000E+00
    -10.288  0.0000E+00  0.0000E+00  0.0000E+00  0.0000E+00
    -10.240  0.0000E+00  0.0000E+00  0.0000E+00  0.0000E+00
    -10.191  0.5701E-04  0.3080E-06  0.2786E-05  0.1505E-07
    -10.142  0.3968E+02  0.3352E+02  0.1939E+01  0.1639E+01
    -10.093  0.1244E+01  0.7396E+01  0.2000E+01  0.2000E+01
    -10.044  0.0000E+00  0.0000E+00  0.2000E+01  0.2000E+01
     -9.995  0.0000E+00  0.0000E+00  0.2000E+01  0.2000E+01
     -9.946  0.0000E+00  0.0000E+00  0.2000E+01  0.2000E+01
     -9.897  0.0000E+00  0.0000E+00  0.2000E+01  0.2000E+01
     -9.849  0.0000E+00  0.0000E+00  0.2000E+01  0.2000E+01
     -9.800  0.0000E+00  0.0000E+00  0.2000E+01  0.2000E+01
     -9.751  0.0000E+00  0.0000E+00  0.2000E+01  0.2000E+01
     -9.702  0.0000E+00  0.0000E+00  0.2000E+01  0.2000E+01
     -9.653  0.0000E+00  0.0000E+00  0.2000E+01  0.2000E+01
     -9.604  0.0000E+00  0.0000E+00  0.2000E+01  0.2000E+01
     -9.555  0.2505E-08  0.1262E-14  0.2000E+01  0.2000E+01
     -9.506  0.6689E+01  0.5030E+00  0.2327E+01  0.2025E+01
     -9.458  0.3332E+02  0.2614E+02  0.3955E+01  0.3302E+01
     -9.409  0.9153E+00  0.1427E+02  0.4000E+01  0.4000E+01
     -9.360  0.0000E+00  0.0000E+00  0.4000E+01  0.4000E+01
     -9.311  0.0000E+00  0.0000E+00  0.4000E+01  0.4000E+01
     -9.262  0.3786E-14  0.0000E+00  0.4000E+01  0.4000E+01
     -9.213  0.1754E+01  0.4449E-02  0.4086E+01  0.4000E+01
     -9.164  0.3790E+02  0.3329E+02  0.5938E+01  0.5627E+01
     -9.115  0.1262E+01  0.7627E+01  0.6000E+01  0.6000E+01
     -9.067  0.0000E+00  0.0000E+00  0.6000E+01  0.6000E+01
     -9.018  0.0000E+00  0.0000E+00  0.6000E+01  0.6000E+01
     -8.969  0.0000E+00  0.0000E+00  0.6000E+01  0.6000E+01
     -8.920  0.0000E+00  0.0000E+00  0.6000E+01  0.6000E+01
     -8.871  0.0000E+00  0.0000E+00  0.6000E+01  0.6000E+01
     -8.822  0.2041E-05  0.3330E-10  0.6000E+01  0.6000E+01
     -8.773  0.7057E+01  0.2921E+01  0.6345E+01  0.6143E+01
     -8.724  0.1838E+02  0.2088E+02  0.7243E+01  0.7163E+01
     -8.676  0.1490E+02  0.1368E+02  0.7972E+01  0.7832E+01
     -8.627  0.5793E+00  0.3441E+01  0.8000E+01  0.8000E+01
     -8.578  0.4013E+01  0.9305E+00  0.8196E+01  0.8045E+01
     -8.529  0.2683E+02  0.1965E+02  0.9507E+01  0.9006E+01
     -8.480  0.1008E+02  0.2034E+02  0.1000E+02  0.1000E+02
     -8.431  0.9052E-12  0.0000E+00  0.1000E+02  0.1000E+02
     -8.382  0.2010E+01  0.4016E-02  0.1010E+02  0.1000E+02
     -8.333  0.3013E+02  0.1727E+02  0.1157E+02  0.1084E+02
     -8.285  0.2002E+01  0.1683E+02  0.1167E+02  0.1167E+02
     -8.236  0.6779E+01  0.6462E+01  0.1200E+02  0.1198E+02
     -8.187  0.7424E+01  0.2130E+01  0.1236E+02  0.1209E+02
     -8.138  0.1279E+02  0.1191E+02  0.1299E+02  0.1267E+02
     -8.089  0.2066E+02  0.2299E+02  0.1400E+02  0.1379E+02
     -8.040  0.3902E-01  0.4248E+01  0.1400E+02  0.1400E+02
     -7.991  0.2568E+01  0.1507E-01  0.1413E+02  0.1400E+02
     -7.942  0.2948E+02  0.2505E+02  0.1557E+02  0.1523E+02
     -7.894  0.1343E+02  0.1803E+02  0.1622E+02  0.1611E+02
     -7.845  0.2022E+02  0.8369E+01  0.1721E+02  0.1652E+02
     -7.796  0.1613E+02  0.2699E+02  0.1800E+02  0.1783E+02
     -7.747  0.5777E+01  0.6501E+01  0.1828E+02  0.1815E+02
     -7.698  0.1694E+02  0.1517E+02  0.1911E+02  0.1889E+02
     -7.649  0.4569E+01  0.7582E+01  0.1933E+02  0.1926E+02
     -7.600  0.4690E+01  0.5517E+01  0.1956E+02  0.1953E+02
     -7.551  0.6968E+01  0.6495E+01  0.1990E+02  0.1985E+02
     -7.503  0.7577E+01  0.3890E+01  0.2027E+02  0.2004E+02
     -7.454  0.2931E+02  0.2364E+02  0.2171E+02  0.2120E+02
     -7.405  0.6075E+01  0.1644E+02  0.2200E+02  0.2200E+02
     -7.356  0.1989E+02  0.1482E+02  0.2298E+02  0.2272E+02
     -7.307  0.1187E+02  0.1396E+02  0.2356E+02  0.2341E+02
     -7.258  0.2140E+02  0.1487E+02  0.2460E+02  0.2413E+02
     -7.209  0.1076E+02  0.1833E+02  0.2513E+02  0.2503E+02
     -7.160  0.2151E+02  0.1739E+02  0.2618E+02  0.2588E+02
     -7.112  0.1302E+02  0.1499E+02  0.2681E+02  0.2661E+02
     -7.063  0.1869E+02  0.1717E+02  0.2773E+02  0.2745E+02
     -7.014  0.2806E+02  0.2572E+02  0.2910E+02  0.2871E+02
     -6.965  0.1610E+02  0.2248E+02  0.2989E+02  0.2981E+02
     -6.916  0.1323E+02  0.8645E+01  0.3053E+02  0.3023E+02
     -6.867  0.1312E+02  0.1425E+02  0.3117E+02  0.3093E+02
     -6.818  0.1690E+02  0.2112E+02  0.3200E+02  0.3196E+02
     -6.769  0.1912E+02  0.9583E+01  0.3294E+02  0.3243E+02
     -6.721  0.1486E+02  0.1627E+02  0.3366E+02  0.3322E+02
     -6.672  0.2183E+02  0.2280E+02  0.3473E+02  0.3434E+02
     -6.623  0.2364E+02  0.2404E+02  0.3588E+02  0.3551E+02
     -6.574  0.1361E+02  0.1771E+02  0.3655E+02  0.3638E+02
     -6.525  0.2097E+02  0.2073E+02  0.3757E+02  0.3739E+02
     -6.476  0.1826E+02  0.2139E+02  0.3847E+02  0.3844E+02
     -6.427  0.2255E+02  0.1404E+02  0.3957E+02  0.3912E+02
     -6.378  0.1817E+02  0.2222E+02  0.4046E+02  0.4021E+02
     -6.330  0.2390E+02  0.2482E+02  0.4162E+02  0.4142E+02
     -6.281  0.1596E+02  0.1274E+02  0.4240E+02  0.4204E+02
     -6.232  0.1770E+02  0.1885E+02  0.4327E+02  0.4297E+02
     -6.183  0.1488E+02  0.1876E+02  0.4400E+02  0.4388E+02
     -6.134  0.2642E+01  0.4621E+01  0.4413E+02  0.4411E+02
     -6.085  0.2022E+02  0.1216E+02  0.4511E+02  0.4470E+02
     -6.036  0.1527E+02  0.2136E+02  0.4586E+02  0.4575E+02
     -5.987  0.2290E+02  0.1873E+02  0.4698E+02  0.4666E+02
     -5.938  0.2296E+02  0.2603E+02  0.4810E+02  0.4793E+02
     -5.890  0.7021E+01  0.1041E+02  0.4845E+02  0.4844E+02
     -5.841  0.1251E+02  0.6399E+01  0.4906E+02  0.4876E+02
     -5.792  0.1182E+02  0.1485E+02  0.4963E+02  0.4948E+02
     -5.743  0.9412E+01  0.6442E+01  0.5009E+02  0.4980E+02
     -5.694  0.1619E+02  0.1400E+02  0.5089E+02  0.5048E+02
     -5.645  0.6630E+01  0.1231E+02  0.5121E+02  0.5108E+02
     -5.596  0.1596E+02  0.9302E+01  0.5199E+02  0.5154E+02
     -5.547  0.1934E+02  0.1811E+02  0.5293E+02  0.5242E+02
     -5.499  0.1052E+02  0.1951E+02  0.5345E+02  0.5338E+02
     -5.450  0.1116E+02  0.1091E+02  0.5399E+02  0.5391E+02
     -5.401  0.5264E+01  0.1956E+01  0.5425E+02  0.5400E+02
     -5.352  0.2285E+02  0.2069E+02  0.5537E+02  0.5502E+02
     -5.303  0.1560E+02  0.1818E+02  0.5613E+02  0.5590E+02
     -5.254  0.4149E+01  0.8789E+01  0.5633E+02  0.5633E+02
     -5.205  0.7598E+01  0.4421E+01  0.5671E+02  0.5655E+02
     -5.156  0.6712E+01  0.9221E+01  0.5703E+02  0.5700E+02
     -5.108  0.1448E+02  0.7489E+01  0.5774E+02  0.5737E+02
     -5.059  0.1850E+02  0.2415E+02  0.5865E+02  0.5855E+02
     -5.010  0.1395E+02  0.1349E+02  0.5933E+02  0.5921E+02
     -4.961  0.3122E+01  0.2733E+01  0.5948E+02  0.5934E+02
     -4.912  0.1450E+02  0.1329E+02  0.6019E+02  0.5999E+02
     -4.863  0.2341E+02  0.2397E+02  0.6133E+02  0.6116E+02
     -4.814  0.2133E+01  0.3567E+01  0.6144E+02  0.6133E+02
     -4.765  0.1559E+02  0.1326E+02  0.6220E+02  0.6198E+02
     -4.717  0.2632E+02  0.2715E+02  0.6348E+02  0.6331E+02
     -4.668  0.2042E+02  0.1676E+02  0.6448E+02  0.6413E+02
     -4.619  0.1036E+02  0.1418E+02  0.6499E+02  0.6482E+02
     -4.570  0.1801E+02  0.1735E+02  0.6587E+02  0.6567E+02
     -4.521  0.9717E+01  0.1301E+02  0.6634E+02  0.6631E+02
     -4.472  0.1803E+02  0.1402E+02  0.6723E+02  0.6699E+02
     -4.423  0.2561E+02  0.1477E+02  0.6848E+02  0.6771E+02
     -4.374  0.1416E+02  0.2425E+02  0.6917E+02  0.6890E+02
     -4.326  0.1191E+02  0.1403E+02  0.6975E+02  0.6958E+02
     -4.277  0.1854E+02  0.1693E+02  0.7066E+02  0.7041E+02
     -4.228  0.1644E+02  0.1335E+02  0.7146E+02  0.7106E+02
     -4.179  0.1967E+02  0.2185E+02  0.7242E+02  0.7213E+02
     -4.130  0.1115E+02  0.1222E+02  0.7297E+02  0.7273E+02
     -4.081  0.1267E+02  0.1631E+02  0.7359E+02  0.7353E+02
     -4.032  0.1168E+02  0.8299E+01  0.7416E+02  0.7393E+02
     -3.983  0.2192E+02  0.2196E+02  0.7523E+02  0.7501E+02
     -3.935  0.1168E+02  0.1319E+02  0.7580E+02  0.7565E+02
     -3.886  0.2009E+02  0.1236E+02  0.7678E+02  0.7625E+02
     -3.837  0.7386E+01  0.1753E+02  0.7714E+02  0.7711E+02
     -3.788  0.1298E+02  0.1242E+02  0.7778E+02  0.7772E+02
     -3.739  0.9494E+01  0.6545E+01  0.7824E+02  0.7804E+02
     -3.690  0.1731E+02  0.1801E+02  0.7909E+02  0.7892E+02
     -3.641  0.2018E+02  0.1261E+02  0.8007E+02  0.7953E+02
     -3.592  0.7558E+01  0.1721E+02  0.8044E+02  0.8038E+02
     -3.544  0.6439E+01  0.3330E+01  0.8076E+02  0.8054E+02
     -3.495  0.1194E+02  0.1327E+02  0.8134E+02  0.8119E+02
     -3.446  0.7112E+01  0.6583E+01  0.8169E+02  0.8151E+02
     -3.397  0.7877E+01  0.7804E+01  0.8207E+02  0.8189E+02
     -3.348  0.2332E+02  0.2435E+02  0.8321E+02  0.8308E+02
     -3.299  0.6985E+01  0.9034E+01  0.8356E+02  0.8352E+02
     -3.250  0.1101E+02  0.3640E+01  0.8409E+02  0.8370E+02
     -3.201  0.5242E+01  0.1084E+02  0.8435E+02  0.8423E+02
     -3.153  0.1713E+02  0.1369E+02  0.8519E+02  0.8490E+02
     -3.104  0.4003E+01  0.6832E+01  0.8538E+02  0.8523E+02
     -3.055  0.8397E+01  0.4803E+01  0.8579E+02  0.8547E+02
     -3.006  0.1017E+02  0.1391E+02  0.8629E+02  0.8615E+02
     -2.957  0.1081E+02  0.1054E+02  0.8682E+02  0.8666E+02
     -2.908  0.1322E+02  0.1219E+02  0.8746E+02  0.8726E+02
     -2.859  0.9953E+01  0.1081E+02  0.8795E+02  0.8779E+02
     -2.810  0.1819E+02  0.1407E+02  0.8884E+02  0.8848E+02
     -2.762  0.1110E+02  0.1757E+02  0.8938E+02  0.8933E+02
     -2.713  0.9134E+01  0.7042E+01  0.8983E+02  0.8968E+02
     -2.664  0.8159E+01  0.1042E+02  0.9023E+02  0.9019E+02
     -2.615  0.9008E+01  0.7379E+01  0.9067E+02  0.9055E+02
     -2.566  0.1467E+02  0.1231E+02  0.9138E+02  0.9115E+02
     -2.517  0.5782E+01  0.9782E+01  0.9167E+02  0.9163E+02
     -2.468  0.3973E+00  0.7997E+00  0.9169E+02  0.9167E+02
     -2.419  0.1777E+02  0.1371E+02  0.9255E+02  0.9234E+02
     -2.371  0.7457E+01  0.1129E+02  0.9292E+02  0.9289E+02
     -2.322  0.9146E+01  0.8555E+01  0.9337E+02  0.9331E+02
     -2.273  0.8411E+01  0.8530E+01  0.9378E+02  0.9372E+02
     -2.224  0.4698E+01  0.5419E+01  0.9401E+02  0.9399E+02
     -2.175  0.1196E+02  0.3396E+01  0.9459E+02  0.9415E+02
     -2.126  0.1544E+02  0.2385E+02  0.9535E+02  0.9532E+02
     -2.077  0.7356E+01  0.6265E+01  0.9571E+02  0.9563E+02
     -2.028  0.1486E+01  0.3090E+01  0.9578E+02  0.9578E+02
     -1.980  0.4369E+01  0.1875E+01  0.9599E+02  0.9587E+02
     -1.931  0.1777E+00  0.2672E+01  0.9600E+02  0.9600E+02
     -1.882  0.0000E+00  0.0000E+00  0.9600E+02  0.9600E+02
     -1.833  0.2090E-12  0.0000E+00  0.9600E+02  0.9600E+02
     -1.784  0.1340E+01  0.5700E-01  0.9607E+02  0.9600E+02
     -1.735  0.2140E+02  0.1423E+02  0.9711E+02  0.9670E+02
     -1.686  0.9704E+01  0.1576E+02  0.9759E+02  0.9747E+02
     -1.637  0.8473E+01  0.1082E+02  0.9800E+02  0.9800E+02
     -1.589  0.1859E-03  0.4589E-01  0.9800E+02  0.9800E+02
     -1.540  0.1111E+00  0.3265E-03  0.9801E+02  0.9800E+02
     -1.491  0.7038E+01  0.3059E+01  0.9835E+02  0.9815E+02
     -1.442  0.3070E+02  0.3021E+02  0.9985E+02  0.9963E+02
     -1.393  0.2989E+02  0.2239E+02  0.1013E+03  0.1007E+03
     -1.344  0.1198E+02  0.2388E+02  0.1019E+03  0.1019E+03
     -1.295  0.2427E+02  0.2033E+02  0.1031E+03  0.1029E+03
     -1.246  0.1537E+02  0.1501E+02  0.1038E+03  0.1036E+03
     -1.197  0.2077E+02  0.2172E+02  0.1048E+03  0.1047E+03
     -1.149  0.2830E+02  0.1814E+02  0.1062E+03  0.1056E+03
     -1.100  0.2028E+02  0.3136E+02  0.1072E+03  0.1071E+03
     -1.051  0.2362E+02  0.1623E+02  0.1084E+03  0.1079E+03
     -1.002  0.3640E+02  0.3872E+02  0.1102E+03  0.1098E+03
     -0.953  0.1916E+02  0.1796E+02  0.1111E+03  0.1107E+03
     -0.904  0.2560E+02  0.2718E+02  0.1123E+03  0.1120E+03
     -0.855  0.3053E+02  0.3055E+02  0.1138E+03  0.1135E+03
     -0.806  0.2966E+02  0.2888E+02  0.1153E+03  0.1149E+03
     -0.758  0.3607E+02  0.3345E+02  0.1171E+03  0.1165E+03
     -0.709  0.2379E+02  0.3235E+02  0.1182E+03  0.1181E+03
     -0.660  0.3688E+02  0.3096E+02  0.1200E+03  0.1196E+03
     -0.611  0.3320E+02  0.3045E+02  0.1216E+03  0.1211E+03
     -0.562  0.2900E+02  0.2801E+02  0.1231E+03  0.1225E+03
     -0.513  0.2747E+02  0.2834E+02  0.1244E+03  0.1239E+03
     -0.464  0.4163E+02  0.4264E+02  0.1264E+03  0.1259E+03
     -0.415  0.2661E+02  0.2432E+02  0.1277E+03  0.1271E+03
     -0.367  0.2202E+02  0.3115E+02  0.1288E+03  0.1287E+03
     -0.318  0.3330E+02  0.2367E+02  0.1304E+03  0.1298E+03
     -0.269  0.3178E+02  0.2753E+02  0.1320E+03  0.1312E+03
     -0.220  0.4786E+02  0.5456E+02  0.1343E+03  0.1338E+03
     -0.171  0.1587E+02  0.2091E+02  0.1351E+03  0.1348E+03
     -0.122  0.2649E+02  0.2483E+02  0.1364E+03  0.1361E+03
     -0.073  0.2789E+02  0.2522E+02  0.1378E+03  0.1373E+03
     -0.024  0.3728E+02  0.4093E+02  0.1396E+03  0.1393E+03
      0.024  0.2905E+02  0.2508E+02  0.1410E+03  0.1405E+03
      0.073  0.2684E+02  0.3188E+02  0.1423E+03  0.1421E+03
      0.122  0.2479E+02  0.1807E+02  0.1435E+03  0.1430E+03
      0.171  0.3753E+02  0.3468E+02  0.1454E+03  0.1447E+03
      0.220  0.3182E+02  0.3158E+02  0.1469E+03  0.1462E+03
      0.269  0.3248E+02  0.3221E+02  0.1485E+03  0.1478E+03
      0.318  0.2742E+02  0.3483E+02  0.1498E+03  0.1495E+03
      0.367  0.3633E+02  0.3489E+02  0.1516E+03  0.1512E+03
      0.415  0.3508E+02  0.3390E+02  0.1533E+03  0.1528E+03
      0.464  0.3104E+02  0.2848E+02  0.1549E+03  0.1542E+03
      0.513  0.3097E+02  0.3675E+02  0.1564E+03  0.1560E+03
      0.562  0.3264E+02  0.2358E+02  0.1580E+03  0.1572E+03
      0.611  0.2668E+02  0.3167E+02  0.1593E+03  0.1587E+03
      0.660  0.2924E+02  0.2313E+02  0.1607E+03  0.1599E+03
      0.709  0.2952E+02  0.3303E+02  0.1621E+03  0.1615E+03
      0.758  0.2994E+02  0.3152E+02  0.1636E+03  0.1630E+03
      0.806  0.1829E+02  0.2306E+02  0.1645E+03  0.1641E+03
      0.855  0.4659E+02  0.3898E+02  0.1668E+03  0.1660E+03
      0.904  0.2496E+02  0.3200E+02  0.1680E+03  0.1676E+03
      0.953  0.3520E+02  0.2435E+02  0.1697E+03  0.1688E+03
      1.002  0.3764E+02  0.3552E+02  0.1716E+03  0.1705E+03
      1.051  0.2683E+02  0.3574E+02  0.1729E+03  0.1723E+03
      1.100  0.2610E+02  0.2767E+02  0.1741E+03  0.1736E+03
      1.149  0.3778E+02  0.2611E+02  0.1760E+03  0.1749E+03
      1.197  0.3641E+02  0.4310E+02  0.1778E+03  0.1770E+03
      1.246  0.3057E+02  0.3166E+02  0.1793E+03  0.1786E+03
      1.295  0.2016E+02  0.2487E+02  0.1802E+03  0.1798E+03
      1.344  0.3619E+02  0.3699E+02  0.1820E+03  0.1816E+03
      1.393  0.2270E+02  0.2295E+02  0.1831E+03  0.1827E+03
      1.442  0.2376E+02  0.1209E+02  0.1843E+03  0.1833E+03
      1.491  0.3094E+02  0.3786E+02  0.1858E+03  0.1852E+03
      1.540  0.3002E+02  0.1974E+02  0.1873E+03  0.1861E+03
      1.588  0.3076E+02  0.3871E+02  0.1888E+03  0.1880E+03
      1.637  0.3001E+02  0.2861E+02  0.1902E+03  0.1894E+03
      1.686  0.2807E+02  0.3031E+02  0.1916E+03  0.1909E+03
      1.735  0.3788E+02  0.2379E+02  0.1935E+03  0.1921E+03
      1.784  0.3695E+02  0.5163E+02  0.1953E+03  0.1946E+03
      1.833  0.3745E+02  0.3977E+02  0.1971E+03  0.1965E+03
      1.882  0.2038E+02  0.2153E+02  0.1981E+03  0.1976E+03
      1.931  0.2552E+02  0.2236E+02  0.1993E+03  0.1987E+03
      1.979  0.3944E+02  0.3460E+02  0.2013E+03  0.2004E+03
      2.028  0.2722E+02  0.3068E+02  0.2026E+03  0.2019E+03
      2.077  0.3714E+02  0.3625E+02  0.2044E+03  0.2036E+03
      2.126  0.1909E+02  0.2300E+02  0.2053E+03  0.2048E+03
      2.175  0.3083E+02  0.2764E+02  0.2069E+03  0.2061E+03
      2.224  0.3099E+02  0.3423E+02  0.2084E+03  0.2078E+03
      2.273  0.2446E+02  0.3426E+02  0.2096E+03  0.2095E+03
      2.322  0.2784E+02  0.1876E+02  0.2109E+03  0.2104E+03
      2.370  0.2036E+02  0.2219E+02  0.2119E+03  0.2115E+03
      2.419  0.3147E+02  0.2675E+02  0.2135E+03  0.2128E+03
      2.468  0.1941E+02  0.2439E+02  0.2144E+03  0.2140E+03
      2.517  0.3559E+02  0.3518E+02  0.2161E+03  0.2157E+03
      2.566  0.3187E+02  0.2714E+02  0.2177E+03  0.2170E+03
      2.615  0.2676E+02  0.3432E+02  0.2190E+03  0.2187E+03
      2.664  0.2889E+02  0.2010E+02  0.2204E+03  0.2197E+03
      2.713  0.1972E+02  0.2440E+02  0.2214E+03  0.2209E+03
      2.761  0.1932E+02  0.2689E+02  0.2223E+03  0.2222E+03
      2.810  0.3110E+02  0.2103E+02  0.2238E+03  0.2232E+03
      2.859  0.1985E+02  0.2911E+02  0.2248E+03  0.2246E+03
      2.908  0.3250E+02  0.2266E+02  0.2264E+03  0.2257E+03
      2.957  0.1894E+02  0.2927E+02  0.2273E+03  0.2272E+03
      3.006  0.2534E+02  0.1548E+02  0.2286E+03  0.2279E+03
      3.055  0.2384E+02  0.2923E+02  0.2297E+03  0.2293E+03
      3.104  0.2198E+02  0.2590E+02  0.2308E+03  0.2306E+03
      3.152  0.2398E+02  0.1499E+02  0.2320E+03  0.2313E+03
      3.201  0.3251E+00  0.1354E+02  0.2320E+03  0.2320E+03
      3.250  0.0000E+00  0.2476E-04  0.2320E+03  0.2320E+03
      3.299  0.0000E+00  0.0000E+00  0.2320E+03  0.2320E+03
      3.348  0.0000E+00  0.0000E+00  0.2320E+03  0.2320E+03
      3.397  0.0000E+00  0.0000E+00  0.2320E+03  0.2320E+03
      3.446  0.0000E+00  0.0000E+00  0.2320E+03  0.2320E+03
      3.495  0.0000E+00  0.0000E+00  0.2320E+03  0.2320E+03
      3.544  0.0000E+00  0.0000E+00  0.2320E+03  0.2320E+03
      3.592  0.0000E+00  0.0000E+00  0.2320E+03  0.2320E+03
      3.641  0.0000E+00  0.0000E+00  0.2320E+03  0.2320E+03
      3.690  0.0000E+00  0.0000E+00  0.2320E+03  0.2320E+03
      3.739  0.0000E+00  0.0000E+00  0.2320E+03  0.2320E+03
      3.788  0.0000E+00  0.0000E+00  0.2320E+03  0.2320E+03
      3.837  0.0000E+00  0.0000E+00  0.2320E+03  0.2320E+03
