  48  48   0   0
  0.2846442E+02  0.9177115E-09  0.1451029E-08  0.1081534E-08  0.5000000E-15
  1.000000000000000E-004
  CAR 
 Si and Ge interface calculation         
      7.81967430     -8.91355917  301      5.33993961      1.00000000
     -8.914  0.0000E+00  0.0000E+00  0.0000E+00  0.0000E+00
     -8.858  0.0000E+00  0.0000E+00  0.0000E+00  0.0000E+00
     -8.802  0.0000E+00  0.0000E+00  0.0000E+00  0.0000E+00
     -8.746  0.0000E+00  0.0000E+00  0.0000E+00  0.0000E+00
     -8.690  0.0000E+00  0.0000E+00  0.0000E+00  0.0000E+00
     -8.635  0.0000E+00  0.0000E+00  0.0000E+00  0.0000E+00
     -8.579  0.0000E+00  0.0000E+00  0.0000E+00  0.0000E+00
     -8.523  0.0000E+00  0.0000E+00  0.0000E+00  0.0000E+00
     -8.467  0.0000E+00  0.0000E+00  0.0000E+00  0.0000E+00
     -8.412  0.0000E+00  0.0000E+00  0.0000E+00  0.0000E+00
     -8.356  0.0000E+00  0.0000E+00  0.0000E+00  0.0000E+00
     -8.300  0.0000E+00  0.0000E+00  0.0000E+00  0.0000E+00
     -8.244  0.0000E+00  0.0000E+00  0.0000E+00  0.0000E+00
     -8.188  0.9017E-06  0.2488E-15  0.5029E-07  0.1388E-16
     -8.133  0.8923E+01  0.2624E+01  0.4977E+00  0.1463E+00
     -8.077  0.1796E+02  0.1696E+02  0.1500E+01  0.1092E+01
     -8.021  0.5209E-02  0.7310E+01  0.1500E+01  0.1500E+01
     -7.965  0.9158E+01  0.1445E-01  0.2011E+01  0.1501E+01
     -7.910  0.8770E+01  0.1791E+02  0.2500E+01  0.2500E+01
     -7.854  0.6739E-12  0.0000E+00  0.2500E+01  0.2500E+01
     -7.798  0.1175E+02  0.4616E-01  0.3155E+01  0.2503E+01
     -7.742  0.6189E+01  0.1788E+02  0.3500E+01  0.3500E+01
     -7.686  0.8958E+01  0.8360E+01  0.4000E+01  0.3966E+01
     -7.631  0.0000E+00  0.6042E+00  0.4000E+01  0.4000E+01
     -7.575  0.0000E+00  0.0000E+00  0.4000E+01  0.4000E+01
     -7.519  0.1484E-04  0.1198E-09  0.4000E+01  0.4000E+01
     -7.463  0.8958E+01  0.7935E+01  0.4500E+01  0.4443E+01
     -7.408  0.7911E-01  0.1029E+01  0.4504E+01  0.4500E+01
     -7.352  0.1786E+02  0.1792E+02  0.5500E+01  0.5499E+01
     -7.296  0.0000E+00  0.1154E-01  0.5500E+01  0.5500E+01
     -7.240  0.0000E+00  0.0000E+00  0.5500E+01  0.5500E+01
     -7.184  0.0000E+00  0.0000E+00  0.5500E+01  0.5500E+01
     -7.129  0.1718E-02  0.8813E-07  0.5500E+01  0.5500E+01
     -7.073  0.1793E+02  0.1764E+02  0.6500E+01  0.6484E+01
     -7.017  0.0000E+00  0.2902E+00  0.6500E+01  0.6500E+01
     -6.961  0.0000E+00  0.0000E+00  0.6500E+01  0.6500E+01
     -6.906  0.0000E+00  0.0000E+00  0.6500E+01  0.6500E+01
     -6.850  0.0000E+00  0.0000E+00  0.6500E+01  0.6500E+01
     -6.794  0.0000E+00  0.0000E+00  0.6500E+01  0.6500E+01
     -6.738  0.0000E+00  0.0000E+00  0.6500E+01  0.6500E+01
     -6.682  0.1075E-03  0.1816E-08  0.6500E+01  0.6500E+01
     -6.627  0.1792E+02  0.1668E+02  0.7500E+01  0.7430E+01
     -6.571  0.2113E-02  0.1250E+01  0.7500E+01  0.7500E+01
     -6.515  0.0000E+00  0.0000E+00  0.7500E+01  0.7500E+01
     -6.459  0.0000E+00  0.0000E+00  0.7500E+01  0.7500E+01
     -6.404  0.0000E+00  0.0000E+00  0.7500E+01  0.7500E+01
     -6.348  0.0000E+00  0.0000E+00  0.7500E+01  0.7500E+01
     -6.292  0.0000E+00  0.0000E+00  0.7500E+01  0.7500E+01
     -6.236  0.4367E-02  0.6612E-06  0.7500E+01  0.7500E+01
     -6.180  0.8960E+01  0.8925E+01  0.8000E+01  0.7998E+01
     -6.125  0.0000E+00  0.3961E-01  0.8000E+01  0.8000E+01
     -6.069  0.0000E+00  0.0000E+00  0.8000E+01  0.8000E+01
     -6.013  0.0000E+00  0.0000E+00  0.8000E+01  0.8000E+01
     -5.957  0.6415E-06  0.1706E-11  0.8000E+01  0.8000E+01
     -5.902  0.8925E+01  0.6561E+01  0.8498E+01  0.8366E+01
     -5.846  0.3944E-01  0.2403E+01  0.8500E+01  0.8500E+01
     -5.790  0.0000E+00  0.0000E+00  0.8500E+01  0.8500E+01
     -5.734  0.0000E+00  0.0000E+00  0.8500E+01  0.8500E+01
     -5.678  0.4199E+00  0.6195E-02  0.8523E+01  0.8500E+01
     -5.623  0.8743E+01  0.8390E+01  0.9011E+01  0.8968E+01
     -5.567  0.2576E+02  0.1675E+02  0.1045E+02  0.9903E+01
     -5.511  0.9898E+01  0.1967E+02  0.1100E+02  0.1100E+02
     -5.455  0.1732E+02  0.1145E+02  0.1197E+02  0.1164E+02
     -5.400  0.6086E+00  0.6482E+01  0.1200E+02  0.1200E+02
     -5.344  0.0000E+00  0.0000E+00  0.1200E+02  0.1200E+02
     -5.288  0.0000E+00  0.0000E+00  0.1200E+02  0.1200E+02
     -5.232  0.0000E+00  0.0000E+00  0.1200E+02  0.1200E+02
     -5.176  0.1100E-02  0.3171E-07  0.1200E+02  0.1200E+02
     -5.121  0.2987E+01  0.2955E+01  0.1217E+02  0.1216E+02
     -5.065  0.9091E+01  0.2188E+00  0.1267E+02  0.1218E+02
     -5.009  0.8463E+01  0.1463E+02  0.1315E+02  0.1299E+02
     -4.953  0.3943E+01  0.5980E+01  0.1337E+02  0.1333E+02
     -4.898  0.5395E+01  0.5862E+01  0.1367E+02  0.1365E+02
     -4.842  0.1894E+02  0.6936E+00  0.1472E+02  0.1369E+02
     -4.786  0.9119E+01  0.2647E+02  0.1523E+02  0.1517E+02
     -4.730  0.1873E+02  0.1316E+02  0.1628E+02  0.1590E+02
     -4.674  0.1282E+02  0.1644E+02  0.1699E+02  0.1682E+02
     -4.619  0.8512E+01  0.7019E+01  0.1747E+02  0.1721E+02
     -4.563  0.4460E+01  0.7111E+01  0.1772E+02  0.1761E+02
     -4.507  0.9503E+01  0.1015E+02  0.1825E+02  0.1817E+02
     -4.451  0.1052E+02  0.7537E+01  0.1883E+02  0.1859E+02
     -4.396  0.1506E+02  0.1552E+02  0.1967E+02  0.1946E+02
     -4.340  0.2123E+02  0.2402E+02  0.2086E+02  0.2080E+02
     -4.284  0.1716E+02  0.1035E+02  0.2181E+02  0.2138E+02
     -4.228  0.1659E+02  0.1651E+02  0.2274E+02  0.2230E+02
     -4.172  0.1121E+02  0.1709E+02  0.2336E+02  0.2325E+02
     -4.117  0.1607E+02  0.1471E+02  0.2426E+02  0.2407E+02
     -4.061  0.1858E+02  0.1991E+02  0.2530E+02  0.2518E+02
     -4.005  0.9687E+01  0.1016E+02  0.2584E+02  0.2575E+02
     -3.949  0.1671E+02  0.1427E+02  0.2677E+02  0.2654E+02
     -3.894  0.1879E+02  0.2017E+02  0.2782E+02  0.2767E+02
     -3.838  0.1756E+02  0.1827E+02  0.2880E+02  0.2869E+02
     -3.782  0.1930E+02  0.1356E+02  0.2987E+02  0.2944E+02
     -3.726  0.1283E+02  0.1882E+02  0.3059E+02  0.3049E+02
     -3.670  0.5154E+01  0.4332E+01  0.3088E+02  0.3074E+02
     -3.615  0.2287E+02  0.9205E+01  0.3215E+02  0.3125E+02
     -3.559  0.1626E+02  0.2777E+02  0.3306E+02  0.3280E+02
     -3.503  0.2034E+02  0.2396E+02  0.3419E+02  0.3413E+02
     -3.447  0.1999E+02  0.1528E+02  0.3531E+02  0.3499E+02
     -3.392  0.1324E+02  0.1528E+02  0.3605E+02  0.3584E+02
     -3.336  0.2332E+02  0.2284E+02  0.3735E+02  0.3711E+02
     -3.280  0.2368E+02  0.2326E+02  0.3867E+02  0.3841E+02
     -3.224  0.1847E+02  0.2211E+02  0.3970E+02  0.3964E+02
     -3.168  0.3746E+01  0.3502E+01  0.3991E+02  0.3984E+02
     -3.113  0.7690E+01  0.8266E+01  0.4034E+02  0.4030E+02
     -3.057  0.1827E+02  0.1359E+02  0.4136E+02  0.4106E+02
     -3.001  0.1552E+02  0.1820E+02  0.4222E+02  0.4207E+02
     -2.945  0.9195E+01  0.1046E+02  0.4273E+02  0.4266E+02
     -2.890  0.1134E+02  0.9957E+01  0.4337E+02  0.4321E+02
     -2.834  0.9297E+00  0.3672E+01  0.4342E+02  0.4342E+02
     -2.778  0.5946E+01  0.5672E+01  0.4375E+02  0.4373E+02
     -2.722  0.1729E+02  0.9912E+01  0.4471E+02  0.4429E+02
     -2.666  0.3186E+01  0.9822E+01  0.4489E+02  0.4483E+02
     -2.611  0.3722E+01  0.3068E+01  0.4510E+02  0.4500E+02
     -2.555  0.1917E+02  0.1401E+02  0.4617E+02  0.4579E+02
     -2.499  0.1636E+02  0.1987E+02  0.4708E+02  0.4689E+02
     -2.443  0.1855E+02  0.1473E+02  0.4812E+02  0.4772E+02
     -2.388  0.2128E+02  0.2626E+02  0.4930E+02  0.4918E+02
     -2.332  0.1589E+02  0.1401E+02  0.5019E+02  0.4996E+02
     -2.276  0.1153E+02  0.1444E+02  0.5083E+02  0.5077E+02
     -2.220  0.5199E-01  0.1186E+01  0.5084E+02  0.5083E+02
     -2.164  0.6607E+01  0.4488E+01  0.5120E+02  0.5108E+02
     -2.109  0.9077E+01  0.7136E+01  0.5171E+02  0.5148E+02
     -2.053  0.2272E+02  0.1653E+02  0.5298E+02  0.5240E+02
     -1.997  0.2201E+02  0.2728E+02  0.5421E+02  0.5393E+02
     -1.941  0.2744E+02  0.2639E+02  0.5574E+02  0.5540E+02
     -1.886  0.8292E+01  0.9483E+01  0.5620E+02  0.5593E+02
     -1.830  0.1500E+02  0.1850E+02  0.5703E+02  0.5696E+02
     -1.774  0.1110E+02  0.1133E+02  0.5765E+02  0.5759E+02
     -1.718  0.2039E+02  0.1740E+02  0.5879E+02  0.5856E+02
     -1.662  0.6208E+01  0.9404E+01  0.5914E+02  0.5909E+02
     -1.607  0.1769E+02  0.1203E+02  0.6012E+02  0.5976E+02
     -1.551  0.1007E+02  0.1570E+02  0.6069E+02  0.6063E+02
     -1.495  0.1261E+02  0.6986E+01  0.6139E+02  0.6102E+02
     -1.439  0.2511E+02  0.2573E+02  0.6279E+02  0.6246E+02
     -1.384  0.1683E+02  0.1980E+02  0.6373E+02  0.6356E+02
     -1.328  0.1035E+02  0.1078E+02  0.6431E+02  0.6416E+02
     -1.272  0.1225E+02  0.1142E+02  0.6499E+02  0.6480E+02
     -1.216  0.2081E+02  0.2138E+02  0.6615E+02  0.6599E+02
     -1.160  0.8195E+01  0.7688E+01  0.6661E+02  0.6642E+02
     -1.105  0.2626E+02  0.2319E+02  0.6807E+02  0.6771E+02
     -1.049  0.2114E+02  0.2406E+02  0.6925E+02  0.6906E+02
     -0.993  0.8936E+01  0.1238E+02  0.6975E+02  0.6975E+02
     -0.937  0.1151E+02  0.7812E+01  0.7039E+02  0.7018E+02
     -0.882  0.1616E+02  0.1618E+02  0.7129E+02  0.7109E+02
     -0.826  0.2719E+02  0.2501E+02  0.7281E+02  0.7248E+02
     -0.770  0.1609E+02  0.1993E+02  0.7371E+02  0.7359E+02
     -0.714  0.1271E+02  0.1469E+02  0.7442E+02  0.7441E+02
     -0.658  0.3030E+01  0.2873E+01  0.7459E+02  0.7457E+02
     -0.603  0.3800E+01  0.3207E+01  0.7480E+02  0.7475E+02
     -0.547  0.3227E+02  0.2565E+02  0.7660E+02  0.7618E+02
     -0.491  0.2792E+02  0.2752E+02  0.7816E+02  0.7772E+02
     -0.435  0.9856E+01  0.1332E+02  0.7870E+02  0.7846E+02
     -0.380  0.2461E+02  0.2355E+02  0.8008E+02  0.7977E+02
     -0.324  0.1376E+02  0.1434E+02  0.8084E+02  0.8057E+02
     -0.268  0.1338E+02  0.1212E+02  0.8159E+02  0.8125E+02
     -0.212  0.1222E+02  0.1596E+02  0.8227E+02  0.8214E+02
     -0.157  0.2191E+02  0.1581E+02  0.8349E+02  0.8302E+02
     -0.101  0.3410E+02  0.3469E+02  0.8540E+02  0.8496E+02
     -0.045  0.1360E+02  0.1919E+02  0.8616E+02  0.8603E+02
      0.011  0.2337E+02  0.2140E+02  0.8746E+02  0.8722E+02
      0.067  0.2409E+02  0.2368E+02  0.8880E+02  0.8854E+02
      0.122  0.9795E+01  0.1419E+02  0.8935E+02  0.8933E+02
      0.178  0.2380E+02  0.1829E+02  0.9068E+02  0.9035E+02
      0.234  0.1257E+02  0.1431E+02  0.9138E+02  0.9115E+02
      0.290  0.1411E+02  0.1714E+02  0.9216E+02  0.9211E+02
      0.345  0.9052E+01  0.6940E+01  0.9267E+02  0.9250E+02
      0.401  0.4013E+01  0.6066E+01  0.9289E+02  0.9283E+02
      0.457  0.2281E+02  0.1846E+02  0.9417E+02  0.9386E+02
      0.513  0.2205E+02  0.1957E+02  0.9540E+02  0.9495E+02
      0.569  0.1460E+02  0.1754E+02  0.9621E+02  0.9593E+02
      0.624  0.2165E+02  0.2264E+02  0.9742E+02  0.9720E+02
      0.680  0.1492E+02  0.1639E+02  0.9825E+02  0.9811E+02
      0.736  0.1456E+02  0.1022E+02  0.9906E+02  0.9868E+02
      0.792  0.2155E+02  0.2279E+02  0.1003E+03  0.9995E+02
      0.847  0.2384E+02  0.2265E+02  0.1016E+03  0.1012E+03
      0.903  0.1331E+02  0.1365E+02  0.1023E+03  0.1020E+03
      0.959  0.7431E+01  0.1365E+02  0.1027E+03  0.1027E+03
      1.015  0.4802E-01  0.2430E+00  0.1028E+03  0.1028E+03
      1.071  0.1632E+02  0.1176E+02  0.1037E+03  0.1034E+03
      1.126  0.9321E+01  0.7391E+01  0.1042E+03  0.1038E+03
      1.182  0.1100E+02  0.1669E+02  0.1048E+03  0.1047E+03
      1.238  0.2038E+02  0.8191E+01  0.1059E+03  0.1052E+03
      1.294  0.2214E+02  0.3275E+02  0.1072E+03  0.1070E+03
      1.349  0.1047E+02  0.1011E+02  0.1078E+03  0.1076E+03
      1.405  0.8575E+01  0.8777E+01  0.1082E+03  0.1081E+03
      1.461  0.2116E+02  0.1734E+02  0.1094E+03  0.1091E+03
      1.517  0.1540E+02  0.1817E+02  0.1103E+03  0.1101E+03
      1.573  0.1937E+02  0.1452E+02  0.1114E+03  0.1109E+03
      1.628  0.8694E+01  0.1275E+02  0.1118E+03  0.1116E+03
      1.684  0.1701E+02  0.2012E+02  0.1128E+03  0.1127E+03
      1.740  0.1243E+02  0.7483E+01  0.1135E+03  0.1131E+03
      1.796  0.1130E+02  0.1315E+02  0.1141E+03  0.1139E+03
      1.851  0.8059E+01  0.8543E+01  0.1146E+03  0.1143E+03
      1.907  0.2213E+02  0.2305E+02  0.1158E+03  0.1156E+03
      1.963  0.9802E+01  0.8251E+01  0.1163E+03  0.1161E+03
      2.019  0.1725E+02  0.1745E+02  0.1173E+03  0.1171E+03
      2.075  0.2677E+02  0.2254E+02  0.1188E+03  0.1183E+03
      2.130  0.9670E+01  0.1828E+02  0.1193E+03  0.1193E+03
      2.186  0.1418E+02  0.8281E+01  0.1201E+03  0.1198E+03
      2.242  0.1338E+02  0.1380E+02  0.1209E+03  0.1206E+03
      2.298  0.2755E+02  0.2907E+02  0.1224E+03  0.1222E+03
      2.353  0.2512E+02  0.1993E+02  0.1238E+03  0.1233E+03
      2.409  0.9437E+01  0.1857E+02  0.1243E+03  0.1243E+03
      2.465  0.2208E+02  0.1659E+02  0.1256E+03  0.1253E+03
      2.521  0.3039E+02  0.3184E+02  0.1273E+03  0.1270E+03
      2.577  0.2953E+02  0.2651E+02  0.1289E+03  0.1285E+03
      2.632  0.3425E+02  0.3409E+02  0.1308E+03  0.1304E+03
      2.688  0.1917E+02  0.1756E+02  0.1319E+03  0.1314E+03
      2.744  0.2576E+02  0.2583E+02  0.1333E+03  0.1328E+03
      2.800  0.2533E+02  0.2428E+02  0.1347E+03  0.1342E+03
      2.855  0.2529E+02  0.2530E+02  0.1361E+03  0.1356E+03
      2.911  0.2614E+02  0.3046E+02  0.1376E+03  0.1373E+03
      2.967  0.2603E+02  0.2638E+02  0.1391E+03  0.1388E+03
      3.023  0.2880E+02  0.2747E+02  0.1407E+03  0.1403E+03
      3.079  0.4555E+02  0.3609E+02  0.1432E+03  0.1423E+03
      3.134  0.2236E+02  0.3739E+02  0.1445E+03  0.1444E+03
      3.190  0.2449E+02  0.1931E+02  0.1458E+03  0.1455E+03
      3.246  0.2736E+02  0.2751E+02  0.1473E+03  0.1470E+03
      3.302  0.3964E+02  0.3309E+02  0.1496E+03  0.1489E+03
      3.357  0.2549E+02  0.2991E+02  0.1510E+03  0.1505E+03
      3.413  0.2438E+02  0.3158E+02  0.1523E+03  0.1523E+03
      3.469  0.1796E+02  0.1503E+02  0.1533E+03  0.1531E+03
      3.525  0.1132E+02  0.1026E+02  0.1540E+03  0.1537E+03
      3.581  0.2049E+02  0.1919E+02  0.1551E+03  0.1548E+03
      3.636  0.2796E+02  0.3038E+02  0.1567E+03  0.1565E+03
      3.692  0.2821E+02  0.2630E+02  0.1582E+03  0.1579E+03
      3.748  0.2103E+02  0.1991E+02  0.1594E+03  0.1590E+03
      3.804  0.2582E+02  0.2583E+02  0.1609E+03  0.1605E+03
      3.859  0.2713E+02  0.2676E+02  0.1624E+03  0.1620E+03
      3.915  0.2021E+02  0.2150E+02  0.1635E+03  0.1632E+03
      3.971  0.2026E+02  0.2289E+02  0.1646E+03  0.1645E+03
      4.027  0.2103E+02  0.1738E+02  0.1658E+03  0.1654E+03
      4.083  0.2182E+02  0.2115E+02  0.1670E+03  0.1666E+03
      4.138  0.2076E+02  0.2223E+02  0.1682E+03  0.1678E+03
      4.194  0.2054E+02  0.2227E+02  0.1693E+03  0.1691E+03
      4.250  0.9544E+01  0.7924E+01  0.1699E+03  0.1695E+03
      4.306  0.9914E+01  0.1149E+02  0.1704E+03  0.1702E+03
      4.361  0.1557E+02  0.1428E+02  0.1713E+03  0.1710E+03
      4.417  0.2000E+02  0.1946E+02  0.1724E+03  0.1720E+03
      4.473  0.2592E+02  0.2432E+02  0.1738E+03  0.1734E+03
      4.529  0.1796E+02  0.1748E+02  0.1748E+03  0.1744E+03
      4.585  0.2211E+02  0.2641E+02  0.1761E+03  0.1759E+03
      4.640  0.1015E+02  0.1166E+02  0.1766E+03  0.1765E+03
      4.696  0.1029E+02  0.8530E+01  0.1772E+03  0.1770E+03
      4.752  0.2612E+02  0.2499E+02  0.1787E+03  0.1784E+03
      4.808  0.1456E+02  0.8456E+01  0.1795E+03  0.1788E+03
      4.863  0.2742E+02  0.2724E+02  0.1810E+03  0.1804E+03
      4.919  0.1915E+02  0.2206E+02  0.1821E+03  0.1816E+03
      4.975  0.2399E+02  0.2522E+02  0.1834E+03  0.1830E+03
      5.031  0.1161E+02  0.1435E+02  0.1841E+03  0.1838E+03
      5.087  0.2332E+02  0.1462E+02  0.1854E+03  0.1846E+03
      5.142  0.1991E+02  0.2420E+02  0.1865E+03  0.1860E+03
      5.198  0.2313E+02  0.2823E+02  0.1878E+03  0.1875E+03
      5.254  0.1708E+02  0.1139E+02  0.1887E+03  0.1882E+03
      5.310  0.3998E+02  0.3222E+02  0.1910E+03  0.1900E+03
      5.365  0.1770E+02  0.2523E+02  0.1919E+03  0.1914E+03
      5.421  0.3416E+02  0.2425E+02  0.1938E+03  0.1927E+03
      5.477  0.1648E+02  0.3120E+02  0.1948E+03  0.1945E+03
      5.533  0.1352E+02  0.1184E+02  0.1955E+03  0.1951E+03
      5.589  0.2743E+02  0.2591E+02  0.1970E+03  0.1966E+03
      5.644  0.2515E+02  0.2150E+02  0.1984E+03  0.1978E+03
      5.700  0.2763E+02  0.3573E+02  0.2000E+03  0.1998E+03
      5.756  0.1762E+02  0.1761E+02  0.2010E+03  0.2008E+03
      5.812  0.2685E+02  0.1341E+02  0.2025E+03  0.2015E+03
      5.867  0.2352E+02  0.3499E+02  0.2038E+03  0.2035E+03
      5.923  0.2407E+02  0.2383E+02  0.2051E+03  0.2048E+03
      5.979  0.2531E+02  0.2367E+02  0.2065E+03  0.2061E+03
      6.035  0.3251E+02  0.1717E+02  0.2084E+03  0.2071E+03
      6.091  0.1737E+02  0.3589E+02  0.2093E+03  0.2091E+03
      6.146  0.1536E+02  0.1587E+02  0.2102E+03  0.2099E+03
      6.202  0.1331E+02  0.1230E+02  0.2109E+03  0.2106E+03
      6.258  0.2610E+02  0.2203E+02  0.2124E+03  0.2119E+03
      6.314  0.2798E+02  0.3061E+02  0.2139E+03  0.2136E+03
      6.369  0.1966E+02  0.2050E+02  0.2150E+03  0.2147E+03
      6.425  0.3477E+02  0.2681E+02  0.2170E+03  0.2162E+03
      6.481  0.2706E+02  0.3404E+02  0.2185E+03  0.2181E+03
      6.537  0.2431E+02  0.1854E+02  0.2198E+03  0.2191E+03
      6.593  0.2411E+02  0.2971E+02  0.2212E+03  0.2208E+03
      6.648  0.3919E+02  0.3513E+02  0.2234E+03  0.2228E+03
      6.704  0.2753E+02  0.2952E+02  0.2249E+03  0.2244E+03
      6.760  0.2834E+02  0.2681E+02  0.2265E+03  0.2259E+03
      6.816  0.1349E+02  0.1981E+02  0.2272E+03  0.2270E+03
      6.871  0.3503E+02  0.2490E+02  0.2292E+03  0.2284E+03
      6.927  0.2026E+02  0.3037E+02  0.2303E+03  0.2301E+03
      6.983  0.1954E+02  0.1890E+02  0.2314E+03  0.2311E+03
      7.039  0.8583E+01  0.9973E+01  0.2319E+03  0.2317E+03
      7.095  0.2020E+01  0.5415E+01  0.2320E+03  0.2320E+03
      7.150  0.0000E+00  0.0000E+00  0.2320E+03  0.2320E+03
      7.206  0.0000E+00  0.0000E+00  0.2320E+03  0.2320E+03
      7.262  0.0000E+00  0.0000E+00  0.2320E+03  0.2320E+03
      7.318  0.0000E+00  0.0000E+00  0.2320E+03  0.2320E+03
      7.373  0.0000E+00  0.0000E+00  0.2320E+03  0.2320E+03
      7.429  0.0000E+00  0.0000E+00  0.2320E+03  0.2320E+03
      7.485  0.0000E+00  0.0000E+00  0.2320E+03  0.2320E+03
      7.541  0.0000E+00  0.0000E+00  0.2320E+03  0.2320E+03
      7.597  0.0000E+00  0.0000E+00  0.2320E+03  0.2320E+03
      7.652  0.0000E+00  0.0000E+00  0.2320E+03  0.2320E+03
      7.708  0.0000E+00  0.0000E+00  0.2320E+03  0.2320E+03
      7.764  0.0000E+00  0.0000E+00  0.2320E+03  0.2320E+03
      7.820  0.0000E+00  0.0000E+00  0.2320E+03  0.2320E+03
