 168 168   0   0
  0.2083040E+02  0.1600268E-08  0.1600268E-08  0.1577942E-08  0.5000000E-15
  1.000000000000000E-004
  CAR 
 Si and Ge interface calculation         
      9.45454790    -11.12269224  301      6.44223177      1.00000000
    -11.123  0.0000E+00  0.0000E+00  0.0000E+00  0.0000E+00
    -11.054  0.0000E+00  0.0000E+00  0.0000E+00  0.0000E+00
    -10.986  0.0000E+00  0.0000E+00  0.0000E+00  0.0000E+00
    -10.917  0.0000E+00  0.0000E+00  0.0000E+00  0.0000E+00
    -10.848  0.0000E+00  0.0000E+00  0.0000E+00  0.0000E+00
    -10.780  0.0000E+00  0.0000E+00  0.0000E+00  0.0000E+00
    -10.711  0.0000E+00  0.0000E+00  0.0000E+00  0.0000E+00
    -10.643  0.0000E+00  0.0000E+00  0.0000E+00  0.0000E+00
    -10.574  0.0000E+00  0.0000E+00  0.0000E+00  0.0000E+00
    -10.505  0.0000E+00  0.0000E+00  0.0000E+00  0.0000E+00
    -10.437  0.0000E+00  0.0000E+00  0.0000E+00  0.0000E+00
    -10.368  0.0000E+00  0.0000E+00  0.0000E+00  0.0000E+00
    -10.300  0.0000E+00  0.0000E+00  0.0000E+00  0.0000E+00
    -10.231  0.2373E-08  0.9956E-11  0.1628E-09  0.6829E-12
    -10.162  0.8156E+01  0.7397E+01  0.5595E+00  0.5074E+00
    -10.094  0.5860E+02  0.5647E+02  0.4579E+01  0.4382E+01
    -10.025  0.6838E+02  0.6329E+02  0.9293E+01  0.8749E+01
     -9.957  0.5310E+02  0.5646E+02  0.1294E+02  0.1262E+02
     -9.888  0.3537E+02  0.3615E+02  0.1536E+02  0.1510E+02
     -9.819  0.9314E+01  0.1308E+02  0.1600E+02  0.1600E+02
     -9.751  0.0000E+00  0.0000E+00  0.1600E+02  0.1600E+02
     -9.682  0.0000E+00  0.0000E+00  0.1600E+02  0.1600E+02
     -9.614  0.0000E+00  0.0000E+00  0.1600E+02  0.1600E+02
     -9.545  0.0000E+00  0.0000E+00  0.1600E+02  0.1600E+02
     -9.477  0.0000E+00  0.0000E+00  0.1600E+02  0.1600E+02
     -9.408  0.0000E+00  0.0000E+00  0.1600E+02  0.1600E+02
     -9.339  0.0000E+00  0.0000E+00  0.1600E+02  0.1600E+02
     -9.271  0.6027E+01  0.3794E+01  0.1641E+02  0.1626E+02
     -9.202  0.1570E+02  0.1703E+02  0.1749E+02  0.1743E+02
     -9.134  0.2191E+02  0.2290E+02  0.1900E+02  0.1900E+02
     -9.065  0.3627E+02  0.3555E+02  0.2149E+02  0.2144E+02
     -8.996  0.2153E+02  0.1803E+02  0.2298E+02  0.2269E+02
     -8.928  0.7857E+01  0.1191E+02  0.2352E+02  0.2350E+02
     -8.859  0.1435E+02  0.1453E+02  0.2450E+02  0.2450E+02
     -8.791  0.2183E+02  0.2159E+02  0.2600E+02  0.2598E+02
     -8.722  0.0000E+00  0.0000E+00  0.2600E+02  0.2600E+02
     -8.653  0.1250E+02  0.9037E+01  0.2686E+02  0.2662E+02
     -8.585  0.2399E+01  0.5573E+01  0.2702E+02  0.2700E+02
     -8.516  0.2985E+02  0.2931E+02  0.2907E+02  0.2901E+02
     -8.448  0.2027E+02  0.1981E+02  0.3046E+02  0.3037E+02
     -8.379  0.5923E+00  0.1876E+01  0.3050E+02  0.3050E+02
     -8.310  0.1080E+02  0.6830E+01  0.3124E+02  0.3097E+02
     -8.242  0.9794E+01  0.1036E+02  0.3191E+02  0.3168E+02
     -8.173  0.1588E+02  0.1916E+02  0.3300E+02  0.3299E+02
     -8.105  0.4025E+02  0.3698E+02  0.3576E+02  0.3554E+02
     -8.036  0.2214E+02  0.2185E+02  0.3728E+02  0.3704E+02
     -7.968  0.3233E+02  0.3593E+02  0.3950E+02  0.3950E+02
     -7.899  0.7251E+01  0.7052E+01  0.4000E+02  0.3998E+02
     -7.830  0.0000E+00  0.0000E+00  0.4000E+02  0.4000E+02
     -7.762  0.0000E+00  0.0000E+00  0.4000E+02  0.4000E+02
     -7.693  0.0000E+00  0.0000E+00  0.4000E+02  0.4000E+02
     -7.625  0.7628E-13  0.0000E+00  0.4000E+02  0.4000E+02
     -7.556  0.7144E+01  0.6309E+01  0.4049E+02  0.4043E+02
     -7.487  0.1438E+01  0.1158E+01  0.4060E+02  0.4051E+02
     -7.419  0.2772E+02  0.2898E+02  0.4250E+02  0.4250E+02
     -7.350  0.1437E+02  0.1302E+02  0.4349E+02  0.4339E+02
     -7.282  0.1766E+02  0.1711E+02  0.4471E+02  0.4457E+02
     -7.213  0.4242E+01  0.6319E+01  0.4500E+02  0.4500E+02
     -7.144  0.2871E+02  0.2680E+02  0.4697E+02  0.4684E+02
     -7.076  0.1458E+02  0.1689E+02  0.4800E+02  0.4800E+02
     -7.007  0.2057E+02  0.1815E+02  0.4941E+02  0.4925E+02
     -6.939  0.1301E+01  0.3716E+01  0.4950E+02  0.4950E+02
     -6.870  0.0000E+00  0.0000E+00  0.4950E+02  0.4950E+02
     -6.801  0.0000E+00  0.0000E+00  0.4950E+02  0.4950E+02
     -6.733  0.7295E+01  0.5343E+01  0.5000E+02  0.4987E+02
     -6.664  0.2915E+02  0.3110E+02  0.5200E+02  0.5200E+02
     -6.596  0.3632E+02  0.3242E+02  0.5449E+02  0.5422E+02
     -6.527  0.1583E+02  0.1470E+02  0.5558E+02  0.5523E+02
     -6.459  0.7411E+01  0.1138E+02  0.5609E+02  0.5601E+02
     -6.390  0.2706E+02  0.2364E+02  0.5794E+02  0.5763E+02
     -6.321  0.1868E+02  0.2075E+02  0.5922E+02  0.5906E+02
     -6.253  0.1863E+02  0.2103E+02  0.6050E+02  0.6050E+02
     -6.184  0.7298E+01  0.7278E+01  0.6100E+02  0.6100E+02
     -6.116  0.1457E+02  0.1458E+02  0.6200E+02  0.6200E+02
     -6.047  0.1018E+02  0.5006E+01  0.6270E+02  0.6234E+02
     -5.978  0.1898E+02  0.2415E+02  0.6400E+02  0.6400E+02
     -5.910  0.7289E+01  0.7290E+01  0.6450E+02  0.6450E+02
     -5.841  0.1533E+02  0.1470E+02  0.6555E+02  0.6551E+02
     -5.773  0.1393E+02  0.1448E+02  0.6651E+02  0.6650E+02
     -5.704  0.8833E+01  0.7783E+01  0.6711E+02  0.6704E+02
     -5.635  0.2022E+02  0.2135E+02  0.6850E+02  0.6850E+02
     -5.567  0.4362E+02  0.3628E+02  0.7149E+02  0.7099E+02
     -5.498  0.3650E+02  0.4338E+02  0.7400E+02  0.7399E+02
     -5.430  0.2915E+02  0.2915E+02  0.7600E+02  0.7600E+02
     -5.361  0.5794E+02  0.5586E+02  0.7997E+02  0.7983E+02
     -5.292  0.2392E+02  0.2385E+02  0.8164E+02  0.8152E+02
     -5.224  0.1845E+02  0.1751E+02  0.8291E+02  0.8273E+02
     -5.155  0.4487E+02  0.4761E+02  0.8600E+02  0.8600E+02
     -5.087  0.1433E+02  0.1367E+02  0.8698E+02  0.8694E+02
     -5.018  0.9742E+01  0.9524E+01  0.8767E+02  0.8759E+02
     -4.950  0.8496E+01  0.7024E+01  0.8825E+02  0.8807E+02
     -4.881  0.4007E+02  0.4268E+02  0.9100E+02  0.9100E+02
     -4.812  0.5093E+02  0.4057E+02  0.9449E+02  0.9378E+02
     -4.744  0.4793E+02  0.5596E+02  0.9778E+02  0.9763E+02
     -4.675  0.2505E+02  0.2732E+02  0.9950E+02  0.9950E+02
     -4.607  0.7279E+01  0.7166E+01  0.1000E+03  0.9999E+02
     -4.538  0.2874E+02  0.2664E+02  0.1020E+03  0.1018E+03
     -4.469  0.2289E+02  0.2468E+02  0.1036E+03  0.1035E+03
     -4.401  0.4822E+02  0.4519E+02  0.1069E+03  0.1066E+03
     -4.332  0.1602E+02  0.1983E+02  0.1080E+03  0.1080E+03
     -4.264  0.5099E+02  0.4734E+02  0.1115E+03  0.1112E+03
     -4.195  0.2872E+02  0.2488E+02  0.1135E+03  0.1130E+03
     -4.126  0.2993E+02  0.3666E+02  0.1155E+03  0.1155E+03
     -4.058  0.4016E+02  0.3338E+02  0.1183E+03  0.1178E+03
     -3.989  0.3493E+02  0.3871E+02  0.1207E+03  0.1205E+03
     -3.921  0.1925E+02  0.1746E+02  0.1220E+03  0.1217E+03
     -3.852  0.3503E+02  0.3686E+02  0.1244E+03  0.1242E+03
     -3.783  0.5023E+02  0.4615E+02  0.1279E+03  0.1274E+03
     -3.715  0.6875E+02  0.7293E+02  0.1326E+03  0.1324E+03
     -3.646  0.6349E+02  0.6252E+02  0.1370E+03  0.1367E+03
     -3.578  0.5477E+02  0.5682E+02  0.1407E+03  0.1406E+03
     -3.509  0.3300E+02  0.3483E+02  0.1430E+03  0.1430E+03
     -3.441  0.2186E+02  0.2182E+02  0.1445E+03  0.1445E+03
     -3.372  0.1782E+00  0.2276E-01  0.1445E+03  0.1445E+03
     -3.303  0.2201E+02  0.1958E+02  0.1460E+03  0.1458E+03
     -3.235  0.3524E+02  0.3630E+02  0.1484E+03  0.1483E+03
     -3.166  0.3607E+02  0.3415E+02  0.1509E+03  0.1507E+03
     -3.098  0.4573E+02  0.4648E+02  0.1541E+03  0.1539E+03
     -3.029  0.2550E+02  0.2742E+02  0.1558E+03  0.1558E+03
     -2.960  0.2874E+02  0.2806E+02  0.1578E+03  0.1577E+03
     -2.892  0.4936E+02  0.4831E+02  0.1612E+03  0.1610E+03
     -2.823  0.4539E+02  0.4622E+02  0.1643E+03  0.1642E+03
     -2.755  0.3320E+02  0.3264E+02  0.1666E+03  0.1665E+03
     -2.686  0.2351E+02  0.2303E+02  0.1682E+03  0.1681E+03
     -2.617  0.3964E+02  0.3703E+02  0.1709E+03  0.1706E+03
     -2.549  0.1201E+02  0.1634E+02  0.1718E+03  0.1718E+03
     -2.480  0.6301E+02  0.5811E+02  0.1761E+03  0.1757E+03
     -2.412  0.7232E+02  0.7122E+02  0.1810E+03  0.1806E+03
     -2.343  0.4793E+02  0.5160E+02  0.1843E+03  0.1842E+03
     -2.274  0.3261E+02  0.3201E+02  0.1866E+03  0.1864E+03
     -2.206  0.7237E+02  0.7191E+02  0.1916E+03  0.1913E+03
     -2.137  0.5121E+02  0.5050E+02  0.1951E+03  0.1948E+03
     -2.069  0.1075E+03  0.1043E+03  0.2025E+03  0.2020E+03
     -2.000  0.3025E+02  0.3503E+02  0.2046E+03  0.2044E+03
     -1.932  0.7266E+02  0.7155E+02  0.2096E+03  0.2093E+03
     -1.863  0.5759E+02  0.5669E+02  0.2135E+03  0.2132E+03
     -1.794  0.7109E+02  0.7070E+02  0.2184E+03  0.2180E+03
     -1.726  0.7671E+02  0.7732E+02  0.2237E+03  0.2233E+03
     -1.657  0.6082E+02  0.6429E+02  0.2279E+03  0.2277E+03
     -1.589  0.2042E+02  0.2193E+02  0.2293E+03  0.2292E+03
     -1.520  0.3425E+02  0.3338E+02  0.2316E+03  0.2315E+03
     -1.451  0.4757E+02  0.4419E+02  0.2349E+03  0.2346E+03
     -1.383  0.3820E+02  0.3860E+02  0.2375E+03  0.2372E+03
     -1.314  0.5437E+02  0.5743E+02  0.2412E+03  0.2411E+03
     -1.246  0.1476E+02  0.1579E+02  0.2423E+03  0.2423E+03
     -1.177  0.6895E+02  0.6831E+02  0.2470E+03  0.2469E+03
     -1.108  0.2181E+02  0.2241E+02  0.2485E+03  0.2485E+03
     -1.040  0.4327E+02  0.4189E+02  0.2515E+03  0.2514E+03
     -0.971  0.1125E+02  0.1244E+02  0.2522E+03  0.2522E+03
     -0.903  0.2777E+02  0.2613E+02  0.2542E+03  0.2540E+03
     -0.834  0.3737E+02  0.3582E+02  0.2567E+03  0.2565E+03
     -0.765  0.2747E+02  0.2887E+02  0.2586E+03  0.2585E+03
     -0.697  0.3123E+02  0.2859E+02  0.2608E+03  0.2604E+03
     -0.628  0.3576E+02  0.3973E+02  0.2632E+03  0.2632E+03
     -0.560  0.4037E+02  0.3918E+02  0.2660E+03  0.2659E+03
     -0.491  0.3236E+02  0.3221E+02  0.2683E+03  0.2681E+03
     -0.423  0.1970E+02  0.2098E+02  0.2696E+03  0.2695E+03
     -0.354  0.5887E+02  0.5258E+02  0.2736E+03  0.2731E+03
     -0.285  0.5246E+02  0.5889E+02  0.2772E+03  0.2772E+03
     -0.217  0.2408E+02  0.2047E+02  0.2789E+03  0.2787E+03
     -0.148  0.5830E+02  0.5939E+02  0.2829E+03  0.2827E+03
     -0.080  0.1226E+02  0.1273E+02  0.2837E+03  0.2836E+03
     -0.011  0.1000E+03  0.9315E+02  0.2906E+03  0.2900E+03
      0.058  0.9223E+02  0.9017E+02  0.2969E+03  0.2962E+03
      0.126  0.8573E+02  0.8742E+02  0.3028E+03  0.3022E+03
      0.195  0.6766E+02  0.7378E+02  0.3075E+03  0.3073E+03
      0.263  0.3962E+02  0.3761E+02  0.3102E+03  0.3099E+03
      0.332  0.7670E+02  0.7296E+02  0.3155E+03  0.3149E+03
      0.401  0.6182E+02  0.6218E+02  0.3197E+03  0.3192E+03
      0.469  0.6299E+02  0.6597E+02  0.3240E+03  0.3237E+03
      0.538  0.5826E+02  0.6129E+02  0.3280E+03  0.3279E+03
      0.606  0.5243E+02  0.4588E+02  0.3316E+03  0.3311E+03
      0.675  0.5495E+02  0.6202E+02  0.3354E+03  0.3353E+03
      0.744  0.4707E+02  0.4544E+02  0.3386E+03  0.3385E+03
      0.812  0.4194E+02  0.3832E+02  0.3415E+03  0.3411E+03
      0.881  0.5268E+02  0.5271E+02  0.3451E+03  0.3447E+03
      0.949  0.6585E+02  0.6905E+02  0.3497E+03  0.3494E+03
      1.018  0.3076E+02  0.2969E+02  0.3518E+03  0.3515E+03
      1.086  0.8143E+02  0.8142E+02  0.3574E+03  0.3571E+03
      1.155  0.2952E+02  0.2607E+02  0.3594E+03  0.3589E+03
      1.224  0.3742E+02  0.4320E+02  0.3620E+03  0.3619E+03
      1.292  0.2785E+02  0.2768E+02  0.3639E+03  0.3638E+03
      1.361  0.6002E+02  0.5720E+02  0.3680E+03  0.3677E+03
      1.429  0.5593E+02  0.5418E+02  0.3719E+03  0.3714E+03
      1.498  0.3615E+02  0.3748E+02  0.3744E+03  0.3740E+03
      1.567  0.3201E+02  0.3548E+02  0.3766E+03  0.3764E+03
      1.635  0.2454E+02  0.2581E+02  0.3783E+03  0.3782E+03
      1.704  0.2104E+02  0.1921E+02  0.3797E+03  0.3796E+03
      1.772  0.1294E+02  0.1242E+02  0.3806E+03  0.3804E+03
      1.841  0.4322E+02  0.4084E+02  0.3836E+03  0.3832E+03
      1.910  0.2562E+02  0.2554E+02  0.3853E+03  0.3850E+03
      1.978  0.2450E+02  0.2785E+02  0.3870E+03  0.3869E+03
      2.047  0.2172E+02  0.2327E+02  0.3885E+03  0.3885E+03
      2.115  0.2705E+02  0.2204E+02  0.3904E+03  0.3900E+03
      2.184  0.2124E+02  0.2234E+02  0.3918E+03  0.3915E+03
      2.253  0.3407E+02  0.3359E+02  0.3942E+03  0.3938E+03
      2.321  0.5715E+02  0.5866E+02  0.3981E+03  0.3979E+03
      2.390  0.7116E+02  0.6765E+02  0.4030E+03  0.4025E+03
      2.458  0.3393E+02  0.3714E+02  0.4053E+03  0.4051E+03
      2.527  0.5688E+02  0.5737E+02  0.4092E+03  0.4090E+03
      2.595  0.5093E+02  0.5105E+02  0.4127E+03  0.4125E+03
      2.664  0.4934E+02  0.4494E+02  0.4161E+03  0.4156E+03
      2.733  0.6758E+02  0.7067E+02  0.4207E+03  0.4205E+03
      2.801  0.6101E+02  0.6260E+02  0.4249E+03  0.4248E+03
      2.870  0.2978E+02  0.2772E+02  0.4270E+03  0.4267E+03
      2.938  0.7541E+02  0.7364E+02  0.4322E+03  0.4317E+03
      3.007  0.8667E+02  0.9051E+02  0.4381E+03  0.4380E+03
      3.076  0.3167E+02  0.3276E+02  0.4403E+03  0.4402E+03
      3.144  0.1159E+03  0.1119E+03  0.4483E+03  0.4479E+03
      3.213  0.6109E+02  0.6516E+02  0.4525E+03  0.4524E+03
      3.281  0.7065E+02  0.6998E+02  0.4573E+03  0.4572E+03
      3.350  0.8282E+02  0.8041E+02  0.4630E+03  0.4627E+03
      3.419  0.6632E+02  0.6694E+02  0.4676E+03  0.4673E+03
      3.487  0.5542E+02  0.5330E+02  0.4714E+03  0.4710E+03
      3.556  0.1000E+03  0.9731E+02  0.4783E+03  0.4777E+03
      3.624  0.7558E+02  0.7928E+02  0.4835E+03  0.4831E+03
      3.693  0.4686E+02  0.4966E+02  0.4867E+03  0.4866E+03
      3.762  0.6207E+02  0.5712E+02  0.4910E+03  0.4905E+03
      3.830  0.7855E+02  0.8332E+02  0.4964E+03  0.4962E+03
      3.899  0.6408E+02  0.6004E+02  0.5008E+03  0.5003E+03
      3.967  0.5210E+02  0.5282E+02  0.5044E+03  0.5040E+03
      4.036  0.1034E+03  0.1037E+03  0.5115E+03  0.5111E+03
      4.104  0.7792E+02  0.7778E+02  0.5168E+03  0.5164E+03
      4.173  0.6989E+02  0.6822E+02  0.5216E+03  0.5212E+03
      4.242  0.8407E+02  0.8515E+02  0.5274E+03  0.5270E+03
      4.310  0.5581E+02  0.5578E+02  0.5313E+03  0.5308E+03
      4.379  0.7943E+02  0.8294E+02  0.5367E+03  0.5365E+03
      4.447  0.6764E+02  0.6398E+02  0.5414E+03  0.5409E+03
      4.516  0.8387E+02  0.8596E+02  0.5471E+03  0.5468E+03
      4.585  0.7364E+02  0.7534E+02  0.5522E+03  0.5520E+03
      4.653  0.9828E+02  0.9594E+02  0.5590E+03  0.5586E+03
      4.722  0.6696E+02  0.6531E+02  0.5636E+03  0.5631E+03
      4.790  0.6662E+02  0.7026E+02  0.5682E+03  0.5679E+03
      4.859  0.6686E+02  0.6261E+02  0.5728E+03  0.5722E+03
      4.928  0.6762E+02  0.6879E+02  0.5774E+03  0.5769E+03
      4.996  0.9380E+02  0.9334E+02  0.5838E+03  0.5833E+03
      5.065  0.6487E+02  0.6834E+02  0.5883E+03  0.5880E+03
      5.133  0.4356E+02  0.4375E+02  0.5913E+03  0.5910E+03
      5.202  0.6782E+02  0.6392E+02  0.5960E+03  0.5954E+03
      5.271  0.4142E+02  0.3815E+02  0.5988E+03  0.5980E+03
      5.339  0.8347E+02  0.8812E+02  0.6045E+03  0.6041E+03
      5.408  0.4881E+02  0.4950E+02  0.6079E+03  0.6075E+03
      5.476  0.5855E+02  0.6190E+02  0.6119E+03  0.6117E+03
      5.545  0.7508E+02  0.7466E+02  0.6171E+03  0.6169E+03
      5.613  0.3926E+02  0.3933E+02  0.6198E+03  0.6196E+03
      5.682  0.7027E+02  0.6919E+02  0.6246E+03  0.6243E+03
      5.751  0.6120E+02  0.5489E+02  0.6289E+03  0.6281E+03
      5.819  0.6734E+02  0.7014E+02  0.6335E+03  0.6329E+03
      5.888  0.4799E+02  0.4968E+02  0.6368E+03  0.6363E+03
      5.956  0.4495E+02  0.4485E+02  0.6399E+03  0.6394E+03
      6.025  0.7960E+02  0.7756E+02  0.6454E+03  0.6447E+03
      6.094  0.6721E+02  0.7170E+02  0.6500E+03  0.6496E+03
      6.162  0.6143E+02  0.5563E+02  0.6542E+03  0.6535E+03
      6.231  0.6009E+02  0.6625E+02  0.6584E+03  0.6580E+03
      6.299  0.6274E+02  0.6292E+02  0.6627E+03  0.6623E+03
      6.368  0.7011E+02  0.6974E+02  0.6675E+03  0.6671E+03
      6.437  0.5524E+02  0.4862E+02  0.6713E+03  0.6705E+03
      6.505  0.6859E+02  0.7270E+02  0.6760E+03  0.6755E+03
      6.574  0.7586E+02  0.7530E+02  0.6812E+03  0.6806E+03
      6.642  0.2799E+02  0.3228E+02  0.6831E+03  0.6828E+03
      6.711  0.7016E+02  0.6778E+02  0.6880E+03  0.6875E+03
      6.780  0.8002E+02  0.8065E+02  0.6935E+03  0.6930E+03
      6.848  0.4807E+02  0.5138E+02  0.6968E+03  0.6966E+03
      6.917  0.4445E+02  0.3877E+02  0.6998E+03  0.6992E+03
      6.985  0.5100E+02  0.4969E+02  0.7033E+03  0.7026E+03
      7.054  0.5274E+02  0.5756E+02  0.7070E+03  0.7066E+03
      7.122  0.5723E+02  0.5224E+02  0.7109E+03  0.7102E+03
      7.191  0.6456E+02  0.7215E+02  0.7153E+03  0.7151E+03
      7.260  0.5994E+02  0.5746E+02  0.7195E+03  0.7191E+03
      7.328  0.5216E+02  0.5655E+02  0.7231E+03  0.7229E+03
      7.397  0.5398E+02  0.4816E+02  0.7268E+03  0.7263E+03
      7.465  0.6346E+02  0.6333E+02  0.7311E+03  0.7306E+03
      7.534  0.7831E+02  0.7536E+02  0.7365E+03  0.7358E+03
      7.603  0.8795E+02  0.8720E+02  0.7426E+03  0.7418E+03
      7.671  0.8866E+02  0.9485E+02  0.7487E+03  0.7483E+03
      7.740  0.7141E+02  0.7551E+02  0.7536E+03  0.7535E+03
      7.808  0.7019E+02  0.6314E+02  0.7584E+03  0.7578E+03
      7.877  0.9272E+02  0.9787E+02  0.7647E+03  0.7646E+03
      7.946  0.7025E+02  0.6963E+02  0.7696E+03  0.7694E+03
      8.014  0.6040E+02  0.5991E+02  0.7738E+03  0.7735E+03
      8.083  0.1059E+03  0.1020E+03  0.7810E+03  0.7805E+03
      8.151  0.5844E+02  0.5711E+02  0.7851E+03  0.7844E+03
      8.220  0.4065E+02  0.4477E+02  0.7879E+03  0.7875E+03
      8.289  0.1143E+03  0.1062E+03  0.7957E+03  0.7948E+03
      8.357  0.6989E+02  0.7498E+02  0.8005E+03  0.8000E+03
      8.426  0.6559E+02  0.6900E+02  0.8050E+03  0.8047E+03
      8.494  0.3856E+02  0.3990E+02  0.8077E+03  0.8075E+03
      8.563  0.4990E+01  0.8001E+01  0.8080E+03  0.8080E+03
      8.631  0.0000E+00  0.0000E+00  0.8080E+03  0.8080E+03
      8.700  0.0000E+00  0.0000E+00  0.8080E+03  0.8080E+03
      8.769  0.0000E+00  0.0000E+00  0.8080E+03  0.8080E+03
      8.837  0.0000E+00  0.0000E+00  0.8080E+03  0.8080E+03
      8.906  0.0000E+00  0.0000E+00  0.8080E+03  0.8080E+03
      8.974  0.0000E+00  0.0000E+00  0.8080E+03  0.8080E+03
      9.043  0.0000E+00  0.0000E+00  0.8080E+03  0.8080E+03
      9.112  0.0000E+00  0.0000E+00  0.8080E+03  0.8080E+03
      9.180  0.0000E+00  0.0000E+00  0.8080E+03  0.8080E+03
      9.249  0.0000E+00  0.0000E+00  0.8080E+03  0.8080E+03
      9.317  0.0000E+00  0.0000E+00  0.8080E+03  0.8080E+03
      9.386  0.0000E+00  0.0000E+00  0.8080E+03  0.8080E+03
      9.455  0.0000E+00  0.0000E+00  0.8080E+03  0.8080E+03
