       N       E                     dE             d eps       ncg     rms          rms(c)
DAV:   1     0.194755230992E+04    0.19476E+04   -0.16829E+05  9280   0.171E+03
DAV:   2    -0.163023800350E+03   -0.21106E+04   -0.20428E+04 10832   0.212E+02
DAV:   3    -0.379949782309E+03   -0.21693E+03   -0.20912E+03 11400   0.642E+01
DAV:   4    -0.388609797445E+03   -0.86600E+01   -0.84210E+01 11064   0.121E+01
DAV:   5    -0.388952927118E+03   -0.34313E+00   -0.34026E+00 11928   0.204E+00    0.207E+01
DAV:   6    -0.384344804203E+03    0.46081E+01   -0.10106E+01 10880   0.497E+00    0.972E+00
DAV:   7    -0.384051806979E+03    0.29300E+00   -0.57152E+00 10864   0.437E+00    0.347E+00
DAV:   8    -0.383850751894E+03    0.20106E+00   -0.11337E+00 10888   0.225E+00    0.965E-01
DAV:   9    -0.383848199140E+03    0.25528E-02   -0.27289E-01 10888   0.880E-01    0.579E-01
DAV:  10    -0.383849570726E+03   -0.13716E-02   -0.67471E-02 10480   0.417E-01    0.225E-01
DAV:  11    -0.383849568322E+03    0.24037E-05   -0.63656E-03 10952   0.142E-01    0.134E-01
DAV:  12    -0.383849615058E+03   -0.46736E-04   -0.16758E-03 10520   0.751E-02    0.758E-02
DAV:  13    -0.383849715765E+03   -0.10071E-03   -0.35126E-04 10472   0.375E-02    0.250E-02
DAV:  14    -0.383849723076E+03   -0.73117E-05   -0.57101E-05 11008   0.170E-02    0.132E-02
DAV:  15    -0.383849727202E+03   -0.41258E-05   -0.16931E-05 10608   0.756E-03    0.573E-03
DAV:  16    -0.383849728105E+03   -0.90300E-06   -0.28285E-06 11272   0.322E-03    0.263E-03
DAV:  17    -0.383849727536E+03    0.56951E-06   -0.79737E-07 10688   0.188E-03    0.160E-03
DAV:  18    -0.383849727209E+03    0.32649E-06   -0.14373E-07  5864   0.800E-04    0.649E-04
DAV:  19    -0.383849727122E+03    0.86753E-07   -0.36784E-08  5720   0.405E-04
   1 F= -.38384973E+03 E0= -.38384904E+03  d E =-.137458E-02  mag=     1.0000
