  120  120    1    2
  0.8293658E+01  0.1330318E-08  0.1629300E-08  0.5029924E-09  0.5000000E-15
  1.000000000000000E-004
  CAR 
 Si and Ge interface calculation         
    480     20    288
 
  0.0000000E+00  0.0000000E+00  0.0000000E+00  0.2777778E-01
      1        -12.177032      -12.170360   1.000000   1.000000
      2        -11.938301      -11.931708   1.000000   1.000000
      3        -11.613005      -11.603405   1.000000   1.000000
      4        -11.544202      -11.536641   1.000000   1.000000
      5        -11.421023      -11.414370   1.000000   1.000000
      6        -11.359559      -11.352866   1.000000   1.000000
      7        -10.858501      -10.851331   1.000000   1.000000
      8        -10.713340      -10.706466   1.000000   1.000000
      9        -10.587760      -10.574751   1.000000   1.000000
     10        -10.456521      -10.450190   1.000000   1.000000
     11        -10.308219      -10.302042   1.000000   1.000000
     12        -10.222366      -10.209930   1.000000   1.000000
     13        -10.185172      -10.177865   1.000000   1.000000
     14         -9.940097       -9.924149   1.000000   1.000000
     15         -9.414773       -9.408212   1.000000   1.000000
     16         -9.367334       -9.359064   1.000000   1.000000
     17         -9.256673       -9.249448   1.000000   1.000000
     18         -8.934987       -8.928286   1.000000   1.000000
     19         -8.651194       -8.640709   1.000000   1.000000
     20         -8.207251       -8.196739   1.000000   1.000000
     21         -8.202695       -8.195073   1.000000   1.000000
     22         -7.928857       -7.920622   1.000000   1.000000
     23         -7.865772       -7.856116   1.000000   1.000000
     24         -7.770151       -7.761966   1.000000   1.000000
     25         -7.678486       -7.670418   1.000000   1.000000
     26         -7.558319       -7.549993   1.000000   1.000000
     27         -7.274924       -7.264150   1.000000   1.000000
     28         -7.270314       -7.261007   1.000000   1.000000
     29         -7.108515       -7.097543   1.000000   1.000000
     30         -6.964869       -6.952914   1.000000   1.000000
     31         -6.886359       -6.874718   1.000000   1.000000
     32         -6.688169       -6.678808   1.000000   1.000000
     33         -6.646119       -6.634882   1.000000   1.000000
     34         -6.492105       -6.482672   1.000000   1.000000
     35         -6.321457       -6.312700   1.000000   1.000000
     36         -6.174966       -6.165108   1.000000   1.000000
     37         -5.933498       -5.923510   1.000000   1.000000
     38         -5.778507       -5.768235   1.000000   1.000000
     39         -5.668240       -5.653597   1.000000   1.000000
     40         -5.558957       -5.545597   1.000000   1.000000
     41         -5.397975       -5.386899   1.000000   1.000000
     42         -5.324712       -5.311882   1.000000   1.000000
     43         -5.163538       -5.153128   1.000000   1.000000
     44         -5.102381       -5.093507   1.000000   1.000000
     45         -4.952063       -4.943484   1.000000   1.000000
     46         -4.903500       -4.893894   1.000000   1.000000
     47         -4.744606       -4.734126   1.000000   1.000000
     48         -4.685727       -4.675528   1.000000   1.000000
     49         -4.481924       -4.471656   1.000000   1.000000
     50         -4.446096       -4.434935   1.000000   1.000000
     51         -4.084430       -4.074922   1.000000   1.000000
     52         -4.081339       -4.072081   1.000000   1.000000
     53         -4.009909       -4.001407   1.000000   1.000000
     54         -3.915008       -3.905122   1.000000   1.000000
     55         -3.687590       -3.677241   1.000000   1.000000
     56         -3.661223       -3.649425   1.000000   1.000000
     57         -3.388365       -3.379241   1.000000   1.000000
     58         -3.280612       -3.271014   1.000000   1.000000
     59         -3.241962       -3.233121   1.000000   1.000000
     60         -3.116377       -3.107636   1.000000   1.000000
     61         -3.009049       -3.000849   1.000000   1.000000
     62         -2.886603       -2.873515   1.000000   1.000000
     63         -2.750330       -2.741969   1.000000   1.000000
     64         -2.744582       -2.735906   1.000000   1.000000
     65         -2.715233       -2.703948   1.000000   1.000000
     66         -2.679565       -2.670508   1.000000   1.000000
     67         -2.619308       -2.610034   1.000000   1.000000
     68         -2.539444       -2.531160   1.000000   1.000000
     69         -2.348721       -2.338858   1.000000   1.000000
     70         -2.233050       -2.219410   1.000000   1.000000
     71         -2.196769       -2.182763   1.000000   1.000000
     72         -2.070939       -2.062255   1.000000   1.000000
     73         -1.944065       -1.934922   1.000000   1.000000
     74         -1.904570       -1.893178   1.000000   1.000000
     75         -1.886800       -1.873991   1.000000   1.000000
     76         -1.821449       -1.806379   1.000000   1.000000
     77         -1.688879       -1.675160   1.000000   1.000000
     78         -1.602495       -1.594314   1.000000   1.000000
     79         -1.560477       -1.550258   1.000000   1.000000
     80         -1.549511       -1.538144   1.000000   1.000000
     81         -1.536584       -1.528299   1.000000   1.000000
     82         -1.408673       -1.399658   1.000000   1.000000
     83         -1.394190       -1.384426   1.000000   1.000000
     84         -1.214762       -1.207097   1.000000   1.000000
     85         -1.214346       -1.205559   1.000000   1.000000
     86         -1.079848       -1.069605   1.000000   1.000000
     87         -1.044512       -1.034426   1.000000   1.000000
     88         -0.930775       -0.921825   1.000000   1.000000
     89         -0.847528       -0.837187   1.000000   1.000000
     90         -0.796606       -0.782625   1.000000   1.000000
     91         -0.741749       -0.732080   1.000000   1.000000
     92         -0.706279       -0.694428   1.000000   1.000000
     93         -0.682696       -0.670811   1.000000   1.000000
     94         -0.630032       -0.619283   1.000000   1.000000
     95         -0.533275       -0.522429   1.000000   1.000000
     96         -0.373896       -0.362993   1.000000   1.000000
     97         -0.328809       -0.317342   1.000000   1.000000
     98         -0.226688       -0.215136   1.000000   1.000000
     99         -0.166041       -0.155741   1.000000   1.000000
    100         -0.134358       -0.124194   1.000000   1.000000
    101         -0.116137       -0.105181   1.000000   1.000000
    102          0.024052        0.033555   1.000000   1.000000
    103          0.097281        0.106210   1.000000   1.000000
    104          0.201384        0.211094   1.000000   1.000000
    105          0.305451        0.314825   1.000000   1.000000
    106          0.324241        0.333751   1.000000   1.000000
    107          0.433507        0.445476   1.000000   1.000000
    108          0.435204        0.445609   1.000000   1.000000
    109          0.603577        0.613509   1.000000   1.000000
    110          0.608218        0.618695   1.000000   1.000000
    111          0.622342        0.633233   1.000000   1.000000
    112          0.718161        0.728112   1.000000   1.000000
    113          0.856917        0.867188   1.000000   1.000000
    114          0.903212        0.913655   1.000000   1.000000
    115          0.903607        0.914965   1.000000   1.000000
    116          0.979236        0.988265   1.000000   1.000000
    117          1.104595        1.114932   1.000000   1.000000
    118          1.215668        1.227129   1.000000   1.000000
    119          1.229420        1.238768   1.000000   1.000000
    120          1.373862        1.384301   1.000000   1.000000
    121          1.401836        1.411828   1.000000   1.000000
    122          1.497029        1.506875   1.000000   1.000000
    123          1.502115        1.514732   1.000000   1.000000
    124          1.572513        1.583722   1.000000   1.000000
    125          1.614732        1.627407   1.000000   1.000000
    126          1.679241        1.689625   1.000000   1.000000
    127          1.735740        1.746129   1.000000   1.000000
    128          1.839347        1.850982   1.000000   1.000000
    129          1.850110        1.861582   1.000000   1.000000
    130          1.981968        1.994266   1.000000   1.000000
    131          2.043942        2.055325   1.000000   1.000000
    132          2.110588        2.123426   1.000000   1.000000
    133          2.135287        2.146001   1.000000   1.000000
    134          2.172365        2.186353   1.000000   1.000000
    135          2.203657        2.215732   1.000000   1.000000
    136          2.264978        2.274678   1.000000   1.000000
    137          2.441112        2.451222   1.000000   1.000000
    138          2.447801        2.457274   1.000000   1.000000
    139          2.515817        2.526392   1.000000   1.000000
    140          2.558600        2.572890   1.000000   1.000000
    141          2.613310        2.622508   1.000000   1.000000
    142          2.724992        2.734865   1.000000   1.000000
    143          2.755051        2.765912   1.000000   1.000000
    144          2.882198        2.893818   1.000000   1.000000
    145          2.887233        2.899477   1.000000   1.000000
    146          2.922195        2.933419   1.000000   1.000000
    147          2.946723        2.956125   1.000000   1.000000
    148          3.020943        3.030385   1.000000   1.000000
    149          3.072703        3.084816   1.000000   1.000000
    150          3.169731        3.179568   1.000000   1.000000
    151          3.179334        3.190371   1.000000   1.000000
    152          3.262693        3.274327   1.000000   1.000000
    153          3.405630        3.416181   1.000000   1.000000
    154          3.433325        3.446713   1.000000   1.000000
    155          3.522595        3.532581   1.000000   1.000000
    156          3.560493        3.572688   1.000000   1.000000
    157          3.634612        3.646477   1.000000   1.000000
    158          3.682836        3.693206   1.000000   1.000000
    159          3.752250        3.763507   1.000000   1.000000
    160          3.825210        3.836987   1.000000   1.000000
    161          3.855587        3.867009   1.000000   1.000000
    162          3.892187        3.903852   1.000000   1.000000
    163          4.003379        4.014587   1.000000   1.000000
    164          4.040777        4.051653   1.000000   1.000000
    165          4.073753        4.084890   1.000000   1.000000
    166          4.120168        4.131941   1.000000   1.000000
    167          4.239485        4.253051   1.000000   1.000000
    168          4.394983        4.408503   1.000000   1.000000
    169          4.440007        4.449523   1.000000   1.000000
    170          4.473908        4.487105   1.000000   1.000000
    171          4.500156        4.514071   1.000000   1.000000
    172          4.677966        4.691266   1.000000   1.000000
    173          4.727920        4.741086   1.000000   1.000000
    174          4.735674        4.747839   1.000000   1.000000
    175          4.842790        4.853973   1.000000   1.000000
    176          4.911113        4.919782   1.000000   1.000000
    177          4.937780        4.952086   1.000000   1.000000
    178          4.965881        4.977437   1.000000   1.000000
    179          5.014270        5.027873   1.000000   1.000000
    180          5.135203        5.152590   1.000000   1.000000
    181          5.156892        5.169899   1.000000   1.000000
    182          5.306218        5.319919   1.000000   1.000000
    183          5.371119        5.384540   1.000000   1.000000
    184          5.478121        5.490989   1.000000   1.000000
    185          5.533098        5.548194   1.000000   1.000000
    186          5.617775        5.631223   1.000000   1.000000
    187          5.621522        5.633935   1.000000   1.000000
    188          5.728495        5.750241   1.000000   1.000000
    189          5.746058        5.760978   1.000000   1.000000
    190          5.839384        5.856769   1.000000   1.000000
    191          5.926509        5.942575   1.000000   1.000000
    192          5.968734        5.985669   1.000000   1.000000
    193          6.100500        6.117348   1.000000   1.000000
    194          6.312223        6.327340   1.000000   1.000000
    195          6.313593        6.331882   1.000000   1.000000
    196          6.493280        6.513997   1.000000   1.000000
    197          6.548276        6.564492   1.000000   1.000000
    198          6.618950        6.638619   1.000000   1.000000
    199          6.663444        6.677850   1.000000   1.000000
    200          6.782145        6.797731   1.000000   1.000000
    201          6.823317        6.837770   1.000000   1.000000
    202          6.836967        6.856949   1.000000   1.000000
    203          6.962616        6.977788   1.000000   1.000000
    204          7.071201        7.085202   1.000000   1.000000
    205          7.095373        7.111174   1.000000   1.000000
    206          7.154616        7.168970   1.000000   1.000000
    207          7.304219        7.321121   1.000000   1.000000
    208          7.329034        7.341800   1.000000   1.000000
    209          7.434737        7.448553   1.000000   1.000000
    210          7.466282        7.480573   1.000000   1.000000
    211          7.599572        7.616087   1.000000   1.000000
    212          7.678989        7.693777   1.000000   1.000000
    213          7.780568        7.806822   1.000000   1.000000
    214          7.837472        7.855849   1.000000   1.000000
    215          7.919391        7.944197   1.000000   1.000000
    216          8.044606        8.070046   1.000000   1.000000
    217          8.151635        8.173329   1.000000   1.000000
    218          8.299821        8.316103   1.000000   1.000000
    219          8.326528        8.349096   1.000000   1.000000
    220          8.442757        8.460234   1.000000   1.000000
    221          8.463605        8.485701   1.000000   1.000000
    222          8.500995        8.550758   1.000000   1.000000
    223          8.729940        8.752931   1.000000   1.000000
    224          8.774680        8.790688   1.000000   1.000000
    225          8.939238        8.962040   1.000000   1.000000
    226          8.945228        8.962080   1.000000   1.000000
    227          9.089169        9.115110   1.000000   1.000000
    228          9.161702        9.184189   1.000000   1.000000
    229          9.176228        9.197503   1.000000   1.000000
    230          9.187382        9.209322   1.000000   1.000000
    231          9.260862        9.282102   1.000000   1.000000
    232          9.447324        9.471712   1.000000   1.000000
    233          9.492168        9.523973   1.000000   1.000000
    234          9.551456        9.591018   1.000000   1.000000
    235          9.568371        9.609040   1.000000   1.000000
    236          9.630892        9.663789   1.000000   0.238432
    237          9.653480        9.693026   1.000000   0.000001
    238          9.750700        9.773705   0.000000   0.000000
    239          9.777149        9.801239   0.000000   0.000000
    240          9.803229        9.827948   0.000000   0.000000
    241          9.921103        9.944801   0.000000   0.000000
    242          9.923613        9.948281   0.000000   0.000000
    243         10.029388       10.052232   0.000000   0.000000
    244         10.199734       10.217602   0.000000   0.000000
    245         10.225369       10.246051   0.000000   0.000000
    246         10.337847       10.355763   0.000000   0.000000
    247         10.367015       10.387934   0.000000   0.000000
    248         10.472017       10.502292   0.000000   0.000000
    249         10.559385       10.576095   0.000000   0.000000
    250         10.578035       10.597469   0.000000   0.000000
    251         10.637774       10.660850   0.000000   0.000000
    252         10.727913       10.751436   0.000000   0.000000
    253         10.815919       10.833587   0.000000   0.000000
    254         10.897730       10.920749   0.000000   0.000000
    255         10.923391       10.941828   0.000000   0.000000
    256         10.956257       10.976722   0.000000   0.000000
    257         11.094376       11.115704   0.000000   0.000000
    258         11.149254       11.165911   0.000000   0.000000
    259         11.193689       11.208035   0.000000   0.000000
    260         11.196153       11.210041   0.000000   0.000000
    261         11.226491       11.244180   0.000000   0.000000
    262         11.455608       11.476890   0.000000   0.000000
    263         11.462974       11.477701   0.000000   0.000000
    264         11.586149       11.601443   0.000000   0.000000
    265         11.692099       11.706139   0.000000   0.000000
    266         11.739304       11.756274   0.000000   0.000000
    267         11.748880       11.765375   0.000000   0.000000
    268         11.760430       11.778276   0.000000   0.000000
    269         11.942511       11.959025   0.000000   0.000000
    270         11.986570       12.002329   0.000000   0.000000
    271         12.001492       12.014515   0.000000   0.000000
    272         12.139498       12.151409   0.000000   0.000000
    273         12.233014       12.246827   0.000000   0.000000
    274         12.237136       12.250432   0.000000   0.000000
    275         12.332579       12.346658   0.000000   0.000000
    276         12.536099       12.549282   0.000000   0.000000
    277         12.538341       12.555373   0.000000   0.000000
    278         12.658094       12.669484   0.000000   0.000000
    279         12.691628       12.705770   0.000000   0.000000
    280         12.901369       12.914572   0.000000   0.000000
    281         12.910971       12.924523   0.000000   0.000000
    282         13.001750       13.014109   0.000000   0.000000
    283         13.038986       13.054560   0.000000   0.000000
    284         13.217000       13.230265   0.000000   0.000000
    285         13.273059       13.290430   0.000000   0.000000
    286         13.403696       13.418672   0.000000   0.000000
    287         13.422928       13.437714   0.000000   0.000000
    288         13.455656       13.452383   0.000000   0.000000
 
  0.3333333E+00 -0.8045388E-17  0.0000000E+00  0.5555556E-01
      1        -12.132269      -12.125624   1.000000   1.000000
      2        -12.019205      -12.012605   1.000000   1.000000
      3        -11.599692      -11.590441   1.000000   1.000000
      4        -11.552265      -11.543785   1.000000   1.000000
      5        -11.375909      -11.369286   1.000000   1.000000
      6        -11.349844      -11.343450   1.000000   1.000000
      7        -10.858533      -10.851242   1.000000   1.000000
      8        -10.779942      -10.772904   1.000000   1.000000
      9        -10.470610      -10.462084   1.000000   1.000000
     10        -10.394743      -10.384718   1.000000   1.000000
     11        -10.384809      -10.378173   1.000000   1.000000
     12        -10.209024      -10.196748   1.000000   1.000000
     13        -10.194402      -10.187403   1.000000   1.000000
     14        -10.072174      -10.055862   1.000000   1.000000
     15         -9.435384       -9.428945   1.000000   1.000000
     16         -9.425101       -9.418115   1.000000   1.000000
     17         -9.084026       -9.076315   1.000000   1.000000
     18         -8.950234       -8.942715   1.000000   1.000000
     19         -8.491440       -8.480556   1.000000   1.000000
     20         -8.300585       -8.290903   1.000000   1.000000
     21         -8.166156       -8.156281   1.000000   1.000000
     22         -8.082669       -8.075087   1.000000   1.000000
     23         -7.997563       -7.988972   1.000000   1.000000
     24         -7.720459       -7.712265   1.000000   1.000000
     25         -7.674806       -7.666590   1.000000   1.000000
     26         -7.554119       -7.545643   1.000000   1.000000
     27         -7.218172       -7.210168   1.000000   1.000000
     28         -7.186204       -7.175272   1.000000   1.000000
     29         -7.022397       -7.008313   1.000000   1.000000
     30         -6.950631       -6.941453   1.000000   1.000000
     31         -6.825883       -6.815299   1.000000   1.000000
     32         -6.807187       -6.795742   1.000000   1.000000
     33         -6.560616       -6.549877   1.000000   1.000000
     34         -6.508030       -6.497416   1.000000   1.000000
     35         -6.330072       -6.320872   1.000000   1.000000
     36         -6.302688       -6.294486   1.000000   1.000000
     37         -5.982822       -5.973188   1.000000   1.000000
     38         -5.807452       -5.797893   1.000000   1.000000
     39         -5.634001       -5.620487   1.000000   1.000000
     40         -5.631900       -5.617157   1.000000   1.000000
     41         -5.394904       -5.383506   1.000000   1.000000
     42         -5.335450       -5.323099   1.000000   1.000000
     43         -5.162044       -5.151450   1.000000   1.000000
     44         -5.094983       -5.084863   1.000000   1.000000
     45         -4.922496       -4.913296   1.000000   1.000000
     46         -4.824097       -4.813402   1.000000   1.000000
     47         -4.699228       -4.690039   1.000000   1.000000
     48         -4.691344       -4.682386   1.000000   1.000000
     49         -4.558494       -4.548211   1.000000   1.000000
     50         -4.551990       -4.541251   1.000000   1.000000
     51         -4.032116       -4.022387   1.000000   1.000000
     52         -4.003387       -3.994003   1.000000   1.000000
     53         -3.915167       -3.906229   1.000000   1.000000
     54         -3.883430       -3.873455   1.000000   1.000000
     55         -3.675603       -3.665228   1.000000   1.000000
     56         -3.626832       -3.615204   1.000000   1.000000
     57         -3.387372       -3.377887   1.000000   1.000000
     58         -3.375138       -3.365332   1.000000   1.000000
     59         -3.144736       -3.135897   1.000000   1.000000
     60         -3.123989       -3.115296   1.000000   1.000000
     61         -3.082800       -3.074533   1.000000   1.000000
     62         -2.946002       -2.936566   1.000000   1.000000
     63         -2.822902       -2.811160   1.000000   1.000000
     64         -2.769892       -2.759690   1.000000   1.000000
     65         -2.667597       -2.658684   1.000000   1.000000
     66         -2.643400       -2.634949   1.000000   1.000000
     67         -2.533742       -2.522967   1.000000   1.000000
     68         -2.531306       -2.522933   1.000000   1.000000
     69         -2.271157       -2.257087   1.000000   1.000000
     70         -2.252895       -2.242296   1.000000   1.000000
     71         -2.178302       -2.166824   1.000000   1.000000
     72         -2.115466       -2.107033   1.000000   1.000000
     73         -2.021116       -2.010329   1.000000   1.000000
     74         -1.946806       -1.933959   1.000000   1.000000
     75         -1.875497       -1.863456   1.000000   1.000000
     76         -1.812118       -1.801178   1.000000   1.000000
     77         -1.777525       -1.765900   1.000000   1.000000
     78         -1.648821       -1.636857   1.000000   1.000000
     79         -1.572614       -1.562708   1.000000   1.000000
     80         -1.536333       -1.525491   1.000000   1.000000
     81         -1.510115       -1.499250   1.000000   1.000000
     82         -1.418303       -1.409698   1.000000   1.000000
     83         -1.351927       -1.343328   1.000000   1.000000
     84         -1.260873       -1.252503   1.000000   1.000000
     85         -1.252188       -1.242073   1.000000   1.000000
     86         -1.163596       -1.153621   1.000000   1.000000
     87         -1.004639       -0.994303   1.000000   1.000000
     88         -0.912439       -0.902437   1.000000   1.000000
     89         -0.906964       -0.897320   1.000000   1.000000
     90         -0.806555       -0.795563   1.000000   1.000000
     91         -0.757494       -0.745677   1.000000   1.000000
     92         -0.685162       -0.674216   1.000000   1.000000
     93         -0.588120       -0.576943   1.000000   1.000000
     94         -0.566746       -0.554470   1.000000   1.000000
     95         -0.429666       -0.419028   1.000000   1.000000
     96         -0.363795       -0.352292   1.000000   1.000000
     97         -0.356418       -0.345335   1.000000   1.000000
     98         -0.251226       -0.240296   1.000000   1.000000
     99         -0.144406       -0.134019   1.000000   1.000000
    100         -0.066377       -0.055644   1.000000   1.000000
    101         -0.039693       -0.030026   1.000000   1.000000
    102          0.034150        0.044635   1.000000   1.000000
    103          0.052871        0.062498   1.000000   1.000000
    104          0.211067        0.222047   1.000000   1.000000
    105          0.234412        0.244370   1.000000   1.000000
    106          0.306874        0.317252   1.000000   1.000000
    107          0.374854        0.384692   1.000000   1.000000
    108          0.388446        0.397687   1.000000   1.000000
    109          0.532872        0.543302   1.000000   1.000000
    110          0.649079        0.658514   1.000000   1.000000
    111          0.695766        0.706449   1.000000   1.000000
    112          0.725515        0.736034   1.000000   1.000000
    113          0.786476        0.796825   1.000000   1.000000
    114          0.893710        0.903952   1.000000   1.000000
    115          0.915994        0.926927   1.000000   1.000000
    116          1.052595        1.062901   1.000000   1.000000
    117          1.114042        1.125599   1.000000   1.000000
    118          1.175776        1.186459   1.000000   1.000000
    119          1.327088        1.336890   1.000000   1.000000
    120          1.349530        1.359409   1.000000   1.000000
    121          1.429141        1.440323   1.000000   1.000000
    122          1.466906        1.477007   1.000000   1.000000
    123          1.496795        1.506958   1.000000   1.000000
    124          1.503993        1.514285   1.000000   1.000000
    125          1.666106        1.675646   1.000000   1.000000
    126          1.673436        1.685834   1.000000   1.000000
    127          1.745996        1.756559   1.000000   1.000000
    128          1.755111        1.766558   1.000000   1.000000
    129          1.871703        1.882547   1.000000   1.000000
    130          1.877726        1.890628   1.000000   1.000000
    131          2.013321        2.025425   1.000000   1.000000
    132          2.117704        2.128666   1.000000   1.000000
    133          2.148002        2.159929   1.000000   1.000000
    134          2.196277        2.209383   1.000000   1.000000
    135          2.246804        2.258350   1.000000   1.000000
    136          2.290546        2.304459   1.000000   1.000000
    137          2.398427        2.409339   1.000000   1.000000
    138          2.420470        2.430762   1.000000   1.000000
    139          2.543295        2.554257   1.000000   1.000000
    140          2.634283        2.644722   1.000000   1.000000
    141          2.663713        2.674309   1.000000   1.000000
    142          2.693853        2.703625   1.000000   1.000000
    143          2.711597        2.722547   1.000000   1.000000
    144          2.807714        2.818610   1.000000   1.000000
    145          2.918839        2.929630   1.000000   1.000000
    146          2.936080        2.947711   1.000000   1.000000
    147          3.034701        3.046411   1.000000   1.000000
    148          3.098378        3.108217   1.000000   1.000000
    149          3.158747        3.170102   1.000000   1.000000
    150          3.198420        3.209020   1.000000   1.000000
    151          3.218103        3.227988   1.000000   1.000000
    152          3.257991        3.268586   1.000000   1.000000
    153          3.414387        3.425073   1.000000   1.000000
    154          3.455513        3.466491   1.000000   1.000000
    155          3.463347        3.474624   1.000000   1.000000
    156          3.562204        3.573517   1.000000   1.000000
    157          3.564287        3.576516   1.000000   1.000000
    158          3.674359        3.686516   1.000000   1.000000
    159          3.727261        3.738345   1.000000   1.000000
    160          3.768360        3.779720   1.000000   1.000000
    161          3.848754        3.860698   1.000000   1.000000
    162          3.854665        3.865779   1.000000   1.000000
    163          3.903047        3.914965   1.000000   1.000000
    164          4.054870        4.066306   1.000000   1.000000
    165          4.120895        4.131807   1.000000   1.000000
    166          4.221232        4.234411   1.000000   1.000000
    167          4.302933        4.315314   1.000000   1.000000
    168          4.354267        4.365989   1.000000   1.000000
    169          4.451729        4.464355   1.000000   1.000000
    170          4.481696        4.493689   1.000000   1.000000
    171          4.562591        4.574317   1.000000   1.000000
    172          4.571743        4.585727   1.000000   1.000000
    173          4.625759        4.639381   1.000000   1.000000
    174          4.681208        4.693488   1.000000   1.000000
    175          4.830418        4.842699   1.000000   1.000000