<?xml version="1.0" encoding="ISO-8859-1"?>
<modeling>
 <generator>
  <i name="program" type="string">vasp </i>
  <i name="version" type="string">6.4.3  </i>
  <i name="subversion" type="string">19Mar24 (build Oct 22 2024 11:23:12) complex                          parallel </i>
  <i name="platform" type="string">LinuxIFC </i>
  <i name="date" type="string">2025 06 07 </i>
  <i name="time" type="string">18:12:40 </i>
 </generator>
 <incar>
  <i type="string" name="SYSTEM">Si and Ge interface calculation</i>
  <i type="int" name="ISTART">     0</i>
  <i type="logical" name="ADDGRID"> T  </i>
  <i type="int" name="ISPIN">     2</i>
  <i name="AMIX">      0.60000000</i>
  <i type="int" name="ICHARG">     2</i>
  <i type="int" name="NELM">   100</i>
  <i name="EDIFF">      0.00000010</i>
  <i name="ENCUT">    700.00000000</i>
  <i name="ENAUG">    900.00000000</i>
  <i type="int" name="NBANDS">   288</i>
  <i name="NUPDOWN">      1.00000000</i>
  <i name="NELECT">    480.00000000</i>
  <i type="string" name="LREAL">AUTO</i>
  <i type="int" name="ISMEAR">     0</i>
  <i name="SIGMA">      0.01000000</i>
  <i type="int" name="LMAXMIX">     6</i>
  <i type="logical" name="LWAVE"> F  </i>
  <i type="logical" name="LVTOT"> F  </i>
  <i type="logical" name="LVHAR"> T  </i>
  <i type="logical" name="LASPH"> T  </i>
  <i type="logical" name="LMIXTAU"> T  </i>
 </incar>
 <primitive_cell>
  <structure name="primitive_cell" >
   <crystal>
    <varray name="basis" >
     <v>       0.00000000       0.00000000       5.02992439 </v>
     <v>       6.65159022       0.00000000       0.00000003 </v>
     <v>       0.00000082      14.87340641       0.00000003 </v>
    </varray>
    <i name="volume">    497.61949701 </i>
    <varray name="rec_basis" >
     <v>      -0.00000000      -0.00000000       0.19881015 </v>
     <v>       0.15033999      -0.00000001       0.00000000 </v>
     <v>       0.00000000       0.06723409       0.00000000 </v>
    </varray>
   </crystal>
   <varray name="positions" >
    <v>       1.00000000       0.04273588       0.99145281 </v>
    <v>       0.24143682       0.54273615       0.89145273 </v>
    <v>       0.48287364       0.04273638       0.79145259 </v>
    <v>       1.00000000       0.70940257       0.32478613 </v>
    <v>       0.24143682       0.20940284       0.22478604 </v>
    <v>       0.48287364       0.70940304       0.12478592 </v>
    <v>       1.00000000       0.37606919       0.65811950 </v>
    <v>       0.24143682       0.87606952       0.55811936 </v>
    <v>       0.48287364       0.37606972       0.45811924 </v>
    <v>       0.12071817       0.54273566       0.19145280 </v>
    <v>       0.36215508       0.04273616       0.09145273 </v>
    <v>       0.60359185       0.54273627       0.99145263 </v>
    <v>       0.12071817       0.20940235       0.52478611 </v>
    <v>       0.36215508       0.70940288       0.42478600 </v>
    <v>       0.60359185       0.20940299       0.32478592 </v>
    <v>       0.12071817       0.87606898       0.85811949 </v>
    <v>       0.36215508       0.37606954       0.75811934 </v>
    <v>       0.60359185       0.87606970       0.65811920 </v>
    <v>       0.92071842       0.77997223       0.82711160 </v>
    <v>       0.60359192       0.49425764       0.85568315 </v>
    <v>       0.76215528       0.13711490       0.84139741 </v>
    <v>       0.92071854       0.20854356       0.68425441 </v>
    <v>       0.60359191       0.92282925       0.71282607 </v>
    <v>       0.76215529       0.56568645       0.69854021 </v>
    <v>       0.92071843       0.63711499       0.54139733 </v>
    <v>       0.60359191       0.35140051       0.56996894 </v>
    <v>       0.76215528       0.99425773       0.55568314 </v>
    <v>       0.92071843       0.06568653       0.39854017 </v>
    <v>       0.60359192       0.77997190       0.42711178 </v>
    <v>       0.76215528       0.42282929       0.41282594 </v>
    <v>       0.92071842       0.49425801       0.25568301 </v>
    <v>       0.60359192       0.20854333       0.28425458 </v>
    <v>       0.76215529       0.85140076       0.26996884 </v>
    <v>       0.92071843       0.92282938       0.11282588 </v>
    <v>       0.60359191       0.63711467       0.14139748 </v>
    <v>       0.76215529       0.27997204       0.12711169 </v>
    <v>       0.92071843       0.35140090       0.96996874 </v>
    <v>       0.60359192       0.06568622       0.99854028 </v>
    <v>       0.76215528       0.70854351       0.98425454 </v>
    <v>       0.99999987       0.77997187       0.92711163 </v>
    <v>       0.68287348       0.49425740       0.95568317 </v>
    <v>       0.84143674       0.13711476       0.94139743 </v>
    <v>       0.99999987       0.20854308       0.78425455 </v>
    <v>       0.68287348       0.92282852       0.81282598 </v>
    <v>       0.84143662       0.56568591       0.79854017 </v>
    <v>       0.99999976       0.63711487       0.64139736 </v>
    <v>       0.68287349       0.35140037       0.66996884 </v>
    <v>       0.84143673       0.99425766       0.65568310 </v>
    <v>       0.99999987       0.06568626       0.49854028 </v>
    <v>       0.68287349       0.77997158       0.52711177 </v>
    <v>       0.84143673       0.42282899       0.51282591 </v>
    <v>       0.99999987       0.49425738       0.35568306 </v>
    <v>       0.68287360       0.20854286       0.38425457 </v>
    <v>       0.84143674       0.85140042       0.36996883 </v>
    <v>       0.99999988       0.92282926       0.21282589 </v>
    <v>       0.68287348       0.63711456       0.24139749 </v>
    <v>       0.84143674       0.27997192       0.22711171 </v>
    <v>       0.99999988       0.35140073       0.06996880 </v>
    <v>       0.68287349       0.06568596       0.09854033 </v>
    <v>       0.84143673       0.70854314       0.08425457 </v>
   </varray>
  </structure>
  <varray name="primitive_index" >
   <v type="int" >        1 </v>
   <v type="int" >        2 </v>
   <v type="int" >       21 </v>
   <v type="int" >        4 </v>
   <v type="int" >        5 </v>
   <v type="int" >       24 </v>
   <v type="int" >        7 </v>
   <v type="int" >        8 </v>
   <v type="int" >       27 </v>
   <v type="int" >       28 </v>
   <v type="int" >       29 </v>
   <v type="int" >       12 </v>
   <v type="int" >       31 </v>
   <v type="int" >       32 </v>
   <v type="int" >       15 </v>
   <v type="int" >       34 </v>
   <v type="int" >       35 </v>
   <v type="int" >       18 </v>
   <v type="int" >       37 </v>
   <v type="int" >       38 </v>
   <v type="int" >       81 </v>
   <v type="int" >       40 </v>
   <v type="int" >       83 </v>
   <v type="int" >       84 </v>
   <v type="int" >       43 </v>
   <v type="int" >       86 </v>
   <v type="int" >       45 </v>
   <v type="int" >       46 </v>
   <v type="int" >       89 </v>
   <v type="int" >       48 </v>
   <v type="int" >       91 </v>
   <v type="int" >       92 </v>
   <v type="int" >       51 </v>
   <v type="int" >       94 </v>
   <v type="int" >       53 </v>
   <v type="int" >       54 </v>
   <v type="int" >       97 </v>
   <v type="int" >       56 </v>
   <v type="int" >       99 </v>
   <v type="int" >      100 </v>
   <v type="int" >      101 </v>
   <v type="int" >       60 </v>
   <v type="int" >      103 </v>
   <v type="int" >       62 </v>
   <v type="int" >       63 </v>
   <v type="int" >      106 </v>
   <v type="int" >       65 </v>
   <v type="int" >      108 </v>
   <v type="int" >       67 </v>
   <v type="int" >       68 </v>
   <v type="int" >      111 </v>
   <v type="int" >       70 </v>
   <v type="int" >      113 </v>
   <v type="int" >      114 </v>
   <v type="int" >       73 </v>
   <v type="int" >      116 </v>
   <v type="int" >      117 </v>
   <v type="int" >       76 </v>
   <v type="int" >      119 </v>
   <v type="int" >       78 </v>
  </varray>
 </primitive_cell>
 <kpoints>
  <generation param="Gamma">
   <v type="int" name="divisions">       3        2        6 </v>
   <v name="usershift">      0.00000000       0.00000000       0.00000000 </v>
   <v name="genvec1">      0.33333333       0.00000000       0.00000000 </v>
   <v name="genvec2">      0.00000000       0.50000000       0.00000000 </v>
   <v name="genvec3">      0.00000000       0.00000000       0.16666667 </v>
   <v name="shift">      0.00000000       0.00000000       0.00000000 </v>
  </generation>
  <varray name="kpointlist" >
   <v>       0.00000000       0.00000000       0.00000000 </v>
   <v>       0.33333333      -0.00000000       0.00000000 </v>
   <v>       0.00000000       0.50000000       0.00000000 </v>
   <v>       0.33333333       0.50000000       0.00000000 </v>
   <v>       0.00000000       0.00000000       0.16666667 </v>
   <v>       0.33333333      -0.00000000       0.16666667 </v>
   <v>      -0.33333333       0.00000000       0.16666667 </v>
   <v>       0.00000000       0.50000000       0.16666667 </v>
   <v>       0.33333333       0.50000000       0.16666667 </v>
   <v>      -0.33333333       0.50000000       0.16666667 </v>
   <v>       0.00000000       0.00000000       0.33333333 </v>
   <v>       0.33333333      -0.00000000       0.33333333 </v>
   <v>      -0.33333333       0.00000000       0.33333333 </v>
   <v>       0.00000000       0.50000000       0.33333333 </v>
   <v>       0.33333333       0.50000000       0.33333333 </v>
   <v>      -0.33333333       0.50000000       0.33333333 </v>
   <v>       0.00000000       0.00000000       0.50000000 </v>
   <v>       0.33333333      -0.00000000       0.50000000 </v>
   <v>       0.00000000       0.50000000       0.50000000 </v>
   <v>       0.33333333       0.50000000       0.50000000 </v>
  </varray>
  <varray name="weights" >
   <v>       0.02777778 </v>
   <v>       0.05555556 </v>
   <v>       0.02777778 </v>
   <v>       0.05555556 </v>
   <v>       0.05555556 </v>
   <v>       0.05555556 </v>
   <v>       0.05555556 </v>
   <v>       0.05555556 </v>
   <v>       0.05555556 </v>
   <v>       0.05555556 </v>
   <v>       0.05555556 </v>
   <v>       0.05555556 </v>
   <v>       0.05555556 </v>
   <v>       0.05555556 </v>
   <v>       0.05555556 </v>
   <v>       0.05555556 </v>
   <v>       0.02777778 </v>
   <v>       0.05555556 </v>
   <v>       0.02777778 </v>
   <v>       0.05555556 </v>
  </varray>
 </kpoints>
 <parameters>
  <separator name="general" >
   <i type="string" name="SYSTEM">Si and Ge interface calculation</i>
   <i type="logical" name="LCOMPAT"> F  </i>
  </separator>
  <separator name="electronic" >
   <i type="string" name="PREC">normal</i>
   <i name="ENMAX">    700.00000000</i>
   <i name="ENAUG">    900.00000000</i>
   <i name="EDIFF">      0.00000010</i>
   <i type="int" name="IALGO">    38</i>
   <i type="int" name="IWAVPR">    10</i>
   <i type="int" name="NBANDS">   288</i>
   <i type="int" name="NBANDSLOW">    -1</i>
   <i type="int" name="NBANDSHIGH">    -1</i>
   <i name="NELECT">    480.00000000</i>
   <i type="int" name="TURBO">     0</i>
   <i type="int" name="IRESTART">     0</i>
   <i type="int" name="NREBOOT">     0</i>
   <i type="int" name="NMIN">     0</i>
   <i name="EREF">      0.00000000</i>
   <separator name="electronic smearing" >
    <i type="int" name="ISMEAR">     0</i>
    <i name="SIGMA">      0.01000000</i>
    <i name="KSPACING">      0.50000000</i>
    <i type="logical" name="KGAMMA"> T  </i>
    <i type="logical" name="KBLOWUP"> F  </i>
   </separator>
   <separator name="electronic projectors" >
    <i type="logical" name="LREAL"> T  </i>
    <v name="ROPT">     -0.00050000     -0.00050000</v>
    <i type="int" name="LMAXPAW">  -100</i>
    <i type="int" name="LMAXMIX">     6</i>
    <i type="logical" name="NLSPLINE"> F  </i>
   </separator>
   <separator name="electronic startup" >
    <i type="int" name="ISTART">     0</i>
    <i type="int" name="ICHARG">     2</i>
    <i type="int" name="INIWAV">     1</i>
   </separator>
   <separator name="electronic spin" >
    <i type="int" name="ISPIN">     2</i>
    <i type="logical" name="LNONCOLLINEAR"> F  </i>
    <v name="MAGMOM">      0.00833333      0.00833333      0.00833333      0.00833333      0.00833333      0.00833333      0.00833333      0.00833333      0.00833333      0.00833333      0.00833333      0.00833333      0.00833333      0.00833333      0.00833333      0.00833333      0.00833333      0.00833333      0.00833333      0.00833333
      0.00833333      0.00833333      0.00833333      0.00833333      0.00833333      0.00833333      0.00833333      0.00833333      0.00833333      0.00833333      0.00833333      0.00833333      0.00833333      0.00833333      0.00833333      0.00833333      0.00833333      0.00833333      0.00833333      0.00833333
      0.00833333      0.00833333      0.00833333      0.00833333      0.00833333      0.00833333      0.00833333      0.00833333      0.00833333      0.00833333      0.00833333      0.00833333      0.00833333      0.00833333      0.00833333      0.00833333      0.00833333      0.00833333      0.00833333      0.00833333
      0.00833333      0.00833333      0.00833333      0.00833333      0.00833333      0.00833333      0.00833333      0.00833333      0.00833333      0.00833333      0.00833333      0.00833333      0.00833333      0.00833333      0.00833333      0.00833333      0.00833333      0.00833333      0.00833333      0.00833333
      0.00833333      0.00833333      0.00833333      0.00833333      0.00833333      0.00833333      0.00833333      0.00833333      0.00833333      0.00833333      0.00833333      0.00833333      0.00833333      0.00833333      0.00833333      0.00833333      0.00833333      0.00833333      0.00833333      0.00833333
      0.00833333      0.00833333      0.00833333      0.00833333      0.00833333      0.00833333      0.00833333      0.00833333      0.00833333      0.00833333      0.00833333      0.00833333      0.00833333      0.00833333      0.00833333      0.00833333      0.00833333      0.00833333      0.00833333      0.00833333
</v>
    <i name="NUPDOWN">      1.00000000</i>
    <i type="logical" name="LSORBIT"> F  </i>
    <v name="SAXIS">      0.00000000      0.00000000      1.00000000</v>
    <i type="logical" name="LSPIRAL"> F  </i>
    <v name="QSPIRAL">      0.00000000      0.00000000      0.00000000</v>
    <i type="logical" name="LZEROZ"> F  </i>
   </separator>
   <separator name="electronic exchange-correlation" >
    <i type="logical" name="LASPH"> T  </i>
   </separator>
   <separator name="electronic convergence" >
    <i type="int" name="NELM">   100</i>
    <i type="int" name="NELMDL">    -5</i>
    <i type="int" name="NELMIN">     2</i>
    <i name="ENINI">    700.00000000</i>
    <separator name="electronic convergence detail" >
     <i type="logical" name="LDIAG"> T  </i>
     <i type="logical" name="LSUBROT"> F  </i>
     <i name="WEIMIN">      0.00000000</i>
     <i name="EBREAK">      0.00000000</i>
     <i name="DEPER">      0.30000000</i>
     <i type="int" name="NRMM">     4</i>
     <i name="TIME">      0.40000000</i>
    </separator>
   </separator>
   <separator name="electronic mixer" >
    <i name="AMIX">      0.60000000</i>
    <i name="BMIX">      1.00000000</i>
    <i name="AMIN">      0.10000000</i>
    <i name="AMIX_MAG">      2.40000000</i>
    <i name="BMIX_MAG">      1.00000000</i>
    <separator name="electronic mixer details" >
     <i type="int" name="IMIX">     4</i>
     <i type="logical" name="MIXFIRST"> F  </i>
     <i type="int" name="MAXMIX">   -45</i>
     <i name="WC">    100.00000000</i>
     <i type="int" name="INIMIX">     1</i>
     <i type="int" name="MIXPRE">     1</i>
     <i type="int" name="MREMOVE">     5</i>
    </separator>
   </separator>
   <separator name="electronic dipolcorrection" >
    <i type="logical" name="LDIPOL"> F  </i>
    <i type="logical" name="LMONO"> F  </i>
    <i type="int" name="IDIPOL">     0</i>
    <i name="EPSILON">      1.00000000</i>
    <v name="DIPOL">   -100.00000000   -100.00000000   -100.00000000</v>
    <i name="EFIELD">      0.00000000</i>
    <i type="logical" name="LVACPOTAV"> F  </i>
   </separator>
  </separator>
  <separator name="grids" >
   <i type="int" name="NGX">    90</i>
   <i type="int" name="NGY">   108</i>
   <i type="int" name="NGZ">    36</i>
   <i type="int" name="NGXF">   180</i>
   <i type="int" name="NGYF">   216</i>
   <i type="int" name="NGZF">    72</i>
   <i type="logical" name="ADDGRID"> T  </i>
  </separator>
  <separator name="ionic" >
   <i type="int" name="NSW">     0</i>
   <i type="int" name="IBRION">    -1</i>
   <i type="int" name="MDALGO">     0</i>
   <i type="int" name="ISIF">     2</i>
   <i name="PSTRESS">      0.00000000</i>
   <i name="EDIFFG">      0.00000100</i>
   <i type="int" name="NFREE">     0</i>
   <i name="POTIM">      0.50000000</i>
   <i name="SMASS">     -3.00000000</i>
   <i name="SCALEE">      1.00000000</i>
  </separator>
  <separator name="ionic md" >
   <i name="TEBEG">      0.00010000</i>
   <i name="TEEND">      0.00010000</i>
   <i type="int" name="NBLOCK">     1</i>
   <i type="int" name="KBLOCK">     1</i>
   <i type="int" name="NPACO">   256</i>
   <i name="APACO">     10.00000000</i>
  </separator>
  <separator name="symmetry" >
   <i type="int" name="ISYM">     2</i>
   <i name="SYMPREC">      0.00001000</i>
  </separator>
  <separator name="dos" >
   <i type="int" name="LORBIT">     0</i>
   <v name="RWIGS">     -1.00000000     -1.00000000</v>
   <i type="int" name="NEDOS">   301</i>
   <i name="EMIN">     10.00000000</i>
   <i name="EMAX">    -10.00000000</i>
   <i name="EFERMI">      0.00000000</i>
  </separator>
  <separator name="writing" >
   <i type="int" name="NWRITE">     2</i>
   <i type="logical" name="LWAVE"> F  </i>
   <i type="logical" name="LDOWNSAMPLE"> F  </i>
   <i type="logical" name="LCHARG"> T  </i>
   <i type="logical" name="LPARD"> F  </i>
   <i type="logical" name="LVTOT"> F  </i>
   <i type="logical" name="LVHAR"> T  </i>
   <i type="logical" name="LELF"> F  </i>
   <i type="logical" name="LOPTICS"> F  </i>
   <v name="STM">      0.00000000      0.00000000      0.00000000      0.00000000      0.00000000      0.00000000      0.00000000</v>
  </separator>
  <separator name="performance" >
   <i type="int" name="NPAR">     4</i>
   <i type="int" name="NSIM">     4</i>
   <i type="int" name="NBLK">    -1</i>
   <i type="logical" name="LPLANE"> T  </i>
   <i type="logical" name="LSCALAPACK"> T  </i>
   <i type="logical" name="LSCAAWARE"> F  </i>
   <i type="logical" name="LSCALU"> F  </i>
   <i type="logical" name="LASYNC"> F  </i>
   <i type="logical" name="LORBITALREAL"> F  </i>
  </separator>
  <separator name="miscellaneous" >
   <i type="int" name="IDIOT">     3</i>
   <i type="int" name="PHON_NSTRUCT">    -1</i>
   <i type="logical" name="LMUSIC"> F  </i>
   <v name="POMASS">     28.08500000     12.01100000</v>
   <v name="DARWINR">      0.00000000      0.00000000</v>
   <v name="DARWINV">      1.00000000      1.00000000</v>
   <i type="logical" name="LCORR"> T  </i>
  </separator>
  <i type="logical" name="GGA_COMPAT"> T  </i>
  <i type="logical" name="LBERRY"> F  </i>
  <i type="int" name="ICORELEVEL">     0</i>
  <i type="logical" name="LDAU"> F  </i>
  <i type="int" name="I_CONSTRAINED_M">     0</i>
  <separator name="electronic exchange-correlation" >
   <i type="string" name="GGA    ">PE</i>
   <i type="string" name="XC_C">1</i>
   <i type="int" name="VOSKOWN">     0</i>
   <i type="logical" name="LHFCALC"> F  </i>
   <i type="string" name="PRECFOCK"></i>
   <i type="logical" name="LSYMGRAD"> F  </i>
   <i type="logical" name="LHFONE"> F  </i>
   <i type="logical" name="LRHFCALC"> F  </i>
   <i type="logical" name="LTHOMAS"> F  </i>
   <i type="logical" name="LMODELHF"> F  </i>
   <i type="logical" name="LFOCKACE"> F  </i>
   <i name="ENCUT4O">     -1.00000000</i>
   <i type="int" name="EXXOEP">     0</i>
   <i type="int" name="FOURORBIT">     0</i>
   <i name="AEXX">      0.00000000</i>
   <i name="HFALPHA">      0.00000000</i>
   <i name="MCALPHA">      0.00000000</i>
   <i name="ALDAX">      1.00000000</i>
   <i name="AGGAX">      1.00000000</i>
   <i name="AMGGAX">      1.00000000</i>
   <i name="ALDAC">      1.00000000</i>
   <i name="AGGAC">      1.00000000</i>
   <i name="AMGGAC">      1.00000000</i>
   <i type="int" name="NKREDX">     1</i>
   <i type="int" name="NKREDY">     1</i>
   <i type="int" name="NKREDZ">     1</i>
   <i type="logical" name="SHIFTRED"> F  </i>
   <i type="logical" name="ODDONLY"> F  </i>
   <i type="logical" name="EVENONLY"> F  </i>
   <i type="int" name="LMAXFOCK">     0</i>
   <i type="int" name="NMAXFOCKAE">     0</i>
   <i type="logical" name="LFOCKAEDFT"> F  </i>
   <i name="HFSCREEN">      0.00000000</i>
   <i name="HFSCREENC">      0.00000000</i>
   <i type="int" name="NBANDSGWLOW">     0</i>
  </separator>
  <separator name="vdW DFT" >
   <i type="logical" name="LUSE_VDW"> F  </i>
   <i type="int" name="IVDW_NL">    -1</i>
   <i type="logical" name="LSPIN_VDW"> F  </i>
   <i name="ZAB_VDW">     -0.84910000</i>
   <i name="GAMMA_VDW">      1.39626340</i>
   <i name="ALPHA_VDW">      0.00000000</i>
   <i name="PARAM1">      0.12340000</i>
   <i name="PARAM2">      1.00000000</i>
   <i name="BPARAM">      6.30000000</i>
   <i name="CPARAM">      0.00930000</i>
  </separator>
  <separator name="model GW" >
   <i type="int" name="MODEL_GW">     0</i>
   <i name="MODEL_EPS0">      4.97619471</i>
   <i name="MODEL_ALPHA">      1.00000000</i>
  </separator>
  <separator name="linear response parameters" >
   <i type="logical" name="LEPSILON"> F  </i>
   <i type="logical" name="LRPA"> F  </i>
   <i type="logical" name="LNABLA"> F  </i>
   <i type="logical" name="LVEL"> F  </i>
   <i name="CSHIFT">      0.10000000</i>
   <i name="OMEGAMAX">     -1.00000000</i>
   <i name="DEG_THRESHOLD">      0.00200000</i>
   <i name="RTIME">     -0.10000000</i>
   <i name="WPLASMAI">      0.00000000</i>
   <v name="DFIELD">      0.00000000      0.00000000      0.00000000</v>
   <v name="WPLASMA">      0.00000000      0.00000000      0.00000000      0.00000000      0.00000000      0.00000000      0.00000000      0.00000000      0.00000000</v>
  </separator>
  <separator name="orbital magnetization" >
   <i type="logical" name="NUCIND"> F  </i>
   <v name="MAGPOS">      0.00000000      0.00000000      0.00000000</v>
   <i type="logical" name="LNICSALL"> T  </i>
   <i type="logical" name="ORBITALMAG"> F  </i>
   <i type="logical" name="LMAGBLOCH"> F  </i>
   <i type="logical" name="LCHIMAG"> F  </i>
   <i type="logical" name="LGAUGE"> T  </i>
   <i type="int" name="MAGATOM">     0</i>
   <v name="MAGDIPOL">      0.00000000      0.00000000      0.00000000</v>
   <v name="AVECCONST">      0.00000000      0.00000000      0.00000000</v>
  </separator>
  <separator name="response functions" >
   <i type="logical" name="LALL_IN_ONE"> F  </i>
   <i type="int" name="IALL_IN_ONE">    -1</i>
   <i type="int" name="NBANDS_WAVE">    -1</i>
   <i type="logical" name="LFINITE_TEMPERATURE"> F  </i>
   <i type="logical" name="LADDER"> F  </i>
   <i type="logical" name="LRPAFORCE"> F  </i>
   <i type="logical" name="LFXC"> F  </i>
   <i type="logical" name="LHARTREE"> T  </i>
   <i type="int" name="IBSE">     0</i>
   <v type="int" name="KPOINT">    -1     0     0     0</v>
   <i type="logical" name="LTCTC"> F  </i>
   <i type="logical" name="LTCTE"> F  </i>
   <i type="logical" name="LTETE"> F  </i>
   <i type="logical" name="LTRIPLET"> F  </i>
   <i type="logical" name="LFXCEPS"> F  </i>
   <i type="logical" name="LFXHEG"> F  </i>
   <i type="int" name="NATURALO">     2</i>
   <i type="logical" name="LHOLEGF"> F  </i>
   <i type="logical" name="L2ORDER"> F  </i>
   <i type="logical" name="LDMP1"> F  </i>
   <i type="logical" name="LMP2LT"> F  </i>
   <i type="logical" name="LSMP2LT"> F  </i>
   <i type="logical" name="LGWLF"> F  </i>
   <i name="ENCUTGW">     -1.60000002</i>
   <i name="ENCUTGWSOFT">     -1.60000002</i>
   <i name="ENCUTLF">     -1.00000000</i>
   <i type="logical" name="ESF_SPLINES"> F  </i>
   <i name="ESF_CONV">      0.01000000</i>
   <i type="int" name="ESF_NINTER">    15</i>
   <i type="int" name="LMAXMP2">    -1</i>
   <i name="SCISSOR">      0.00000000</i>
   <i type="int" name="NOMEGA">     0</i>
   <i type="int" name="NOMEGAR">     0</i>
   <i type="int" name="NBANDSGW">    -1</i>
   <i type="int" name="NBANDSO">    -1</i>
   <i type="int" name="NBANDSV">    -1</i>
   <i type="int" name="NELMGW">     1</i>
   <i type="int" name="NELMHF">     1</i>
   <i type="int" name="DIM">     3</i>
   <i type="int" name="IESPILON">     4</i>
   <i type="int" name="ANTIRES">     0</i>
   <i name="OMEGAMAX">    -30.00000000</i>
   <i name="OMEGAMIN">    -30.00000000</i>
   <i name="OMEGATL">   -200.00000000</i>
   <i type="int" name="OMEGAGRID">     0</i>
   <i name="CSHIFT">     -0.10000000</i>
   <i type="logical" name="LSELFENERGY"> F  </i>
   <i type="logical" name="LSPECTRAL"> F  </i>
   <i type="logical" name="LSPECTRALGW"> F  </i>
   <i type="logical" name="LSINGLES"> F  </i>
   <i type="logical" name="LFERMIGW"> F  </i>
   <i type="logical" name="ODDONLYGW"> F  </i>
   <i type="logical" name="EVENONLYGW"> F  </i>
   <i type="int" name="NKREDLFX">     1</i>
   <i type="int" name="NKREDLFY">     1</i>
   <i type="int" name="NKREDLFZ">     1</i>
   <i type="int" name="MAXMEM">  2800</i>
   <i type="int" name="TELESCOPE">     0</i>
   <i type="int" name="NTAUPAR">    -1</i>
   <i type="int" name="NOMEGAPAR">    -1</i>
   <i name="DAMP_NEWTON">      0.80000001</i>
   <i name="LAMBDA">      1.00000000</i>
  </separator>
  <separator name="External order field" >
   <i name="OFIELD_KAPPA">      0.00000000</i>
   <v name="OFIELD_K">      0.00000000      0.00000000      0.00000000</v>
   <i name="OFIELD_Q6_NEAR">      0.00000000</i>
   <i name="OFIELD_Q6_FAR">      0.00000000</i>
   <i name="OFIELD_A">      0.00000000</i>
  </separator>
  <separator name="optional k-points parameters" >
   <i type="int" name="KPOINTS_OPT_MODE">     1</i>
   <i type="logical" name="LKPOINTS_OPT"> F  </i>
  </separator>
 </parameters>
 <atominfo>
  <atoms>     120 </atoms>
  <types>       2 </types>
  <array name="atoms" >
   <dimension dim="1">ion</dimension>
   <field type="string">element</field>
   <field type="int">atomtype</field>
   <set>
    <rc><c>Si</c><c>   1</c></rc>
    <rc><c>Si</c><c>   1</c></rc>
    <rc><c>Si</c><c>   1</c></rc>
    <rc><c>Si</c><c>   1</c></rc>
    <rc><c>Si</c><c>   1</c></rc>
    <rc><c>Si</c><c>   1</c></rc>
    <rc><c>Si</c><c>   1</c></rc>
    <rc><c>Si</c><c>   1</c></rc>
    <rc><c>Si</c><c>   1</c></rc>
    <rc><c>Si</c><c>   1</c></rc>
    <rc><c>Si</c><c>   1</c></rc>
    <rc><c>Si</c><c>   1</c></rc>
    <rc><c>Si</c><c>   1</c></rc>
    <rc><c>Si</c><c>   1</c></rc>
    <rc><c>Si</c><c>   1</c></rc>
    <rc><c>Si</c><c>   1</c></rc>
    <rc><c>Si</c><c>   1</c></rc>
    <rc><c>Si</c><c>   1</c></rc>
    <rc><c>Si</c><c>   1</c></rc>
    <rc><c>Si</c><c>   1</c></rc>
    <rc><c>Si</c><c>   1</c></rc>
    <rc><c>Si</c><c>   1</c></rc>
    <rc><c>Si</c><c>   1</c></rc>
    <rc><c>Si</c><c>   1</c></rc>
    <rc><c>Si</c><c>   1</c></rc>
    <rc><c>Si</c><c>   1</c></rc>
    <rc><c>Si</c><c>   1</c></rc>
    <rc><c>Si</c><c>   1</c></rc>
    <rc><c>Si</c><c>   1</c></rc>
    <rc><c>Si</c><c>   1</c></rc>
    <rc><c>Si</c><c>   1</c></rc>
    <rc><c>Si</c><c>   1</c></rc>
    <rc><c>Si</c><c>   1</c></rc>
    <rc><c>Si</c><c>   1</c></rc>
    <rc><c>Si</c><c>   1</c></rc>
    <rc><c>Si</c><c>   1</c></rc>
    <rc><c>C </c><c>   2</c></rc>
    <rc><c>C </c><c>   2</c></rc>
    <rc><c>C </c><c>   2</c></rc>
    <rc><c>C </c><c>   2</c></rc>
    <rc><c>C </c><c>   2</c></rc>
    <rc><c>C </c><c>   2</c></rc>
    <rc><c>C </c><c>   2</c></rc>
    <rc><c>C </c><c>   2</c></rc>
    <rc><c>C </c><c>   2</c></rc>
    <rc><c>C </c><c>   2</c></rc>
    <rc><c>C </c><c>   2</c></rc>
    <rc><c>C </c><c>   2</c></rc>
    <rc><c>C </c><c>   2</c></rc>
    <rc><c>C </c><c>   2</c></rc>
    <rc><c>C </c><c>   2</c></rc>
    <rc><c>C </c><c>   2</c></rc>
    <rc><c>C </c><c>   2</c></rc>
    <rc><c>C </c><c>   2</c></rc>
    <rc><c>C </c><c>   2</c></rc>
    <rc><c>C </c><c>   2</c></rc>
    <rc><c>C </c><c>   2</c></rc>
    <rc><c>C </c><c>   2</c></rc>
    <rc><c>C </c><c>   2</c></rc>
    <rc><c>C </c><c>   2</c></rc>
    <rc><c>C </c><c>   2</c></rc>
    <rc><c>C </c><c>   2</c></rc>
    <rc><c>C </c><c>   2</c></rc>
    <rc><c>C </c><c>   2</c></rc>
    <rc><c>C </c><c>   2</c></rc>
    <rc><c>C </c><c>   2</c></rc>
    <rc><c>C </c><c>   2</c></rc>
    <rc><c>C </c><c>   2</c></rc>
    <rc><c>C </c><c>   2</c></rc>
    <rc><c>C </c><c>   2</c></rc>
    <rc><c>C </c><c>   2</c></rc>
    <rc><c>C </c><c>   2</c></rc>
    <rc><c>C </c><c>   2</c></rc>
    <rc><c>C </c><c>   2</c></rc>
    <rc><c>C </c><c>   2</c></rc>
    <rc><c>C </c><c>   2</c></rc>
    <rc><c>C </c><c>   2</c></rc>
    <rc><c>C </c><c>   2</c></rc>
    <rc><c>C </c><c>   2</c></rc>
    <rc><c>C </c><c>   2</c></rc>
    <rc><c>C </c><c>   2</c></rc>
    <rc><c>C </c><c>   2</c></rc>
    <rc><c>C </c><c>   2</c></rc>
    <rc><c>C </c><c>   2</c></rc>
    <rc><c>C </c><c>   2</c></rc>
    <rc><c>C </c><c>   2</c></rc>
    <rc><c>C </c><c>   2</c></rc>
    <rc><c>C </c><c>   2</c></rc>
    <rc><c>C </c><c>   2</c></rc>
    <rc><c>C </c><c>   2</c></rc>
    <rc><c>C </c><c>   2</c></rc>
    <rc><c>C </c><c>   2</c></rc>
    <rc><c>C </c><c>   2</c></rc>
    <rc><c>C </c><c>   2</c></rc>
    <rc><c>C </c><c>   2</c></rc>
    <rc><c>C </c><c>   2</c></rc>
    <rc><c>C </c><c>   2</c></rc>
    <rc><c>C </c><c>   2</c></rc>
    <rc><c>C </c><c>   2</c></rc>
    <rc><c>C </c><c>   2</c></rc>
    <rc><c>C </c><c>   2</c></rc>
    <rc><c>C </c><c>   2</c></rc>
    <rc><c>C </c><c>   2</c></rc>
    <rc><c>C </c><c>   2</c></rc>
    <rc><c>C </c><c>   2</c></rc>
    <rc><c>C </c><c>   2</c></rc>
    <rc><c>C </c><c>   2</c></rc>
    <rc><c>C </c><c>   2</c></rc>
    <rc><c>C </c><c>   2</c></rc>
    <rc><c>C </c><c>   2</c></rc>
    <rc><c>C </c><c>   2</c></rc>
    <rc><c>C </c><c>   2</c></rc>
    <rc><c>C </c><c>   2</c></rc>
    <rc><c>C </c><c>   2</c></rc>
    <rc><c>C </c><c>   2</c></rc>
    <rc><c>C </c><c>   2</c></rc>
    <rc><c>C </c><c>   2</c></rc>
    <rc><c>C </c><c>   2</c></rc>
    <rc><c>C </c><c>   2</c></rc>
    <rc><c>C </c><c>   2</c></rc>
   </set>
  </array>
  <array name="atomtypes" >
   <dimension dim="1">type</dimension>
   <field type="int">atomspertype</field>
   <field type="string">element</field>
   <field>mass</field>
   <field>valence</field>
   <field type="string">pseudopotential</field>
   <set>
    <rc><c>  36</c><c>Si</c><c>     28.08500000</c><c>      4.00000000</c><c>  PAW_PBE Si 05Jan2001                  </c></rc>
    <rc><c>  84</c><c>C </c><c>     12.01100000</c><c>      4.00000000</c><c>  PAW_PBE C 08Apr2002                   </c></rc>
   </set>
  </array>
 </atominfo>
 <structure name="initialpos" >
  <crystal>
   <varray name="basis" >
    <v>      13.30317974       0.00000000       0.00000000 </v>
    <v>      -6.65158939      14.87340641       0.00000000 </v>
    <v>       0.00000000       0.00000000       5.02992439 </v>
   </varray>
   <i name="volume">    995.23894226 </i>
   <varray name="rec_basis" >
    <v>       0.07517000       0.03361704       0.00000000 </v>
    <v>       0.00000000       0.06723409       0.00000000 </v>
    <v>       0.00000000       0.00000000       0.19881015 </v>
   </varray>
  </crystal>
  <varray name="positions" >
   <v>       0.01709435       0.99145281       0.00000000 </v>
   <v>       0.21709445       0.89145273       0.24143682 </v>
   <v>       0.41709456       0.79145265       0.48287365 </v>
   <v>       0.01709435       0.32478613       0.00000000 </v>
   <v>       0.21709445       0.22478604       0.24143682 </v>
   <v>       0.41709456       0.12478594       0.48287365 </v>
   <v>       0.01709435       0.65811950       0.00000000 </v>
   <v>       0.21709445       0.55811936       0.24143682 </v>
   <v>       0.41709456       0.45811924       0.48287365 </v>
   <v>       0.36709428       0.19145279       0.12071817 </v>
   <v>       0.56709439       0.09145270       0.36215502 </v>
   <v>       0.76709449       0.99145263       0.60359186 </v>
   <v>       0.36709428       0.52478605       0.12071817 </v>
   <v>       0.56709439       0.42478600       0.36215502 </v>
   <v>       0.76709449       0.32478592       0.60359186 </v>
   <v>       0.36709428       0.85811943       0.12071817 </v>
   <v>       0.56709439       0.75811923       0.36215502 </v>
   <v>       0.76709449       0.65811920       0.60359186 </v>
   <v>       0.51709437       0.99145281       0.00000001 </v>
   <v>       0.71709442       0.89145267       0.24143679 </v>
   <v>       0.91709453       0.79145259       0.48287365 </v>
   <v>       0.51709437       0.32478613       0.00000001 </v>
   <v>       0.71709442       0.22478601       0.24143679 </v>
   <v>       0.91709453       0.12478592       0.48287365 </v>
   <v>       0.51709437       0.65811938       0.00000001 </v>
   <v>       0.71709442       0.55811930       0.24143679 </v>
   <v>       0.91709453       0.45811924       0.48287365 </v>
   <v>       0.86709428       0.19145280       0.12071818 </v>
   <v>       0.06709445       0.09145273       0.36215508 </v>
   <v>       0.26709437       0.99145263       0.60359174 </v>
   <v>       0.86709428       0.52478611       0.12071818 </v>
   <v>       0.06709445       0.42478600       0.36215508 </v>
   <v>       0.26709437       0.32478592       0.60359174 </v>
   <v>       0.86709428       0.85811949       0.12071818 </v>
   <v>       0.06709445       0.75811934       0.36215508 </v>
   <v>       0.26709437       0.65811926       0.60359174 </v>
   <v>       0.80354196       0.82711160       0.92071843 </v>
   <v>       0.17497040       0.85568315       0.60359192 </v>
   <v>       0.48925620       0.84139746       0.76215529 </v>
   <v>       0.94639903       0.68425441       0.92071855 </v>
   <v>       0.31782749       0.71282601       0.60359192 </v>
   <v>       0.63211328       0.69854021       0.76215529 </v>
   <v>       0.08925617       0.54139733       0.92071843 </v>
   <v>       0.46068469       0.56996888       0.60359192 </v>
   <v>       0.77497047       0.55568314       0.76215529 </v>
   <v>       0.23211336       0.39854017       0.92071843 </v>
   <v>       0.60354185       0.42711174       0.60359192 </v>
   <v>       0.91782767       0.41282594       0.76215529 </v>
   <v>       0.37497044       0.25568303       0.92071843 </v>
   <v>       0.74639898       0.28425461       0.60359192 </v>
   <v>       0.06068480       0.26996884       0.76215529 </v>
   <v>       0.51782763       0.11282588       0.92071843 </v>
   <v>       0.88925612       0.14139748       0.60359192 </v>
   <v>       0.20354187       0.12711169       0.76215529 </v>
   <v>       0.66068482       0.96996874       0.92071843 </v>
   <v>       0.03211325       0.99854028       0.60359192 </v>
   <v>       0.34639904       0.98425454       0.76215529 </v>
   <v>       0.35354185       0.92711163       0.99999976 </v>
   <v>       0.72497022       0.95568317       0.68287349 </v>
   <v>       0.03925610       0.94139743       0.84143674 </v>
   <v>       0.49639893       0.78425443       0.99999988 </v>
   <v>       0.86782730       0.81282598       0.68287349 </v>
   <v>       0.18211305       0.79854017       0.84143663 </v>
   <v>       0.63925624       0.64139736       0.99999988 </v>
   <v>       0.01068461       0.66996884       0.68287349 </v>
   <v>       0.32497048       0.65568316       0.84143663 </v>
   <v>       0.78211331       0.49854028       0.99999988 </v>
   <v>       0.15354168       0.52711177       0.68287349 </v>
   <v>       0.46782756       0.51282603       0.84143663 </v>
   <v>       0.92497027       0.35568306       0.99999988 </v>
   <v>       0.29639879       0.38425461       0.68287349 </v>
   <v>       0.61068457       0.36996886       0.84143674 </v>
   <v>       0.06782758       0.21282589       0.99999988 </v>
   <v>       0.43925607       0.24139749       0.68287349 </v>
   <v>       0.75354183       0.22711170       0.84143674 </v>
   <v>       0.21068478       0.06996880       0.99999988 </v>
   <v>       0.58211315       0.09854034       0.68287349 </v>
   <v>       0.89639890       0.08425457       0.84143674 </v>
   <v>       0.30354202       0.82711160       0.92071855 </v>
   <v>       0.67497045       0.85568327       0.60359192 </v>
   <v>       0.98925620       0.84139741       0.76215529 </v>
   <v>       0.44639921       0.68425441       0.92071855 </v>
   <v>       0.81782770       0.71282607       0.60359192 </v>
   <v>       0.13211334       0.69854021       0.76215529 </v>
   <v>       0.58925641       0.54139727       0.92071855 </v>
   <v>       0.96068478       0.56996894       0.60359192 </v>
   <v>       0.27497053       0.55568314       0.76215529 </v>
   <v>       0.73211342       0.39854023       0.92071855 </v>
   <v>       0.10354184       0.42711178       0.60359192 </v>
   <v>       0.41782767       0.41282597       0.76215529 </v>
   <v>       0.87497055       0.25568301       0.92071843 </v>
   <v>       0.24639897       0.28425458       0.60359192 </v>
   <v>       0.56068480       0.26996881       0.76215529 </v>
   <v>       0.01782763       0.11282588       0.92071843 </v>
   <v>       0.38925612       0.14139745       0.60359192 </v>
   <v>       0.70354193       0.12711167       0.76215529 </v>
   <v>       0.16068482       0.96996874       0.92071843 </v>
   <v>       0.53211325       0.99854034       0.60359192 </v>
   <v>       0.84639907       0.98425454       0.76215529 </v>
   <v>       0.85354179       0.92711163       0.99999988 </v>
   <v>       0.22497030       0.95568317       0.68287349 </v>
   <v>       0.53925604       0.94139737       0.84143674 </v>
   <v>       0.99639887       0.78425455       0.99999988 </v>
   <v>       0.36782739       0.81282610       0.68287349 </v>
   <v>       0.68211311       0.79854029       0.84143674 </v>
   <v>       0.13925612       0.64139736       0.99999976 </v>
   <v>       0.51068461       0.66996884       0.68287349 </v>
   <v>       0.82497042       0.65568310       0.84143674 </v>
   <v>       0.28211331       0.49854016       0.99999988 </v>
   <v>       0.65354174       0.52711171       0.68287349 </v>
   <v>       0.96782750       0.51282591       0.84143674 </v>
   <v>       0.42497039       0.35568309       0.99999988 </v>
   <v>       0.79639876       0.38425457       0.68287361 </v>
   <v>       0.11068463       0.36996883       0.84143674 </v>
   <v>       0.56782770       0.21282591       0.00000000 </v>
   <v>       0.93925607       0.24139749       0.68287349 </v>
   <v>       0.25354183       0.22711171       0.84143674 </v>
   <v>       0.71068478       0.06996882       0.99999976 </v>
   <v>       0.08211315       0.09854033       0.68287349 </v>
   <v>       0.39639902       0.08425461       0.84143674 </v>
  </varray>
 </structure>
 <calculation>
  <scstep>
   <time name="dav">   26.00   26.42</time>
   <time name="total">   26.66   27.09</time>
   <energy>
    <i name="alphaZ">    978.12051057 </i>
    <i name="ewald"> -13752.57942297 </i>
    <i name="hartreedc">  -4043.16056444 </i>
    <i name="XCdc">    850.88520418 </i>
    <i name="pawpsdc">  12288.30765307 </i>
    <i name="pawaedc"> -11702.77953025 </i>
    <i name="eentropy">     -0.00067298 </i>
    <i name="bandstr">   2921.20547254 </i>
    <i name="atom">  16071.23009607 </i>
    <i name="e_fr_energy">   3611.22874578 </i>
    <i name="e_wo_entrp">   3611.22941876 </i>
    <i name="e_0_energy">   3611.22908227 </i>
   </energy>
  </scstep>
  <scstep>
   <time name="dav">   29.88   30.13</time>
   <time name="total">   29.88   30.13</time>
   <energy>
    <i name="e_fr_energy">    232.70088560 </i>
    <i name="e_wo_entrp">    232.70222276 </i>
    <i name="e_0_energy">    232.70155418 </i>
   </energy>
  </scstep>
  <scstep>
   <time name="dav">   30.88   31.14</time>
   <time name="total">   30.88   31.14</time>
   <energy>
    <i name="e_fr_energy">   -125.36792753 </i>
    <i name="e_wo_entrp">   -125.36632503 </i>
    <i name="e_0_energy">   -125.36712628 </i>
   </energy>
  </scstep>
  <scstep>
   <time name="dav">   31.80   32.07</time>
   <time name="total">   31.81   32.07</time>
   <energy>
    <i name="e_fr_energy">   -144.39638257 </i>
    <i name="e_wo_entrp">   -144.39397377 </i>
    <i name="e_0_energy">   -144.39517817 </i>
   </energy>
  </scstep>
  <scstep>
   <time name="dav">   30.98   31.25</time>
   <time name="total">   32.01   32.28</time>
   <energy>
    <i name="e_fr_energy">   -145.19561504 </i>
    <i name="e_wo_entrp">   -145.19351841 </i>
    <i name="e_0_energy">   -145.19456672 </i>
   </energy>
  </scstep>
  <scstep>
   <time name="dav">   31.07   31.33</time>
   <time name="total">   32.75   33.02</time>
   <energy>
    <i name="e_fr_energy">     41.63885106 </i>
    <i name="e_wo_entrp">     41.64077069 </i>
    <i name="e_0_energy">     41.63981088 </i>
   </energy>
  </scstep>
  <scstep>
   <time name="dav">   29.30   29.55</time>
   <time name="total">   30.98   31.24</time>
   <energy>
    <i name="e_fr_energy">     89.35841741 </i>
    <i name="e_wo_entrp">     89.35952221 </i>
    <i name="e_0_energy">     89.35896981 </i>
   </energy>
  </scstep>
  <scstep>
   <time name="dav">   30.14   30.39</time>
   <time name="total">   31.81   32.08</time>
   <energy>
    <i name="e_fr_energy">    102.41484023 </i>
    <i name="e_wo_entrp">    102.41617311 </i>
    <i name="e_0_energy">    102.41550667 </i>
   </energy>
  </scstep>
  <scstep>
   <time name="dav">   29.20   29.44</time>
   <time name="total">   30.88   31.13</time>
   <energy>
    <i name="e_fr_energy">    103.44679653 </i>
    <i name="e_wo_entrp">    103.44868620 </i>
    <i name="e_0_energy">    103.44774136 </i>
   </energy>
  </scstep>
  <scstep>
   <time name="dav">   31.90   32.17</time>
   <time name="total">   33.58   33.85</time>
   <energy>
    <i name="e_fr_energy">     93.98606020 </i>
    <i name="e_wo_entrp">     93.98830239 </i>
    <i name="e_0_energy">     93.98718129 </i>
   </energy>
  </scstep>
  <scstep>
   <time name="dav">   40.96   41.31</time>
   <time name="total">   42.64   43.00</time>
   <energy>
    <i name="e_fr_energy">     97.72216338 </i>
    <i name="e_wo_entrp">     97.72432791 </i>
    <i name="e_0_energy">     97.72324565 </i>
   </energy>
  </scstep>
  <scstep>
   <time name="dav">   29.88   30.13</time>
   <time name="total">   31.53   31.79</time>
   <energy>
    <i name="e_fr_energy">    100.07464713 </i>
    <i name="e_wo_entrp">    100.07643483 </i>
    <i name="e_0_energy">    100.07554098 </i>
   </energy>
  </scstep>
  <scstep>
   <time name="dav">   30.45   30.71</time>
   <time name="total">   32.44   32.71</time>
   <energy>
    <i name="e_fr_energy">    100.94754268 </i>
    <i name="e_wo_entrp">    100.94896956 </i>
    <i name="e_0_energy">    100.94825612 </i>
   </energy>
  </scstep>
  <scstep>
   <time name="dav">   29.06   29.87</time>
   <time name="total">   30.74   31.56</time>
   <energy>
    <i name="e_fr_energy">    102.60734091 </i>
    <i name="e_wo_entrp">    102.60904149 </i>
    <i name="e_0_energy">    102.60819120 </i>
   </energy>
  </scstep>
  <scstep>
   <time name="dav">   32.21   32.49</time>
   <time name="total">   33.89   34.18</time>
   <energy>
    <i name="e_fr_energy">    104.40822421 </i>
    <i name="e_wo_entrp">    104.41017373 </i>
    <i name="e_0_energy">    104.40919897 </i>
   </energy>
  </scstep>
  <scstep>
   <time name="dav">   28.50   28.75</time>
   <time name="total">   30.14   30.40</time>
   <energy>
    <i name="e_fr_energy">    104.36201343 </i>
    <i name="e_wo_entrp">    104.36391621 </i>
    <i name="e_0_energy">    104.36296482 </i>
   </energy>
  </scstep>
  <scstep>
   <time name="dav">   28.99   29.24</time>
   <time name="total">   30.63   30.89</time>
   <energy>
    <i name="e_fr_energy">    104.53829826 </i>
    <i name="e_wo_entrp">    104.54037739 </i>
    <i name="e_0_energy">    104.53933782 </i>
   </energy>
  </scstep>
  <scstep>
   <time name="dav">   29.01   29.26</time>
   <time name="total">   30.65   30.91</time>
   <energy>
    <i name="e_fr_energy">    104.69023175 </i>
    <i name="e_wo_entrp">    104.69191367 </i>
    <i name="e_0_energy">    104.69107271 </i>
   </energy>
  </scstep>
  <scstep>
   <time name="dav">   29.40   29.66</time>
   <time name="total">   31.05   31.32</time>
   <energy>
    <i name="e_fr_energy">    104.80637242 </i>
    <i name="e_wo_entrp">    104.80814933 </i>
    <i name="e_0_energy">    104.80726088 </i>
   </energy>
  </scstep>
  <scstep>
   <time name="dav">   31.09   31.36</time>
   <time name="total">   32.75   33.03</time>
   <energy>
    <i name="e_fr_energy">    104.83700950 </i>
    <i name="e_wo_entrp">    104.83890618 </i>
    <i name="e_0_energy">    104.83795784 </i>
   </energy>
  </scstep>
  <scstep>
   <time name="dav">   29.94   30.20</time>
   <time name="total">   31.58   31.85</time>
   <energy>
    <i name="e_fr_energy">    104.85541442 </i>
    <i name="e_wo_entrp">    104.85735866 </i>
    <i name="e_0_energy">    104.85638654 </i>
   </energy>
  </scstep>
  <scstep>
   <time name="dav">   29.43   29.68</time>
   <time name="total">   31.07   31.33</time>
   <energy>
    <i name="e_fr_energy">    104.86663002 </i>
    <i name="e_wo_entrp">    104.86855516 </i>
    <i name="e_0_energy">    104.86759259 </i>
   </energy>
  </scstep>
  <scstep>
   <time name="dav">   30.38   30.64</time>
   <time name="total">   32.02   32.29</time>
   <energy>
    <i name="e_fr_energy">    104.87358620 </i>
    <i name="e_wo_entrp">    104.87541077 </i>
    <i name="e_0_energy">    104.87449848 </i>
   </energy>
  </scstep>
  <scstep>
   <time name="dav">   28.96   29.21</time>
   <time name="total">   30.60   30.86</time>
   <energy>
    <i name="e_fr_energy">    104.87344037 </i>
    <i name="e_wo_entrp">    104.87526967 </i>
    <i name="e_0_energy">    104.87435502 </i>
   </energy>
  </scstep>
  <scstep>
   <time name="dav">   28.06   28.30</time>
   <time name="total">   29.70   29.95</time>
   <energy>
    <i name="e_fr_energy">    104.87371932 </i>
    <i name="e_wo_entrp">    104.87556746 </i>
    <i name="e_0_energy">    104.87464339 </i>
   </energy>
  </scstep>
  <scstep>
   <time name="dav">   29.04   29.31</time>
   <time name="total">   30.68   30.96</time>
   <energy>
    <i name="e_fr_energy">    104.87421939 </i>
    <i name="e_wo_entrp">    104.87610987 </i>
    <i name="e_0_energy">    104.87516463 </i>
   </energy>
  </scstep>
  <scstep>
   <time name="dav">   30.01   30.27</time>
   <time name="total">   31.66   31.93</time>
   <energy>
    <i name="e_fr_energy">    104.87460658 </i>
    <i name="e_wo_entrp">    104.87654021 </i>
    <i name="e_0_energy">    104.87557340 </i>
   </energy>
  </scstep>
  <scstep>
   <time name="dav">   28.85   29.10</time>
   <time name="total">   30.50   30.76</time>
   <energy>
    <i name="e_fr_energy">    104.87465896 </i>
    <i name="e_wo_entrp">    104.87660007 </i>
    <i name="e_0_energy">    104.87562951 </i>
   </energy>
  </scstep>
  <scstep>
   <time name="dav">   29.55   29.80</time>
   <time name="total">   31.19   31.46</time>
   <energy>
    <i name="e_fr_energy">    104.87469782 </i>
    <i name="e_wo_entrp">    104.87664213 </i>
    <i name="e_0_energy">    104.87566998 </i>
   </energy>
  </scstep>
  <scstep>
   <time name="dav">   30.99   31.26</time>
   <time name="total">   32.64   32.91</time>
   <energy>
    <i name="e_fr_energy">    104.87472807 </i>
    <i name="e_wo_entrp">    104.87666941 </i>
    <i name="e_0_energy">    104.87569874 </i>
   </energy>
  </scstep>
  <scstep>
   <time name="dav">   30.38   30.64</time>
   <time name="total">   32.03   32.30</time>
   <energy>
    <i name="e_fr_energy">    104.87475181 </i>
    <i name="e_wo_entrp">    104.87669247 </i>
    <i name="e_0_energy">    104.87572214 </i>
   </energy>
  </scstep>
  <scstep>
   <time name="dav">   29.06   29.31</time>
   <time name="total">   30.71   30.97</time>
   <energy>
    <i name="e_fr_energy">    104.87475782 </i>
    <i name="e_wo_entrp">    104.87669989 </i>
    <i name="e_0_energy">    104.87572885 </i>
   </energy>
  </scstep>
  <scstep>
   <time name="dav">   28.35   28.59</time>
   <time name="total">   29.99   30.25</time>
   <energy>
    <i name="e_fr_energy">    104.87476078 </i>
    <i name="e_wo_entrp">    104.87670201 </i>
    <i name="e_0_energy">    104.87573140 </i>
   </energy>
  </scstep>
  <scstep>
   <time name="dav">   29.05   29.30</time>
   <time name="total">   30.70   30.95</time>
   <energy>
    <i name="e_fr_energy">    104.87476170 </i>
    <i name="e_wo_entrp">    104.87670219 </i>
    <i name="e_0_energy">    104.87573194 </i>
   </energy>
  </scstep>
  <scstep>
   <time name="dav">   28.93   29.18</time>
   <time name="total">   30.58   30.84</time>
   <energy>
    <i name="e_fr_energy">    104.87476232 </i>
    <i name="e_wo_entrp">    104.87670163 </i>
    <i name="e_0_energy">    104.87573197 </i>
   </energy>
  </scstep>
  <scstep>
   <time name="dav">   29.41   29.67</time>
   <time name="total">   31.06   31.33</time>
   <energy>
    <i name="e_fr_energy">    104.87476245 </i>
    <i name="e_wo_entrp">    104.87670052 </i>
    <i name="e_0_energy">    104.87573148 </i>
   </energy>
  </scstep>
  <scstep>
   <time name="dav">   27.20   27.44</time>
   <time name="total">   27.83   28.07</time>
   <energy>
    <i name="alphaZ">    978.12051057 </i>
    <i name="ewald"> -13752.57942297 </i>
    <i name="hartreedc">  -5012.45457998 </i>
    <i name="XCdc">    920.59340084 </i>
    <i name="pawpsdc">2269133.77643360 </i>
    <i name="pawaedc">**************** </i>
    <i name="eentropy">     -0.00193800 </i>
    <i name="bandstr">    353.30078537 </i>
    <i name="atom">  16071.23009607 </i>
    <i name="e_fr_energy">    104.87476245 </i>
    <i name="e_wo_entrp">    104.87670045 </i>
    <i name="e_0_energy">    104.87573145 </i>
   </energy>
  </scstep>
  <structure>
   <crystal>
    <varray name="basis" >
     <v>      13.30317974       0.00000000       0.00000000 </v>
     <v>      -6.65158939      14.87340641       0.00000000 </v>
     <v>       0.00000000       0.00000000       5.02992439 </v>
    </varray>
    <i name="volume">    995.23894226 </i>
    <varray name="rec_basis" >
     <v>       0.07517000       0.03361704       0.00000000 </v>
     <v>       0.00000000       0.06723409       0.00000000 </v>
     <v>       0.00000000       0.00000000       0.19881015 </v>
    </varray>
   </crystal>
   <varray name="positions" >
    <v>       0.01709435       0.99145281       0.00000000 </v>
    <v>       0.21709445       0.89145273       0.24143682 </v>
    <v>       0.41709456       0.79145265       0.48287365 </v>
    <v>       0.01709435       0.32478613       0.00000000 </v>
    <v>       0.21709445       0.22478604       0.24143682 </v>
    <v>       0.41709456       0.12478594       0.48287365 </v>
    <v>       0.01709435       0.65811950       0.00000000 </v>
    <v>       0.21709445       0.55811936       0.24143682 </v>
    <v>       0.41709456       0.45811924       0.48287365 </v>
    <v>       0.36709428       0.19145279       0.12071817 </v>
    <v>       0.56709439       0.09145270       0.36215502 </v>
    <v>       0.76709449       0.99145263       0.60359186 </v>
    <v>       0.36709428       0.52478605       0.12071817 </v>
    <v>       0.56709439       0.42478600       0.36215502 </v>
    <v>       0.76709449       0.32478592       0.60359186 </v>
    <v>       0.36709428       0.85811943       0.12071817 </v>
    <v>       0.56709439       0.75811923       0.36215502 </v>
    <v>       0.76709449       0.65811920       0.60359186 </v>
    <v>       0.51709437       0.99145281       0.00000001 </v>
    <v>       0.71709442       0.89145267       0.24143679 </v>
    <v>       0.91709453       0.79145259       0.48287365 </v>
    <v>       0.51709437       0.32478613       0.00000001 </v>
    <v>       0.71709442       0.22478601       0.24143679 </v>
    <v>       0.91709453       0.12478592       0.48287365 </v>
    <v>       0.51709437       0.65811938       0.00000001 </v>
    <v>       0.71709442       0.55811930       0.24143679 </v>
    <v>       0.91709453       0.45811924       0.48287365 </v>
    <v>       0.86709428       0.19145280       0.12071818 </v>
    <v>       0.06709445       0.09145273       0.36215508 </v>
    <v>       0.26709437       0.99145263       0.60359174 </v>
    <v>       0.86709428       0.52478611       0.12071818 </v>
    <v>       0.06709445       0.42478600       0.36215508 </v>
    <v>       0.26709437       0.32478592       0.60359174 </v>
    <v>       0.86709428       0.85811949       0.12071818 </v>
    <v>       0.06709445       0.75811934       0.36215508 </v>
    <v>       0.26709437       0.65811926       0.60359174 </v>
    <v>       0.80354196       0.82711160       0.92071843 </v>
    <v>       0.17497040       0.85568315       0.60359192 </v>
    <v>       0.48925620       0.84139746       0.76215529 </v>
    <v>       0.94639903       0.68425441       0.92071855 </v>
    <v>       0.31782749       0.71282601       0.60359192 </v>
    <v>       0.63211328       0.69854021       0.76215529 </v>
    <v>       0.08925617       0.54139733       0.92071843 </v>
    <v>       0.46068469       0.56996888       0.60359192 </v>
    <v>       0.77497047       0.55568314       0.76215529 </v>
    <v>       0.23211336       0.39854017       0.92071843 </v>
    <v>       0.60354185       0.42711174       0.60359192 </v>
    <v>       0.91782767       0.41282594       0.76215529 </v>
    <v>       0.37497044       0.25568303       0.92071843 </v>
    <v>       0.74639898       0.28425461       0.60359192 </v>
    <v>       0.06068480       0.26996884       0.76215529 </v>
    <v>       0.51782763       0.11282588       0.92071843 </v>
    <v>       0.88925612       0.14139748       0.60359192 </v>
    <v>       0.20354187       0.12711169       0.76215529 </v>
    <v>       0.66068482       0.96996874       0.92071843 </v>
    <v>       0.03211325       0.99854028       0.60359192 </v>
    <v>       0.34639904       0.98425454       0.76215529 </v>
    <v>       0.35354185       0.92711163       0.99999976 </v>
    <v>       0.72497022       0.95568317       0.68287349 </v>
    <v>       0.03925610       0.94139743       0.84143674 </v>
    <v>       0.49639893       0.78425443       0.99999988 </v>
    <v>       0.86782730       0.81282598       0.68287349 </v>
    <v>       0.18211305       0.79854017       0.84143663 </v>
    <v>       0.63925624       0.64139736       0.99999988 </v>
    <v>       0.01068461       0.66996884       0.68287349 </v>
    <v>       0.32497048       0.65568316       0.84143663 </v>
    <v>       0.78211331       0.49854028       0.99999988 </v>
    <v>       0.15354168       0.52711177       0.68287349 </v>
    <v>       0.46782756       0.51282603       0.84143663 </v>
    <v>       0.92497027       0.35568306       0.99999988 </v>
    <v>       0.29639879       0.38425461       0.68287349 </v>
    <v>       0.61068457       0.36996886       0.84143674 </v>
    <v>       0.06782758       0.21282589       0.99999988 </v>
    <v>       0.43925607       0.24139749       0.68287349 </v>
    <v>       0.75354183       0.22711170       0.84143674 </v>
    <v>       0.21068478       0.06996880       0.99999988 </v>
    <v>       0.58211315       0.09854034       0.68287349 </v>
    <v>       0.89639890       0.08425457       0.84143674 </v>
    <v>       0.30354202       0.82711160       0.92071855 </v>
    <v>       0.67497045       0.85568327       0.60359192 </v>
    <v>       0.98925620       0.84139741       0.76215529 </v>
    <v>       0.44639921       0.68425441       0.92071855 </v>
    <v>       0.81782770       0.71282607       0.60359192 </v>
    <v>       0.13211334       0.69854021       0.76215529 </v>
    <v>       0.58925641       0.54139727       0.92071855 </v>
    <v>       0.96068478       0.56996894       0.60359192 </v>
    <v>       0.27497053       0.55568314       0.76215529 </v>
    <v>       0.73211342       0.39854023       0.92071855 </v>
    <v>       0.10354184       0.42711178       0.60359192 </v>
    <v>       0.41782767       0.41282597       0.76215529 </v>
    <v>       0.87497055       0.25568301       0.92071843 </v>
    <v>       0.24639897       0.28425458       0.60359192 </v>
    <v>       0.56068480       0.26996881       0.76215529 </v>
    <v>       0.01782763       0.11282588       0.92071843 </v>
    <v>       0.38925612       0.14139745       0.60359192 </v>
    <v>       0.70354193       0.12711167       0.76215529 </v>
    <v>       0.16068482       0.96996874       0.92071843 </v>
    <v>       0.53211325       0.99854034       0.60359192 </v>
    <v>       0.84639907       0.98425454       0.76215529 </v>
    <v>       0.85354179       0.92711163       0.99999988 </v>
    <v>       0.22497030       0.95568317       0.68287349 </v>
    <v>       0.53925604       0.94139737       0.84143674 </v>
    <v>       0.99639887       0.78425455       0.99999988 </v>
    <v>       0.36782739       0.81282610       0.68287349 </v>
    <v>       0.68211311       0.79854029       0.84143674 </v>
    <v>       0.13925612       0.64139736       0.99999976 </v>
    <v>       0.51068461       0.66996884       0.68287349 </v>
    <v>       0.82497042       0.65568310       0.84143674 </v>
    <v>       0.28211331       0.49854016       0.99999988 </v>
    <v>       0.65354174       0.52711171       0.68287349 </v>
    <v>       0.96782750       0.51282591       0.84143674 </v>
    <v>       0.42497039       0.35568309       0.99999988 </v>
    <v>       0.79639876       0.38425457       0.68287361 </v>
    <v>       0.11068463       0.36996883       0.84143674 </v>
    <v>       0.56782770       0.21282591       0.00000000 </v>
    <v>       0.93925607       0.24139749       0.68287349 </v>
    <v>       0.25354183       0.22711171       0.84143674 </v>
    <v>       0.71068478       0.06996882       0.99999976 </v>
    <v>       0.08211315       0.09854033       0.68287349 </v>
    <v>       0.39639902       0.08425461       0.84143674 </v>
   </varray>
  </structure>
  <varray name="forces" >
   <v>     -23.08718077      29.70772442      31.00077671 </v>
   <v>      -0.93941186       1.08225498      -1.93696211 </v>
   <v>      23.07029569       0.72812001     -33.50566927 </v>
   <v>      -1.73261545      -8.88791429      18.45457694 </v>
   <v>      -2.32947697      -0.03773735      -2.30868686 </v>
   <v>     135.79933077     -70.75086777    -177.82711591 </v>
   <v>      41.25415176     -15.65223276      27.64501442 </v>
   <v>      -2.32792614       0.47557892      -1.31976748 </v>
   <v>      -0.84830785       4.98099934     -11.45098883 </v>
   <v>       4.29380267     -18.20042938      16.91013911 </v>
   <v>      -0.38944722      -0.25503860      -7.14551281 </v>
   <v>     103.01944278     200.46882891    -168.83966872 </v>
   <v>      51.39238532      18.20940462      32.88814329 </v>
   <v>     -12.50385753      -1.41743892     -34.20528099 </v>
   <v>       1.59045447     329.51800246     -64.15548816 </v>
   <v>      34.51407702      -7.74341729      47.27537720 </v>
   <v>      -1.00789279      -0.24214487       0.07996591 </v>
   <v>     -83.33803654    -185.74544342     -18.75142686 </v>
   <v>     -23.08718077      29.70772442      31.00077671 </v>
   <v>      -0.93941186       1.08225498      -1.93696211 </v>
   <v>      23.07029569       0.72812001     -33.50566927 </v>
   <v>      -1.73261545      -8.88791429      18.45457694 </v>
   <v>      -2.32947697      -0.03773735      -2.30868686 </v>
   <v>     135.79933077     -70.75086777    -177.82711591 </v>
   <v>      41.25415176     -15.65223276      27.64501442 </v>
   <v>      -2.32792614       0.47557892      -1.31976748 </v>
   <v>      -0.84830785       4.98099934     -11.45098883 </v>
   <v>       4.29380267     -18.20042938      16.91013911 </v>
   <v>      -0.38944722      -0.25503860      -7.14551281 </v>
   <v>     103.01944278     200.46882891    -168.83966872 </v>
   <v>      51.39238532      18.20940462      32.88814329 </v>
   <v>     -12.50385753      -1.41743892     -34.20528099 </v>
   <v>       1.59045447     329.51800246     -64.15548816 </v>
   <v>      34.51407702      -7.74341729      47.27537720 </v>
   <v>      -1.00789279      -0.24214487       0.07996591 </v>
   <v>     -83.33803654    -185.74544342     -18.75142686 </v>
   <v>     -20.75455035     -14.50050270     -35.89519953 </v>
   <v>       1.09868832      -1.18058213       1.49635462 </v>
   <v>       1.81537209       0.53596934       5.96720452 </v>
   <v>     -46.67781946      16.40997333     -16.89866530 </v>
   <v>      66.78369799     178.55977701       8.66255741 </v>
   <v>       1.18444021       2.66733049       0.05944546 </v>
   <v>       0.49015570       1.54328098      -1.61216759 </v>
   <v>       0.46192358       1.58468982       1.62065245 </v>
   <v>      -0.55113706      -0.78942051       0.92448474 </v>
   <v>      -2.05528767       1.18826318       0.18351100 </v>
   <v>      14.71231778       1.45647917      35.38065053 </v>
   <v>       1.01737797      -3.72113732      10.68642374 </v>
   <v>      -8.22721454      13.06166987     -17.05480257 </v>
   <v>      -1.87440466    -469.32295004       2.59880018 </v>
   <v>       1.30133635      -2.71638911      -1.67395354 </v>
   <v>      -1.87085862       1.29141663      -1.28144407 </v>
   <v>    -133.51343379      71.77631531     176.24991585 </v>
   <v>      -0.79547981       0.07981994       3.02826077 </v>
   <v>       0.78527002       0.79415165       2.55300680 </v>
   <v>       0.20194863      -0.46758276       0.91634587 </v>
   <v>      21.60128557      -0.87731277      17.57153122 </v>
   <v>     -14.37540847      21.25112591     -15.65869598 </v>
   <v>    -127.18464715    -200.10982254     153.57472802 </v>
   <v>      25.49522611     -29.00339570     -32.02987341 </v>
   <v>      -0.34323102       0.17770379      -0.92138323 </v>
   <v>     -19.80174127       6.47317365      26.16055657 </v>
   <v>       1.90546198       0.57062326      -2.77456907 </v>
   <v>       1.99794299      -2.67928303       0.35434618 </v>
   <v>       0.19590089      -1.04086482      -9.45230759 </v>
   <v>      12.28195597      -0.33629718      14.20674603 </v>
   <v>     -49.36146039     -19.97313786     -33.15768214 </v>
   <v>      -0.06269072      -0.61819153       2.18741001 </v>
   <v>       1.38774087       0.75445640       1.76541046 </v>
   <v>     -12.54785118       4.35946284      -2.94236064 </v>
   <v>      -2.12575504     137.50158748      63.68130438 </v>
   <v>      17.67925336      11.28540173     -14.71830443 </v>
   <v>       0.09783919      -0.18506753      -0.21856937 </v>
   <v>       0.35863845      -0.17670624      -1.92779745 </v>
   <v>       0.34381873      -2.85410222      -1.50353871 </v>
   <v>      -1.03441780       0.17188609      -1.90649375 </v>
   <v>       2.25157513      -0.26119046       7.51141800 </v>
   <v>       1.27843377       1.08112960       1.47931800 </v>
   <v>     -20.75455035     -14.50050270     -35.89519953 </v>
   <v>       1.09868832      -1.18058213       1.49635462 </v>
   <v>       1.81537209       0.53596934       5.96720452 </v>
   <v>     -46.67781946      16.40997333     -16.89866530 </v>
   <v>      66.78369799     178.55977701       8.66255741 </v>
   <v>       1.18444021       2.66733049       0.05944546 </v>
   <v>       0.49015570       1.54328098      -1.61216759 </v>
   <v>       0.46192358       1.58468982       1.62065245 </v>
   <v>      -0.55113706      -0.78942051       0.92448474 </v>
   <v>      -2.05528767       1.18826318       0.18351100 </v>
   <v>      14.71231778       1.45647917      35.38065053 </v>
   <v>       1.01737797      -3.72113732      10.68642374 </v>
   <v>      -8.22721454      13.06166987     -17.05480257 </v>
   <v>      -1.87440466    -469.32295004       2.59880018 </v>
   <v>       1.30133635      -2.71638911      -1.67395354 </v>
   <v>      -1.87085862       1.29141663      -1.28144407 </v>
   <v>    -133.51343379      71.77631531     176.24991585 </v>
   <v>      -0.79547981       0.07981994       3.02826077 </v>
   <v>       0.78527002       0.79415165       2.55300680 </v>
   <v>       0.20194863      -0.46758276       0.91634587 </v>
   <v>      21.60128557      -0.87731277      17.57153122 </v>
   <v>     -14.37540847      21.25112591     -15.65869598 </v>
   <v>    -127.18464715    -200.10982254     153.57472802 </v>
   <v>      25.49522611     -29.00339570     -32.02987341 </v>
   <v>      -0.34323102       0.17770379      -0.92138323 </v>
   <v>     -19.80174127       6.47317365      26.16055657 </v>
   <v>       1.90546198       0.57062326      -2.77456907 </v>
   <v>       1.99794299      -2.67928303       0.35434618 </v>
   <v>       0.19590089      -1.04086482      -9.45230759 </v>
   <v>      12.28195597      -0.33629718      14.20674603 </v>
   <v>     -49.36146039     -19.97313786     -33.15768214 </v>
   <v>      -0.06269072      -0.61819153       2.18741001 </v>
   <v>       1.38774087       0.75445640       1.76541046 </v>
   <v>     -12.54785118       4.35946284      -2.94236064 </v>
   <v>      -2.12575504     137.50158748      63.68130438 </v>
   <v>      17.67925336      11.28540173     -14.71830443 </v>
   <v>       0.09783919      -0.18506753      -0.21856937 </v>
   <v>       0.35863845      -0.17670624      -1.92779745 </v>
   <v>       0.34381873      -2.85410222      -1.50353871 </v>
   <v>      -1.03441780       0.17188609      -1.90649375 </v>
   <v>       2.25157513      -0.26119046       7.51141800 </v>
   <v>       1.27843377       1.08112960       1.47931800 </v>
  </varray>
  <varray name="stress" >
   <v>    1415.77453659     257.89001598    -265.50865458 </v>
   <v>     257.89006232    2578.54512586      86.65030096 </v>
   <v>    -265.50883388      86.64915070    1650.43438089 </v>
  </varray>
  <energy>
   <i name="e_fr_energy">    104.87476245 </i>
   <i name="e_wo_entrp">    104.87670045 </i>
   <i name="e_0_energy">    104.87573145 </i>
  </energy>
  <time name="totalsc"> 1189.54 1200.54</time>
  <eigenvalues>
   <array>
    <dimension dim="1">band</dimension>
    <dimension dim="2">kpoint</dimension>
    <dimension dim="3">spin</dimension>
    <field>eigene</field>
    <field>occ</field>
    <set>
     <set comment="spin 1">
      <set comment="kpoint 1">
       <r>  -12.1770    1.0000 </r>
       <r>  -11.9383    1.0000 </r>
       <r>  -11.6130    1.0000 </r>
       <r>  -11.5442    1.0000 </r>
       <r>  -11.4210    1.0000 </r>
       <r>  -11.3596    1.0000 </r>
       <r>  -10.8585    1.0000 </r>
       <r>  -10.7133    1.0000 </r>
       <r>  -10.5878    1.0000 </r>
       <r>  -10.4565    1.0000 </r>
       <r>  -10.3082    1.0000 </r>
       <r>  -10.2224    1.0000 </r>
       <r>  -10.1852    1.0000 </r>
       <r>   -9.9401    1.0000 </r>
       <r>   -9.4148    1.0000 </r>
       <r>   -9.3673    1.0000 </r>
       <r>   -9.2567    1.0000 </r>
       <r>   -8.9350    1.0000 </r>
       <r>   -8.6512    1.0000 </r>
       <r>   -8.2073    1.0000 </r>
       <r>   -8.2027    1.0000 </r>
       <r>   -7.9289    1.0000 </r>
       <r>   -7.8658    1.0000 </r>
       <r>   -7.7702    1.0000 </r>
       <r>   -7.6785    1.0000 </r>
       <r>   -7.5583    1.0000 </r>
       <r>   -7.2749    1.0000 </r>
       <r>   -7.2703    1.0000 </r>
       <r>   -7.1085    1.0000 </r>
       <r>   -6.9649    1.0000 </r>
       <r>   -6.8864    1.0000 </r>
       <r>   -6.6882    1.0000 </r>
       <r>   -6.6461    1.0000 </r>
       <r>   -6.4921    1.0000 </r>
       <r>   -6.3215    1.0000 </r>
       <r>   -6.1750    1.0000 </r>
       <r>   -5.9335    1.0000 </r>
       <r>   -5.7785    1.0000 </r>
       <r>   -5.6682    1.0000 </r>
       <r>   -5.5590    1.0000 </r>
       <r>   -5.3980    1.0000 </r>
       <r>   -5.3247    1.0000 </r>
       <r>   -5.1635    1.0000 </r>
       <r>   -5.1024    1.0000 </r>
       <r>   -4.9521    1.0000 </r>
       <r>   -4.9035    1.0000 </r>
       <r>   -4.7446    1.0000 </r>
       <r>   -4.6857    1.0000 </r>
       <r>   -4.4819    1.0000 </r>
       <r>   -4.4461    1.0000 </r>
       <r>   -4.0844    1.0000 </r>
       <r>   -4.0813    1.0000 </r>
       <r>   -4.0099    1.0000 </r>
       <r>   -3.9150    1.0000 </r>
       <r>   -3.6876    1.0000 </r>
       <r>   -3.6612    1.0000 </r>
       <r>   -3.3884    1.0000 </r>
       <r>   -3.2806    1.0000 </r>
       <r>   -3.2420    1.0000 </r>
       <r>   -3.1164    1.0000 </r>
       <r>   -3.0090    1.0000 </r>
       <r>   -2.8866    1.0000 </r>
       <r>   -2.7503    1.0000 </r>
       <r>   -2.7446    1.0000 </r>
       <r>   -2.7152    1.0000 </r>
       <r>   -2.6796    1.0000 </r>
       <r>   -2.6193    1.0000 </r>
       <r>   -2.5394    1.0000 </r>
       <r>   -2.3487    1.0000 </r>
       <r>   -2.2331    1.0000 </r>
       <r>   -2.1968    1.0000 </r>
       <r>   -2.0709    1.0000 </r>
       <r>   -1.9441    1.0000 </r>
       <r>   -1.9046    1.0000 </r>
       <r>   -1.8868    1.0000 </r>
       <r>   -1.8214    1.0000 </r>
       <r>   -1.6889    1.0000 </r>
       <r>   -1.6025    1.0000 </r>
       <r>   -1.5605    1.0000 </r>
       <r>   -1.5495    1.0000 </r>
       <r>   -1.5366    1.0000 </r>
       <r>   -1.4087    1.0000 </r>
       <r>   -1.3942    1.0000 </r>
       <r>   -1.2148    1.0000 </r>
       <r>   -1.2143    1.0000 </r>
       <r>   -1.0798    1.0000 </r>
       <r>   -1.0445    1.0000 </r>
       <r>   -0.9308    1.0000 </r>
       <r>   -0.8475    1.0000 </r>
       <r>   -0.7966    1.0000 </r>
       <r>   -0.7417    1.0000 </r>
       <r>   -0.7063    1.0000 </r>
       <r>   -0.6827    1.0000 </r>
       <r>   -0.6300    1.0000 </r>
       <r>   -0.5333    1.0000 </r>
       <r>   -0.3739    1.0000 </r>
       <r>   -0.3288    1.0000 </r>
       <r>   -0.2267    1.0000 </r>
       <r>   -0.1660    1.0000 </r>
       <r>   -0.1344    1.0000 </r>
       <r>   -0.1161    1.0000 </r>
       <r>    0.0241    1.0000 </r>
       <r>    0.0973    1.0000 </r>
       <r>    0.2014    1.0000 </r>
       <r>    0.3055    1.0000 </r>
       <r>    0.3242    1.0000 </r>
       <r>    0.4335    1.0000 </r>
       <r>    0.4352    1.0000 </r>
       <r>    0.6036    1.0000 </r>
       <r>    0.6082    1.0000 </r>
       <r>    0.6223    1.0000 </r>
       <r>    0.7182    1.0000 </r>
       <r>    0.8569    1.0000 </r>
       <r>    0.9032    1.0000 </r>
       <r>    0.9036    1.0000 </r>
       <r>    0.9792    1.0000 </r>
       <r>    1.1046    1.0000 </r>
       <r>    1.2157    1.0000 </r>
       <r>    1.2294    1.0000 </r>
       <r>    1.3739    1.0000 </r>
       <r>    1.4018    1.0000 </r>
       <r>    1.4970    1.0000 </r>
       <r>    1.5021    1.0000 </r>
       <r>    1.5725    1.0000 </r>
       <r>    1.6147    1.0000 </r>
       <r>    1.6792    1.0000 </r>
       <r>    1.7357    1.0000 </r>
       <r>    1.8393    1.0000 </r>
       <r>    1.8501    1.0000 </r>
       <r>    1.9820    1.0000 </r>
       <r>    2.0439    1.0000 </r>
       <r>    2.1106    1.0000 </r>
       <r>    2.1353    1.0000 </r>
       <r>    2.1724    1.0000 </r>
       <r>    2.2037    1.0000 </r>
       <r>    2.2650    1.0000 </r>
       <r>    2.4411    1.0000 </r>
       <r>    2.4478    1.0000 </r>
       <r>    2.5158    1.0000 </r>
       <r>    2.5586    1.0000 </r>
       <r>    2.6133    1.0000 </r>
       <r>    2.7250    1.0000 </r>
       <r>    2.7551    1.0000 </r>
       <r>    2.8822    1.0000 </r>
       <r>    2.8872    1.0000 </r>
       <r>    2.9222    1.0000 </r>
       <r>    2.9467    1.0000 </r>
       <r>    3.0209    1.0000 </r>
       <r>    3.0727    1.0000 </r>
       <r>    3.1697    1.0000 </r>
       <r>    3.1793    1.0000 </r>
       <r>    3.2627    1.0000 </r>
       <r>    3.4056    1.0000 </r>
       <r>    3.4333    1.0000 </r>
       <r>    3.5226    1.0000 </r>
       <r>    3.5605    1.0000 </r>
       <r>    3.6346    1.0000 </r>
       <r>    3.6828    1.0000 </r>
       <r>    3.7522    1.0000 </r>
       <r>    3.8252    1.0000 </r>
       <r>    3.8556    1.0000 </r>
       <r>    3.8922    1.0000 </r>
       <r>    4.0034    1.0000 </r>
       <r>    4.0408    1.0000 </r>
       <r>    4.0738    1.0000 </r>
       <r>    4.1202    1.0000 </r>
       <r>    4.2395    1.0000 </r>
       <r>    4.3950    1.0000 </r>
       <r>    4.4400    1.0000 </r>
       <r>    4.4739    1.0000 </r>
       <r>    4.5002    1.0000 </r>
       <r>    4.6780    1.0000 </r>
       <r>    4.7279    1.0000 </r>
       <r>    4.7357    1.0000 </r>
       <r>    4.8428    1.0000 </r>
       <r>    4.9111    1.0000 </r>
       <r>    4.9378    1.0000 </r>
       <r>    4.9659    1.0000 </r>
       <r>    5.0143    1.0000 </r>
       <r>    5.1352    1.0000 </r>
       <r>    5.1569    1.0000 </r>
       <r>    5.3062    1.0000 </r>
       <r>    5.3711    1.0000 </r>
       <r>    5.4781    1.0000 </r>
       <r>    5.5331    1.0000 </r>
       <r>    5.6178    1.0000 </r>
       <r>    5.6215    1.0000 </r>
       <r>    5.7285    1.0000 </r>
       <r>    5.7461    1.0000 </r>
       <r>    5.8394    1.0000 </r>
       <r>    5.9265    1.0000 </r>
       <r>    5.9687    1.0000 </r>
       <r>    6.1005    1.0000 </r>
       <r>    6.3122    1.0000 </r>
       <r>    6.3136    1.0000 </r>
       <r>    6.4933    1.0000 </r>
       <r>    6.5483    1.0000 </r>
       <r>    6.6190    1.0000 </r>
       <r>    6.6634    1.0000 </r>
       <r>    6.7821    1.0000 </r>
       <r>    6.8233    1.0000 </r>
       <r>    6.8370    1.0000 </r>
       <r>    6.9626    1.0000 </r>
       <r>    7.0712    1.0000 </r>
       <r>    7.0954    1.0000 </r>
       <r>    7.1546    1.0000 </r>
       <r>    7.3042    1.0000 </r>
       <r>    7.3290    1.0000 </r>
       <r>    7.4347    1.0000 </r>
       <r>    7.4663    1.0000 </r>
       <r>    7.5996    1.0000 </r>
       <r>    7.6790    1.0000 </r>
       <r>    7.7806    1.0000 </r>
       <r>    7.8375    1.0000 </r>
       <r>    7.9194    1.0000 </r>
       <r>    8.0446    1.0000 </r>
       <r>    8.1516    1.0000 </r>
       <r>    8.2998    1.0000 </r>
       <r>    8.3265    1.0000 </r>
       <r>    8.4428    1.0000 </r>
       <r>    8.4636    1.0000 </r>
       <r>    8.5010    1.0000 </r>
       <r>    8.7299    1.0000 </r>
       <r>    8.7747    1.0000 </r>
       <r>    8.9392    1.0000 </r>
       <r>    8.9452    1.0000 </r>
       <r>    9.0892    1.0000 </r>
       <r>    9.1617    1.0000 </r>
       <r>    9.1762    1.0000 </r>
       <r>    9.1874    1.0000 </r>
       <r>    9.2609    1.0000 </r>
       <r>    9.4473    1.0000 </r>
       <r>    9.4922    1.0000 </r>
       <r>    9.5515    1.0000 </r>
       <r>    9.5684    1.0000 </r>
       <r>    9.6309    1.0000 </r>
       <r>    9.6535    1.0000 </r>
       <r>    9.7507    0.0000 </r>
       <r>    9.7771    0.0000 </r>
       <r>    9.8032    0.0000 </r>
       <r>    9.9211    0.0000 </r>
       <r>    9.9236    0.0000 </r>
       <r>   10.0294    0.0000 </r>
       <r>   10.1997    0.0000 </r>
       <r>   10.2254    0.0000 </r>
       <r>   10.3378    0.0000 </r>
       <r>   10.3670    0.0000 </r>
       <r>   10.4720    0.0000 </r>
       <r>   10.5594    0.0000 </r>
       <r>   10.5780    0.0000 </r>
       <r>   10.6378    0.0000 </r>
       <r>   10.7279    0.0000 </r>
       <r>   10.8159    0.0000 </r>
       <r>   10.8977    0.0000 </r>
       <r>   10.9234    0.0000 </r>
       <r>   10.9563    0.0000 </r>
       <r>   11.0944    0.0000 </r>
       <r>   11.1493    0.0000 </r>
       <r>   11.1937    0.0000 </r>
       <r>   11.1962    0.0000 </r>
       <r>   11.2265    0.0000 </r>
       <r>   11.4556    0.0000 </r>
       <r>   11.4630    0.0000 </r>
       <r>   11.5861    0.0000 </r>
       <r>   11.6921    0.0000 </r>
       <r>   11.7393    0.0000 </r>
       <r>   11.7489    0.0000 </r>
       <r>   11.7604    0.0000 </r>
       <r>   11.9425    0.0000 </r>
       <r>   11.9866    0.0000 </r>
       <r>   12.0015    0.0000 </r>
       <r>   12.1395    0.0000 </r>
       <r>   12.2330    0.0000 </r>
       <r>   12.2371    0.0000 </r>
       <r>   12.3326    0.0000 </r>
       <r>   12.5361    0.0000 </r>
       <r>   12.5383    0.0000 </r>
       <r>   12.6581    0.0000 </r>
       <r>   12.6916    0.0000 </r>
       <r>   12.9014    0.0000 </r>
       <r>   12.9110    0.0000 </r>
       <r>   13.0018    0.0000 </r>
       <r>   13.0390    0.0000 </r>
       <r>   13.2170    0.0000 </r>
       <r>   13.2731    0.0000 </r>
       <r>   13.4037    0.0000 </r>
       <r>   13.4229    0.0000 </r>
       <r>   13.4557    0.0000 </r>
      </set>
      <set comment="kpoint 2">
       <r>  -12.1323    1.0000 </r>
       <r>  -12.0192    1.0000 </r>
       <r>  -11.5997    1.0000 </r>
       <r>  -11.5523    1.0000 </r>
       <r>  -11.3759    1.0000 </r>
       <r>  -11.3498    1.0000 </r>
       <r>  -10.8585    1.0000 </r>
       <r>  -10.7799    1.0000 </r>
       <r>  -10.4706    1.0000 </r>
       <r>  -10.3947    1.0000 </r>
       <r>  -10.3848    1.0000 </r>
       <r>  -10.2090    1.0000 </r>
       <r>  -10.1944    1.0000 </r>
       <r>  -10.0722    1.0000 </r>
       <r>   -9.4354    1.0000 </r>
       <r>   -9.4251    1.0000 </r>
       <r>   -9.0840    1.0000 </r>
       <r>   -8.9502    1.0000 </r>
       <r>   -8.4914    1.0000 </r>
       <r>   -8.3006    1.0000 </r>
       <r>   -8.1662    1.0000 </r>
       <r>   -8.0827    1.0000 </r>
       <r>   -7.9976    1.0000 </r>
       <r>   -7.7205    1.0000 </r>
       <r>   -7.6748    1.0000 </r>
       <r>   -7.5541    1.0000 </r>
       <r>   -7.2182    1.0000 </r>
       <r>   -7.1862    1.0000 </r>
       <r>   -7.0224    1.0000 </r>
       <r>   -6.9506    1.0000 </r>
       <r>   -6.8259    1.0000 </r>
       <r>   -6.8072    1.0000 </r>
       <r>   -6.5606    1.0000 </r>
       <r>   -6.5080    1.0000 </r>
       <r>   -6.3301    1.0000 </r>
       <r>   -6.3027    1.0000 </r>
       <r>   -5.9828    1.0000 </r>
       <r>   -5.8075    1.0000 </r>
       <r>   -5.6340    1.0000 </r>
       <r>   -5.6319    1.0000 </r>
       <r>   -5.3949    1.0000 </r>
       <r>   -5.3355    1.0000 </r>
       <r>   -5.1620    1.0000 </r>
       <r>   -5.0950    1.0000 </r>
       <r>   -4.9225    1.0000 </r>
       <r>   -4.8241    1.0000 </r>
       <r>   -4.6992    1.0000 </r>
       <r>   -4.6913    1.0000 </r>
       <r>   -4.5585    1.0000 </r>
       <r>   -4.5520    1.0000 </r>
       <r>   -4.0321    1.0000 </r>
       <r>   -4.0034    1.0000 </r>
       <r>   -3.9152    1.0000 </r>
       <r>   -3.8834    1.0000 </r>
       <r>   -3.6756    1.0000 </r>
       <r>   -3.6268    1.0000 </r>
       <r>   -3.3874    1.0000 </r>
       <r>   -3.3751    1.0000 </r>
       <r>   -3.1447    1.0000 </r>
       <r>   -3.1240    1.0000 </r>
       <r>   -3.0828    1.0000 </r>
       <r>   -2.9460    1.0000 </r>
       <r>   -2.8229    1.0000 </r>
       <r>   -2.7699    1.0000 </r>
       <r>   -2.6676    1.0000 </r>
       <r>   -2.6434    1.0000 </r>
       <r>   -2.5337    1.0000 </r>
       <r>   -2.5313    1.0000 </r>
       <r>   -2.2712    1.0000 </r>
       <r>   -2.2529    1.0000 </r>
       <r>   -2.1783    1.0000 </r>
       <r>   -2.1155    1.0000 </r>
       <r>   -2.0211    1.0000 </r>
[...]
       <r>    -7.6144    21.8518    50.0620 </r>
       <r>    -7.5200    14.1006    51.6636 </r>
       <r>    -7.4257     0.0000    51.6667 </r>
       <r>    -7.3313     6.6238    52.2916 </r>
       <r>    -7.2370    16.5312    54.0606 </r>
       <r>    -7.1427    15.9427    56.0060 </r>
       <r>    -7.0483    11.8040    57.2258 </r>
       <r>    -6.9540    23.0982    59.6809 </r>
       <r>    -6.8596    14.2753    61.4610 </r>
       <r>    -6.7653    20.1302    63.6225 </r>
       <r>    -6.6710    11.9024    64.8456 </r>
       <r>    -6.5766    10.6299    66.1695 </r>
       <r>    -6.4823    13.0902    67.6794 </r>
       <r>    -6.3879     5.6735    68.3688 </r>
       <r>    -6.2936    15.9551    70.0609 </r>
       <r>    -6.1992     6.9074    70.9850 </r>
       <r>    -6.1049     7.7384    71.8977 </r>
       <r>    -6.0106     5.3546    72.5052 </r>
       <r>    -5.9162    21.3167    74.8444 </r>
       <r>    -5.8219    11.9019    76.3453 </r>
       <r>    -5.7275    16.2492    78.4234 </r>
       <r>    -5.6332    18.5961    80.4777 </r>
       <r>    -5.5389     9.8104    81.7608 </r>
       <r>    -5.4445    13.2338    83.0264 </r>
       <r>    -5.3502    14.5281    84.4862 </r>
       <r>    -5.2558     9.7188    85.4173 </r>
       <r>    -5.1615    11.6184    86.8183 </r>
       <r>    -5.0672     9.4146    87.9437 </r>
       <r>    -4.9728     4.9237    88.4090 </r>
       <r>    -4.8785    24.7886    90.8410 </r>
       <r>    -4.7841    18.6356    92.9270 </r>
       <r>    -4.6898    21.1741    95.2791 </r>
       <r>    -4.5955    20.3572    97.8654 </r>
       <r>    -4.5011    15.2104    99.7150 </r>
       <r>    -4.4068     2.3555   100.0000 </r>
       <r>    -4.3124     0.0000   100.0000 </r>
       <r>    -4.2181     2.4583   100.2319 </r>
       <r>    -4.1237    16.2440   102.0346 </r>
       <r>    -4.0294    18.1829   104.4377 </r>
       <r>    -3.9351    10.2574   105.7455 </r>
       <r>    -3.8407    28.0572   108.7064 </r>
       <r>    -3.7464     8.9874   109.9045 </r>
       <r>    -3.6520    14.0709   111.4386 </r>
       <r>    -3.5577     9.6012   112.4093 </r>
       <r>    -3.4634    14.5108   113.9252 </r>
       <r>    -3.3690    19.3330   115.9350 </r>
       <r>    -3.2747    15.9170   117.7271 </r>
       <r>    -3.1803    26.4710   120.6097 </r>
       <r>    -3.0860    18.0975   122.5407 </r>
       <r>    -2.9917    15.3500   124.2818 </r>
       <r>    -2.8973    13.6549   125.7336 </r>
       <r>    -2.8030    21.9269   128.2367 </r>
       <r>    -2.7086    21.8699   130.8993 </r>
       <r>    -2.6143    25.3975   133.5075 </r>
       <r>    -2.5200    13.8646   135.2529 </r>
       <r>    -2.4256    18.3186   137.2300 </r>
       <r>    -2.3313    12.2209   138.7102 </r>
       <r>    -2.2369    15.5230   140.6873 </r>
       <r>    -2.1426    18.9748   142.7381 </r>
       <r>    -2.0482    21.0958   145.4904 </r>
       <r>    -1.9539    18.2569   147.4456 </r>
       <r>    -1.8596    25.0707   150.0329 </r>
       <r>    -1.7652    27.2648   153.0758 </r>
       <r>    -1.6709    16.8187   155.0872 </r>
       <r>    -1.5765    34.0432   158.7678 </r>
       <r>    -1.4822    21.4098   161.2422 </r>
       <r>    -1.3879    17.5804   162.9919 </r>
       <r>    -1.2935    17.4600   165.0374 </r>
       <r>    -1.1992    20.4402   167.7627 </r>
       <r>    -1.1048    28.0247   170.9801 </r>
       <r>    -1.0105    21.1172   173.3256 </r>
       <r>    -0.9162    21.2228   175.5591 </r>
       <r>    -0.8218    21.8941   177.8995 </r>
       <r>    -0.7275    25.9978   180.7871 </r>
       <r>    -0.6331    20.7067   183.0665 </r>
       <r>    -0.5388    24.4794   185.7552 </r>
       <r>    -0.4444    22.6981   188.3104 </r>
       <r>    -0.3501    26.4568   190.9999 </r>
       <r>    -0.2558    20.4530   193.4861 </r>
       <r>    -0.1614    22.6416   196.0848 </r>
       <r>    -0.0671    17.1040   198.0603 </r>
       <r>     0.0273    19.0726   200.6890 </r>
       <r>     0.1216    25.8265   203.3817 </r>
       <r>     0.2159    16.4956   205.6121 </r>
       <r>     0.3103    28.4271   208.7381 </r>
       <r>     0.4046    29.5467   212.0137 </r>
       <r>     0.4990    15.6775   213.9239 </r>
       <r>     0.5933    15.6923   216.1484 </r>
       <r>     0.6876    28.9901   219.0160 </r>
       <r>     0.7820    29.1147   222.0824 </r>
       <r>     0.8763    23.4321   224.6571 </r>
       <r>     0.9707    20.2711   227.0809 </r>
       <r>     1.0650    27.3401   229.9169 </r>
       <r>     1.1593    21.1998   232.6112 </r>
       <r>     1.2537    15.8014   234.3276 </r>
       <r>     1.3480    24.4107   236.9156 </r>
       <r>     1.4424    28.4282   240.1835 </r>
       <r>     1.5367    24.2004   243.0054 </r>
       <r>     1.6311    27.4225   245.9204 </r>
       <r>     1.7254    26.2730   248.5923 </r>
       <r>     1.8197    34.5462   252.2651 </r>
       <r>     1.9141    25.9026   254.7772 </r>
       <r>     2.0084    25.1733   257.3781 </r>
       <r>     2.1028    24.9231   260.4092 </r>
       <r>     2.1971    28.6960   263.4325 </r>
       <r>     2.2914    29.4990   266.6730 </r>
       <r>     2.3858    21.3357   269.1259 </r>
       <r>     2.4801    29.1314   272.0827 </r>
       <r>     2.5745    25.4788   275.1293 </r>
       <r>     2.6688    26.9562   278.0465 </r>
       <r>     2.7631    34.0826   281.5493 </r>
       <r>     2.8575    22.6358   284.0812 </r>
       <r>     2.9518    35.6681   287.8122 </r>
       <r>     3.0462    22.2863   290.2703 </r>
       <r>     3.1405    27.4080   293.4758 </r>
       <r>     3.2348    27.7743   296.5647 </r>
       <r>     3.3292    23.1020   299.1241 </r>
       <r>     3.4235    26.0502   301.7933 </r>
       <r>     3.5179    20.1030   304.1193 </r>
       <r>     3.6122    24.8154   306.9019 </r>
       <r>     3.7066    30.8618   310.1351 </r>
       <r>     3.8009    26.4853   313.1656 </r>
       <r>     3.8952    32.5517   316.6291 </r>
       <r>     3.9896    28.3620   319.8987 </r>
       <r>     4.0839    23.4771   322.5482 </r>
       <r>     4.1783    27.9222   325.5823 </r>
       <r>     4.2726    19.5665   327.7360 </r>
       <r>     4.3669    21.9096   330.5697 </r>
       <r>     4.4613    31.3069   333.7898 </r>
       <r>     4.5556    27.1906   336.8430 </r>
       <r>     4.6500    19.3457   338.9367 </r>
       <r>     4.7443    24.1094   341.6638 </r>
       <r>     4.8386    24.3713   344.4661 </r>
       <r>     4.9330    31.2525   347.7277 </r>
       <r>     5.0273    29.9934   350.7759 </r>
       <r>     5.1217    30.7245   353.9558 </r>
       <r>     5.2160    20.1187   356.2884 </r>
       <r>     5.3103    19.7100   358.5834 </r>
       <r>     5.4047    26.0691   361.5707 </r>
       <r>     5.4990    24.5354   364.2058 </r>
       <r>     5.5934    17.1299   366.1728 </r>
       <r>     5.6877    26.5765   368.8411 </r>
       <r>     5.7821    26.1183   371.7433 </r>
       <r>     5.8764    25.4050   374.4526 </r>
       <r>     5.9707    23.8851   376.9206 </r>
       <r>     6.0651    14.5297   378.7088 </r>
       <r>     6.1594    15.8297   380.7156 </r>
       <r>     6.2538    28.3379   383.8433 </r>
       <r>     6.3481    19.4702   386.2278 </r>
       <r>     6.4424    29.4097   389.3316 </r>
       <r>     6.5368    19.5787   391.6249 </r>
       <r>     6.6311    24.9056   394.2947 </r>
       <r>     6.7255    28.6885   397.4863 </r>
       <r>     6.8198    17.0806   399.3345 </r>
       <r>     6.9141    25.5932   402.2499 </r>
       <r>     7.0085    22.5958   404.6331 </r>
       <r>     7.1028    20.9373   407.3102 </r>
       <r>     7.1972    31.7064   410.6614 </r>
       <r>     7.2915    20.9018   412.8625 </r>
       <r>     7.3858    21.3434   415.4029 </r>
       <r>     7.4802    25.5305   417.9653 </r>
       <r>     7.5745    14.7657   420.0056 </r>
       <r>     7.6689    14.6444   421.6593 </r>
       <r>     7.7632    22.8379   424.3787 </r>
       <r>     7.8576    31.1329   427.7149 </r>
       <r>     7.9519    14.7630   429.5599 </r>
       <r>     8.0462    29.8466   432.5411 </r>
       <r>     8.1406    17.1994   434.6799 </r>
       <r>     8.2349    21.5863   437.0403 </r>
       <r>     8.3293    27.4999   440.2064 </r>
       <r>     8.4236    22.4593   442.4537 </r>
       <r>     8.5179    21.1566   444.9428 </r>
       <r>     8.6123    23.4865   447.4960 </r>
       <r>     8.7066    19.8381   449.7605 </r>
       <r>     8.8010    24.8919   452.5152 </r>
       <r>     8.8953    20.3180   454.9729 </r>
       <r>     8.9896    22.4900   457.2894 </r>
       <r>     9.0840    30.4697   460.8213 </r>
       <r>     9.1783    22.7678   463.3151 </r>
       <r>     9.2727    27.0697   466.2212 </r>
       <r>     9.3670    30.4028   469.7581 </r>
       <r>     9.4613    24.7281   472.3931 </r>
       <r>     9.5557    22.9908   475.1703 </r>
       <r>     9.6500    30.5206   478.4351 </r>
       <r>     9.7444    26.5035   481.8364 </r>
       <r>     9.8387    28.6650   484.9827 </r>
       <r>     9.9331    26.4508   487.7732 </r>
       <r>    10.0274    20.8741   490.1394 </r>
       <r>    10.1217    24.5898   492.7651 </r>
       <r>    10.2161    16.2911   494.4258 </r>
       <r>    10.3104    23.0189   497.3385 </r>
       <r>    10.4048    22.8090   499.5427 </r>
       <r>    10.4991    23.5288   502.0004 </r>
       <r>    10.5934    16.6658   504.1300 </r>
       <r>    10.6878    15.8010   505.8244 </r>
       <r>    10.7821    28.5184   508.5810 </r>
       <r>    10.8765    24.2659   511.1804 </r>
       <r>    10.9708    23.8774   513.6446 </r>
       <r>    11.0651    32.6325   517.1359 </r>
       <r>    11.1595    21.2381   519.3371 </r>
       <r>    11.2538    23.8464   522.4165 </r>
       <r>    11.3482    24.7395   525.3919 </r>
       <r>    11.4425    24.4589   528.4222 </r>
       <r>    11.5368    23.1660   531.0761 </r>
       <r>    11.6312    18.6152   533.5357 </r>
       <r>    11.7255    19.6424   535.5206 </r>
       <r>    11.8199    20.2079   537.8512 </r>
       <r>    11.9142    18.4111   540.1814 </r>
       <r>    12.0086    18.7242   542.3225 </r>
       <r>    12.1029    14.6819   544.1632 </r>
       <r>    12.1972    20.8027   546.4625 </r>
       <r>    12.2916    25.9516   549.1186 </r>
       <r>    12.3859    16.3058   550.9294 </r>
       <r>    12.4803    26.6975   553.6854 </r>
       <r>    12.5746    18.7985   555.6627 </r>
       <r>    12.6689    17.6998   557.7261 </r>
       <r>    12.7633    21.2462   560.3389 </r>
       <r>    12.8576    14.6091   562.6011 </r>
       <r>    12.9520    23.2827   564.9747 </r>
       <r>    13.0463    26.4518   567.8848 </r>
       <r>    13.1406    23.9112   570.6447 </r>
       <r>    13.2350    20.9556   572.7553 </r>
       <r>    13.3293    14.4112   574.2520 </r>
       <r>    13.4237    10.9877   575.4256 </r>
       <r>    13.5180     4.1221   575.9444 </r>
       <r>    13.6123     0.5889   576.0000 </r>
       <r>    13.7067     0.0000   576.0000 </r>
       <r>    13.8010     0.0000   576.0000 </r>
       <r>    13.8954     0.0000   576.0000 </r>
       <r>    13.9897     0.0000   576.0000 </r>
       <r>    14.0841     0.0000   576.0000 </r>
       <r>    14.1784     0.0000   576.0000 </r>
       <r>    14.2727     0.0000   576.0000 </r>
       <r>    14.3671     0.0000   576.0000 </r>
       <r>    14.4614     0.0000   576.0000 </r>
       <r>    14.5558     0.0000   576.0000 </r>
       <r>    14.6501     0.0000   576.0000 </r>
       <r>    14.7444     0.0000   576.0000 </r>
       <r>    14.8388     0.0000   576.0000 </r>
      </set>
     </set>
    </array>
   </total>
  </dos>
 </calculation>
 <structure name="finalpos" >
  <crystal>
   <varray name="basis" >
    <v>      13.30317974       0.00000000       0.00000000 </v>
    <v>      -6.65158939      14.87340641       0.00000000 </v>
    <v>       0.00000000       0.00000000       5.02992439 </v>
   </varray>
   <i name="volume">    995.23894226 </i>
   <varray name="rec_basis" >
    <v>       0.07517000       0.03361704       0.00000000 </v>
    <v>       0.00000000       0.06723409       0.00000000 </v>
    <v>       0.00000000       0.00000000       0.19881015 </v>
   </varray>
  </crystal>
  <varray name="positions" >
   <v>       0.01709435       0.99145281       0.00000000 </v>
   <v>       0.21709445       0.89145273       0.24143682 </v>
   <v>       0.41709456       0.79145265       0.48287365 </v>
   <v>       0.01709435       0.32478613       0.00000000 </v>
   <v>       0.21709445       0.22478604       0.24143682 </v>
   <v>       0.41709456       0.12478594       0.48287365 </v>
   <v>       0.01709435       0.65811950       0.00000000 </v>
   <v>       0.21709445       0.55811936       0.24143682 </v>
   <v>       0.41709456       0.45811924       0.48287365 </v>
   <v>       0.36709428       0.19145279       0.12071817 </v>
   <v>       0.56709439       0.09145270       0.36215502 </v>
   <v>       0.76709449       0.99145263       0.60359186 </v>
   <v>       0.36709428       0.52478605       0.12071817 </v>
   <v>       0.56709439       0.42478600       0.36215502 </v>
   <v>       0.76709449       0.32478592       0.60359186 </v>
   <v>       0.36709428       0.85811943       0.12071817 </v>
   <v>       0.56709439       0.75811923       0.36215502 </v>
   <v>       0.76709449       0.65811920       0.60359186 </v>
   <v>       0.51709437       0.99145281       0.00000001 </v>
   <v>       0.71709442       0.89145267       0.24143679 </v>
   <v>       0.91709453       0.79145259       0.48287365 </v>
   <v>       0.51709437       0.32478613       0.00000001 </v>
   <v>       0.71709442       0.22478601       0.24143679 </v>
   <v>       0.91709453       0.12478592       0.48287365 </v>
   <v>       0.51709437       0.65811938       0.00000001 </v>
   <v>       0.71709442       0.55811930       0.24143679 </v>
   <v>       0.91709453       0.45811924       0.48287365 </v>
   <v>       0.86709428       0.19145280       0.12071818 </v>
   <v>       0.06709445       0.09145273       0.36215508 </v>
   <v>       0.26709437       0.99145263       0.60359174 </v>
   <v>       0.86709428       0.52478611       0.12071818 </v>
   <v>       0.06709445       0.42478600       0.36215508 </v>
   <v>       0.26709437       0.32478592       0.60359174 </v>
   <v>       0.86709428       0.85811949       0.12071818 </v>
   <v>       0.06709445       0.75811934       0.36215508 </v>
   <v>       0.26709437       0.65811926       0.60359174 </v>
   <v>       0.80354196       0.82711160       0.92071843 </v>
   <v>       0.17497040       0.85568315       0.60359192 </v>
   <v>       0.48925620       0.84139746       0.76215529 </v>
   <v>       0.94639903       0.68425441       0.92071855 </v>
   <v>       0.31782749       0.71282601       0.60359192 </v>
   <v>       0.63211328       0.69854021       0.76215529 </v>
   <v>       0.08925617       0.54139733       0.92071843 </v>
   <v>       0.46068469       0.56996888       0.60359192 </v>
   <v>       0.77497047       0.55568314       0.76215529 </v>
   <v>       0.23211336       0.39854017       0.92071843 </v>
   <v>       0.60354185       0.42711174       0.60359192 </v>
   <v>       0.91782767       0.41282594       0.76215529 </v>
   <v>       0.37497044       0.25568303       0.92071843 </v>
   <v>       0.74639898       0.28425461       0.60359192 </v>
   <v>       0.06068480       0.26996884       0.76215529 </v>
   <v>       0.51782763       0.11282588       0.92071843 </v>
   <v>       0.88925612       0.14139748       0.60359192 </v>
   <v>       0.20354187       0.12711169       0.76215529 </v>
   <v>       0.66068482       0.96996874       0.92071843 </v>
   <v>       0.03211325       0.99854028       0.60359192 </v>
   <v>       0.34639904       0.98425454       0.76215529 </v>
   <v>       0.35354185       0.92711163       0.99999976 </v>
   <v>       0.72497022       0.95568317       0.68287349 </v>
   <v>       0.03925610       0.94139743       0.84143674 </v>
   <v>       0.49639893       0.78425443       0.99999988 </v>
   <v>       0.86782730       0.81282598       0.68287349 </v>
   <v>       0.18211305       0.79854017       0.84143663 </v>
   <v>       0.63925624       0.64139736       0.99999988 </v>
   <v>       0.01068461       0.66996884       0.68287349 </v>
   <v>       0.32497048       0.65568316       0.84143663 </v>
   <v>       0.78211331       0.49854028       0.99999988 </v>
   <v>       0.15354168       0.52711177       0.68287349 </v>
   <v>       0.46782756       0.51282603       0.84143663 </v>
   <v>       0.92497027       0.35568306       0.99999988 </v>
   <v>       0.29639879       0.38425461       0.68287349 </v>
   <v>       0.61068457       0.36996886       0.84143674 </v>
   <v>       0.06782758       0.21282589       0.99999988 </v>
   <v>       0.43925607       0.24139749       0.68287349 </v>
   <v>       0.75354183       0.22711170       0.84143674 </v>
   <v>       0.21068478       0.06996880       0.99999988 </v>
   <v>       0.58211315       0.09854034       0.68287349 </v>
   <v>       0.89639890       0.08425457       0.84143674 </v>
   <v>       0.30354202       0.82711160       0.92071855 </v>
   <v>       0.67497045       0.85568327       0.60359192 </v>
   <v>       0.98925620       0.84139741       0.76215529 </v>
   <v>       0.44639921       0.68425441       0.92071855 </v>
   <v>       0.81782770       0.71282607       0.60359192 </v>
   <v>       0.13211334       0.69854021       0.76215529 </v>
   <v>       0.58925641       0.54139727       0.92071855 </v>
   <v>       0.96068478       0.56996894       0.60359192 </v>
   <v>       0.27497053       0.55568314       0.76215529 </v>
   <v>       0.73211342       0.39854023       0.92071855 </v>
   <v>       0.10354184       0.42711178       0.60359192 </v>
   <v>       0.41782767       0.41282597       0.76215529 </v>
   <v>       0.87497055       0.25568301       0.92071843 </v>
   <v>       0.24639897       0.28425458       0.60359192 </v>
   <v>       0.56068480       0.26996881       0.76215529 </v>
   <v>       0.01782763       0.11282588       0.92071843 </v>
   <v>       0.38925612       0.14139745       0.60359192 </v>
   <v>       0.70354193       0.12711167       0.76215529 </v>
   <v>       0.16068482       0.96996874       0.92071843 </v>
   <v>       0.53211325       0.99854034       0.60359192 </v>
   <v>       0.84639907       0.98425454       0.76215529 </v>
   <v>       0.85354179       0.92711163       0.99999988 </v>
   <v>       0.22497030       0.95568317       0.68287349 </v>
   <v>       0.53925604       0.94139737       0.84143674 </v>
   <v>       0.99639887       0.78425455       0.99999988 </v>
   <v>       0.36782739       0.81282610       0.68287349 </v>
   <v>       0.68211311       0.79854029       0.84143674 </v>
   <v>       0.13925612       0.64139736       0.99999976 </v>
   <v>       0.51068461       0.66996884       0.68287349 </v>
   <v>       0.82497042       0.65568310       0.84143674 </v>
   <v>       0.28211331       0.49854016       0.99999988 </v>
   <v>       0.65354174       0.52711171       0.68287349 </v>
   <v>       0.96782750       0.51282591       0.84143674 </v>
   <v>       0.42497039       0.35568309       0.99999988 </v>
   <v>       0.79639876       0.38425457       0.68287361 </v>
   <v>       0.11068463       0.36996883       0.84143674 </v>
   <v>       0.56782770       0.21282591       0.00000000 </v>
   <v>       0.93925607       0.24139749       0.68287349 </v>
   <v>       0.25354183       0.22711171       0.84143674 </v>
   <v>       0.71068478       0.06996882       0.99999976 </v>
   <v>       0.08211315       0.09854033       0.68287349 </v>
   <v>       0.39639902       0.08425461       0.84143674 </v>
  </varray>
 </structure>
</modeling>
