 168 168   0   0
  0.2780971E+02  0.1131560E-08  0.1600268E-08  0.2580094E-08  0.5000000E-15
  1.000000000000000E-004
  CAR 
 Si and Ge interface calculation         
      6.36080744     -9.85486769  301      3.36582871      1.00000000
     -9.855  0.0000E+00  0.0000E+00  0.0000E+00  0.0000E+00
     -9.801  0.0000E+00  0.0000E+00  0.0000E+00  0.0000E+00
     -9.747  0.0000E+00  0.0000E+00  0.0000E+00  0.0000E+00
     -9.693  0.0000E+00  0.0000E+00  0.0000E+00  0.0000E+00
     -9.639  0.0000E+00  0.0000E+00  0.0000E+00  0.0000E+00
     -9.585  0.0000E+00  0.0000E+00  0.0000E+00  0.0000E+00
     -9.531  0.0000E+00  0.0000E+00  0.0000E+00  0.0000E+00
     -9.477  0.0000E+00  0.0000E+00  0.0000E+00  0.0000E+00
     -9.422  0.0000E+00  0.0000E+00  0.0000E+00  0.0000E+00
     -9.368  0.0000E+00  0.0000E+00  0.0000E+00  0.0000E+00
     -9.314  0.0000E+00  0.0000E+00  0.0000E+00  0.0000E+00
     -9.260  0.0000E+00  0.0000E+00  0.0000E+00  0.0000E+00
     -9.206  0.0000E+00  0.0000E+00  0.0000E+00  0.0000E+00
     -9.152  0.3539E-05  0.4953E-07  0.1913E-06  0.2677E-08
     -9.098  0.6150E+01  0.6025E+01  0.3324E+00  0.3256E+00
     -9.044  0.1690E-01  0.1422E+00  0.3333E+00  0.3333E+00
     -8.990  0.2031E+02  0.1650E+02  0.1431E+01  0.1225E+01
     -8.936  0.4358E+01  0.8168E+01  0.1667E+01  0.1667E+01
     -8.882  0.2204E+02  0.1692E+02  0.2858E+01  0.2581E+01
     -8.828  0.2757E+01  0.7759E+01  0.3007E+01  0.3001E+01
     -8.774  0.6434E+01  0.6184E+01  0.3355E+01  0.3335E+01
     -8.720  0.1194E+02  0.1231E+02  0.4000E+01  0.4000E+01
     -8.666  0.2072E+02  0.1738E+02  0.5120E+01  0.4939E+01
     -8.612  0.4091E+02  0.4404E+02  0.7331E+01  0.7320E+01
     -8.558  0.1668E+02  0.7699E+01  0.8233E+01  0.7736E+01
     -8.504  0.3778E+02  0.4358E+02  0.1027E+02  0.1009E+02
     -8.450  0.7250E+01  0.1065E+02  0.1067E+02  0.1067E+02
     -8.395  0.4221E+02  0.3745E+02  0.1295E+02  0.1269E+02
     -8.341  0.2798E+02  0.2906E+02  0.1446E+02  0.1426E+02
     -8.287  0.2653E+02  0.2288E+02  0.1589E+02  0.1550E+02
     -8.233  0.2103E+02  0.2786E+02  0.1703E+02  0.1700E+02
     -8.179  0.4649E+02  0.4360E+02  0.1954E+02  0.1936E+02
     -8.125  0.7937E+01  0.8140E+01  0.1997E+02  0.1980E+02
     -8.071  0.3981E+02  0.3895E+02  0.2212E+02  0.2191E+02
     -8.017  0.2307E+02  0.2667E+02  0.2337E+02  0.2335E+02
     -7.963  0.1599E+02  0.1145E+02  0.2424E+02  0.2397E+02
     -7.909  0.1413E+02  0.1913E+02  0.2500E+02  0.2500E+02
     -7.855  0.3430E+02  0.2987E+02  0.2685E+02  0.2661E+02
     -7.801  0.3970E+02  0.4405E+02  0.2900E+02  0.2900E+02
     -7.747  0.7837E+01  0.6672E+01  0.2942E+02  0.2936E+02
     -7.693  0.1070E+02  0.8234E+01  0.3000E+02  0.2980E+02
     -7.639  0.1094E+02  0.1113E+02  0.3059E+02  0.3040E+02
     -7.585  0.7208E+02  0.6697E+02  0.3449E+02  0.3402E+02
     -7.531  0.3222E+02  0.3621E+02  0.3623E+02  0.3598E+02
     -7.477  0.4663E+02  0.4739E+02  0.3875E+02  0.3854E+02
     -7.423  0.2310E+02  0.2698E+02  0.4000E+02  0.4000E+02
     -7.368  0.1214E+02  0.1108E+02  0.4066E+02  0.4060E+02
     -7.314  0.1855E+02  0.1771E+02  0.4166E+02  0.4156E+02
     -7.260  0.5618E+02  0.5409E+02  0.4470E+02  0.4448E+02
     -7.206  0.3172E+02  0.3114E+02  0.4641E+02  0.4616E+02
     -7.152  0.7075E+02  0.6858E+02  0.5023E+02  0.4987E+02
     -7.098  0.3282E+02  0.3854E+02  0.5201E+02  0.5195E+02
     -7.044  0.2836E+02  0.2308E+02  0.5354E+02  0.5320E+02
     -6.990  0.5892E+02  0.6089E+02  0.5673E+02  0.5649E+02
     -6.936  0.2983E+02  0.2647E+02  0.5834E+02  0.5792E+02
     -6.882  0.4916E+02  0.5610E+02  0.6100E+02  0.6095E+02
     -6.828  0.2992E+02  0.2266E+02  0.6261E+02  0.6218E+02
     -6.774  0.6216E+02  0.6011E+02  0.6597E+02  0.6543E+02
     -6.720  0.4221E+02  0.4969E+02  0.6825E+02  0.6811E+02
     -6.666  0.5965E+02  0.5386E+02  0.7148E+02  0.7102E+02
     -6.612  0.4662E+02  0.5488E+02  0.7400E+02  0.7399E+02
     -6.558  0.1380E+02  0.1208E+02  0.7474E+02  0.7464E+02
     -6.504  0.2799E+02  0.2738E+02  0.7626E+02  0.7612E+02
     -6.450  0.3828E+02  0.4005E+02  0.7833E+02  0.7829E+02
     -6.396  0.5463E+02  0.5236E+02  0.8128E+02  0.8112E+02
     -6.341  0.4394E+02  0.4363E+02  0.8365E+02  0.8348E+02
     -6.287  0.6291E+02  0.6017E+02  0.8706E+02  0.8673E+02
     -6.233  0.6782E+02  0.7029E+02  0.9072E+02  0.9053E+02
     -6.179  0.7247E+02  0.7204E+02  0.9464E+02  0.9442E+02
     -6.125  0.5236E+02  0.5254E+02  0.9747E+02  0.9726E+02
     -6.071  0.2621E+02  0.2779E+02  0.9888E+02  0.9877E+02
     -6.017  0.1899E+02  0.1792E+02  0.9991E+02  0.9973E+02
     -5.963  0.3829E+02  0.3921E+02  0.1020E+03  0.1019E+03
     -5.909  0.4713E+02  0.4357E+02  0.1045E+03  0.1042E+03
     -5.855  0.1697E+02  0.2164E+02  0.1054E+03  0.1054E+03
     -5.801  0.4810E+02  0.4605E+02  0.1080E+03  0.1079E+03
     -5.747  0.4668E+02  0.4704E+02  0.1106E+03  0.1104E+03
     -5.693  0.4534E+02  0.4611E+02  0.1130E+03  0.1129E+03
     -5.639  0.1399E+02  0.1333E+02  0.1138E+03  0.1136E+03
     -5.585  0.3752E+02  0.3751E+02  0.1158E+03  0.1157E+03
     -5.531  0.3965E+02  0.3710E+02  0.1179E+03  0.1177E+03
     -5.477  0.6482E+02  0.6618E+02  0.1215E+03  0.1212E+03
     -5.423  0.6301E+02  0.6212E+02  0.1249E+03  0.1246E+03
     -5.369  0.4366E+02  0.4110E+02  0.1272E+03  0.1268E+03
     -5.314  0.4237E+02  0.4586E+02  0.1295E+03  0.1293E+03
     -5.260  0.7365E+02  0.7044E+02  0.1335E+03  0.1331E+03
     -5.206  0.7523E+02  0.7415E+02  0.1376E+03  0.1371E+03
     -5.152  0.4410E+02  0.4576E+02  0.1399E+03  0.1396E+03
     -5.098  0.4937E+02  0.5202E+02  0.1426E+03  0.1424E+03
     -5.044  0.4903E+02  0.4883E+02  0.1453E+03  0.1450E+03
     -4.990  0.4994E+02  0.5083E+02  0.1480E+03  0.1478E+03
     -4.936  0.4770E+02  0.4433E+02  0.1505E+03  0.1502E+03
     -4.882  0.7637E+02  0.7453E+02  0.1547E+03  0.1542E+03
     -4.828  0.6486E+02  0.6933E+02  0.1582E+03  0.1580E+03
     -4.774  0.1622E+02  0.1696E+02  0.1590E+03  0.1589E+03
     -4.720  0.5561E+02  0.5797E+02  0.1621E+03  0.1620E+03
     -4.666  0.2439E+02  0.2478E+02  0.1634E+03  0.1633E+03
     -4.612  0.7940E+02  0.7184E+02  0.1677E+03  0.1672E+03
     -4.558  0.6504E+02  0.6867E+02  0.1712E+03  0.1709E+03
     -4.504  0.3547E+02  0.3842E+02  0.1731E+03  0.1730E+03
     -4.450  0.6146E+02  0.5818E+02  0.1764E+03  0.1762E+03
     -4.396  0.6274E+02  0.6545E+02  0.1798E+03  0.1797E+03
     -4.342  0.4006E+02  0.3833E+02  0.1820E+03  0.1818E+03
     -4.287  0.5483E+02  0.5601E+02  0.1849E+03  0.1848E+03
     -4.233  0.3972E+02  0.3649E+02  0.1871E+03  0.1868E+03
     -4.179  0.3596E+02  0.3757E+02  0.1890E+03  0.1888E+03
     -4.125  0.5638E+02  0.5398E+02  0.1921E+03  0.1917E+03
     -4.071  0.6542E+02  0.6220E+02  0.1956E+03  0.1951E+03
     -4.017  0.4308E+02  0.4801E+02  0.1979E+03  0.1977E+03
     -3.963  0.3977E+02  0.4308E+02  0.2001E+03  0.2000E+03
     -3.909  0.8699E+02  0.7767E+02  0.2048E+03  0.2042E+03
     -3.855  0.4687E+02  0.5666E+02  0.2073E+03  0.2073E+03
     -3.801  0.1720E+02  0.1262E+02  0.2083E+03  0.2079E+03
     -3.747  0.7117E+02  0.7064E+02  0.2121E+03  0.2118E+03
     -3.693  0.4968E+02  0.5094E+02  0.2148E+03  0.2145E+03
     -3.639  0.7522E+02  0.7136E+02  0.2189E+03  0.2184E+03
     -3.585  0.5742E+02  0.5842E+02  0.2220E+03  0.2215E+03
     -3.531  0.2107E+02  0.2754E+02  0.2231E+03  0.2230E+03
     -3.477  0.5004E+02  0.4385E+02  0.2258E+03  0.2254E+03
     -3.423  0.4827E+02  0.5054E+02  0.2284E+03  0.2281E+03
     -3.369  0.5107E+02  0.5184E+02  0.2312E+03  0.2309E+03
     -3.315  0.2227E+02  0.2618E+02  0.2324E+03  0.2323E+03
     -3.260  0.6673E+02  0.6496E+02  0.2360E+03  0.2359E+03
     -3.206  0.3401E+02  0.3308E+02  0.2378E+03  0.2376E+03
     -3.152  0.3763E+02  0.3802E+02  0.2399E+03  0.2397E+03
     -3.098  0.3741E+02  0.3553E+02  0.2419E+03  0.2416E+03
     -3.044  0.4049E+02  0.3700E+02  0.2441E+03  0.2436E+03
     -2.990  0.7417E+02  0.7578E+02  0.2481E+03  0.2477E+03
     -2.936  0.7243E+02  0.7486E+02  0.2520E+03  0.2518E+03
     -2.882  0.1930E+02  0.1808E+02  0.2530E+03  0.2527E+03
     -2.828  0.4875E+02  0.5383E+02  0.2557E+03  0.2556E+03
     -2.774  0.4808E+02  0.4222E+02  0.2583E+03  0.2579E+03
     -2.720  0.3011E+02  0.3383E+02  0.2599E+03  0.2598E+03
     -2.666  0.5326E+02  0.4733E+02  0.2628E+03  0.2623E+03
     -2.612  0.7095E+02  0.6736E+02  0.2666E+03  0.2660E+03
     -2.558  0.6164E+02  0.7127E+02  0.2699E+03  0.2698E+03
     -2.504  0.3824E+02  0.3774E+02  0.2720E+03  0.2718E+03
     -2.450  0.6793E+02  0.6506E+02  0.2757E+03  0.2754E+03
     -2.396  0.3970E+02  0.4340E+02  0.2778E+03  0.2777E+03
     -2.342  0.3833E+02  0.3505E+02  0.2799E+03  0.2796E+03
     -2.288  0.3938E+02  0.4200E+02  0.2820E+03  0.2819E+03
     -2.234  0.6378E+02  0.6251E+02  0.2855E+03  0.2853E+03
     -2.179  0.1600E+02  0.1983E+02  0.2863E+03  0.2863E+03
     -2.125  0.2469E+02  0.2474E+02  0.2877E+03  0.2877E+03
     -2.071  0.3775E+02  0.3334E+02  0.2897E+03  0.2895E+03
     -2.017  0.3133E+02  0.3226E+02  0.2914E+03  0.2912E+03
     -1.963  0.2843E+02  0.2619E+02  0.2929E+03  0.2926E+03
     -1.909  0.3122E+02  0.3112E+02  0.2946E+03  0.2943E+03
     -1.855  0.4019E+02  0.4177E+02  0.2968E+03  0.2966E+03
     -1.801  0.2998E+02  0.3336E+02  0.2984E+03  0.2984E+03
     -1.747  0.7155E+02  0.6994E+02  0.3023E+03  0.3021E+03
     -1.693  0.3491E+01  0.4598E+01  0.3025E+03  0.3024E+03
     -1.639  0.5232E+02  0.5199E+02  0.3053E+03  0.3052E+03
     -1.585  0.2193E+02  0.2020E+02  0.3065E+03  0.3063E+03
     -1.531  0.3016E+02  0.3171E+02  0.3081E+03  0.3080E+03
     -1.477  0.4219E+02  0.4322E+02  0.3104E+03  0.3103E+03
     -1.423  0.2977E+02  0.3061E+02  0.3120E+03  0.3120E+03
     -1.369  0.1058E+02  0.8803E+01  0.3126E+03  0.3125E+03
     -1.315  0.2605E+02  0.2689E+02  0.3140E+03  0.3139E+03
     -1.261  0.2071E+00  0.1296E+01  0.3140E+03  0.3140E+03
     -1.207  0.9038E+01  0.6177E+01  0.3145E+03  0.3143E+03
     -1.152  0.3625E+02  0.3664E+02  0.3164E+03  0.3163E+03
     -1.098  0.1173E+02  0.1072E+02  0.3171E+03  0.3169E+03
     -1.044  0.1608E+02  0.1774E+02  0.3180E+03  0.3179E+03
     -0.990  0.3735E+01  0.3741E+01  0.3182E+03  0.3181E+03
     -0.936  0.4550E+02  0.4367E+02  0.3206E+03  0.3204E+03
     -0.882  0.1334E+02  0.1699E+02  0.3213E+03  0.3213E+03
     -0.828  0.1951E+02  0.1672E+02  0.3224E+03  0.3222E+03
     -0.774  0.2354E+02  0.2600E+02  0.3237E+03  0.3236E+03
     -0.720  0.4672E+02  0.4173E+02  0.3262E+03  0.3259E+03
     -0.666  0.3636E+02  0.3960E+02  0.3282E+03  0.3280E+03
     -0.612  0.5004E+02  0.3975E+02  0.3309E+03  0.3302E+03
     -0.558  0.7169E+02  0.7835E+02  0.3347E+03  0.3344E+03
     -0.504  0.5556E+02  0.5833E+02  0.3377E+03  0.3376E+03
     -0.450  0.8522E+02  0.8736E+02  0.3423E+03  0.3423E+03
     -0.396  0.3709E+02  0.3764E+02  0.3443E+03  0.3443E+03
     -0.342  0.9583E+02  0.8183E+02  0.3495E+03  0.3488E+03
     -0.288  0.7037E+02  0.7664E+02  0.3533E+03  0.3529E+03
     -0.234  0.8165E+02  0.8170E+02  0.3577E+03  0.3573E+03
     -0.180  0.5720E+02  0.5923E+02  0.3608E+03  0.3605E+03
     -0.125  0.5603E+02  0.5038E+02  0.3639E+03  0.3632E+03
     -0.071  0.8349E+02  0.8687E+02  0.3684E+03  0.3679E+03
     -0.017  0.4615E+02  0.4519E+02  0.3709E+03  0.3704E+03
      0.037  0.1057E+03  0.1097E+03  0.3766E+03  0.3763E+03
      0.091  0.7383E+02  0.7324E+02  0.3806E+03  0.3803E+03
      0.145  0.7559E+02  0.7725E+02  0.3847E+03  0.3844E+03
      0.199  0.8637E+02  0.8076E+02  0.3893E+03  0.3888E+03
      0.253  0.1092E+03  0.1080E+03  0.3952E+03  0.3946E+03
      0.307  0.7010E+02  0.7028E+02  0.3990E+03  0.3984E+03
      0.361  0.1186E+03  0.1167E+03  0.4054E+03  0.4048E+03
      0.415  0.1043E+03  0.1077E+03  0.4111E+03  0.4106E+03
      0.469  0.7647E+02  0.7627E+02  0.4152E+03  0.4147E+03
      0.523  0.1374E+03  0.1369E+03  0.4226E+03  0.4221E+03
      0.577  0.1306E+03  0.1289E+03  0.4297E+03  0.4291E+03
      0.631  0.1376E+03  0.1335E+03  0.4371E+03  0.4363E+03
      0.685  0.1737E+03  0.1741E+03  0.4465E+03  0.4457E+03
      0.739  0.8681E+02  0.9912E+02  0.4512E+03  0.4511E+03
      0.793  0.1044E+03  0.9202E+02  0.4568E+03  0.4560E+03
      0.847  0.1058E+03  0.1108E+03  0.4626E+03  0.4620E+03
      0.902  0.1092E+03  0.1105E+03  0.4685E+03  0.4680E+03
      0.956  0.7918E+02  0.7729E+02  0.4727E+03  0.4722E+03
      1.010  0.6749E+02  0.7337E+02  0.4764E+03  0.4761E+03
      1.064  0.1269E+03  0.1259E+03  0.4833E+03  0.4829E+03
      1.118  0.1115E+03  0.1090E+03  0.4893E+03  0.4888E+03
      1.172  0.1236E+03  0.1166E+03  0.4960E+03  0.4951E+03
      1.226  0.1231E+03  0.1180E+03  0.5026E+03  0.5015E+03
      1.280  0.1453E+03  0.1517E+03  0.5105E+03  0.5097E+03
      1.334  0.8659E+02  0.9669E+02  0.5151E+03  0.5149E+03
      1.388  0.1106E+03  0.1070E+03  0.5211E+03  0.5207E+03
      1.442  0.1296E+03  0.1225E+03  0.5281E+03  0.5273E+03
      1.496  0.1144E+03  0.1134E+03  0.5343E+03  0.5335E+03
      1.550  0.1011E+03  0.1054E+03  0.5398E+03  0.5392E+03
      1.604  0.1253E+03  0.1286E+03  0.5465E+03  0.5461E+03
      1.658  0.9511E+02  0.9347E+02  0.5517E+03  0.5512E+03
      1.712  0.1103E+03  0.1086E+03  0.5577E+03  0.5570E+03
      1.766  0.1334E+03  0.1310E+03  0.5649E+03  0.5641E+03
      1.820  0.7548E+02  0.8106E+02  0.5689E+03  0.5685E+03
      1.874  0.1041E+03  0.9875E+02  0.5746E+03  0.5738E+03
      1.929  0.9468E+02  0.9115E+02  0.5797E+03  0.5788E+03
      1.983  0.8677E+02  0.9471E+02  0.5844E+03  0.5839E+03
      2.037  0.9413E+02  0.9786E+02  0.5895E+03  0.5892E+03
      2.091  0.8664E+02  0.8239E+02  0.5941E+03  0.5936E+03
      2.145  0.8290E+02  0.8129E+02  0.5986E+03  0.5980E+03
      2.199  0.8804E+02  0.9270E+02  0.6034E+03  0.6030E+03
      2.253  0.1078E+03  0.1069E+03  0.6092E+03  0.6088E+03
      2.307  0.6637E+02  0.6323E+02  0.6128E+03  0.6122E+03
      2.361  0.6191E+02  0.6726E+02  0.6161E+03  0.6159E+03
      2.415  0.6875E+02  0.6642E+02  0.6199E+03  0.6195E+03
      2.469  0.8703E+02  0.7684E+02  0.6246E+03  0.6236E+03
      2.523  0.7500E+02  0.8936E+02  0.6286E+03  0.6285E+03
      2.577  0.7965E+02  0.7680E+02  0.6329E+03  0.6326E+03
      2.631  0.3177E+02  0.2831E+02  0.6346E+03  0.6341E+03
      2.685  0.8988E+02  0.8929E+02  0.6395E+03  0.6390E+03
      2.739  0.6443E+02  0.6665E+02  0.6430E+03  0.6426E+03
      2.793  0.7122E+02  0.7268E+02  0.6468E+03  0.6465E+03
      2.847  0.4865E+02  0.4767E+02  0.6495E+03  0.6491E+03
      2.901  0.3946E+02  0.4046E+02  0.6516E+03  0.6513E+03
      2.956  0.6296E+02  0.6810E+02  0.6550E+03  0.6549E+03
      3.010  0.2937E+02  0.2699E+02  0.6566E+03  0.6564E+03
      3.064  0.4610E+02  0.4416E+02  0.6591E+03  0.6588E+03
      3.118  0.4833E+02  0.4159E+02  0.6617E+03  0.6610E+03
      3.172  0.4881E+02  0.5540E+02  0.6643E+03  0.6640E+03
      3.226  0.4337E+02  0.3705E+02  0.6667E+03  0.6660E+03
      3.280  0.4818E+02  0.4945E+02  0.6693E+03  0.6687E+03
      3.334  0.1932E+02  0.2163E+02  0.6703E+03  0.6699E+03
      3.388  0.4260E+02  0.4183E+02  0.6726E+03  0.6721E+03
      3.442  0.3158E+02  0.3168E+02  0.6743E+03  0.6738E+03
      3.496  0.1737E+02  0.1111E+02  0.6753E+03  0.6744E+03
      3.550  0.3324E+02  0.4056E+02  0.6771E+03  0.6766E+03
      3.604  0.4201E+02  0.4037E+02  0.6793E+03  0.6788E+03
      3.658  0.2828E+02  0.2996E+02  0.6809E+03  0.6804E+03
      3.712  0.2721E+02  0.3511E+02  0.6823E+03  0.6823E+03
      3.766  0.1843E+02  0.1848E+02  0.6833E+03  0.6833E+03
      3.820  0.2836E+02  0.2039E+02  0.6849E+03  0.6844E+03
      3.874  0.2098E+02  0.2896E+02  0.6860E+03  0.6860E+03
      3.928  0.1216E+02  0.1057E+02  0.6867E+03  0.6866E+03
      3.983  0.1297E+02  0.1416E+02  0.6874E+03  0.6873E+03
      4.037  0.2966E+02  0.2779E+02  0.6890E+03  0.6888E+03
      4.091  0.2717E+02  0.2133E+02  0.6904E+03  0.6900E+03
      4.145  0.4559E+02  0.4752E+02  0.6929E+03  0.6926E+03
      4.199  0.3624E+02  0.3635E+02  0.6949E+03  0.6945E+03
      4.253  0.3005E+02  0.3040E+02  0.6965E+03  0.6962E+03
      4.307  0.3506E+02  0.3997E+02  0.6984E+03  0.6983E+03
      4.361  0.4685E+02  0.4559E+02  0.7009E+03  0.7008E+03
      4.415  0.5952E+02  0.5616E+02  0.7041E+03  0.7038E+03
      4.469  0.7017E+02  0.6649E+02  0.7079E+03  0.7074E+03
      4.523  0.7795E+02  0.8182E+02  0.7121E+03  0.7118E+03
      4.577  0.6178E+02  0.6003E+02  0.7155E+03  0.7151E+03
      4.631  0.5638E+02  0.5696E+02  0.7185E+03  0.7182E+03
      4.685  0.8483E+02  0.8359E+02  0.7231E+03  0.7227E+03
      4.739  0.7727E+02  0.8103E+02  0.7273E+03  0.7271E+03
      4.793  0.7678E+02  0.7585E+02  0.7314E+03  0.7312E+03
      4.847  0.9164E+02  0.8904E+02  0.7364E+03  0.7360E+03
      4.901  0.8320E+02  0.8311E+02  0.7409E+03  0.7405E+03
      4.955  0.1141E+03  0.1179E+03  0.7470E+03  0.7468E+03
      5.010  0.1020E+03  0.1016E+03  0.7526E+03  0.7523E+03
      5.064  0.1132E+03  0.1076E+03  0.7587E+03  0.7582E+03
      5.118  0.9011E+02  0.8868E+02  0.7635E+03  0.7629E+03
      5.172  0.1148E+03  0.1117E+03  0.7698E+03  0.7690E+03
      5.226  0.9760E+02  0.1010E+03  0.7750E+03  0.7744E+03
      5.280  0.8414E+02  0.8557E+02  0.7796E+03  0.7791E+03
      5.334  0.1168E+03  0.1166E+03  0.7859E+03  0.7854E+03
      5.388  0.1046E+03  0.1079E+03  0.7915E+03  0.7912E+03
      5.442  0.1256E+03  0.1262E+03  0.7983E+03  0.7980E+03
      5.496  0.8487E+02  0.8720E+02  0.8029E+03  0.8027E+03
      5.550  0.5138E+02  0.4637E+02  0.8057E+03  0.8052E+03
      5.604  0.3089E+02  0.3202E+02  0.8074E+03  0.8070E+03
      5.658  0.1170E+02  0.1898E+02  0.8080E+03  0.8080E+03
      5.712  0.0000E+00  0.0000E+00  0.8080E+03  0.8080E+03
      5.766  0.0000E+00  0.0000E+00  0.8080E+03  0.8080E+03
      5.820  0.0000E+00  0.0000E+00  0.8080E+03  0.8080E+03
      5.874  0.0000E+00  0.0000E+00  0.8080E+03  0.8080E+03
      5.928  0.0000E+00  0.0000E+00  0.8080E+03  0.8080E+03
      5.982  0.0000E+00  0.0000E+00  0.8080E+03  0.8080E+03
      6.036  0.0000E+00  0.0000E+00  0.8080E+03  0.8080E+03
      6.091  0.0000E+00  0.0000E+00  0.8080E+03  0.8080E+03
      6.145  0.0000E+00  0.0000E+00  0.8080E+03  0.8080E+03
      6.199  0.0000E+00  0.0000E+00  0.8080E+03  0.8080E+03
      6.253  0.0000E+00  0.0000E+00  0.8080E+03  0.8080E+03
      6.307  0.0000E+00  0.0000E+00  0.8080E+03  0.8080E+03
      6.361  0.0000E+00  0.0000E+00  0.8080E+03  0.8080E+03
