  48  48   0   0
  0.2323126E+02  0.8001338E-09  0.1265123E-08  0.1161174E-08  0.5000000E-15
  1.000000000000000E-004
  CAR 
 Si and Ge interface calculation         
      6.60493605    -11.07663260  301      3.33238253      1.00000000
    -11.077  0.0000E+00  0.0000E+00  0.0000E+00  0.0000E+00
    -11.018  0.0000E+00  0.0000E+00  0.0000E+00  0.0000E+00
    -10.959  0.0000E+00  0.0000E+00  0.0000E+00  0.0000E+00
    -10.900  0.0000E+00  0.0000E+00  0.0000E+00  0.0000E+00
    -10.841  0.0000E+00  0.0000E+00  0.0000E+00  0.0000E+00
    -10.782  0.0000E+00  0.0000E+00  0.0000E+00  0.0000E+00
    -10.723  0.0000E+00  0.0000E+00  0.0000E+00  0.0000E+00
    -10.664  0.0000E+00  0.0000E+00  0.0000E+00  0.0000E+00
    -10.605  0.0000E+00  0.0000E+00  0.0000E+00  0.0000E+00
    -10.546  0.0000E+00  0.0000E+00  0.0000E+00  0.0000E+00
    -10.487  0.0000E+00  0.0000E+00  0.0000E+00  0.0000E+00
    -10.428  0.0000E+00  0.0000E+00  0.0000E+00  0.0000E+00
    -10.369  0.0000E+00  0.0000E+00  0.0000E+00  0.0000E+00
    -10.310  0.5337E-07  0.1674E-14  0.3145E-08  0.9869E-16
    -10.251  0.5177E+01  0.1029E+01  0.3052E+00  0.6068E-01
    -10.193  0.3305E+01  0.7454E+01  0.5000E+00  0.5000E+00
    -10.134  0.1155E+01  0.2739E-02  0.5681E+00  0.5002E+00
    -10.075  0.2429E+02  0.2503E+02  0.2000E+01  0.1975E+01
    -10.016  0.1311E-05  0.4156E+00  0.2000E+01  0.2000E+01
     -9.957  0.1574E+02  0.7671E+01  0.2928E+01  0.2452E+01
     -9.898  0.1217E+01  0.9295E+01  0.3000E+01  0.3000E+01
     -9.839  0.0000E+00  0.0000E+00  0.3000E+01  0.3000E+01
     -9.780  0.0000E+00  0.0000E+00  0.3000E+01  0.3000E+01
     -9.721  0.1710E+00  0.6908E-04  0.3010E+01  0.3000E+01
     -9.662  0.1679E+02  0.1512E+02  0.4000E+01  0.3891E+01
     -9.603  0.1195E-08  0.1845E+01  0.4000E+01  0.4000E+01
     -9.544  0.1286E+02  0.2241E+01  0.4758E+01  0.4132E+01
     -9.485  0.4109E+01  0.1473E+02  0.5000E+01  0.5000E+01
     -9.426  0.0000E+00  0.0000E+00  0.5000E+01  0.5000E+01
     -9.367  0.0000E+00  0.0000E+00  0.5000E+01  0.5000E+01
     -9.308  0.0000E+00  0.0000E+00  0.5000E+01  0.5000E+01
     -9.250  0.0000E+00  0.0000E+00  0.5000E+01  0.5000E+01
     -9.191  0.0000E+00  0.0000E+00  0.5000E+01  0.5000E+01
     -9.132  0.0000E+00  0.0000E+00  0.5000E+01  0.5000E+01
     -9.073  0.5049E-09  0.0000E+00  0.5000E+01  0.5000E+01
     -9.014  0.5689E+01  0.8271E+00  0.5335E+01  0.5049E+01
     -8.955  0.1128E+02  0.1614E+02  0.6000E+01  0.6000E+01
     -8.896  0.4465E-01  0.1863E-05  0.6003E+01  0.6000E+01
     -8.837  0.1689E+02  0.1518E+02  0.6998E+01  0.6895E+01
     -8.778  0.1471E+01  0.2039E+01  0.7085E+01  0.7015E+01
     -8.719  0.4089E+01  0.4366E+01  0.7326E+01  0.7272E+01
     -8.660  0.4068E+01  0.2752E+01  0.7566E+01  0.7435E+01
     -8.601  0.8451E+01  0.9363E+01  0.8064E+01  0.7986E+01
     -8.542  0.6529E+01  0.5161E+01  0.8449E+01  0.8291E+01
     -8.483  0.7384E+01  0.8053E+01  0.8884E+01  0.8765E+01
     -8.424  0.4398E+01  0.5202E+01  0.9143E+01  0.9072E+01
     -8.365  0.3968E+00  0.1608E+01  0.9167E+01  0.9167E+01
     -8.307  0.2493E+01  0.1674E+00  0.9314E+01  0.9177E+01
     -8.248  0.2892E+02  0.2663E+02  0.1102E+02  0.1075E+02
     -8.189  0.1260E+02  0.1558E+02  0.1176E+02  0.1166E+02
     -8.130  0.6400E+01  0.6706E+01  0.1214E+02  0.1206E+02
     -8.071  0.3319E+01  0.4639E+01  0.1233E+02  0.1233E+02
     -8.012  0.4705E+01  0.4679E+01  0.1261E+02  0.1261E+02
     -7.953  0.8413E+01  0.5757E+01  0.1311E+02  0.1295E+02
     -7.894  0.8836E+01  0.6630E+01  0.1363E+02  0.1334E+02
     -7.835  0.4548E+01  0.9323E+01  0.1390E+02  0.1389E+02
     -7.776  0.8457E+01  0.6667E+01  0.1439E+02  0.1428E+02
     -7.717  0.1402E+02  0.1325E+02  0.1522E+02  0.1506E+02
     -7.658  0.1131E+02  0.1296E+02  0.1589E+02  0.1583E+02
     -7.599  0.1811E+02  0.7267E+01  0.1695E+02  0.1625E+02
     -7.540  0.1877E+02  0.2690E+02  0.1806E+02  0.1784E+02
     -7.481  0.1279E+02  0.1502E+02  0.1881E+02  0.1873E+02
     -7.422  0.1614E+02  0.1481E+02  0.1977E+02  0.1960E+02
     -7.364  0.1299E+02  0.1180E+02  0.2053E+02  0.2029E+02
     -7.305  0.1367E+02  0.1530E+02  0.2134E+02  0.2120E+02
     -7.246  0.1962E+02  0.1293E+02  0.2249E+02  0.2196E+02
     -7.187  0.1502E+02  0.1994E+02  0.2338E+02  0.2313E+02
     -7.128  0.8636E+01  0.1282E+02  0.2389E+02  0.2389E+02
     -7.069  0.2228E+02  0.1929E+02  0.2520E+02  0.2503E+02
     -7.010  0.2084E+02  0.1538E+02  0.2643E+02  0.2593E+02
     -6.951  0.2843E+02  0.2886E+02  0.2811E+02  0.2763E+02
     -6.892  0.1830E+02  0.1886E+02  0.2918E+02  0.2875E+02
     -6.833  0.2293E+02  0.2625E+02  0.3054E+02  0.3029E+02
     -6.774  0.1806E+02  0.1764E+02  0.3160E+02  0.3133E+02
     -6.715  0.1587E+02  0.1633E+02  0.3254E+02  0.3229E+02
     -6.656  0.1776E+02  0.1274E+02  0.3358E+02  0.3305E+02
     -6.597  0.1349E+02  0.1761E+02  0.3438E+02  0.3408E+02
     -6.538  0.1197E+02  0.1525E+02  0.3508E+02  0.3498E+02
     -6.479  0.1184E+02  0.9107E+01  0.3578E+02  0.3552E+02
     -6.420  0.1581E+02  0.1643E+02  0.3671E+02  0.3649E+02
     -6.362  0.1059E+02  0.1083E+02  0.3734E+02  0.3713E+02
     -6.303  0.6962E+01  0.8193E+01  0.3775E+02  0.3761E+02
     -6.244  0.6865E+01  0.7262E+01  0.3815E+02  0.3804E+02
     -6.185  0.1818E+02  0.1680E+02  0.3922E+02  0.3903E+02
     -6.126  0.1905E+02  0.2012E+02  0.4035E+02  0.4021E+02
     -6.067  0.1671E+01  0.3006E+01  0.4045E+02  0.4039E+02
     -6.008  0.8536E+01  0.6190E+01  0.4095E+02  0.4076E+02
     -5.949  0.9338E+01  0.1176E+02  0.4150E+02  0.4145E+02
     -5.890  0.7702E+01  0.6395E+01  0.4195E+02  0.4183E+02
     -5.831  0.6683E+01  0.4411E+01  0.4235E+02  0.4209E+02
     -5.772  0.1384E+02  0.1626E+02  0.4316E+02  0.4304E+02
     -5.713  0.1153E+02  0.8185E+01  0.4384E+02  0.4353E+02
     -5.654  0.1251E+02  0.1395E+02  0.4458E+02  0.4435E+02
     -5.595  0.1607E+02  0.1804E+02  0.4553E+02  0.4541E+02
     -5.536  0.6510E+01  0.7157E+01  0.4591E+02  0.4583E+02
     -5.477  0.9678E+01  0.8098E+01  0.4648E+02  0.4631E+02
     -5.419  0.6941E+01  0.6309E+01  0.4689E+02  0.4668E+02
     -5.360  0.1235E+02  0.1300E+02  0.4762E+02  0.4745E+02
     -5.301  0.8223E+01  0.8535E+01  0.4810E+02  0.4795E+02
     -5.242  0.1520E+02  0.1559E+02  0.4900E+02  0.4887E+02
     -5.183  0.1829E+02  0.5890E+01  0.5008E+02  0.4922E+02
     -5.124  0.5760E+01  0.1704E+02  0.5042E+02  0.5022E+02
     -5.065  0.8713E+01  0.9670E+01  0.5093E+02  0.5079E+02
     -5.006  0.8683E+01  0.6905E+01  0.5144E+02  0.5120E+02
     -4.947  0.1046E+02  0.1333E+02  0.5206E+02  0.5198E+02
     -4.888  0.6838E+01  0.4751E+01  0.5246E+02  0.5227E+02
     -4.829  0.5550E+01  0.5766E+01  0.5279E+02  0.5260E+02
     -4.770  0.6874E+01  0.7525E+01  0.5319E+02  0.5305E+02
     -4.711  0.8961E+01  0.7093E+01  0.5372E+02  0.5347E+02
     -4.652  0.1643E+02  0.1677E+02  0.5469E+02  0.5445E+02
     -4.593  0.8717E+01  0.1033E+02  0.5520E+02  0.5506E+02
     -4.534  0.3037E+02  0.2338E+02  0.5699E+02  0.5644E+02
     -4.476  0.1217E+02  0.1850E+02  0.5771E+02  0.5753E+02
     -4.417  0.6460E+01  0.7148E+01  0.5809E+02  0.5795E+02
     -4.358  0.7058E+01  0.7590E+01  0.5851E+02  0.5840E+02
     -4.299  0.9226E+01  0.5201E+01  0.5905E+02  0.5871E+02
     -4.240  0.3234E+02  0.2468E+02  0.6096E+02  0.6016E+02
     -4.181  0.2271E+02  0.3084E+02  0.6230E+02  0.6198E+02
     -4.122  0.2126E+02  0.2082E+02  0.6355E+02  0.6321E+02
     -4.063  0.1457E+02  0.1417E+02  0.6441E+02  0.6404E+02
     -4.004  0.2150E+02  0.2301E+02  0.6568E+02  0.6540E+02
     -3.945  0.1078E+02  0.1275E+02  0.6631E+02  0.6615E+02
     -3.886  0.2606E+02  0.2102E+02  0.6785E+02  0.6739E+02
     -3.827  0.1417E+02  0.1201E+02  0.6868E+02  0.6810E+02
     -3.768  0.1149E+02  0.1722E+02  0.6936E+02  0.6911E+02
     -3.709  0.7349E+01  0.7879E+01  0.6979E+02  0.6958E+02
     -3.650  0.1265E+02  0.1287E+02  0.7054E+02  0.7033E+02
     -3.591  0.2057E+02  0.1734E+02  0.7175E+02  0.7136E+02
     -3.532  0.1362E+02  0.1639E+02  0.7255E+02  0.7232E+02
     -3.474  0.1444E+02  0.1409E+02  0.7341E+02  0.7315E+02
     -3.415  0.1470E+02  0.1455E+02  0.7427E+02  0.7401E+02
     -3.356  0.1454E+02  0.1400E+02  0.7513E+02  0.7484E+02
     -3.297  0.2484E+02  0.2422E+02  0.7659E+02  0.7626E+02
     -3.238  0.1386E+02  0.1330E+02  0.7741E+02  0.7705E+02
     -3.179  0.6193E+01  0.1146E+02  0.7777E+02  0.7772E+02
     -3.120  0.1016E+02  0.8554E+01  0.7837E+02  0.7823E+02
     -3.061  0.2149E+01  0.4631E+01  0.7850E+02  0.7850E+02
     -3.002  0.7485E+01  0.5360E+01  0.7894E+02  0.7882E+02
     -2.943  0.1124E+02  0.1146E+02  0.7960E+02  0.7949E+02
     -2.884  0.9576E+01  0.1117E+02  0.8017E+02  0.8015E+02
     -2.825  0.6067E+01  0.5934E+01  0.8053E+02  0.8050E+02
     -2.766  0.1072E+02  0.7445E+01  0.8116E+02  0.8094E+02
     -2.707  0.8022E+01  0.9895E+01  0.8163E+02  0.8152E+02
     -2.648  0.8000E+01  0.6763E+01  0.8210E+02  0.8192E+02
     -2.589  0.7617E+01  0.8257E+01  0.8255E+02  0.8241E+02
     -2.531  0.1300E+02  0.1071E+02  0.8332E+02  0.8304E+02
     -2.472  0.1429E+02  0.1239E+02  0.8416E+02  0.8377E+02
     -2.413  0.1233E+02  0.1370E+02  0.8489E+02  0.8458E+02
     -2.354  0.4032E+01  0.9027E+01  0.8512E+02  0.8511E+02
     -2.295  0.3887E+01  0.2156E+01  0.8535E+02  0.8524E+02
     -2.236  0.6267E+01  0.6574E+01  0.8572E+02  0.8562E+02
     -2.177  0.8655E+01  0.8651E+01  0.8623E+02  0.8613E+02
     -2.118  0.2053E+02  0.1925E+02  0.8744E+02  0.8727E+02
     -2.059  0.6018E+01  0.3306E+01  0.8780E+02  0.8746E+02
     -2.000  0.9581E+01  0.1206E+02  0.8836E+02  0.8817E+02
     -1.941  0.5111E+01  0.6570E+01  0.8866E+02  0.8856E+02
     -1.882  0.5586E+01  0.4792E+01  0.8899E+02  0.8884E+02
     -1.823  0.7486E+01  0.8148E+01  0.8943E+02  0.8932E+02
     -1.764  0.3943E+01  0.5173E+01  0.8967E+02  0.8963E+02
     -1.705  0.5961E+01  0.4712E+01  0.9002E+02  0.8991E+02
     -1.646  0.9115E+01  0.9441E+01  0.9055E+02  0.9046E+02
     -1.588  0.3870E+01  0.5346E+01  0.9078E+02  0.9078E+02
     -1.529  0.3685E+01  0.3779E+01  0.9100E+02  0.9100E+02
     -1.470  0.2156E+01  0.1880E+01  0.9113E+02  0.9111E+02
     -1.411  0.1980E+01  0.1891E+01  0.9124E+02  0.9122E+02
     -1.352  0.1199E+02  0.9329E+01  0.9195E+02  0.9177E+02
     -1.293  0.4566E+01  0.6595E+01  0.9222E+02  0.9216E+02
     -1.234  0.4306E+01  0.3817E+01  0.9247E+02  0.9239E+02
     -1.175  0.5199E+01  0.4663E+01  0.9278E+02  0.9266E+02
     -1.116  0.1513E+02  0.1344E+02  0.9367E+02  0.9345E+02
     -1.057  0.9703E+01  0.9550E+01  0.9424E+02  0.9402E+02
     -0.998  0.2448E+02  0.1900E+02  0.9569E+02  0.9514E+02
     -0.939  0.2236E+02  0.2450E+02  0.9700E+02  0.9658E+02
     -0.880  0.1270E+02  0.1906E+02  0.9775E+02  0.9770E+02
     -0.821  0.2203E+02  0.1774E+02  0.9905E+02  0.9875E+02
     -0.762  0.1788E+02  0.1700E+02  0.1001E+03  0.9975E+02
     -0.703  0.2111E+02  0.2183E+02  0.1014E+03  0.1010E+03
     -0.645  0.2188E+02  0.1918E+02  0.1026E+03  0.1022E+03
     -0.586  0.1749E+02  0.2407E+02  0.1037E+03  0.1036E+03
     -0.527  0.1931E+02  0.1310E+02  0.1048E+03  0.1044E+03
     -0.468  0.2278E+02  0.2366E+02  0.1062E+03  0.1058E+03
     -0.409  0.2381E+02  0.2325E+02  0.1076E+03  0.1071E+03
     -0.350  0.3880E+02  0.3379E+02  0.1098E+03  0.1091E+03
     -0.291  0.2389E+02  0.3010E+02  0.1113E+03  0.1109E+03
     -0.232  0.2984E+02  0.2617E+02  0.1130E+03  0.1124E+03
     -0.173  0.1869E+02  0.2028E+02  0.1141E+03  0.1136E+03
     -0.114  0.2294E+02  0.2496E+02  0.1155E+03  0.1151E+03
     -0.055  0.2498E+02  0.2375E+02  0.1169E+03  0.1165E+03
      0.004  0.2460E+02  0.2441E+02  0.1184E+03  0.1179E+03
      0.063  0.2475E+02  0.2067E+02  0.1198E+03  0.1192E+03
      0.122  0.2900E+02  0.3145E+02  0.1216E+03  0.1210E+03
      0.181  0.1659E+02  0.2037E+02  0.1225E+03  0.1222E+03
      0.240  0.2393E+02  0.2248E+02  0.1239E+03  0.1235E+03
      0.299  0.1633E+02  0.1936E+02  0.1249E+03  0.1247E+03
      0.357  0.2803E+02  0.2476E+02  0.1266E+03  0.1261E+03
      0.416  0.2530E+02  0.2614E+02  0.1280E+03  0.1277E+03
      0.475  0.1749E+02  0.2141E+02  0.1291E+03  0.1289E+03
      0.534  0.2764E+02  0.2643E+02  0.1307E+03  0.1305E+03
      0.593  0.3497E+02  0.2976E+02  0.1328E+03  0.1322E+03
      0.652  0.2740E+02  0.3053E+02  0.1344E+03  0.1340E+03
      0.711  0.2839E+02  0.2419E+02  0.1361E+03  0.1355E+03
      0.770  0.3038E+02  0.2947E+02  0.1378E+03  0.1372E+03
      0.829  0.2308E+02  0.2604E+02  0.1392E+03  0.1387E+03
      0.888  0.3080E+02  0.3511E+02  0.1410E+03  0.1408E+03
      0.947  0.2825E+02  0.2030E+02  0.1427E+03  0.1420E+03
      1.006  0.3913E+02  0.4400E+02  0.1450E+03  0.1446E+03
      1.065  0.2338E+02  0.2308E+02  0.1464E+03  0.1460E+03
      1.124  0.3343E+02  0.2765E+02  0.1483E+03  0.1476E+03
      1.183  0.2121E+02  0.2908E+02  0.1496E+03  0.1493E+03
      1.242  0.2431E+02  0.1946E+02  0.1510E+03  0.1505E+03
      1.300  0.1755E+02  0.2197E+02  0.1521E+03  0.1518E+03
      1.359  0.1643E+02  0.1635E+02  0.1530E+03  0.1527E+03
      1.418  0.2782E+02  0.2688E+02  0.1547E+03  0.1543E+03
      1.477  0.1951E+02  0.2167E+02  0.1558E+03  0.1556E+03
      1.536  0.2376E+02  0.2036E+02  0.1572E+03  0.1568E+03
      1.595  0.1795E+02  0.1943E+02  0.1583E+03  0.1579E+03
      1.654  0.1880E+02  0.1731E+02  0.1594E+03  0.1589E+03
      1.713  0.2848E+02  0.2214E+02  0.1611E+03  0.1602E+03
      1.772  0.2185E+02  0.2929E+02  0.1624E+03  0.1620E+03
      1.831  0.2618E+02  0.2347E+02  0.1639E+03  0.1634E+03
      1.890  0.1681E+02  0.2214E+02  0.1649E+03  0.1647E+03
      1.949  0.2487E+02  0.1514E+02  0.1664E+03  0.1656E+03
      2.008  0.2233E+02  0.2671E+02  0.1677E+03  0.1671E+03
      2.067  0.2634E+02  0.2651E+02  0.1692E+03  0.1687E+03
      2.126  0.2298E+02  0.2199E+02  0.1706E+03  0.1700E+03
      2.185  0.3453E+02  0.2613E+02  0.1726E+03  0.1715E+03
      2.243  0.1349E+02  0.2444E+02  0.1734E+03  0.1730E+03
      2.302  0.1921E+02  0.2330E+02  0.1745E+03  0.1743E+03
      2.361  0.1755E+02  0.1697E+02  0.1756E+03  0.1753E+03
      2.420  0.1433E+02  0.1304E+02  0.1764E+03  0.1761E+03
      2.479  0.1373E+02  0.1368E+02  0.1772E+03  0.1769E+03
      2.538  0.2698E+02  0.1447E+02  0.1788E+03  0.1778E+03
      2.597  0.2790E+02  0.3172E+02  0.1805E+03  0.1796E+03
      2.656  0.2313E+02  0.2180E+02  0.1818E+03  0.1809E+03
      2.715  0.1278E+02  0.2230E+02  0.1826E+03  0.1822E+03
      2.774  0.8232E+01  0.9199E+01  0.1831E+03  0.1828E+03
      2.833  0.1787E+02  0.1140E+02  0.1841E+03  0.1835E+03
      2.892  0.1408E+02  0.1902E+02  0.1849E+03  0.1846E+03
      2.951  0.8715E+01  0.1197E+02  0.1855E+03  0.1853E+03
      3.010  0.8614E+01  0.6525E+01  0.1860E+03  0.1857E+03
      3.069  0.2194E+02  0.1388E+02  0.1873E+03  0.1865E+03
      3.128  0.1205E+02  0.1583E+02  0.1880E+03  0.1874E+03
      3.186  0.2314E+02  0.1849E+02  0.1893E+03  0.1885E+03
      3.245  0.1169E+02  0.2117E+02  0.1900E+03  0.1898E+03
      3.304  0.2001E+02  0.9734E+01  0.1912E+03  0.1903E+03
      3.363  0.1349E+02  0.1876E+02  0.1920E+03  0.1914E+03
      3.422  0.1770E+02  0.1689E+02  0.1930E+03  0.1924E+03
      3.481  0.1053E+02  0.1348E+02  0.1937E+03  0.1932E+03
      3.540  0.9111E+01  0.9882E+01  0.1942E+03  0.1938E+03
      3.599  0.1735E+02  0.1087E+02  0.1952E+03  0.1944E+03
      3.658  0.1289E+02  0.1858E+02  0.1960E+03  0.1955E+03
      3.717  0.2221E+02  0.1366E+02  0.1973E+03  0.1963E+03
      3.776  0.1529E+02  0.2447E+02  0.1982E+03  0.1978E+03
      3.835  0.1485E+02  0.1659E+02  0.1991E+03  0.1988E+03
      3.894  0.7295E+01  0.9391E+01  0.1995E+03  0.1993E+03
      3.953  0.7711E+01  0.8864E+01  0.2000E+03  0.1998E+03
      4.012  0.2492E+02  0.1821E+02  0.2014E+03  0.2009E+03
      4.071  0.1094E+02  0.1554E+02  0.2021E+03  0.2018E+03
      4.130  0.1948E+02  0.1802E+02  0.2032E+03  0.2029E+03
      4.188  0.1578E+02  0.1370E+02  0.2041E+03  0.2037E+03
      4.247  0.1160E+02  0.1562E+02  0.2048E+03  0.2046E+03
      4.306  0.1001E+02  0.7074E+01  0.2054E+03  0.2050E+03
      4.365  0.1147E+02  0.1390E+02  0.2061E+03  0.2059E+03
      4.424  0.1969E+02  0.1644E+02  0.2073E+03  0.2068E+03
      4.483  0.1001E+02  0.1639E+02  0.2078E+03  0.2078E+03
      4.542  0.1320E+02  0.9548E+01  0.2086E+03  0.2084E+03
      4.601  0.1384E+02  0.1229E+02  0.2094E+03  0.2091E+03
      4.660  0.2068E+02  0.1819E+02  0.2107E+03  0.2102E+03
      4.719  0.2044E+02  0.2506E+02  0.2119E+03  0.2116E+03
      4.778  0.1854E+02  0.1582E+02  0.2130E+03  0.2126E+03
      4.837  0.1228E+02  0.1689E+02  0.2137E+03  0.2136E+03
      4.896  0.2468E+02  0.2075E+02  0.2151E+03  0.2148E+03
      4.955  0.3011E+02  0.2955E+02  0.2169E+03  0.2165E+03
      5.014  0.7229E+01  0.1099E+02  0.2173E+03  0.2172E+03
      5.073  0.1767E+02  0.1355E+02  0.2184E+03  0.2180E+03
      5.131  0.2483E+02  0.2308E+02  0.2198E+03  0.2193E+03
      5.190  0.2320E+02  0.2362E+02  0.2212E+03  0.2207E+03
      5.249  0.3140E+02  0.2918E+02  0.2231E+03  0.2224E+03
      5.308  0.2582E+02  0.2866E+02  0.2246E+03  0.2241E+03
      5.367  0.2172E+02  0.2161E+02  0.2259E+03  0.2254E+03
      5.426  0.2042E+02  0.2467E+02  0.2271E+03  0.2269E+03
      5.485  0.2090E+02  0.1724E+02  0.2283E+03  0.2279E+03
      5.544  0.1987E+02  0.2005E+02  0.2295E+03  0.2291E+03
      5.603  0.2124E+02  0.2466E+02  0.2307E+03  0.2305E+03
      5.662  0.1375E+02  0.1025E+02  0.2315E+03  0.2311E+03
      5.721  0.4223E+01  0.1018E+02  0.2318E+03  0.2317E+03
      5.780  0.1306E+01  0.1467E+01  0.2319E+03  0.2318E+03
      5.839  0.2477E+01  0.3361E+01  0.2320E+03  0.2320E+03
      5.898  0.0000E+00  0.0000E+00  0.2320E+03  0.2320E+03
      5.957  0.0000E+00  0.0000E+00  0.2320E+03  0.2320E+03
      6.016  0.0000E+00  0.0000E+00  0.2320E+03  0.2320E+03
      6.074  0.0000E+00  0.0000E+00  0.2320E+03  0.2320E+03
      6.133  0.0000E+00  0.0000E+00  0.2320E+03  0.2320E+03
      6.192  0.0000E+00  0.0000E+00  0.2320E+03  0.2320E+03
      6.251  0.0000E+00  0.0000E+00  0.2320E+03  0.2320E+03
      6.310  0.0000E+00  0.0000E+00  0.2320E+03  0.2320E+03
      6.369  0.0000E+00  0.0000E+00  0.2320E+03  0.2320E+03
      6.428  0.0000E+00  0.0000E+00  0.2320E+03  0.2320E+03
      6.487  0.0000E+00  0.0000E+00  0.2320E+03  0.2320E+03
      6.546  0.0000E+00  0.0000E+00  0.2320E+03  0.2320E+03
      6.605  0.0000E+00  0.0000E+00  0.2320E+03  0.2320E+03
