 168 168   0   0
  0.2743752E+02  0.1123962E-08  0.1589523E-08  0.2580094E-08  0.5000000E-15
  1.000000000000000E-004
  CAR 
 Si and Ge interface calculation         
      6.52479260     -9.84809035  301      3.45589261      1.00000000
     -9.848  0.0000E+00  0.0000E+00  0.0000E+00  0.0000E+00
     -9.794  0.0000E+00  0.0000E+00  0.0000E+00  0.0000E+00
     -9.739  0.0000E+00  0.0000E+00  0.0000E+00  0.0000E+00
     -9.684  0.0000E+00  0.0000E+00  0.0000E+00  0.0000E+00
     -9.630  0.0000E+00  0.0000E+00  0.0000E+00  0.0000E+00
     -9.575  0.0000E+00  0.0000E+00  0.0000E+00  0.0000E+00
     -9.521  0.0000E+00  0.0000E+00  0.0000E+00  0.0000E+00
     -9.466  0.0000E+00  0.0000E+00  0.0000E+00  0.0000E+00
     -9.411  0.0000E+00  0.0000E+00  0.0000E+00  0.0000E+00
     -9.357  0.0000E+00  0.0000E+00  0.0000E+00  0.0000E+00
     -9.302  0.0000E+00  0.0000E+00  0.0000E+00  0.0000E+00
     -9.248  0.0000E+00  0.0000E+00  0.0000E+00  0.0000E+00
     -9.193  0.0000E+00  0.0000E+00  0.0000E+00  0.0000E+00
     -9.139  0.2759E-05  0.3354E-07  0.1505E-06  0.1831E-08
     -9.084  0.6092E+01  0.5970E+01  0.3325E+00  0.3258E+00
     -9.029  0.1539E-01  0.1378E+00  0.3333E+00  0.3333E+00
     -8.975  0.1947E+02  0.1566E+02  0.1396E+01  0.1188E+01
     -8.920  0.4961E+01  0.8772E+01  0.1667E+01  0.1667E+01
     -8.866  0.2123E+02  0.1560E+02  0.2825E+01  0.2518E+01
     -8.811  0.4494E+01  0.9155E+01  0.3071E+01  0.3018E+01
     -8.757  0.6755E+01  0.6148E+01  0.3439E+01  0.3353E+01
     -8.702  0.1048E+02  0.1187E+02  0.4011E+01  0.4001E+01
     -8.647  0.2315E+02  0.1897E+02  0.5275E+01  0.5037E+01
     -8.593  0.3761E+02  0.4149E+02  0.7328E+01  0.7301E+01
     -8.538  0.2191E+02  0.1153E+02  0.8524E+01  0.7931E+01
     -8.484  0.3669E+02  0.4412E+02  0.1053E+02  0.1034E+02
     -8.429  0.2624E+01  0.6015E+01  0.1067E+02  0.1067E+02
     -8.375  0.4635E+02  0.4253E+02  0.1320E+02  0.1299E+02
     -8.320  0.2674E+02  0.2975E+02  0.1466E+02  0.1461E+02
     -8.265  0.3601E+02  0.3394E+02  0.1662E+02  0.1646E+02
     -8.211  0.7451E+01  0.9886E+01  0.1703E+02  0.1700E+02
     -8.156  0.4382E+02  0.4185E+02  0.1942E+02  0.1929E+02
     -8.102  0.1693E+02  0.1436E+02  0.2035E+02  0.2007E+02
     -8.047  0.2906E+02  0.2724E+02  0.2193E+02  0.2156E+02
     -7.992  0.2617E+02  0.3267E+02  0.2336E+02  0.2334E+02
     -7.938  0.8507E+01  0.7056E+01  0.2382E+02  0.2373E+02
     -7.883  0.2155E+02  0.2334E+02  0.2500E+02  0.2500E+02
     -7.829  0.2377E+02  0.1580E+02  0.2630E+02  0.2586E+02
     -7.774  0.4931E+02  0.5614E+02  0.2899E+02  0.2893E+02
     -7.720  0.6343E+01  0.7455E+01  0.2933E+02  0.2933E+02
     -7.665  0.6647E+01  0.6186E+01  0.2970E+02  0.2967E+02
     -7.610  0.1804E+02  0.1445E+02  0.3068E+02  0.3046E+02
     -7.556  0.6953E+02  0.6504E+02  0.3448E+02  0.3401E+02
     -7.501  0.2796E+02  0.3396E+02  0.3600E+02  0.3586E+02
     -7.447  0.4660E+02  0.4638E+02  0.3855E+02  0.3839E+02
     -7.392  0.2664E+02  0.2939E+02  0.4000E+02  0.4000E+02
     -7.338  0.8889E+01  0.5278E+01  0.4048E+02  0.4029E+02
     -7.283  0.1797E+02  0.1982E+02  0.4147E+02  0.4137E+02
     -7.228  0.5136E+02  0.4858E+02  0.4427E+02  0.4402E+02
     -7.174  0.2559E+02  0.2620E+02  0.4567E+02  0.4545E+02
     -7.119  0.6889E+02  0.6793E+02  0.4942E+02  0.4916E+02
     -7.065  0.3794E+02  0.4051E+02  0.5150E+02  0.5137E+02
     -7.010  0.2627E+02  0.2695E+02  0.5293E+02  0.5284E+02
     -6.956  0.5537E+02  0.5183E+02  0.5595E+02  0.5567E+02
     -6.901  0.3349E+02  0.3677E+02  0.5778E+02  0.5767E+02
     -6.846  0.5574E+02  0.5335E+02  0.6082E+02  0.6059E+02
     -6.792  0.2314E+02  0.2252E+02  0.6208E+02  0.6181E+02
     -6.737  0.5203E+02  0.5212E+02  0.6492E+02  0.6466E+02
     -6.683  0.5178E+02  0.5479E+02  0.6775E+02  0.6765E+02
     -6.628  0.6157E+02  0.5074E+02  0.7111E+02  0.7042E+02
     -6.574  0.5136E+02  0.6120E+02  0.7391E+02  0.7376E+02
     -6.519  0.2140E+01  0.4475E+01  0.7403E+02  0.7400E+02
     -6.464  0.3311E+02  0.2828E+02  0.7584E+02  0.7555E+02
     -6.410  0.3165E+02  0.3214E+02  0.7756E+02  0.7730E+02
     -6.355  0.4329E+02  0.3687E+02  0.7993E+02  0.7931E+02
     -6.301  0.6134E+02  0.6889E+02  0.8327E+02  0.8307E+02
     -6.246  0.7128E+02  0.6489E+02  0.8716E+02  0.8661E+02
     -6.191  0.5559E+02  0.6173E+02  0.9020E+02  0.8998E+02
     -6.137  0.6393E+02  0.6187E+02  0.9369E+02  0.9336E+02
     -6.082  0.6572E+02  0.6499E+02  0.9727E+02  0.9691E+02
     -6.028  0.3262E+02  0.3858E+02  0.9905E+02  0.9901E+02
     -5.973  0.1222E+02  0.1228E+02  0.9972E+02  0.9968E+02
     -5.919  0.2884E+02  0.2715E+02  0.1013E+03  0.1012E+03
     -5.864  0.6267E+02  0.5951E+02  0.1047E+03  0.1044E+03
     -5.809  0.1853E+02  0.2115E+02  0.1057E+03  0.1056E+03
     -5.755  0.4460E+02  0.4539E+02  0.1082E+03  0.1080E+03
     -5.700  0.3379E+02  0.3585E+02  0.1100E+03  0.1100E+03
     -5.646  0.5562E+02  0.5379E+02  0.1130E+03  0.1129E+03
     -5.591  0.1496E+02  0.1398E+02  0.1139E+03  0.1137E+03
     -5.537  0.2862E+02  0.3015E+02  0.1154E+03  0.1153E+03
     -5.482  0.5247E+02  0.4440E+02  0.1183E+03  0.1178E+03
     -5.427  0.6349E+02  0.6711E+02  0.1217E+03  0.1214E+03
     -5.373  0.5671E+02  0.5817E+02  0.1248E+03  0.1246E+03
     -5.318  0.5133E+02  0.5079E+02  0.1276E+03  0.1274E+03
     -5.264  0.4270E+02  0.4173E+02  0.1300E+03  0.1297E+03
     -5.209  0.5650E+02  0.5822E+02  0.1331E+03  0.1328E+03
     -5.155  0.6648E+02  0.6446E+02  0.1367E+03  0.1363E+03
     -5.100  0.5816E+02  0.6036E+02  0.1399E+03  0.1396E+03
     -5.045  0.4680E+02  0.4334E+02  0.1424E+03  0.1420E+03
     -4.991  0.5302E+02  0.5833E+02  0.1453E+03  0.1452E+03
     -4.936  0.4696E+02  0.4586E+02  0.1479E+03  0.1477E+03
     -4.882  0.4182E+02  0.4013E+02  0.1502E+03  0.1499E+03
     -4.827  0.7515E+02  0.7069E+02  0.1543E+03  0.1537E+03
     -4.772  0.6649E+02  0.7272E+02  0.1579E+03  0.1577E+03
     -4.718  0.2900E+02  0.2612E+02  0.1595E+03  0.1591E+03
     -4.663  0.4569E+02  0.4951E+02  0.1620E+03  0.1618E+03
     -4.609  0.3141E+02  0.3264E+02  0.1637E+03  0.1636E+03
     -4.554  0.5115E+02  0.4560E+02  0.1665E+03  0.1661E+03
     -4.500  0.8453E+02  0.8354E+02  0.1711E+03  0.1707E+03
     -4.445  0.3569E+02  0.4259E+02  0.1730E+03  0.1730E+03
     -4.390  0.5178E+02  0.4964E+02  0.1759E+03  0.1757E+03
     -4.336  0.6574E+02  0.5794E+02  0.1794E+03  0.1789E+03
     -4.281  0.4175E+02  0.4480E+02  0.1817E+03  0.1813E+03
     -4.227  0.4916E+02  0.5041E+02  0.1844E+03  0.1841E+03
     -4.172  0.4279E+02  0.4000E+02  0.1867E+03  0.1862E+03
     -4.118  0.3909E+02  0.4541E+02  0.1889E+03  0.1887E+03
     -4.063  0.5600E+02  0.5374E+02  0.1919E+03  0.1917E+03
     -4.008  0.4149E+02  0.3853E+02  0.1942E+03  0.1938E+03
     -3.954  0.5421E+02  0.5946E+02  0.1971E+03  0.1970E+03
     -3.899  0.4902E+02  0.4987E+02  0.1998E+03  0.1997E+03
     -3.845  0.6828E+02  0.5887E+02  0.2036E+03  0.2029E+03
     -3.790  0.5961E+02  0.6887E+02  0.2068E+03  0.2067E+03
     -3.736  0.1802E+02  0.1517E+02  0.2078E+03  0.2075E+03
     -3.681  0.6460E+02  0.5750E+02  0.2113E+03  0.2107E+03
     -3.626  0.5565E+02  0.6462E+02  0.2144E+03  0.2142E+03
     -3.572  0.5526E+02  0.5189E+02  0.2174E+03  0.2170E+03
     -3.517  0.6467E+02  0.6654E+02  0.2209E+03  0.2207E+03
     -3.463  0.3855E+02  0.4299E+02  0.2230E+03  0.2230E+03
     -3.408  0.4775E+02  0.4161E+02  0.2256E+03  0.2253E+03
     -3.354  0.4122E+02  0.4402E+02  0.2279E+03  0.2277E+03
     -3.299  0.5122E+02  0.5200E+02  0.2307E+03  0.2305E+03
     -3.244  0.3148E+02  0.3350E+02  0.2324E+03  0.2323E+03
     -3.190  0.5803E+02  0.5138E+02  0.2355E+03  0.2351E+03
     -3.135  0.3860E+02  0.4049E+02  0.2376E+03  0.2374E+03
     -3.081  0.3636E+02  0.3594E+02  0.2396E+03  0.2393E+03
     -3.026  0.2076E+02  0.2530E+02  0.2408E+03  0.2407E+03
     -2.971  0.4969E+02  0.4462E+02  0.2435E+03  0.2431E+03
     -2.917  0.8219E+02  0.8286E+02  0.2480E+03  0.2477E+03
     -2.862  0.7262E+02  0.7490E+02  0.2519E+03  0.2517E+03
     -2.808  0.1158E+02  0.1168E+02  0.2526E+03  0.2524E+03
     -2.753  0.5703E+02  0.6025E+02  0.2557E+03  0.2557E+03
     -2.699  0.4151E+02  0.3455E+02  0.2579E+03  0.2576E+03
     -2.644  0.3325E+02  0.3902E+02  0.2597E+03  0.2597E+03
     -2.589  0.6577E+02  0.5564E+02  0.2633E+03  0.2627E+03
     -2.535  0.5212E+02  0.5776E+02  0.2662E+03  0.2659E+03
     -2.480  0.6732E+02  0.6951E+02  0.2699E+03  0.2697E+03
     -2.426  0.3629E+02  0.3753E+02  0.2718E+03  0.2717E+03
     -2.371  0.6022E+02  0.5967E+02  0.2751E+03  0.2750E+03
     -2.317  0.4647E+02  0.4863E+02  0.2777E+03  0.2776E+03
     -2.262  0.4073E+02  0.3816E+02  0.2799E+03  0.2797E+03
     -2.207  0.3532E+02  0.3689E+02  0.2818E+03  0.2817E+03
     -2.153  0.6347E+02  0.5872E+02  0.2853E+03  0.2849E+03
     -2.098  0.2009E+02  0.2583E+02  0.2864E+03  0.2863E+03
     -2.044  0.2385E+02  0.2434E+02  0.2877E+03  0.2877E+03
     -1.989  0.3168E+02  0.2606E+02  0.2894E+03  0.2891E+03
     -1.935  0.2938E+02  0.3510E+02  0.2910E+03  0.2910E+03
     -1.880  0.3173E+02  0.2857E+02  0.2927E+03  0.2926E+03
     -1.825  0.3110E+02  0.2720E+02  0.2944E+03  0.2940E+03
     -1.771  0.3356E+02  0.3501E+02  0.2963E+03  0.2960E+03
     -1.716  0.3840E+02  0.4368E+02  0.2984E+03  0.2983E+03
     -1.662  0.6185E+02  0.5264E+02  0.3017E+03  0.3012E+03
     -1.607  0.1659E+02  0.2400E+02  0.3026E+03  0.3025E+03
     -1.552  0.3835E+02  0.3696E+02  0.3047E+03  0.3045E+03
     -1.498  0.2425E+02  0.2681E+02  0.3061E+03  0.3060E+03
     -1.443  0.3584E+02  0.3613E+02  0.3080E+03  0.3080E+03
     -1.389  0.4253E+02  0.4307E+02  0.3103E+03  0.3103E+03
     -1.334  0.3051E+02  0.3070E+02  0.3120E+03  0.3120E+03
     -1.280  0.6064E+01  0.5671E+01  0.3123E+03  0.3123E+03
     -1.225  0.3002E+02  0.2851E+02  0.3140E+03  0.3139E+03
     -1.170  0.5651E+00  0.2472E+01  0.3140E+03  0.3140E+03
     -1.116  0.1667E+02  0.1227E+02  0.3149E+03  0.3147E+03
     -1.061  0.2692E+02  0.2628E+02  0.3164E+03  0.3161E+03
     -1.007  0.1031E+02  0.1234E+02  0.3169E+03  0.3168E+03
     -0.952  0.1430E+02  0.1383E+02  0.3177E+03  0.3175E+03
     -0.898  0.1442E+02  0.1482E+02  0.3185E+03  0.3183E+03
     -0.843  0.3682E+02  0.3497E+02  0.3205E+03  0.3202E+03
     -0.788  0.1535E+02  0.1995E+02  0.3214E+03  0.3213E+03
     -0.734  0.2279E+02  0.2112E+02  0.3226E+03  0.3225E+03
     -0.679  0.2341E+02  0.2282E+02  0.3239E+03  0.3237E+03
     -0.625  0.4974E+02  0.4170E+02  0.3266E+03  0.3260E+03
     -0.570  0.5170E+02  0.5749E+02  0.3294E+03  0.3291E+03
     -0.516  0.7137E+02  0.7238E+02  0.3333E+03  0.3331E+03
     -0.461  0.5658E+02  0.5611E+02  0.3364E+03  0.3362E+03
     -0.406  0.9167E+02  0.8453E+02  0.3414E+03  0.3408E+03
     -0.352  0.4692E+02  0.5319E+02  0.3440E+03  0.3437E+03
     -0.297  0.5113E+02  0.4482E+02  0.3468E+03  0.3461E+03
     -0.243  0.9852E+02  0.1037E+03  0.3521E+03  0.3518E+03
     -0.188  0.7549E+02  0.7380E+02  0.3562E+03  0.3558E+03
     -0.134  0.6621E+02  0.6388E+02  0.3599E+03  0.3593E+03
     -0.079  0.4988E+02  0.5627E+02  0.3626E+03  0.3624E+03
     -0.024  0.8924E+02  0.8732E+02  0.3675E+03  0.3671E+03
      0.030  0.4685E+02  0.5210E+02  0.3700E+03  0.3700E+03
      0.085  0.9417E+02  0.8402E+02  0.3752E+03  0.3746E+03
      0.139  0.7208E+02  0.7178E+02  0.3791E+03  0.3785E+03
      0.194  0.8460E+02  0.8635E+02  0.3837E+03  0.3832E+03
      0.249  0.8178E+02  0.8295E+02  0.3882E+03  0.3877E+03
      0.303  0.8540E+02  0.8405E+02  0.3928E+03  0.3923E+03
      0.358  0.8143E+02  0.8502E+02  0.3973E+03  0.3969E+03
      0.412  0.1202E+03  0.1128E+03  0.4038E+03  0.4031E+03
      0.467  0.9706E+02  0.9982E+02  0.4091E+03  0.4085E+03
      0.521  0.9178E+02  0.9662E+02  0.4141E+03  0.4138E+03
      0.576  0.1196E+03  0.1123E+03  0.4207E+03  0.4199E+03
      0.631  0.1272E+03  0.1255E+03  0.4276E+03  0.4268E+03
      0.685  0.1207E+03  0.1213E+03  0.4342E+03  0.4334E+03
      0.740  0.1605E+03  0.1610E+03  0.4430E+03  0.4422E+03
      0.794  0.1309E+03  0.1368E+03  0.4501E+03  0.4497E+03
      0.849  0.7236E+02  0.6704E+02  0.4540E+03  0.4533E+03
      0.903  0.1250E+03  0.1239E+03  0.4609E+03  0.4601E+03
      0.958  0.1055E+03  0.1034E+03  0.4666E+03  0.4657E+03
      1.013  0.7995E+02  0.9036E+02  0.4710E+03  0.4707E+03
      1.067  0.8795E+02  0.9063E+02  0.4758E+03  0.4756E+03
      1.122  0.9175E+02  0.7932E+02  0.4808E+03  0.4799E+03
      1.176  0.1136E+03  0.1165E+03  0.4870E+03  0.4863E+03
      1.231  0.1123E+03  0.1160E+03  0.4931E+03  0.4926E+03
      1.285  0.1012E+03  0.1006E+03  0.4986E+03  0.4981E+03
      1.340  0.1616E+03  0.1572E+03  0.5075E+03  0.5067E+03
      1.395  0.1297E+03  0.1340E+03  0.5145E+03  0.5140E+03
      1.449  0.8679E+02  0.8242E+02  0.5193E+03  0.5185E+03
      1.504  0.1280E+03  0.1275E+03  0.5263E+03  0.5255E+03
      1.558  0.8767E+02  0.9287E+02  0.5311E+03  0.5305E+03
      1.613  0.1228E+03  0.1256E+03  0.5378E+03  0.5374E+03
      1.668  0.1082E+03  0.1050E+03  0.5437E+03  0.5431E+03
      1.722  0.1131E+03  0.1140E+03  0.5498E+03  0.5493E+03
      1.777  0.9699E+02  0.9294E+02  0.5551E+03  0.5544E+03
      1.831  0.1218E+03  0.1210E+03  0.5618E+03  0.5610E+03
      1.886  0.1116E+03  0.1203E+03  0.5679E+03  0.5676E+03
      1.940  0.7165E+02  0.7500E+02  0.5718E+03  0.5717E+03
      1.995  0.1027E+03  0.9338E+02  0.5774E+03  0.5768E+03
      2.050  0.9490E+02  0.1008E+03  0.5826E+03  0.5823E+03
      2.104  0.8964E+02  0.8538E+02  0.5875E+03  0.5869E+03
      2.159  0.8720E+02  0.8782E+02  0.5922E+03  0.5917E+03
      2.213  0.6999E+02  0.7466E+02  0.5960E+03  0.5958E+03
      2.268  0.1066E+03  0.1020E+03  0.6019E+03  0.6014E+03
      2.322  0.8684E+02  0.9089E+02  0.6066E+03  0.6063E+03
      2.377  0.6270E+02  0.6297E+02  0.6100E+03  0.6098E+03
      2.432  0.8070E+02  0.7575E+02  0.6144E+03  0.6139E+03
      2.486  0.5516E+02  0.5913E+02  0.6174E+03  0.6171E+03
      2.541  0.7246E+02  0.7286E+02  0.6214E+03  0.6211E+03
      2.595  0.1081E+03  0.1020E+03  0.6273E+03  0.6267E+03
      2.650  0.4839E+02  0.5516E+02  0.6299E+03  0.6297E+03
      2.704  0.6631E+02  0.6351E+02  0.6335E+03  0.6332E+03
      2.759  0.8121E+02  0.8532E+02  0.6380E+03  0.6378E+03
      2.814  0.7360E+02  0.7534E+02  0.6420E+03  0.6419E+03
      2.868  0.3395E+02  0.2650E+02  0.6438E+03  0.6434E+03
      2.923  0.6216E+02  0.6732E+02  0.6472E+03  0.6470E+03
      2.977  0.5697E+02  0.6012E+02  0.6503E+03  0.6503E+03
      3.032  0.3846E+02  0.3663E+02  0.6524E+03  0.6523E+03
      3.086  0.5928E+02  0.5151E+02  0.6557E+03  0.6551E+03
      3.141  0.4496E+02  0.4660E+02  0.6581E+03  0.6577E+03
      3.196  0.2703E+02  0.3104E+02  0.6596E+03  0.6594E+03
      3.250  0.5721E+02  0.5473E+02  0.6627E+03  0.6624E+03
      3.305  0.3590E+02  0.4179E+02  0.6647E+03  0.6646E+03
      3.359  0.5023E+02  0.4796E+02  0.6674E+03  0.6673E+03
      3.414  0.3529E+02  0.3390E+02  0.6694E+03  0.6691E+03
      3.469  0.3640E+02  0.4051E+02  0.6713E+03  0.6713E+03
      3.523  0.2156E+02  0.1397E+02  0.6725E+03  0.6721E+03
      3.578  0.3319E+02  0.3852E+02  0.6743E+03  0.6742E+03
      3.632  0.2604E+02  0.1165E+02  0.6757E+03  0.6748E+03
      3.687  0.4432E+02  0.5343E+02  0.6782E+03  0.6777E+03
      3.741  0.2702E+02  0.2498E+02  0.6796E+03  0.6791E+03
      3.796  0.5836E+02  0.6112E+02  0.6828E+03  0.6824E+03
      3.851  0.9297E+01  0.1648E+02  0.6833E+03  0.6833E+03
      3.905  0.1218E+02  0.1221E+02  0.6840E+03  0.6840E+03
      3.960  0.1593E+02  0.1186E+02  0.6849E+03  0.6846E+03
      4.014  0.2682E+02  0.3090E+02  0.6863E+03  0.6863E+03
      4.069  0.4062E+00  0.2280E-01  0.6864E+03  0.6863E+03
      4.123  0.2220E+02  0.1930E+02  0.6876E+03  0.6874E+03
      4.178  0.3595E+02  0.3715E+02  0.6895E+03  0.6894E+03
      4.233  0.5501E+02  0.4907E+02  0.6925E+03  0.6921E+03
      4.287  0.2894E+02  0.3497E+02  0.6941E+03  0.6940E+03
      4.342  0.2249E+02  0.2440E+02  0.6953E+03  0.6953E+03
      4.396  0.4523E+02  0.4087E+02  0.6978E+03  0.6976E+03
      4.451  0.3320E+02  0.3547E+02  0.6996E+03  0.6995E+03
      4.505  0.5727E+02  0.5154E+02  0.7027E+03  0.7023E+03
      4.560  0.8293E+02  0.7774E+02  0.7073E+03  0.7066E+03
      4.615  0.3601E+02  0.4591E+02  0.7092E+03  0.7091E+03
      4.669  0.8283E+02  0.8194E+02  0.7138E+03  0.7135E+03
      4.724  0.5691E+02  0.5237E+02  0.7169E+03  0.7164E+03
      4.778  0.8703E+02  0.8466E+02  0.7216E+03  0.7210E+03
      4.833  0.7614E+02  0.8167E+02  0.7258E+03  0.7255E+03
      4.888  0.7411E+02  0.7668E+02  0.7298E+03  0.7297E+03
      4.942  0.8267E+02  0.7423E+02  0.7343E+03  0.7337E+03
      4.997  0.7529E+02  0.8045E+02  0.7384E+03  0.7381E+03
      5.051  0.1071E+03  0.1031E+03  0.7443E+03  0.7437E+03
      5.106  0.9170E+02  0.9456E+02  0.7493E+03  0.7489E+03
      5.160  0.1087E+03  0.1119E+03  0.7552E+03  0.7550E+03
      5.215  0.9447E+02  0.9194E+02  0.7604E+03  0.7600E+03
      5.270  0.9265E+02  0.9527E+02  0.7654E+03  0.7652E+03
      5.324  0.1199E+03  0.1155E+03  0.7720E+03  0.7715E+03
      5.379  0.6892E+02  0.7549E+02  0.7757E+03  0.7756E+03
      5.433  0.1097E+03  0.1024E+03  0.7817E+03  0.7812E+03
      5.488  0.1316E+03  0.1270E+03  0.7889E+03  0.7881E+03
      5.542  0.1219E+03  0.1154E+03  0.7955E+03  0.7944E+03
      5.597  0.9019E+02  0.9659E+02  0.8005E+03  0.7997E+03
      5.652  0.5590E+02  0.6634E+02  0.8035E+03  0.8033E+03
      5.706  0.5096E+02  0.5291E+02  0.8063E+03  0.8062E+03
      5.761  0.1892E+02  0.3112E+02  0.8073E+03  0.8079E+03
      5.815  0.1219E+02  0.1319E+01  0.8080E+03  0.8080E+03
      5.870  0.0000E+00  0.0000E+00  0.8080E+03  0.8080E+03
      5.924  0.0000E+00  0.0000E+00  0.8080E+03  0.8080E+03
      5.979  0.0000E+00  0.0000E+00  0.8080E+03  0.8080E+03
      6.034  0.0000E+00  0.0000E+00  0.8080E+03  0.8080E+03
      6.088  0.0000E+00  0.0000E+00  0.8080E+03  0.8080E+03
      6.143  0.0000E+00  0.0000E+00  0.8080E+03  0.8080E+03
      6.197  0.0000E+00  0.0000E+00  0.8080E+03  0.8080E+03
      6.252  0.0000E+00  0.0000E+00  0.8080E+03  0.8080E+03
      6.306  0.0000E+00  0.0000E+00  0.8080E+03  0.8080E+03
      6.361  0.0000E+00  0.0000E+00  0.8080E+03  0.8080E+03
      6.416  0.0000E+00  0.0000E+00  0.8080E+03  0.8080E+03
      6.470  0.0000E+00  0.0000E+00  0.8080E+03  0.8080E+03
      6.525  0.0000E+00  0.0000E+00  0.8080E+03  0.8080E+03
