Si Bulk DFT energetics calculations using VASP\n
This script is running on comp103.cluster.local in /lustre/home/ah1365/projects/127870/upgrade_report/case_studies/common/structures/interfaces/120_Si72Ge48_013_114_a0.055556_b0.076023_c1.486532_interface3shift8\n
Job started on: Sun  8 Jun 14:07:29 UTC 2025\n
 running   64 mpi-ranks, on    4 nodes
 distrk:  each k-point on   64 cores,    1 groups
 distr:  one band on   16 cores,    4 groups
 vasp.6.4.3 19Mar24 (build Oct 22 2024 11:23:12) complex                        
  
 POSCAR found type information on POSCAR SiGe
 POSCAR found :  2 types and     120 ions
 -----------------------------------------------------------------------------
|                                                                             |
|           W    W    AA    RRRRR   N    N  II  N    N   GGGG   !!!           |
|           W    W   A  A   R    R  NN   N  II  NN   N  G    G  !!!           |
|           W    W  A    A  R    R  N N  N  II  N N  N  G       !!!           |
|           W WW W  AAAAAA  RRRRR   N  N N  II  N  N N  G  GGG   !            |
|           WW  WW  A    A  R   R   N   NN  II  N   NN  G    G                |
|           W    W  A    A  R    R  N    N  II  N    N   GGGG   !!!           |
|                                                                             |
|     You use a magnetic or noncollinear calculation, but did not specify     |
|     the initial magnetic moment with the MAGMOM tag. Note that a            |
|     default of 8.333e-3 will be used for all atoms. This ferromagnetic      |
|     setup may break the symmetry of the crystal, in particular it may       |
|     rule out finding an antiferromagnetic solution. Thence, we              |
|     recommend setting the initial magnetic moment manually or verifying     |
|     carefully that this magnetic setup is desired.                          |
|                                                                             |
 -----------------------------------------------------------------------------

 scaLAPACK will be used
 LDA part: xc-table for (Slater+PW92), standard interpolation
 POSCAR, INCAR and KPOINTS ok, starting setup
 FFT: planning ... GRIDC
 FFT: planning ... GRID_SOFT
 FFT: planning ... GRID
 WAVECAR not read
 entering main loop
       N       E                     dE             d eps       ncg     rms          rms(c)
DAV:   1     0.199659852244E+04    0.19966E+04   -0.20823E+05  9216   0.170E+03
DAV:   2    -0.303744693641E+03   -0.23003E+04   -0.22266E+04 10752   0.211E+02
DAV:   3    -0.523806848095E+03   -0.22006E+03   -0.21057E+03 11632   0.579E+01
DAV:   4    -0.533218666264E+03   -0.94118E+01   -0.91289E+01 11048   0.124E+01
DAV:   5    -0.533623038978E+03   -0.40437E+00   -0.40023E+00 12776   0.254E+00    0.302E+01
DAV:   6    -0.521950498328E+03    0.11673E+02   -0.50550E+01 11088   0.118E+01    0.137E+01
DAV:   7    -0.523084158911E+03   -0.11337E+01   -0.34517E+01 12064   0.114E+01    0.106E+01
DAV:   8    -0.520364014897E+03    0.27201E+01   -0.12618E+01 12368   0.730E+00    0.463E+00
DAV:   9    -0.519864840169E+03    0.49917E+00   -0.32874E+00 11528   0.343E+00    0.186E+00
DAV:  10    -0.519859146813E+03    0.56934E-02   -0.84313E-01 10784   0.155E+00    0.123E+00
DAV:  11    -0.519837541714E+03    0.21605E-01   -0.21904E-01 10976   0.873E-01    0.722E-01
DAV:  12    -0.519834365427E+03    0.31763E-02   -0.50935E-02 10728   0.406E-01    0.395E-01
DAV:  13    -0.519834220960E+03    0.14447E-03   -0.15904E-02 10664   0.228E-01    0.229E-01
DAV:  14    -0.519833842553E+03    0.37841E-03   -0.45097E-03 10920   0.131E-01    0.123E-01
DAV:  15    -0.519833830876E+03    0.11678E-04   -0.14021E-03 11216   0.744E-02    0.664E-02
DAV:  16    -0.519833805530E+03    0.25345E-04   -0.47781E-04 11120   0.434E-02    0.314E-02
DAV:  17    -0.519833806911E+03   -0.13809E-05   -0.14902E-04 10952   0.224E-02    0.182E-02
DAV:  18    -0.519833808552E+03   -0.16411E-05   -0.47313E-05 11040   0.131E-02    0.120E-02
DAV:  19    -0.519833810229E+03   -0.16771E-05   -0.14854E-05 11048   0.736E-03    0.699E-03
DAV:  20    -0.519833811235E+03   -0.10056E-05   -0.46821E-06 10824   0.403E-03    0.320E-03
DAV:  21    -0.519833811544E+03   -0.30870E-06   -0.14552E-06 10792   0.192E-03    0.204E-03
DAV:  22    -0.519833811712E+03   -0.16865E-06   -0.32656E-07  6872   0.946E-04    0.140E-03
DAV:  23    -0.519833811953E+03   -0.24038E-06   -0.13486E-07  5384   0.583E-04    0.915E-04
DAV:  24    -0.519833812105E+03   -0.15273E-06   -0.69464E-08  5392   0.407E-04    0.662E-04
DAV:  25    -0.519833812170E+03   -0.64929E-07   -0.46448E-08  5296   0.318E-04
   1 F= -.51983381E+03 E0= -.51983215E+03  d E =-.332505E-02  mag=     1.0000
Job ended on: Sun  8 Jun 14:22:04 UTC 2025\n
