 120 120   0   0
  0.2471884E+02  0.1629300E-08  0.1717433E-08  0.1060055E-08  0.5000000E-15
  1.000000000000000E-004
  CAR 
 Si and Ge interface calculation         
      6.03851801     -9.39861669  301      3.44514932      1.00000000
     -9.399  0.0000E+00  0.0000E+00  0.0000E+00  0.0000E+00
     -9.347  0.0000E+00  0.0000E+00  0.0000E+00  0.0000E+00
     -9.296  0.0000E+00  0.0000E+00  0.0000E+00  0.0000E+00
     -9.244  0.0000E+00  0.0000E+00  0.0000E+00  0.0000E+00
     -9.193  0.0000E+00  0.0000E+00  0.0000E+00  0.0000E+00
     -9.141  0.0000E+00  0.0000E+00  0.0000E+00  0.0000E+00
     -9.090  0.0000E+00  0.0000E+00  0.0000E+00  0.0000E+00
     -9.038  0.0000E+00  0.0000E+00  0.0000E+00  0.0000E+00
     -8.987  0.0000E+00  0.0000E+00  0.0000E+00  0.0000E+00
     -8.936  0.0000E+00  0.0000E+00  0.0000E+00  0.0000E+00
     -8.884  0.0000E+00  0.0000E+00  0.0000E+00  0.0000E+00
     -8.833  0.0000E+00  0.0000E+00  0.0000E+00  0.0000E+00
     -8.781  0.0000E+00  0.0000E+00  0.0000E+00  0.0000E+00
     -8.730  0.6506E-05  0.1816E-06  0.3348E-06  0.9346E-08
     -8.678  0.6441E+01  0.6188E+01  0.3314E+00  0.3184E+00
     -8.627  0.2264E+02  0.2072E+02  0.1496E+01  0.1384E+01
     -8.575  0.9794E+01  0.1196E+02  0.2000E+01  0.2000E+01
     -8.524  0.6475E+01  0.6473E+01  0.2333E+01  0.2333E+01
     -8.472  0.1640E+02  0.1475E+02  0.3177E+01  0.3092E+01
     -8.421  0.1656E+02  0.1776E+02  0.4029E+01  0.4006E+01
     -8.369  0.2680E+02  0.2431E+02  0.5408E+01  0.5257E+01
     -8.318  0.1150E+02  0.1444E+02  0.6000E+01  0.6000E+01
     -8.267  0.1227E+01  0.3646E+00  0.6063E+01  0.6019E+01
     -8.215  0.2189E+02  0.1929E+02  0.7190E+01  0.7011E+01
     -8.164  0.1575E+02  0.1921E+02  0.8000E+01  0.8000E+01
     -8.112  0.6924E-10  0.3425E-03  0.8000E+01  0.8000E+01
     -8.061  0.3100E+01  0.1498E+01  0.8160E+01  0.8077E+01
     -8.009  0.7228E+01  0.6079E+01  0.8531E+01  0.8390E+01
     -7.958  0.2758E+02  0.2849E+02  0.9951E+01  0.9856E+01
     -7.906  0.1519E+02  0.1586E+02  0.1073E+02  0.1067E+02
     -7.855  0.2634E+02  0.2554E+02  0.1209E+02  0.1199E+02
     -7.803  0.2398E+02  0.2522E+02  0.1332E+02  0.1328E+02
     -7.752  0.2557E+02  0.2090E+02  0.1464E+02  0.1436E+02
     -7.701  0.1384E+02  0.1896E+02  0.1535E+02  0.1534E+02
     -7.649  0.1117E+02  0.1010E+02  0.1592E+02  0.1585E+02
     -7.598  0.2159E+02  0.1987E+02  0.1704E+02  0.1688E+02
     -7.546  0.2661E+02  0.2788E+02  0.1840E+02  0.1831E+02
     -7.495  0.2448E+02  0.2361E+02  0.1966E+02  0.1953E+02
     -7.443  0.3297E+02  0.3304E+02  0.2136E+02  0.2123E+02
     -7.392  0.1431E+02  0.1369E+02  0.2210E+02  0.2193E+02
     -7.340  0.3236E+02  0.3315E+02  0.2376E+02  0.2364E+02
     -7.289  0.3206E+02  0.3298E+02  0.2541E+02  0.2533E+02
     -7.237  0.3535E+02  0.3410E+02  0.2723E+02  0.2709E+02
     -7.186  0.2212E+02  0.2109E+02  0.2837E+02  0.2817E+02
     -7.135  0.3651E+02  0.3747E+02  0.3025E+02  0.3010E+02
     -7.083  0.2741E+02  0.2884E+02  0.3166E+02  0.3159E+02
     -7.032  0.4193E+02  0.3740E+02  0.3382E+02  0.3351E+02
     -6.980  0.2199E+02  0.2417E+02  0.3495E+02  0.3475E+02
     -6.929  0.5132E+02  0.5123E+02  0.3759E+02  0.3739E+02
     -6.877  0.3219E+02  0.2971E+02  0.3924E+02  0.3892E+02
     -6.826  0.2653E+02  0.2975E+02  0.4061E+02  0.4045E+02
     -6.774  0.2324E+02  0.2468E+02  0.4181E+02  0.4172E+02
     -6.723  0.2343E+02  0.2177E+02  0.4301E+02  0.4284E+02
     -6.671  0.5037E+02  0.5082E+02  0.4560E+02  0.4546E+02
     -6.620  0.3630E+02  0.3381E+02  0.4747E+02  0.4720E+02
     -6.568  0.3519E+02  0.3733E+02  0.4928E+02  0.4912E+02
     -6.517  0.3457E+02  0.3456E+02  0.5106E+02  0.5089E+02
     -6.466  0.3014E+02  0.2726E+02  0.5261E+02  0.5230E+02
     -6.414  0.4673E+02  0.4866E+02  0.5502E+02  0.5480E+02
     -6.363  0.3764E+02  0.3804E+02  0.5695E+02  0.5676E+02
     -6.311  0.3634E+02  0.3802E+02  0.5882E+02  0.5872E+02
     -6.260  0.3134E+02  0.3011E+02  0.6044E+02  0.6026E+02
     -6.208  0.1910E+02  0.2012E+02  0.6142E+02  0.6130E+02
     -6.157  0.1880E+02  0.1765E+02  0.6239E+02  0.6221E+02
     -6.105  0.4330E+02  0.4461E+02  0.6461E+02  0.6450E+02
     -6.054  0.3564E+02  0.3195E+02  0.6645E+02  0.6615E+02
     -6.002  0.3700E+02  0.3618E+02  0.6835E+02  0.6801E+02
     -5.951  0.4508E+02  0.4501E+02  0.7067E+02  0.7033E+02
     -5.900  0.3696E+02  0.3586E+02  0.7257E+02  0.7217E+02
     -5.848  0.4052E+02  0.4411E+02  0.7466E+02  0.7444E+02
     -5.797  0.3815E+02  0.3193E+02  0.7662E+02  0.7608E+02
     -5.745  0.4546E+02  0.5006E+02  0.7896E+02  0.7866E+02
     -5.694  0.3527E+02  0.3781E+02  0.8078E+02  0.8061E+02
     -5.642  0.3572E+02  0.3548E+02  0.8261E+02  0.8243E+02
     -5.591  0.4144E+02  0.4066E+02  0.8475E+02  0.8452E+02
     -5.539  0.3424E+02  0.3434E+02  0.8651E+02  0.8629E+02
     -5.488  0.3472E+02  0.3630E+02  0.8830E+02  0.8816E+02
     -5.436  0.2779E+02  0.2100E+02  0.8973E+02  0.8924E+02
     -5.385  0.3260E+02  0.3898E+02  0.9140E+02  0.9124E+02
     -5.334  0.4381E+02  0.3970E+02  0.9366E+02  0.9329E+02
     -5.282  0.3580E+02  0.3908E+02  0.9550E+02  0.9530E+02
     -5.231  0.2714E+02  0.2977E+02  0.9690E+02  0.9683E+02
     -5.179  0.3880E+02  0.3344E+02  0.9889E+02  0.9855E+02
     -5.128  0.3337E+02  0.3709E+02  0.1006E+03  0.1005E+03
     -5.076  0.4192E+02  0.3772E+02  0.1028E+03  0.1024E+03
     -5.025  0.2137E+02  0.2495E+02  0.1039E+03  0.1037E+03
     -4.973  0.3419E+02  0.3495E+02  0.1056E+03  0.1055E+03
     -4.922  0.2431E+02  0.2413E+02  0.1069E+03  0.1067E+03
     -4.870  0.4465E+02  0.4058E+02  0.1092E+03  0.1088E+03
     -4.819  0.2890E+02  0.3080E+02  0.1107E+03  0.1104E+03
     -4.767  0.3723E+02  0.3714E+02  0.1126E+03  0.1123E+03
     -4.716  0.2968E+02  0.2764E+02  0.1141E+03  0.1137E+03
     -4.665  0.2854E+02  0.3411E+02  0.1156E+03  0.1155E+03
     -4.613  0.3243E+02  0.3011E+02  0.1172E+03  0.1170E+03
     -4.562  0.3251E+02  0.2906E+02  0.1189E+03  0.1185E+03
     -4.510  0.3775E+02  0.3968E+02  0.1209E+03  0.1206E+03
     -4.459  0.3369E+02  0.3541E+02  0.1226E+03  0.1224E+03
     -4.407  0.2385E+02  0.2050E+02  0.1238E+03  0.1235E+03
     -4.356  0.3848E+02  0.4000E+02  0.1258E+03  0.1255E+03
     -4.304  0.3626E+02  0.3712E+02  0.1277E+03  0.1274E+03
     -4.253  0.2589E+02  0.2604E+02  0.1290E+03  0.1288E+03
     -4.201  0.2591E+02  0.2973E+02  0.1303E+03  0.1303E+03
     -4.150  0.7856E+01  0.6657E+01  0.1307E+03  0.1306E+03
     -4.099  0.2785E+02  0.2959E+02  0.1322E+03  0.1322E+03
     -4.047  0.1248E+02  0.7188E+01  0.1328E+03  0.1325E+03
     -3.996  0.3519E+02  0.3846E+02  0.1346E+03  0.1345E+03
     -3.944  0.2562E+02  0.2385E+02  0.1359E+03  0.1357E+03
     -3.893  0.2599E+02  0.2576E+02  0.1373E+03  0.1371E+03
     -3.841  0.2244E+02  0.2263E+02  0.1384E+03  0.1382E+03
     -3.790  0.2161E+02  0.1993E+02  0.1395E+03  0.1392E+03
     -3.738  0.2464E+02  0.2813E+02  0.1408E+03  0.1407E+03
     -3.687  0.2997E+02  0.2565E+02  0.1424E+03  0.1420E+03
     -3.635  0.3705E+02  0.3908E+02  0.1443E+03  0.1440E+03
     -3.584  0.1477E+02  0.1811E+02  0.1450E+03  0.1450E+03
     -3.533  0.3282E+02  0.2964E+02  0.1467E+03  0.1465E+03
     -3.481  0.2479E+02  0.2465E+02  0.1480E+03  0.1478E+03
     -3.430  0.2662E+02  0.3039E+02  0.1494E+03  0.1493E+03
     -3.378  0.4453E+02  0.3840E+02  0.1516E+03  0.1513E+03
     -3.327  0.3309E+02  0.3197E+02  0.1533E+03  0.1529E+03
     -3.275  0.3323E+02  0.3606E+02  0.1551E+03  0.1548E+03
     -3.224  0.3620E+02  0.3681E+02  0.1569E+03  0.1567E+03
     -3.172  0.5230E+02  0.4863E+02  0.1596E+03  0.1592E+03
     -3.121  0.5027E+02  0.5338E+02  0.1622E+03  0.1619E+03
     -3.069  0.2235E+02  0.2491E+02  0.1633E+03  0.1632E+03
     -3.018  0.4428E+02  0.4094E+02  0.1656E+03  0.1653E+03
     -2.966  0.2345E+02  0.2906E+02  0.1668E+03  0.1668E+03
     -2.915  0.3073E+02  0.2095E+02  0.1684E+03  0.1679E+03
     -2.864  0.2572E+02  0.2950E+02  0.1697E+03  0.1694E+03
     -2.812  0.3932E+02  0.4147E+02  0.1718E+03  0.1715E+03
     -2.761  0.2659E+02  0.2500E+02  0.1731E+03  0.1728E+03
     -2.709  0.3612E+02  0.3931E+02  0.1750E+03  0.1749E+03
     -2.658  0.4359E+02  0.4070E+02  0.1772E+03  0.1770E+03
     -2.606  0.2820E+02  0.2608E+02  0.1787E+03  0.1783E+03
     -2.555  0.5090E+02  0.5102E+02  0.1813E+03  0.1809E+03
     -2.503  0.2032E+02  0.2135E+02  0.1823E+03  0.1820E+03
     -2.452  0.3411E+02  0.3495E+02  0.1841E+03  0.1838E+03
     -2.400  0.3284E+02  0.3347E+02  0.1858E+03  0.1855E+03
     -2.349  0.3403E+02  0.3326E+02  0.1875E+03  0.1872E+03
     -2.298  0.5830E+02  0.5578E+02  0.1905E+03  0.1901E+03
     -2.246  0.1947E+02  0.2317E+02  0.1915E+03  0.1913E+03
     -2.195  0.3493E+02  0.3413E+02  0.1933E+03  0.1931E+03
     -2.143  0.2384E+02  0.2784E+02  0.1946E+03  0.1945E+03
     -2.092  0.4603E+02  0.3920E+02  0.1969E+03  0.1965E+03
     -2.040  0.3902E+02  0.4192E+02  0.1989E+03  0.1987E+03
     -1.989  0.3580E+02  0.3610E+02  0.2008E+03  0.2005E+03
     -1.937  0.2774E+02  0.2621E+02  0.2022E+03  0.2019E+03
     -1.886  0.3590E+02  0.3564E+02  0.2041E+03  0.2037E+03
     -1.834  0.2827E+02  0.3244E+02  0.2055E+03  0.2054E+03
     -1.783  0.2361E+02  0.2450E+02  0.2067E+03  0.2066E+03
     -1.732  0.2548E+02  0.1929E+02  0.2080E+03  0.2076E+03
     -1.680  0.2776E+02  0.3373E+02  0.2095E+03  0.2094E+03
     -1.629  0.1409E+02  0.1484E+02  0.2102E+03  0.2101E+03
     -1.577  0.2807E+02  0.2760E+02  0.2116E+03  0.2116E+03
     -1.526  0.2468E+02  0.2386E+02  0.2129E+03  0.2128E+03
     -1.474  0.4307E+02  0.4104E+02  0.2151E+03  0.2149E+03
     -1.423  0.1880E+02  0.1937E+02  0.2161E+03  0.2159E+03
     -1.371  0.4016E+02  0.4077E+02  0.2182E+03  0.2180E+03
     -1.320  0.2626E+02  0.2201E+02  0.2195E+03  0.2191E+03
     -1.268  0.2716E+02  0.3294E+02  0.2209E+03  0.2208E+03
     -1.217  0.3831E+02  0.3330E+02  0.2229E+03  0.2225E+03
     -1.165  0.2077E+02  0.2408E+02  0.2240E+03  0.2238E+03
     -1.114  0.2788E+02  0.2819E+02  0.2254E+03  0.2252E+03
     -1.063  0.3366E+02  0.3435E+02  0.2271E+03  0.2270E+03
     -1.011  0.1993E+02  0.2068E+02  0.2281E+03  0.2281E+03
     -0.960  0.1643E+02  0.1588E+02  0.2290E+03  0.2289E+03
     -0.908  0.3538E+01  0.5732E+01  0.2292E+03  0.2292E+03
     -0.857  0.9679E+01  0.9618E+01  0.2297E+03  0.2297E+03
     -0.805  0.1754E+02  0.1614E+02  0.2306E+03  0.2305E+03
     -0.754  0.2448E+02  0.2372E+02  0.2318E+03  0.2317E+03
     -0.702  0.1265E+02  0.1130E+02  0.2325E+03  0.2323E+03
     -0.651  0.1975E+02  0.2277E+02  0.2335E+03  0.2335E+03
     -0.599  0.1345E+02  0.1077E+02  0.2342E+03  0.2340E+03
     -0.548  0.1671E+02  0.1895E+02  0.2350E+03  0.2350E+03
     -0.497  0.2743E+02  0.2242E+02  0.2365E+03  0.2361E+03
     -0.445  0.4096E+02  0.4253E+02  0.2386E+03  0.2383E+03
     -0.394  0.2927E+02  0.2824E+02  0.2401E+03  0.2398E+03
     -0.342  0.5450E+02  0.5521E+02  0.2429E+03  0.2426E+03
     -0.291  0.7302E+02  0.6835E+02  0.2466E+03  0.2461E+03
     -0.239  0.4756E+02  0.4890E+02  0.2491E+03  0.2487E+03
     -0.188  0.7066E+02  0.7233E+02  0.2527E+03  0.2524E+03
     -0.136  0.5731E+02  0.5461E+02  0.2557E+03  0.2552E+03
     -0.085  0.5888E+02  0.5854E+02  0.2587E+03  0.2582E+03
     -0.033  0.5760E+02  0.6147E+02  0.2617E+03  0.2614E+03
      0.018  0.7617E+02  0.7315E+02  0.2656E+03  0.2651E+03
      0.069  0.7067E+02  0.6909E+02  0.2692E+03  0.2687E+03
      0.121  0.6596E+02  0.6709E+02  0.2726E+03  0.2721E+03
      0.172  0.6367E+02  0.6291E+02  0.2759E+03  0.2754E+03
      0.224  0.6857E+02  0.7003E+02  0.2794E+03  0.2790E+03
      0.275  0.5976E+02  0.6085E+02  0.2825E+03  0.2821E+03
      0.327  0.6343E+02  0.6088E+02  0.2858E+03  0.2853E+03
      0.378  0.7138E+02  0.7089E+02  0.2894E+03  0.2889E+03
      0.430  0.7071E+02  0.6922E+02  0.2931E+03  0.2925E+03
      0.481  0.6990E+02  0.7175E+02  0.2967E+03  0.2962E+03
      0.533  0.6300E+02  0.6099E+02  0.2999E+03  0.2993E+03
      0.584  0.8092E+02  0.8103E+02  0.3041E+03  0.3035E+03
      0.636  0.6703E+02  0.6930E+02  0.3075E+03  0.3070E+03
      0.687  0.7375E+02  0.7579E+02  0.3113E+03  0.3109E+03
      0.738  0.5238E+02  0.5202E+02  0.3140E+03  0.3136E+03
      0.790  0.6880E+02  0.6833E+02  0.3175E+03  0.3171E+03
      0.841  0.5567E+02  0.5776E+02  0.3204E+03  0.3201E+03
      0.893  0.8442E+02  0.7890E+02  0.3248E+03  0.3242E+03
      0.944  0.6594E+02  0.6968E+02  0.3282E+03  0.3277E+03
      0.996  0.6232E+02  0.6025E+02  0.3314E+03  0.3308E+03
      1.047  0.6905E+02  0.7058E+02  0.3349E+03  0.3345E+03
      1.099  0.6233E+02  0.6184E+02  0.3381E+03  0.3377E+03
      1.150  0.6532E+02  0.6557E+02  0.3415E+03  0.3410E+03
      1.202  0.7578E+02  0.7145E+02  0.3454E+03  0.3447E+03
      1.253  0.7252E+02  0.7699E+02  0.3491E+03  0.3487E+03
      1.304  0.6452E+02  0.6696E+02  0.3524E+03  0.3521E+03
      1.356  0.6256E+02  0.5869E+02  0.3557E+03  0.3551E+03
      1.407  0.7258E+02  0.7064E+02  0.3594E+03  0.3588E+03
      1.459  0.7222E+02  0.7497E+02  0.3631E+03  0.3626E+03
      1.510  0.6081E+02  0.6344E+02  0.3662E+03  0.3659E+03
      1.562  0.6743E+02  0.6684E+02  0.3697E+03  0.3693E+03
      1.613  0.6695E+02  0.5878E+02  0.3731E+03  0.3724E+03
      1.665  0.6230E+02  0.6726E+02  0.3764E+03  0.3758E+03
      1.716  0.6615E+02  0.6895E+02  0.3798E+03  0.3794E+03
      1.768  0.5643E+02  0.5459E+02  0.3827E+03  0.3822E+03
      1.819  0.6205E+02  0.6170E+02  0.3859E+03  0.3853E+03
      1.870  0.6539E+02  0.6700E+02  0.3892E+03  0.3888E+03
      1.922  0.6232E+02  0.6213E+02  0.3924E+03  0.3920E+03
      1.973  0.6187E+02  0.5913E+02  0.3956E+03  0.3950E+03
      2.025  0.6694E+02  0.6663E+02  0.3991E+03  0.3985E+03
      2.076  0.6045E+02  0.6194E+02  0.4022E+03  0.4016E+03
      2.128  0.7203E+02  0.7342E+02  0.4059E+03  0.4054E+03
      2.179  0.5659E+02  0.5607E+02  0.4088E+03  0.4083E+03
      2.231  0.6853E+02  0.6208E+02  0.4123E+03  0.4115E+03
      2.282  0.7075E+02  0.7180E+02  0.4159E+03  0.4152E+03
      2.334  0.4839E+02  0.5722E+02  0.4184E+03  0.4181E+03
      2.385  0.6147E+02  0.5570E+02  0.4216E+03  0.4210E+03
      2.437  0.6776E+02  0.6924E+02  0.4251E+03  0.4246E+03
      2.488  0.4140E+02  0.4323E+02  0.4272E+03  0.4268E+03
      2.539  0.6772E+02  0.6808E+02  0.4307E+03  0.4303E+03
      2.591  0.4565E+02  0.4137E+02  0.4331E+03  0.4324E+03
      2.642  0.5922E+02  0.6073E+02  0.4361E+03  0.4356E+03
      2.694  0.4735E+02  0.5531E+02  0.4385E+03  0.4384E+03
      2.745  0.4326E+02  0.2992E+02  0.4408E+03  0.4399E+03
      2.797  0.5861E+02  0.5938E+02  0.4438E+03  0.4430E+03
      2.848  0.5122E+02  0.5280E+02  0.4464E+03  0.4457E+03
      2.900  0.5530E+02  0.5574E+02  0.4493E+03  0.4486E+03
      2.951  0.5241E+02  0.4905E+02  0.4520E+03  0.4511E+03
      3.003  0.6472E+02  0.6692E+02  0.4553E+03  0.4545E+03
      3.054  0.4196E+02  0.4412E+02  0.4574E+03  0.4568E+03
      3.105  0.6179E+02  0.6314E+02  0.4606E+03  0.4601E+03
      3.157  0.5482E+02  0.5537E+02  0.4634E+03  0.4629E+03
      3.208  0.6622E+02  0.5362E+02  0.4669E+03  0.4657E+03
      3.260  0.3842E+02  0.4953E+02  0.4688E+03  0.4682E+03
      3.311  0.7170E+02  0.6634E+02  0.4725E+03  0.4716E+03
      3.363  0.5419E+02  0.5773E+02  0.4753E+03  0.4746E+03
      3.414  0.5495E+02  0.5680E+02  0.4781E+03  0.4775E+03
      3.466  0.6554E+02  0.5386E+02  0.4815E+03  0.4803E+03
      3.517  0.5628E+02  0.6707E+02  0.4844E+03  0.4838E+03
      3.569  0.6131E+02  0.5410E+02  0.4876E+03  0.4865E+03
      3.620  0.6374E+02  0.6904E+02  0.4908E+03  0.4901E+03
      3.671  0.4748E+02  0.5049E+02  0.4933E+03  0.4927E+03
      3.723  0.5183E+02  0.4960E+02  0.4959E+03  0.4952E+03
      3.774  0.4885E+02  0.5189E+02  0.4985E+03  0.4979E+03
      3.826  0.6957E+02  0.6967E+02  0.5020E+03  0.5015E+03
      3.877  0.5833E+02  0.5063E+02  0.5050E+03  0.5041E+03
      3.929  0.4618E+02  0.4857E+02  0.5074E+03  0.5066E+03
      3.980  0.5619E+02  0.5771E+02  0.5103E+03  0.5096E+03
      4.032  0.5806E+02  0.5840E+02  0.5133E+03  0.5126E+03
      4.083  0.4030E+02  0.3857E+02  0.5154E+03  0.5146E+03
      4.135  0.5363E+02  0.5952E+02  0.5181E+03  0.5176E+03
      4.186  0.5051E+02  0.5208E+02  0.5207E+03  0.5203E+03
      4.238  0.6456E+02  0.5570E+02  0.5241E+03  0.5232E+03
      4.289  0.4653E+02  0.5476E+02  0.5264E+03  0.5260E+03
      4.340  0.4954E+02  0.4893E+02  0.5290E+03  0.5285E+03
      4.392  0.4694E+02  0.4501E+02  0.5314E+03  0.5308E+03
      4.443  0.5390E+02  0.5343E+02  0.5342E+03  0.5336E+03
      4.495  0.5482E+02  0.5582E+02  0.5370E+03  0.5364E+03
      4.546  0.4740E+02  0.4630E+02  0.5394E+03  0.5388E+03
      4.598  0.4480E+02  0.4215E+02  0.5418E+03  0.5410E+03
      4.649  0.5493E+02  0.6457E+02  0.5446E+03  0.5443E+03
      4.701  0.6208E+02  0.5557E+02  0.5478E+03  0.5472E+03
      4.752  0.5748E+02  0.5886E+02  0.5507E+03  0.5502E+03
      4.804  0.4098E+02  0.4382E+02  0.5528E+03  0.5525E+03
      4.855  0.6020E+02  0.5527E+02  0.5559E+03  0.5553E+03
      4.906  0.4094E+02  0.4956E+02  0.5580E+03  0.5579E+03
      4.958  0.5454E+02  0.4789E+02  0.5608E+03  0.5603E+03
      5.009  0.3599E+02  0.3650E+02  0.5627E+03  0.5622E+03
      5.061  0.4681E+02  0.5270E+02  0.5651E+03  0.5649E+03
      5.112  0.3777E+02  0.3680E+02  0.5671E+03  0.5668E+03
      5.164  0.6014E+02  0.5492E+02  0.5701E+03  0.5696E+03
      5.215  0.5003E+02  0.5386E+02  0.5727E+03  0.5724E+03
      5.267  0.3092E+02  0.3280E+02  0.5743E+03  0.5741E+03
      5.318  0.2236E+02  0.3610E+02  0.5755E+03  0.5759E+03
      5.370  0.1041E+02  0.1073E+01  0.5760E+03  0.5760E+03
      5.421  0.0000E+00  0.0000E+00  0.5760E+03  0.5760E+03
      5.472  0.0000E+00  0.0000E+00  0.5760E+03  0.5760E+03
      5.524  0.0000E+00  0.0000E+00  0.5760E+03  0.5760E+03
      5.575  0.0000E+00  0.0000E+00  0.5760E+03  0.5760E+03
      5.627  0.0000E+00  0.0000E+00  0.5760E+03  0.5760E+03
      5.678  0.0000E+00  0.0000E+00  0.5760E+03  0.5760E+03
      5.730  0.0000E+00  0.0000E+00  0.5760E+03  0.5760E+03
      5.781  0.0000E+00  0.0000E+00  0.5760E+03  0.5760E+03
      5.833  0.0000E+00  0.0000E+00  0.5760E+03  0.5760E+03
      5.884  0.0000E+00  0.0000E+00  0.5760E+03  0.5760E+03
      5.936  0.0000E+00  0.0000E+00  0.5760E+03  0.5760E+03
      5.987  0.0000E+00  0.0000E+00  0.5760E+03  0.5760E+03
      6.039  0.0000E+00  0.0000E+00  0.5760E+03  0.5760E+03
