Si and Ge interface calculation         
           1
    12.978400    0.000000    0.000000
   -12.978400   14.510293    0.000000
     0.000000    0.000000    8.991717
   Sn   Ge
    24    24
Direct configuration=     1
   0.47435850  0.97435850  0.00000000
   0.17435835  0.67435843  0.16137400
   0.87435830  0.37435836  0.32274803
   0.97435850  0.97435850  0.00000000
   0.67435837  0.67435843  0.16137400
   0.37435830  0.37435836  0.32274803
   0.69935846  0.32435849  0.08068685
   0.39935836  0.02435845  0.24206085
   0.09935832  0.72435844  0.40343484
   0.19935848  0.32435849  0.08068685
   0.89935839  0.02435845  0.24206085
   0.59935832  0.72435844  0.40343484
   0.72435844  0.47435850  0.00000002
   0.42435834  0.17435840  0.16137402
   0.12435819  0.87435830  0.32274803
   0.22435847  0.47435850  0.00000002
   0.92435837  0.17435840  0.16137402
   0.62435824  0.87435830  0.32274803
   0.94935858  0.82435858  0.08068686
   0.64935851  0.52435857  0.24206083
   0.34935838  0.22435850  0.40343484
   0.44935879  0.82435858  0.08068686
   0.14935864  0.52435857  0.24206083
   0.84935856  0.22435850  0.40343484
   0.32959640  0.35205102  0.55811709
   0.21292973  0.93538433  0.61555719
   0.09626293  0.51871759  0.67299735
   0.97959608  0.10205078  0.73043764
   0.86292940  0.68538421  0.78787762
   0.74626255  0.26871729  0.84531784
   0.82959640  0.60205102  0.55811709
   0.71292961  0.18538427  0.61555719
   0.59626287  0.76871759  0.67299741
   0.47959608  0.35205078  0.73043740
   0.36292934  0.93538410  0.78787756
   0.24626267  0.51871723  0.84531772
   0.82959640  0.85205102  0.55811715
   0.71292961  0.43538427  0.61555719
   0.59626281  0.01871753  0.67299741
   0.47959611  0.60205078  0.73043752
   0.36292940  0.18538403  0.78787756
   0.24626255  0.76871711  0.84531778
   0.32959628  0.10205102  0.55811715
   0.21292961  0.68538427  0.61555725
   0.09626293  0.26871753  0.67299741
   0.97959608  0.85205078  0.73043752
   0.86292934  0.43538403  0.78787762
   0.74626255  0.01871705  0.84531784
