 168 168   0   0
  0.2680331E+02  0.1600268E-08  0.1600268E-08  0.2030401E-08  0.5000000E-15
  1.000000000000000E-004
  CAR 
 Si and Ge interface calculation         
      6.61057107     -9.48765018  301      3.63448385      1.00000000
     -9.488  0.0000E+00  0.0000E+00  0.0000E+00  0.0000E+00
     -9.434  0.0000E+00  0.0000E+00  0.0000E+00  0.0000E+00
     -9.380  0.0000E+00  0.0000E+00  0.0000E+00  0.0000E+00
     -9.327  0.0000E+00  0.0000E+00  0.0000E+00  0.0000E+00
     -9.273  0.0000E+00  0.0000E+00  0.0000E+00  0.0000E+00
     -9.219  0.0000E+00  0.0000E+00  0.0000E+00  0.0000E+00
     -9.166  0.0000E+00  0.0000E+00  0.0000E+00  0.0000E+00
     -9.112  0.0000E+00  0.0000E+00  0.0000E+00  0.0000E+00
     -9.058  0.0000E+00  0.0000E+00  0.0000E+00  0.0000E+00
     -9.005  0.0000E+00  0.0000E+00  0.0000E+00  0.0000E+00
     -8.951  0.0000E+00  0.0000E+00  0.0000E+00  0.0000E+00
     -8.897  0.0000E+00  0.0000E+00  0.0000E+00  0.0000E+00
     -8.844  0.0000E+00  0.0000E+00  0.0000E+00  0.0000E+00
     -8.790  0.5825E-05  0.1352E-06  0.3126E-06  0.7258E-08
     -8.736  0.9289E+01  0.9125E+01  0.4985E+00  0.4897E+00
     -8.683  0.2863E-01  0.1926E+00  0.5000E+00  0.5000E+00
     -8.629  0.2478E-07  0.2465E-09  0.5000E+00  0.5000E+00
     -8.575  0.5186E+02  0.4345E+02  0.3283E+01  0.2832E+01
     -8.522  0.4042E+01  0.1245E+02  0.3500E+01  0.3500E+01
     -8.468  0.0000E+00  0.0000E+00  0.3500E+01  0.3500E+01
     -8.414  0.0000E+00  0.0000E+00  0.3500E+01  0.3500E+01
     -8.361  0.8773E-02  0.3862E-03  0.3500E+01  0.3500E+01
     -8.307  0.9309E+01  0.9316E+01  0.4000E+01  0.4000E+01
     -8.253  0.2163E+02  0.9254E+01  0.5161E+01  0.4497E+01
     -8.200  0.3428E+02  0.4665E+02  0.7000E+01  0.7000E+01
     -8.146  0.5583E+02  0.5507E+02  0.9996E+01  0.9955E+01
     -8.092  0.2541E+02  0.2200E+02  0.1136E+02  0.1114E+02
     -8.039  0.3058E+02  0.3474E+02  0.1300E+02  0.1300E+02
     -7.985  0.0000E+00  0.0000E+00  0.1300E+02  0.1300E+02
     -7.931  0.0000E+00  0.0000E+00  0.1300E+02  0.1300E+02
     -7.878  0.1470E-07  0.7787E-10  0.1300E+02  0.1300E+02
     -7.824  0.5096E+02  0.4008E+02  0.1573E+02  0.1515E+02
     -7.771  0.4944E+01  0.1583E+02  0.1600E+02  0.1600E+02
     -7.717  0.1592E-03  0.1620E-04  0.1600E+02  0.1600E+02
     -7.663  0.2830E+02  0.2757E+02  0.1752E+02  0.1748E+02
     -7.610  0.8302E+02  0.7821E+02  0.2197E+02  0.2168E+02
     -7.556  0.5640E+02  0.6194E+02  0.2500E+02  0.2500E+02
     -7.502  0.8209E+01  0.6943E+01  0.2544E+02  0.2537E+02
     -7.449  0.1109E+01  0.2375E+01  0.2550E+02  0.2550E+02
     -7.395  0.1292E-08  0.5210E-10  0.2550E+02  0.2550E+02
     -7.341  0.3926E+02  0.3016E+02  0.2761E+02  0.2712E+02
     -7.288  0.7255E+02  0.8164E+02  0.3150E+02  0.3150E+02
     -7.234  0.5282E-01  0.1638E-01  0.3150E+02  0.3150E+02
     -7.180  0.6307E+02  0.5687E+02  0.3489E+02  0.3455E+02
     -7.127  0.4869E+02  0.5493E+02  0.3750E+02  0.3750E+02
     -7.073  0.0000E+00  0.0000E+00  0.3750E+02  0.3750E+02
     -7.019  0.9106E-01  0.1034E-01  0.3750E+02  0.3750E+02
     -6.966  0.5581E+02  0.5588E+02  0.4050E+02  0.4050E+02
     -6.912  0.8214E+02  0.7744E+02  0.4491E+02  0.4465E+02
     -6.858  0.2607E+02  0.2124E+02  0.4631E+02  0.4579E+02
     -6.805  0.9174E+02  0.9755E+02  0.5123E+02  0.5103E+02
     -6.751  0.3200E+02  0.3112E+02  0.5295E+02  0.5270E+02
     -6.697  0.6622E+02  0.7084E+02  0.5650E+02  0.5650E+02
     -6.644  0.7940E+01  0.4874E+01  0.5693E+02  0.5676E+02
     -6.590  0.1380E+02  0.1160E+02  0.5767E+02  0.5738E+02
     -6.536  0.3099E+02  0.3066E+02  0.5933E+02  0.5903E+02
     -6.483  0.4756E+02  0.5180E+02  0.6188E+02  0.6181E+02
     -6.429  0.2094E+02  0.2200E+02  0.6300E+02  0.6299E+02
     -6.375  0.9187E+02  0.8380E+02  0.6793E+02  0.6749E+02
     -6.322  0.1147E+03  0.1042E+03  0.7409E+02  0.7308E+02
     -6.268  0.4492E+02  0.6380E+02  0.7650E+02  0.7650E+02
     -6.214  0.2006E+02  0.1306E+02  0.7758E+02  0.7720E+02
     -6.161  0.4523E+02  0.5218E+02  0.8000E+02  0.8000E+02
     -6.107  0.4594E+01  0.4643E+01  0.8025E+02  0.8025E+02
     -6.053  0.7578E+02  0.6975E+02  0.8432E+02  0.8399E+02
     -6.000  0.8495E+01  0.1423E+02  0.8477E+02  0.8476E+02
     -5.946  0.1033E+03  0.8222E+02  0.9032E+02  0.8917E+02
     -5.892  0.2679E+02  0.4813E+02  0.9176E+02  0.9175E+02
     -5.839  0.3113E+02  0.2813E+02  0.9343E+02  0.9326E+02
     -5.785  0.7817E+02  0.7065E+02  0.9762E+02  0.9705E+02
     -5.731  0.6297E+02  0.7357E+02  0.1010E+03  0.1010E+03
     -5.678  0.2057E+02  0.1399E+02  0.1021E+03  0.1018E+03
     -5.624  0.7380E+01  0.1396E+02  0.1025E+03  0.1025E+03
     -5.570  0.6910E+01  0.2053E+01  0.1029E+03  0.1026E+03
     -5.517  0.8660E+02  0.7698E+02  0.1075E+03  0.1067E+03
     -5.463  0.6737E+02  0.7223E+02  0.1111E+03  0.1106E+03
     -5.409  0.6706E+02  0.7046E+02  0.1147E+03  0.1144E+03
     -5.356  0.2223E+02  0.2381E+02  0.1159E+03  0.1157E+03
     -5.302  0.7943E+02  0.7330E+02  0.1202E+03  0.1196E+03
     -5.248  0.5585E+02  0.6460E+02  0.1232E+03  0.1231E+03
     -5.195  0.2457E+02  0.2657E+02  0.1245E+03  0.1245E+03
     -5.141  0.5580E+02  0.5459E+02  0.1275E+03  0.1274E+03
     -5.087  0.5642E+02  0.5413E+02  0.1305E+03  0.1303E+03
     -5.034  0.3784E+02  0.3821E+02  0.1326E+03  0.1324E+03
     -4.980  0.8079E+02  0.6985E+02  0.1369E+03  0.1361E+03
     -4.926  0.6018E+02  0.6707E+02  0.1401E+03  0.1397E+03
     -4.873  0.6456E+02  0.6255E+02  0.1436E+03  0.1431E+03
     -4.819  0.7215E+02  0.7655E+02  0.1475E+03  0.1472E+03
     -4.766  0.9071E+02  0.9245E+02  0.1523E+03  0.1522E+03
     -4.712  0.4059E+02  0.3637E+02  0.1545E+03  0.1541E+03
     -4.658  0.2843E+02  0.3532E+02  0.1560E+03  0.1560E+03
     -4.605  0.4143E+02  0.4182E+02  0.1582E+03  0.1582E+03
     -4.551  0.3607E+02  0.3194E+02  0.1602E+03  0.1600E+03
     -4.497  0.2428E+02  0.2639E+02  0.1615E+03  0.1614E+03
     -4.444  0.2734E+02  0.2579E+02  0.1630E+03  0.1628E+03
     -4.390  0.4789E+02  0.4430E+02  0.1655E+03  0.1651E+03
     -4.336  0.9664E+02  0.9943E+02  0.1707E+03  0.1705E+03
     -4.283  0.3581E+02  0.3247E+02  0.1726E+03  0.1722E+03
     -4.229  0.4837E+02  0.5191E+02  0.1752E+03  0.1750E+03
     -4.175  0.3302E+02  0.3723E+02  0.1770E+03  0.1770E+03
     -4.122  0.3003E+02  0.2343E+02  0.1786E+03  0.1783E+03
     -4.068  0.6352E+02  0.5971E+02  0.1820E+03  0.1815E+03
     -4.014  0.1827E+02  0.2868E+02  0.1830E+03  0.1830E+03
     -3.961  0.1396E+02  0.1383E+02  0.1837E+03  0.1837E+03
     -3.907  0.2840E+02  0.2779E+02  0.1853E+03  0.1852E+03
     -3.853  0.5903E+02  0.5717E+02  0.1884E+03  0.1883E+03
     -3.800  0.6110E+02  0.6064E+02  0.1917E+03  0.1916E+03
     -3.746  0.5487E+02  0.4909E+02  0.1947E+03  0.1942E+03
     -3.692  0.6028E+02  0.6216E+02  0.1979E+03  0.1975E+03
     -3.639  0.6954E+02  0.6344E+02  0.2016E+03  0.2009E+03
     -3.585  0.1156E+02  0.2461E+02  0.2023E+03  0.2023E+03
     -3.531  0.5873E+02  0.4884E+02  0.2054E+03  0.2049E+03
     -3.478  0.6478E+02  0.6955E+02  0.2089E+03  0.2086E+03
     -3.424  0.5808E+02  0.6278E+02  0.2120E+03  0.2120E+03
     -3.370  0.4471E+01  0.2182E+01  0.2122E+03  0.2121E+03
     -3.317  0.5154E+02  0.5425E+02  0.2150E+03  0.2150E+03
     -3.263  0.1816E+02  0.1474E+02  0.2160E+03  0.2158E+03
     -3.209  0.9087E+02  0.9326E+02  0.2209E+03  0.2208E+03
     -3.156  0.1062E+03  0.9473E+02  0.2266E+03  0.2259E+03
     -3.102  0.3165E+02  0.4405E+02  0.2282E+03  0.2282E+03
     -3.048  0.3831E+02  0.2500E+02  0.2303E+03  0.2296E+03
     -2.995  0.7854E+02  0.9053E+02  0.2345E+03  0.2344E+03
     -2.941  0.7538E+02  0.7580E+02  0.2386E+03  0.2385E+03
     -2.887  0.9189E+02  0.9260E+02  0.2435E+03  0.2435E+03
     -2.834  0.2790E+02  0.2751E+02  0.2450E+03  0.2450E+03
     -2.780  0.4317E+02  0.3743E+02  0.2473E+03  0.2470E+03
     -2.726  0.8897E+02  0.8472E+02  0.2521E+03  0.2515E+03
     -2.673  0.3723E+02  0.4320E+02  0.2541E+03  0.2538E+03
     -2.619  0.4043E+02  0.4517E+02  0.2562E+03  0.2562E+03
     -2.565  0.2946E-02  0.2943E-03  0.2563E+03  0.2563E+03
     -2.512  0.8245E+02  0.7979E+02  0.2607E+03  0.2605E+03
     -2.458  0.2924E+02  0.3072E+02  0.2622E+03  0.2622E+03
     -2.404  0.6748E+02  0.6224E+02  0.2659E+03  0.2655E+03
     -2.351  0.5800E+02  0.5317E+02  0.2690E+03  0.2684E+03
     -2.297  0.1089E+03  0.1102E+03  0.2748E+03  0.2743E+03
     -2.243  0.8125E+01  0.1798E+02  0.2753E+03  0.2753E+03
     -2.190  0.5578E+02  0.5579E+02  0.2782E+03  0.2782E+03
     -2.136  0.2794E+02  0.2792E+02  0.2797E+03  0.2797E+03
     -2.082  0.1128E+02  0.9490E+01  0.2804E+03  0.2803E+03
     -2.029  0.3068E+02  0.3257E+02  0.2820E+03  0.2820E+03
     -1.975  0.2458E+01  0.8423E+00  0.2821E+03  0.2820E+03
     -1.921  0.5366E+02  0.5507E+02  0.2850E+03  0.2850E+03
     -1.868  0.4635E+02  0.4216E+02  0.2875E+03  0.2873E+03
     -1.814  0.5127E+02  0.5567E+02  0.2903E+03  0.2902E+03
     -1.761  0.5518E+02  0.5291E+02  0.2932E+03  0.2931E+03
     -1.707  0.1345E+01  0.3127E+01  0.2933E+03  0.2933E+03
     -1.653  0.7552E+02  0.5586E+02  0.2973E+03  0.2963E+03
     -1.600  0.7287E+02  0.8996E+02  0.3012E+03  0.3011E+03
     -1.546  0.6496E+02  0.6738E+02  0.3047E+03  0.3047E+03
     -1.492  0.5002E+01  0.5637E+01  0.3050E+03  0.3050E+03
     -1.439  0.1271E+02  0.8505E+01  0.3057E+03  0.3055E+03
     -1.385  0.2919E+02  0.3326E+02  0.3072E+03  0.3072E+03
     -1.331  0.3610E-01  0.1693E+00  0.3072E+03  0.3072E+03
     -1.278  0.2241E+00  0.9407E-02  0.3073E+03  0.3073E+03
     -1.224  0.2810E+02  0.2803E+02  0.3088E+03  0.3088E+03
     -1.170  0.2758E+02  0.2787E+02  0.3102E+03  0.3102E+03
     -1.117  0.3672E-13  0.0000E+00  0.3102E+03  0.3102E+03
     -1.063  0.1045E+02  0.3801E+01  0.3108E+03  0.3105E+03
     -1.009  0.1750E+02  0.2415E+02  0.3117E+03  0.3117E+03
     -0.956  0.0000E+00  0.0000E+00  0.3118E+03  0.3118E+03
     -0.902  0.8064E-05  0.4352E-06  0.3118E+03  0.3118E+03
     -0.848  0.2171E+02  0.1763E+02  0.3129E+03  0.3127E+03
     -0.795  0.4390E+02  0.4097E+02  0.3153E+03  0.3149E+03
     -0.741  0.3083E+02  0.3624E+02  0.3169E+03  0.3168E+03
     -0.687  0.3000E+02  0.2513E+02  0.3185E+03  0.3182E+03
     -0.634  0.6063E+02  0.6073E+02  0.3218E+03  0.3214E+03
     -0.580  0.3228E+02  0.3081E+02  0.3235E+03  0.3231E+03
     -0.526  0.4264E+01  0.1212E+02  0.3238E+03  0.3238E+03
     -0.473  0.0000E+00  0.0000E+00  0.3238E+03  0.3238E+03
     -0.419  0.1466E+00  0.3983E-01  0.3238E+03  0.3238E+03
     -0.365  0.1123E+02  0.7077E+01  0.3244E+03  0.3241E+03
     -0.312  0.5386E+02  0.5806E+02  0.3273E+03  0.3272E+03
     -0.258  0.1298E+03  0.1094E+03  0.3342E+03  0.3331E+03
     -0.204  0.1097E+03  0.1226E+03  0.3401E+03  0.3397E+03
     -0.151  0.3784E+02  0.3236E+02  0.3421E+03  0.3414E+03
     -0.097  0.1059E+03  0.1124E+03  0.3478E+03  0.3475E+03
     -0.043  0.8933E+02  0.8885E+02  0.3526E+03  0.3522E+03
      0.010  0.1142E+03  0.1085E+03  0.3587E+03  0.3581E+03
      0.064  0.3819E+02  0.4845E+02  0.3608E+03  0.3607E+03
      0.118  0.3273E+02  0.3017E+02  0.3626E+03  0.3623E+03
      0.171  0.5201E+02  0.5277E+02  0.3653E+03  0.3651E+03
      0.225  0.1460E+03  0.1294E+03  0.3732E+03  0.3720E+03
      0.279  0.1140E+03  0.1271E+03  0.3793E+03  0.3789E+03
      0.332  0.1245E+03  0.1157E+03  0.3860E+03  0.3851E+03
      0.386  0.6811E+02  0.7425E+02  0.3896E+03  0.3891E+03
      0.440  0.1082E+03  0.1014E+03  0.3954E+03  0.3945E+03
      0.493  0.9907E+02  0.1146E+03  0.4008E+03  0.4007E+03
      0.547  0.4297E+02  0.4392E+02  0.4031E+03  0.4030E+03
      0.601  0.7945E+02  0.7258E+02  0.4073E+03  0.4069E+03
      0.654  0.3642E+02  0.3473E+02  0.4093E+03  0.4088E+03
      0.708  0.4799E+02  0.5355E+02  0.4119E+03  0.4116E+03
      0.762  0.1200E+03  0.1127E+03  0.4183E+03  0.4177E+03
      0.815  0.1202E+03  0.1134E+03  0.4247E+03  0.4238E+03
      0.869  0.1091E+03  0.1192E+03  0.4306E+03  0.4302E+03
      0.923  0.1746E+03  0.1719E+03  0.4400E+03  0.4394E+03
      0.976  0.1240E+03  0.1218E+03  0.4466E+03  0.4459E+03
      1.030  0.1136E+03  0.1162E+03  0.4527E+03  0.4522E+03
      1.084  0.8217E+02  0.8669E+02  0.4571E+03  0.4568E+03
      1.137  0.1484E+03  0.1452E+03  0.4651E+03  0.4646E+03
      1.191  0.9196E+02  0.7689E+02  0.4700E+03  0.4687E+03
      1.244  0.1128E+03  0.1297E+03  0.4761E+03  0.4757E+03
      1.298  0.1105E+03  0.1072E+03  0.4820E+03  0.4814E+03
      1.352  0.9923E+02  0.9783E+02  0.4873E+03  0.4867E+03
      1.405  0.1202E+03  0.1179E+03  0.4938E+03  0.4930E+03
      1.459  0.6460E+02  0.7302E+02  0.4972E+03  0.4969E+03
      1.513  0.1742E+03  0.1595E+03  0.5066E+03  0.5055E+03
      1.566  0.1317E+03  0.1477E+03  0.5137E+03  0.5134E+03
      1.620  0.1268E+03  0.1144E+03  0.5205E+03  0.5196E+03
      1.674  0.8002E+02  0.9659E+02  0.5248E+03  0.5247E+03
      1.727  0.1489E+03  0.1347E+03  0.5328E+03  0.5320E+03
      1.781  0.1033E+03  0.1045E+03  0.5383E+03  0.5376E+03
      1.835  0.8460E+02  0.8806E+02  0.5428E+03  0.5423E+03
      1.888  0.8378E+02  0.8833E+02  0.5473E+03  0.5470E+03
      1.942  0.8893E+02  0.8731E+02  0.5521E+03  0.5517E+03
      1.996  0.8153E+02  0.8081E+02  0.5565E+03  0.5561E+03
      2.049  0.6562E+02  0.6562E+02  0.5600E+03  0.5596E+03
      2.103  0.9281E+02  0.8770E+02  0.5650E+03  0.5643E+03
      2.157  0.1542E+03  0.1592E+03  0.5733E+03  0.5728E+03
      2.210  0.9885E+02  0.8877E+02  0.5786E+03  0.5776E+03
      2.264  0.8378E+02  0.8982E+02  0.5831E+03  0.5824E+03
      2.318  0.8125E+02  0.9041E+02  0.5874E+03  0.5873E+03
      2.371  0.5419E+02  0.5163E+02  0.5903E+03  0.5900E+03
      2.425  0.1056E+03  0.1046E+03  0.5960E+03  0.5957E+03
      2.479  0.5353E+02  0.5702E+02  0.5989E+03  0.5987E+03
      2.532  0.8177E+02  0.7853E+02  0.6032E+03  0.6029E+03
      2.586  0.4146E+02  0.4423E+02  0.6055E+03  0.6053E+03
      2.640  0.9175E+02  0.9064E+02  0.6104E+03  0.6102E+03
      2.693  0.1264E+03  0.1245E+03  0.6172E+03  0.6168E+03
      2.747  0.5482E+02  0.5066E+02  0.6201E+03  0.6196E+03
      2.801  0.1030E+03  0.1004E+03  0.6256E+03  0.6249E+03
      2.854  0.5954E+02  0.6484E+02  0.6288E+03  0.6284E+03
      2.908  0.6037E+02  0.6590E+02  0.6321E+03  0.6320E+03
      2.962  0.1263E+02  0.1464E+02  0.6328E+03  0.6328E+03
      3.015  0.7954E+02  0.6092E+02  0.6370E+03  0.6360E+03
      3.069  0.4613E+02  0.6462E+02  0.6395E+03  0.6395E+03
      3.123  0.2921E+02  0.2296E+02  0.6411E+03  0.6407E+03
      3.176  0.1091E+03  0.1094E+03  0.6469E+03  0.6466E+03
      3.230  0.5292E+02  0.5727E+02  0.6498E+03  0.6497E+03
      3.284  0.4471E+02  0.3454E+02  0.6522E+03  0.6515E+03
      3.337  0.7956E+02  0.5689E+02  0.6564E+03  0.6546E+03
      3.391  0.5241E+02  0.8274E+02  0.6592E+03  0.6590E+03
      3.445  0.4977E+02  0.4832E+02  0.6619E+03  0.6616E+03
      3.498  0.4154E+02  0.4236E+02  0.6641E+03  0.6639E+03
      3.552  0.4050E+02  0.2571E+02  0.6663E+03  0.6653E+03
      3.606  0.6830E+02  0.6820E+02  0.6700E+03  0.6689E+03
      3.659  0.4701E+02  0.6495E+02  0.6725E+03  0.6724E+03
      3.713  0.4186E+02  0.3592E+02  0.6747E+03  0.6743E+03
      3.767  0.2254E+02  0.8322E+01  0.6760E+03  0.6748E+03
      3.820  0.2408E+02  0.4578E+02  0.6772E+03  0.6772E+03
      3.874  0.2972E+02  0.1188E+02  0.6788E+03  0.6779E+03
      3.928  0.2923E+01  0.2107E+02  0.6790E+03  0.6790E+03
      3.981  0.1390E+02  0.1145E+02  0.6797E+03  0.6796E+03
      4.035  0.5597E+02  0.5805E+02  0.6827E+03  0.6827E+03
      4.089  0.1471E+02  0.7719E+01  0.6835E+03  0.6831E+03
      4.142  0.6322E+02  0.5970E+02  0.6869E+03  0.6863E+03
      4.196  0.5717E+02  0.6804E+02  0.6900E+03  0.6900E+03
      4.249  0.2029E+02  0.1325E+02  0.6911E+03  0.6907E+03
      4.303  0.6315E+02  0.6572E+02  0.6945E+03  0.6942E+03
      4.357  0.2589E+02  0.2644E+02  0.6959E+03  0.6957E+03
      4.410  0.4364E+02  0.4596E+02  0.6982E+03  0.6981E+03
      4.464  0.1130E+02  0.8940E+01  0.6988E+03  0.6986E+03
      4.518  0.8553E+02  0.7496E+02  0.7034E+03  0.7026E+03
      4.571  0.6233E+02  0.7666E+02  0.7067E+03  0.7067E+03
      4.625  0.1236E+02  0.6670E+01  0.7074E+03  0.7071E+03
      4.679  0.7291E+02  0.7157E+02  0.7113E+03  0.7109E+03
      4.732  0.9071E+02  0.9208E+02  0.7162E+03  0.7159E+03
      4.786  0.8925E+02  0.9250E+02  0.7210E+03  0.7208E+03
      4.840  0.7870E+02  0.7568E+02  0.7252E+03  0.7249E+03
      4.893  0.4272E+02  0.4540E+02  0.7275E+03  0.7273E+03
      4.947  0.3418E+02  0.3343E+02  0.7293E+03  0.7291E+03
      5.001  0.6515E+02  0.6197E+02  0.7328E+03  0.7325E+03
      5.054  0.5450E+02  0.6127E+02  0.7358E+03  0.7357E+03
      5.108  0.7111E+02  0.6704E+02  0.7396E+03  0.7393E+03
      5.162  0.1403E+03  0.1303E+03  0.7471E+03  0.7463E+03
      5.215  0.8071E+02  0.9320E+02  0.7514E+03  0.7513E+03
      5.269  0.1196E+03  0.1072E+03  0.7578E+03  0.7571E+03
      5.323  0.6278E+02  0.6651E+02  0.7612E+03  0.7607E+03
      5.376  0.6996E+02  0.7245E+02  0.7650E+03  0.7645E+03
      5.430  0.6586E+02  0.7147E+02  0.7685E+03  0.7684E+03
      5.484  0.1010E+03  0.1001E+03  0.7739E+03  0.7738E+03
      5.537  0.1196E+03  0.1075E+03  0.7803E+03  0.7795E+03
      5.591  0.7462E+02  0.7911E+02  0.7843E+03  0.7838E+03
      5.645  0.9262E+02  0.9732E+02  0.7893E+03  0.7890E+03
      5.698  0.1057E+03  0.9872E+02  0.7950E+03  0.7943E+03
      5.752  0.1073E+03  0.1169E+03  0.8007E+03  0.8006E+03
      5.806  0.7883E+02  0.7383E+02  0.8050E+03  0.8045E+03
      5.859  0.4828E+02  0.5446E+02  0.8076E+03  0.8074E+03
      5.913  0.8094E+01  0.1030E+02  0.8080E+03  0.8080E+03
      5.967  0.0000E+00  0.0000E+00  0.8080E+03  0.8080E+03
      6.020  0.0000E+00  0.0000E+00  0.8080E+03  0.8080E+03
      6.074  0.0000E+00  0.0000E+00  0.8080E+03  0.8080E+03
      6.128  0.0000E+00  0.0000E+00  0.8080E+03  0.8080E+03
      6.181  0.0000E+00  0.0000E+00  0.8080E+03  0.8080E+03
      6.235  0.0000E+00  0.0000E+00  0.8080E+03  0.8080E+03
      6.289  0.0000E+00  0.0000E+00  0.8080E+03  0.8080E+03
      6.342  0.0000E+00  0.0000E+00  0.8080E+03  0.8080E+03
      6.396  0.0000E+00  0.0000E+00  0.8080E+03  0.8080E+03
      6.450  0.0000E+00  0.0000E+00  0.8080E+03  0.8080E+03
      6.503  0.0000E+00  0.0000E+00  0.8080E+03  0.8080E+03
      6.557  0.0000E+00  0.0000E+00  0.8080E+03  0.8080E+03
      6.611  0.0000E+00  0.0000E+00  0.8080E+03  0.8080E+03
