 vasp.6.4.3 19Mar24 (build Oct 22 2024 11:23:12) complex                        
  
 executed on             LinuxIFC date 2025.06.09  02:07:38
 running   64 mpi-ranks, on    4 nodes
 distrk:  each k-point on   64 cores,    1 groups
 distr:  one band on NCORE=  16 cores,    4 groups


--------------------------------------------------------------------------------------------------------


 INCAR:
   SYSTEM = Si and Ge interface calculation
   ISTART = 0
   ICHARG = 2
   LWAVE = .FALSE.
   LREAL = AUTO
   ENCUT = 700
   ENAUG = 900
   ADDGRID = .TRUE.
   LMAXMIX = 6
   LASPH = .TRUE.
   LMIXTAU = .TRUE.
   NCORE = 16
   NELM = 100
   NBANDS = 404
   EDIFF = 1d-7
   AMIX = 0.6
   ISMEAR = 0
   SIGMA = 0.01
   NELECT = 672
   ISPIN = 2
   NUPDOWN = 1
   LVTOT = .FALSE.
   LVHAR = .TRUE.

 POTCAR:    PAW_PBE Ge 05Jan2001                  
 POTCAR:    PAW_PBE Sn 08Apr2002                  
 -----------------------------------------------------------------------------
|                                                                             |
|           W    W    AA    RRRRR   N    N  II  N    N   GGGG   !!!           |
|           W    W   A  A   R    R  NN   N  II  NN   N  G    G  !!!           |
|           W    W  A    A  R    R  N N  N  II  N N  N  G       !!!           |
|           W WW W  AAAAAA  RRRRR   N  N N  II  N  N N  G  GGG   !            |
|           WW  WW  A    A  R   R   N   NN  II  N   NN  G    G                |
|           W    W  A    A  R    R  N    N  II  N    N   GGGG   !!!           |
|                                                                             |
|     You use a magnetic or noncollinear calculation, but did not specify     |
|     the initial magnetic moment with the MAGMOM tag. Note that a            |
|     default of 5.952e-3 will be used for all atoms. This ferromagnetic      |
|     setup may break the symmetry of the crystal, in particular it may       |
|     rule out finding an antiferromagnetic solution. Thence, we              |
|     recommend setting the initial magnetic moment manually or verifying     |
|     carefully that this magnetic setup is desired.                          |
|                                                                             |
 -----------------------------------------------------------------------------

 POTCAR:    PAW_PBE Ge 05Jan2001                  
   VRHFIN =Ge: s2p2                                                                                 
   LEXCH  = PE                                                                                      
   EATOM  =   104.9960 eV,    7.7170 Ry                                                             
                                                                                                    
   TITEL  = PAW_PBE Ge 05Jan2001                                                                    
   LULTRA =        F    use ultrasoft PP ?                                                          
   IUNSCR =        1    unscreen: 0-lin 1-nonlin 2-no                                               
   RPACOR =    2.170    partial core radius                                                         
   POMASS =   72.610; ZVAL   =    4.000    mass and valenz                                          
   RCORE  =    2.300    outmost cutoff radius                                                       
   RWIGS  =    2.300; RWIGS  =    1.217    wigner-seitz radius (au A)                               
   ENMAX  =  173.807; ENMIN  =  130.355 eV                                                          
   ICORE  =        3    local potential                                                             
   LCOR   =        T    correct aug charges                                                         
   LPAW   =        T    paw PP                                                                      
   EAUG   =  385.843                                                                                
   DEXC   =    0.000                                                                                
   RMAX   =    2.342    core radius for proj-oper                                                   
   RAUG   =    1.300    factor for augmentation sphere                                              
   RDEP   =    2.318    radius for radial grids                                                     
   RDEPT  =    2.103    core radius for aug-charge                                                  
                                                                                                    
   Atomic configuration                                                                             
   10 entries                                                                                       
     n  l   j            E        occ.                                                              
     1  0  0.50    -10959.8463   2.0000                                                             
     2  0  0.50     -1371.6056   2.0000                                                             
     2  1  1.50     -1198.4791   6.0000                                                             
     3  0  0.50      -168.4733   2.0000                                                             
     3  1  1.50      -115.6019   6.0000                                                             
     3  2  2.50       -29.3106  10.0000                                                             
     4  0  0.50       -11.7309   2.0000                                                             
     4  1  0.50        -3.8952   2.0000                                                             
     4  2  1.50        -4.0817   0.0000                                                             
     4  3  2.50        -4.0817   0.0000                                                             
   Description                                                                                      
     l       E           TYP  RCUT    TYP  RCUT                                                     
     0    -11.7309493     23  2.300                                                                 
     0     -7.4578696     23  2.300                                                                 
     1     -3.8952261     23  2.300                                                                 
     1      6.1178114     23  2.300                                                                 
     2     -4.0817478     23  2.300                                                                 
     3     -1.3605826      7  2.300                                                                 
  local pseudopotential read in
  partial core-charges read in
  partial kinetic energy density read in
  atomic valenz-charges read in
  non local Contribution for L=           0  read in
    real space projection operators read in
  non local Contribution for L=           0  read in
    real space projection operators read in
  non local Contribution for L=           1  read in
    real space projection operators read in
  non local Contribution for L=           1  read in
    real space projection operators read in
  non local Contribution for L=           2  read in
    real space projection operators read in
    PAW grid and wavefunctions read in
 
   number of l-projection  operators is LMAX  =           5
   number of lm-projection operators is LMMAX =          13
 
 POTCAR:    PAW_PBE Sn 08Apr2002                  
   VRHFIN =Sn: s2p2                                                                                 
   LEXCH  = PE                                                                                      
   EATOM  =    94.0860 eV,    6.9151 Ry                                                             
                                                                                                    
   TITEL  = PAW_PBE Sn 08Apr2002                                                                    
   LULTRA =        F    use ultrasoft PP ?                                                          
   IUNSCR =        1    unscreen: 0-lin 1-nonlin 2-no                                               
   RPACOR =    2.000    partial core radius                                                         
   POMASS =  118.710; ZVAL   =    4.000    mass and valenz                                          
   RCORE  =    3.000    outmost cutoff radius                                                       
   RWIGS  =    2.960; RWIGS  =    1.566    wigner-seitz radius (au A)                               
   ENMAX  =  103.236; ENMIN  =   77.427 eV                                                          
   ICORE  =        3    local potential                                                             
   LCOR   =        T    correct aug charges                                                         
   LPAW   =        T    paw PP                                                                      
   EAUG   =  263.585                                                                                
   DEXC   =    0.000                                                                                
   RMAX   =    3.078    core radius for proj-oper                                                   
   RAUG   =    1.300    factor for augmentation sphere                                              
   RDEP   =    3.022    radius for radial grids                                                     
   RDEPT  =    2.655    core radius for aug-charge                                                  
                                                                                                    
   Atomic configuration                                                                             
   13 entries                                                                                       
     n  l   j            E        occ.                                                              
     1  0  0.50    -29007.2859   2.0000                                                             
     2  0  0.50     -4378.8056   2.0000                                                             
     2  1  1.50     -3930.4293   6.0000                                                             
     3  0  0.50      -845.0264   2.0000                                                             
     3  1  1.50      -698.5725   6.0000                                                             
     3  2  2.50      -473.2839  10.0000                                                             
     4  0  0.50      -133.9036   2.0000                                                             
     4  1  1.50       -89.6752   6.0000                                                             
     4  2  2.50       -25.8375  10.0000                                                             
     5  0  0.50       -10.5484   2.0000                                                             
     5  1  0.50        -3.6940   2.0000                                                             
     5  2  1.50        -1.3606   0.0000                                                             
     4  3  2.50        -4.0817   0.0000                                                             
   Description                                                                                      
     l       E           TYP  RCUT    TYP  RCUT                                                     
     0    -10.5483727     23  3.000                                                                 
     0     27.2116520     23  3.000                                                                 
     1     -3.6939829     23  3.000                                                                 
     1      1.9821976     23  3.000                                                                 
     2     -1.3605826     23  3.000                                                                 
     3     -2.7211652     23  3.000                                                                 
  local pseudopotential read in
  partial core-charges read in
  partial kinetic energy density read in
  atomic valenz-charges read in
  non local Contribution for L=           0  read in
    real space projection operators read in
  non local Contribution for L=           0  read in
    real space projection operators read in
  non local Contribution for L=           1  read in
    real space projection operators read in
  non local Contribution for L=           1  read in
    real space projection operators read in
  non local Contribution for L=           2  read in
    real space projection operators read in
    PAW grid and wavefunctions read in
 
   number of l-projection  operators is LMAX  =           5
   number of lm-projection operators is LMMAX =          13
 
 Optimization of the real space projectors (new method)

 maximal supplied QI-value         = 16.25
 optimisation between [QCUT,QGAM] = [ 13.49, 26.98] = [ 50.95,203.80] Ry 
 Optimized for a Real-space Cutoff    1.25 Angstroem

   l    n(q)    QCUT    max X(q) W(low)/X(q) W(high)/X(q)  e(spline) 
   0     10    13.489    65.336    0.91E-04    0.11E-03    0.34E-06
   0     10    13.489    52.220    0.89E-04    0.11E-03    0.34E-06
   1     10    13.489    36.409    0.22E-03    0.27E-03    0.14E-06
   1     10    13.489    21.334    0.21E-03    0.27E-03    0.14E-06
   2      9    13.489     4.673    0.11E-03    0.12E-03    0.19E-06
 Optimization of the real space projectors (new method)

 maximal supplied QI-value         = 12.47
 optimisation between [QCUT,QGAM] = [ 12.47, 27.06] = [ 43.56,205.12] Ry 
 Optimized for a Real-space Cutoff    1.58 Angstroem

   l    n(q)    QCUT    max X(q) W(low)/X(q) W(high)/X(q)  e(spline) 
   0     13    12.472    14.688    0.45E-04    0.45E-04    0.25E-05
   0     13    12.472     7.308    0.94E-04    0.11E-03    0.61E-05
   1     12    12.472    45.102    0.34E-03    0.14E-03    0.21E-05
   1     12    12.472    30.691    0.31E-03    0.13E-03    0.20E-05
   2     12    12.472     7.156    0.86E-04    0.11E-03    0.17E-05
 WARNING: PSMAXN for non-local potential too small
          PSMAXN should be >   13.5545592237991       NTYP=           2
  PAW_PBE Ge 05Jan2001                  :
 energy of atom  1       EATOM= -104.9960
 kinetic energy error for atom=    0.0001 (will be added to EATOM!!)
  PAW_PBE Sn 08Apr2002                  :
 energy of atom  2       EATOM=  -94.0860
 kinetic energy error for atom=    0.0000 (will be added to EATOM!!)
 
 
 POSCAR: Ge+Sn
  positions in direct lattice
  No initial velocities read in


 exchange-correlation table for PE
   RHO(1)=    0.500       N(1)  =     2000
   RHO(2)=  100.500       N(2)  =     4000
 


--------------------------------------------------------------------------------------------------------


 ion  position               nearest neighbor table
   1  0.311  0.311  0.322-  67 2.45  46 2.45  88 2.45  24 2.45
   2  0.978  0.978  0.000-  68 2.45  47 2.45  89 2.45 160 2.66
   3  0.644  0.644  0.161-  48 2.45  69 2.45  23 2.45  90 2.45
   4  0.811  0.311  0.322-  70 2.45  43 2.45  21 2.45  85 2.45
   5  0.478  0.978  0.000-  71 2.45  86 2.45  44 2.45 124 2.66
   6  0.144  0.644  0.161-  72 2.45  45 2.45  20 2.45  87 2.45
   7  0.311  0.811  0.322-  61 2.45  94 2.45  18 2.45  40 2.45
   8  0.978  0.478  0.000-  62 2.45  95 2.45  41 2.45 112 2.66
   9  0.644  0.144  0.161-  63 2.45  96 2.45  17 2.45  42 2.45
  10  0.811  0.811  0.322-  64 2.45  15 2.45  91 2.45  37 2.45
  11  0.478  0.478  0.000-  65 2.45  38 2.45  92 2.45 148 2.66
  12  0.144  0.144  0.161-  66 2.45  14 2.45  39 2.45  93 2.45
  13  0.478  0.478  0.362-  73 2.45  49 2.45  25 2.45 140 2.66
  14  0.144  0.144  0.040-  74 2.45  12 2.45  50 2.45  26 2.45
  15  0.811  0.811  0.201-  75 2.45  10 2.45  27 2.45  51 2.45
  16  0.978  0.478  0.362-  76 2.45  52 2.45  28 2.45 104 2.66
  17  0.644  0.144  0.040-  77 2.45  53 2.45   9 2.45  29 2.45
  18  0.311  0.811  0.201-  78 2.45  30 2.45  54 2.45   7 2.45
  19  0.478  0.978  0.362-  55 2.45  79 2.45  31 2.45 116 2.66
  20  0.144  0.644  0.040-  56 2.45  80 2.45   6 2.45  32 2.45
  21  0.811  0.311  0.201-  57 2.45  33 2.45   4 2.45  81 2.45
  22  0.978  0.978  0.362-  58 2.45  82 2.45  34 2.45 152 2.66
  23  0.644  0.644  0.040-  59 2.45  35 2.45   3 2.45  83 2.45
  24  0.311  0.311  0.201-  60 2.45  84 2.45   1 2.45  36 2.45
  25  0.561  0.561  0.322-  61 2.45  85 2.45  48 2.45  13 2.45
  26  0.228  0.228  0.000-  62 2.45  86 2.45  14 2.45 145 2.63
  27  0.894  0.894  0.161-  63 2.45  15 2.45  87 2.45  47 2.45
  28  0.061  0.561  0.322-  88 2.45  64 2.45  45 2.45  16 2.45
  29  0.728  0.228  0.000-  65 2.45  89 2.45  17 2.45 109 2.63
  30  0.394  0.894  0.161-  66 2.45  90 2.45  18 2.45  44 2.45
  31  0.561  0.061  0.322-  91 2.45  67 2.45  42 2.45  19 2.45
  32  0.228  0.728  0.000-  68 2.45  92 2.45  20 2.45 130 2.63
  33  0.894  0.394  0.161-  21 2.45  69 2.45  41 2.45  93 2.45
  34  0.061  0.061  0.322-  94 2.45  70 2.45  39 2.45  22 2.45
  35  0.728  0.728  0.000-  95 2.45  23 2.45  71 2.45 166 2.63
  36  0.394  0.394  0.161-  96 2.45  72 2.45  24 2.45  38 2.45
  37  0.728  0.728  0.362-  79 2.45  52 2.45  10 2.45 158 2.63
  38  0.394  0.394  0.040-  53 2.45  80 2.45  11 2.45  36 2.45
  39  0.061  0.061  0.201-  81 2.45  54 2.45  34 2.45  12 2.45
  40  0.228  0.728  0.362-  82 2.45  49 2.45   7 2.45 122 2.63
  41  0.894  0.394  0.040-  50 2.45  83 2.45  33 2.45   8 2.45
  42  0.561  0.061  0.201-  84 2.45  51 2.45  31 2.45   9 2.45
  43  0.728  0.228  0.362-  73 2.45   4 2.45  58 2.45 101 2.63
  44  0.394  0.894  0.040-  74 2.45   5 2.45  59 2.45  30 2.45
  45  0.061  0.561  0.201-  75 2.45   6 2.45  60 2.45  28 2.45
  46  0.228  0.228  0.362-  76 2.45  55 2.45   1 2.45 137 2.63
  47  0.894  0.894  0.040-   2 2.45  56 2.45  77 2.45  27 2.45
  48  0.561  0.561  0.201-   3 2.45  78 2.45  57 2.45  25 2.45
  49  0.311  0.561  0.322-  40 2.45  13 2.45  72 2.45  88 2.45
  50  0.978  0.228  0.000-  41 2.45  89 2.45  14 2.45
  51  0.644  0.894  0.161-  90 2.45  42 2.45  15 2.45  71 2.45
  52  0.811  0.561  0.322-  37 2.45  16 2.45  85 2.45  69 2.45
  53  0.478  0.228  0.000-  38 2.45  17 2.45  86 2.45
  54  0.144  0.894  0.161-  87 2.45  39 2.45  18 2.45  68 2.45
  55  0.311  0.061  0.322-  19 2.45  46 2.45  66 2.45  94 2.45
  56  0.978  0.728  0.000-  20 2.45  47 2.45  95 2.45
  57  0.644  0.394  0.161-  96 2.45  21 2.45  48 2.45  65 2.45
  58  0.811  0.061  0.322-  22 2.45  91 2.45  63 2.45  43 2.45
  59  0.478  0.728  0.000-  92 2.45  23 2.45  44 2.45
  60  0.144  0.394  0.161-  93 2.45  24 2.45  62 2.45  45 2.45
  61  0.478  0.728  0.362-  25 2.45   7 2.45  79 2.45 131 3.20
  62  0.144  0.394  0.040-   8 2.45  26 2.45  60 2.45  80 2.45
  63  0.811  0.061  0.201-   9 2.45  27 2.45  58 2.45  81 2.45
  64  0.978  0.728  0.362-  10 2.45  28 2.45  82 2.45 167 3.20
  65  0.644  0.394  0.040-  29 2.45  11 2.45  83 2.45  57 2.45
  66  0.311  0.061  0.201-  30 2.45  12 2.45  55 2.45  84 2.45
  67  0.478  0.228  0.362-   1 2.45  31 2.45  73 2.45 146 3.20
  68  0.144  0.894  0.040-   2 2.45  32 2.45  74 2.45  54 2.45
  69  0.811  0.561  0.201-   3 2.45  33 2.45  75 2.45  52 2.45
  70  0.978  0.228  0.362-   4 2.45  76 2.45  34 2.45 110 3.20
  71  0.644  0.894  0.040-   5 2.45  77 2.45  35 2.45  51 2.45
  72  0.311  0.561  0.201-   6 2.45  78 2.45  36 2.45  49 2.45
  73  0.561  0.311  0.322-  13 2.45  67 2.45  43 2.45  96 2.45 101 3.33
  74  0.228  0.978  0.000-  14 2.45  44 2.45  68 2.45 106 2.59
  75  0.894  0.644  0.161-  45 2.45  15 2.45  95 2.45  69 2.45
  76  0.061  0.311  0.322-  16 2.45  46 2.45  70 2.45  93 2.45 137 3.33
  77  0.728  0.978  0.000-  17 2.45  71 2.45  47 2.45 142 2.59
  78  0.394  0.644  0.161-  18 2.45  48 2.45  72 2.45  92 2.45
  79  0.561  0.811  0.322-  37 2.45  19 2.45  61 2.45  90 2.45 158 3.33
  80  0.228  0.478  0.000-  38 2.45  20 2.45  62 2.45 163 2.59
  81  0.894  0.144  0.161-  39 2.45  21 2.45  89 2.45  63 2.45
  82  0.061  0.811  0.322-  40 2.45  87 2.45  22 2.45  64 2.45 122 3.33
  83  0.728  0.478  0.000-  41 2.45  65 2.45  23 2.45 127 2.59
  84  0.394  0.144  0.161-  42 2.45  86 2.45  24 2.45  66 2.45
  85  0.728  0.478  0.362-  25 2.45  52 2.45   4 2.45 119 2.59
  86  0.394  0.144  0.040-  53 2.45  26 2.45  84 2.45   5 2.45 124 3.33
  87  0.061  0.811  0.201-  54 2.45  82 2.45  27 2.45   6 2.45
  88  0.228  0.478  0.362-  28 2.45   1 2.45  49 2.45 155 2.59
  89  0.894  0.144  0.040-  29 2.45  50 2.45  81 2.45   2 2.45 160 3.33
  90  0.561  0.811  0.201-  51 2.45  30 2.45   3 2.45  79 2.45
  91  0.728  0.978  0.362-  58 2.45  31 2.45  10 2.45 134 2.59
  92  0.394  0.644  0.040-  59 2.45  32 2.45  78 2.45  11 2.45 148 3.33
  93  0.061  0.311  0.201-  60 2.45  76 2.45  33 2.45  12 2.45
  94  0.228  0.978  0.362-  34 2.45   7 2.45  55 2.45  98 2.59
  95  0.894  0.644  0.040-  35 2.45   8 2.45  56 2.45  75 2.45 112 3.33
  96  0.561  0.311  0.201-  57 2.45  36 2.45   9 2.45  73 2.45
  97  0.975  0.899  0.842- 108 2.81 130 2.83 142 2.83 160 2.83
  98  0.308  0.899  0.473-  94 2.59 131 2.83 143 2.83 161 2.83
  99  0.641  0.899  0.658- 107 2.81 144 2.83 162 2.83 132 2.83
 100  0.308  0.233  0.842- 111 2.81 124 2.83 163 2.83 145 2.83
 101  0.641  0.233  0.473-  43 2.63 164 2.83 125 2.83 146 2.83  73 3.33
 102  0.975  0.233  0.658- 110 2.81 126 2.83 165 2.83 147 2.83
 103  0.641  0.566  0.842- 114 2.81 166 2.83 127 2.83 148 2.83
 104  0.975  0.566  0.473-  16 2.66 167 2.83 128 2.83 149 2.83
 105  0.308  0.566  0.658- 113 2.81 129 2.83 168 2.83 150 2.83
 106  0.308  0.899  0.889-  74 2.59 157 2.83 115 2.83 133 2.83
 107  0.641  0.899  0.520-  99 2.81 116 2.83 134 2.83 158 2.83
 108  0.975  0.899  0.704-  97 2.81 135 2.83 117 2.83 159 2.83
 109  0.641  0.233  0.889-  29 2.63 136 2.83 151 2.83 118 2.83
 110  0.975  0.233  0.520- 102 2.81 137 2.83 152 2.83 119 2.83  70 3.20
 111  0.308  0.233  0.704- 100 2.81 138 2.83 153 2.83 120 2.83
 112  0.975  0.566  0.889-   8 2.66 154 2.83 121 2.83 139 2.83  95 3.33
 113  0.308  0.566  0.520- 105 2.81 122 2.83 140 2.83 155 2.83
 114  0.641  0.566  0.704- 103 2.81 141 2.83 123 2.83 156 2.83
 115  0.141  0.066  0.842- 126 2.81 145 2.83 160 2.83 106 2.83
 116  0.475  0.066  0.473-  19 2.66 146 2.83 161 2.83 107 2.83
 117  0.808  0.066  0.658- 125 2.81 147 2.83 108 2.83 162 2.83
 118  0.475  0.399  0.842- 129 2.81 148 2.83 109 2.83 163 2.83
 119  0.808  0.399  0.473-  85 2.59 164 2.83 110 2.83 149 2.83
 120  0.141  0.399  0.658- 128 2.81 165 2.83 111 2.83 150 2.83
 121  0.808  0.733  0.842- 132 2.81 112 2.83 142 2.83 166 2.83
 122  0.141  0.733  0.473-  40 2.63 113 2.83 143 2.83 167 2.83  82 3.33
 123  0.475  0.733  0.658- 131 2.81 144 2.83 114 2.83 168 2.83
 124  0.475  0.066  0.889-   5 2.66 133 2.83 100 2.83 151 2.83  86 3.33
 125  0.808  0.066  0.520- 117 2.81 101 2.83 152 2.83 134 2.83
 126  0.141  0.066  0.704- 115 2.81 102 2.83 153 2.83 135 2.83
 127  0.808  0.399  0.889-  83 2.59 103 2.83 136 2.83 154 2.83
 128  0.141  0.399  0.520- 120 2.81 155 2.83 104 2.83 137 2.83
 129  0.475  0.399  0.704- 118 2.81 105 2.83 138 2.83 156 2.83
 130  0.141  0.733  0.889-  32 2.63 139 2.83 157 2.83  97 2.83
 131  0.475  0.733  0.520- 123 2.81 140 2.83  98 2.83 158 2.83  61 3.20
 132  0.808  0.733  0.704- 121 2.81 159 2.83 141 2.83  99 2.83
 133  0.475  0.899  0.842- 144 2.81 166 2.83 124 2.83 106 2.83
 134  0.808  0.899  0.473-  91 2.59 167 2.83 125 2.83 107 2.83
 135  0.141  0.899  0.658- 143 2.81 108 2.83 126 2.83 168 2.83
 136  0.808  0.233  0.842- 147 2.81 109 2.83 160 2.83 127 2.83
 137  0.141  0.233  0.473-  46 2.63 110 2.83 161 2.83 128 2.83  76 3.33
 138  0.475  0.233  0.658- 146 2.81 162 2.83 129 2.83 111 2.83
 139  0.141  0.566  0.842- 150 2.81 130 2.83 163 2.83 112 2.83
 140  0.475  0.566  0.473-  13 2.66 131 2.83 113 2.83 164 2.83
 141  0.808  0.566  0.658- 149 2.81 132 2.83 114 2.83 165 2.83
 142  0.808  0.899  0.889-  77 2.59 151 2.83  97 2.83 121 2.83
 143  0.141  0.899  0.520- 135 2.81 152 2.83  98 2.83 122 2.83
 144  0.475  0.899  0.704- 133 2.81 123 2.83 153 2.83  99 2.83
 145  0.141  0.233  0.889-  26 2.63 115 2.83 100 2.83 154 2.83
 146  0.475  0.233  0.520- 138 2.81 116 2.83 155 2.83 101 2.83  67 3.20
 147  0.808  0.233  0.704- 136 2.81 117 2.83 156 2.83 102 2.83
 148  0.475  0.566  0.889-  11 2.66 118 2.83 157 2.83 103 2.83  92 3.33
 149  0.808  0.566  0.520- 141 2.81 158 2.83 104 2.83 119 2.83
 150  0.141  0.566  0.704- 139 2.81 159 2.83 105 2.83 120 2.83
 151  0.641  0.066  0.842- 162 2.81 109 2.83 142 2.83 124 2.83
 152  0.975  0.066  0.473-  22 2.66 143 2.83 125 2.83 110 2.83
 153  0.308  0.066  0.658- 161 2.81 144 2.83 126 2.83 111 2.83
 154  0.975  0.399  0.842- 165 2.81 112 2.83 145 2.83 127 2.83
 155  0.308  0.399  0.473-  88 2.59 128 2.83 146 2.83 113 2.83
 156  0.641  0.399  0.658- 164 2.81 147 2.83 129 2.83 114 2.83
 157  0.308  0.733  0.842- 168 2.81 148 2.83 130 2.83 106 2.83
 158  0.641  0.733  0.473-  37 2.63 149 2.83 131 2.83 107 2.83  79 3.33
 159  0.975  0.733  0.658- 167 2.81 132 2.83 150 2.83 108 2.83
 160  0.975  0.066  0.889-   2 2.66 136 2.83  97 2.83 115 2.83  89 3.33
 161  0.308  0.066  0.520- 153 2.81 137 2.83 116 2.83  98 2.83
 162  0.641  0.066  0.704- 151 2.81 138 2.83  99 2.83 117 2.83
 163  0.308  0.399  0.889-  80 2.59 100 2.83 139 2.83 118 2.83
 164  0.641  0.399  0.520- 156 2.81 101 2.83 119 2.83 140 2.83
 165  0.975  0.399  0.704- 154 2.81 120 2.83 102 2.83 141 2.83
 166  0.641  0.733  0.889-  35 2.63 103 2.83 133 2.83 121 2.83
 167  0.975  0.733  0.520- 159 2.81 104 2.83 134 2.83 122 2.83  64 3.20
 168  0.308  0.733  0.704- 157 2.81 105 2.83 135 2.83 123 2.83
 
  LATTYP: Found a hexagonal cell.
 ALAT       =    16.0026765650
 C/A-ratio  =     1.2687885190
  
  Lattice vectors:
  
 A1 = (  -8.0013380050, -13.8587245940,   0.0000000000)
 A2 = (  16.0026760100,   0.0000000000,   0.0000000000)
 A3 = (   0.0000000000,   0.0000000000,  20.3040122990)


Analysis of symmetry for initial positions (statically):
=====================================================================
 Subroutine PRICEL returns following result:
 
  LATTYP: Found a hexagonal cell.
 ALAT       =     8.0013382825
 C/A-ratio  =     2.5375770380
  
  Lattice vectors:
  
 A1 = (  -4.0006690025,  -6.9293622970,   0.0000000000)
 A2 = (   8.0013380050,   0.0000000000,   0.0000000000)
 A3 = (   0.0000000000,   0.0000000000,  20.3040122990)
 
   4 primitive cells build up your supercell.
 

 Routine SETGRP: Setting up the symmetry group for a 
 hexagonal supercell.


 Subroutine GETGRP returns: Found  1 space group operations
 (whereof  1 operations were pure point group operations)
 out of a pool of 24 trial point group operations.


The static configuration has the point symmetry C_1 .


Analysis of symmetry for dynamics (positions and initial velocities):
=====================================================================
 Subroutine PRICEL returns following result:
 
  LATTYP: Found a hexagonal cell.
 ALAT       =     8.0013382825
 C/A-ratio  =     2.5375770380
  
  Lattice vectors:
  
 A1 = (  -4.0006690025,  -6.9293622970,   0.0000000000)
 A2 = (   8.0013380050,   0.0000000000,   0.0000000000)
 A3 = (   0.0000000000,   0.0000000000,  20.3040122990)
 
   4 primitive cells build up your supercell.
 

 Routine SETGRP: Setting up the symmetry group for a 
 hexagonal supercell.


 Subroutine GETGRP returns: Found  1 space group operations
 (whereof  1 operations were pure point group operations)
 out of a pool of 24 trial point group operations.


The dynamic configuration has the point symmetry C_1 .


Analysis of structural, dynamic, and magnetic symmetry:
=====================================================================
 Subroutine PRICEL returns following result:
 
  LATTYP: Found a hexagonal cell.
 ALAT       =     8.0013382825
 C/A-ratio  =     2.5375770380
  
  Lattice vectors:
  
 A1 = (  -4.0006690025,  -6.9293622970,   0.0000000000)
 A2 = (   8.0013380050,   0.0000000000,   0.0000000000)
 A3 = (   0.0000000000,   0.0000000000,  20.3040122990)
 
   4 primitive cells build up your supercell.
 

 Routine SETGRP: Setting up the symmetry group for a 
 hexagonal supercell.


 Subroutine GETGRP returns: Found  1 space group operations
 (whereof  1 operations were pure point group operations)
 out of a pool of 24 trial point group operations.


The overall configuration has the point symmetry C_1 .


 Subroutine INISYM returns: Found  1 space group operations
 (whereof  1 operations are pure point group operations),
 and found     4 'primitive' translations


----------------------------------------------------------------------------------------

                                     Primitive cell                                     

  volume of cell :    1125.7391

  direct lattice vectors                    reciprocal lattice vectors
    -4.000669003 -6.929362297  0.000000000     0.000000000 -0.144313424  0.000000000
     8.001338005  0.000000000  0.000000000     0.124979097 -0.072156712  0.000000000
     0.000000000  0.000000000 20.304012299     0.000000000  0.000000000  0.049251349

  length of vectors
     8.001338282  8.001338005 20.304012299     0.144313424  0.144313429  0.049251349

  position of ions in fractional coordinates (direct lattice)
     0.378233672  0.621766448  0.321762353
     0.044900000  0.955100000  0.000000000
     0.711566866  0.288433134  0.160881177
     0.044900536  0.955099582  0.361982673
     0.711566776  0.288433372  0.040220331
     0.378233492  0.621766328  0.201101452
     0.878233648  0.121766328  0.321762353
     0.544899970  0.455100030  0.000000035
     0.211566866  0.788433254  0.160881206
     0.544900298  0.455099702  0.361982644
     0.211566746  0.788433254  0.040220268
     0.878233620  0.121766328  0.201101452
     0.878233648  0.621766328  0.321762353
     0.544899970  0.955100060  0.000000027
     0.211566926  0.288433224  0.160881177
     0.544900298  0.955099464  0.361982614
     0.211566806  0.288433224  0.040220287
     0.878233620  0.621766328  0.201101452
     0.378233672  0.121766210  0.321762353
     0.044900000  0.455100000  0.000000031
     0.711566926  0.788433194  0.160881177
     0.044900298  0.455099344  0.361982673
     0.711566568  0.788433372  0.040220316
     0.378233254  0.121766552  0.201101482
     0.201257706  0.949346900  0.842448235
     0.201257944  0.616013408  0.473403841
     0.201257944  0.282680034  0.657926083
     0.534591198  0.616013408  0.842448235
     0.534591198  0.282680034  0.473403841
     0.534591198  0.949346900  0.657926023
     0.867924452  0.282680034  0.842448235
     0.867924452  0.949346780  0.473403841
     0.867924452  0.616013408  0.657926023
     0.201257944  0.616013408  0.888578892
     0.201257706  0.282680034  0.519534349
     0.201257706  0.949346424  0.704056501
     0.534591198  0.282680034  0.888578892
     0.534591198  0.949346662  0.519534349
     0.534591198  0.616013646  0.704056621
     0.867924452  0.949346662  0.888578892
     0.867924452  0.616013408  0.519534349
     0.867924452  0.282680034  0.704056561

  ion indices of the primitive-cell ions
   primitive index   ion index
                 1           1
                 2          11
                 3          12
                 4          13
                 5          14
                 6          24
                 7          31
                 8          26
                 9          36
                10          46
                11          38
                12          42
                13          55
                14          53
                15          60
                16          67
                17          62
                18          66
                19          73
                20          80
                21          84
                22          88
                23          86
                24          93
                25         118
                26         155
                27         120
                28         100
                29         137
                30         138
                31         115
                32         116
                33         153
                34         163
                35         128
                36         129
                37         145
                38         146
                39         111
                40         124
                41         161
                42         126

----------------------------------------------------------------------------------------

 
 
 KPOINTS: Automatic KPOINTS generated             

Automatic generation of k-mesh.
 Grid dimensions read from file:
 generate k-points for:    2    2    2

 Generating k-lattice:

  Cartesian coordinates                     Fractional coordinates (reciprocal lattice)
     0.031244774 -0.018039178  0.000000000     0.500000000  0.000000000  0.000000000
     0.000000000  0.036078356  0.000000000     0.000000000  0.500000000  0.000000000
     0.000000000  0.000000000  0.024625675     0.000000000  0.000000000  0.500000000

  Length of vectors
     0.036078357  0.036078356  0.024625675

  Shift w.r.t. Gamma in fractional coordinates (k-lattice)
     0.000000000  0.000000000  0.000000000

 
 Subroutine IBZKPT returns following result:
 ===========================================
 
 Found      8 irreducible k-points:
 
 Following reciprocal coordinates:
            Coordinates               Weight
  0.000000  0.000000  0.000000      1.000000
  0.500000 -0.000000  0.000000      1.000000
  0.500000  0.500000  0.000000      1.000000
  0.000000  0.500000  0.000000      1.000000
  0.000000  0.000000  0.500000      1.000000
  0.500000 -0.000000  0.500000      1.000000
  0.500000  0.500000  0.500000      1.000000
  0.000000  0.500000  0.500000      1.000000
 
 Following cartesian coordinates:
            Coordinates               Weight
  0.000000  0.000000  0.000000      1.000000
  0.031245 -0.018039  0.000000      1.000000
  0.031245  0.018039  0.000000      1.000000
  0.000000  0.036078  0.000000      1.000000
  0.000000  0.000000  0.024626      1.000000
  0.031245 -0.018039  0.024626      1.000000
  0.031245  0.018039  0.024626      1.000000
  0.000000  0.036078  0.024626      1.000000
 


--------------------------------------------------------------------------------------------------------




 Dimension of arrays:
   k-points           NKPTS =      8   k-points in BZ     NKDIM =      8   number of bands    NBANDS=    404
   number of dos      NEDOS =    301   number of ions     NIONS =    168
   non local maximal  LDIM  =      5   non local SUM 2l+1 LMDIM =     13
   total plane-waves  NPLWV = ******
   max r-space proj   IRMAX =   6024   max aug-charges    IRDMAX= 279424
   dimension x,y,z NGX =   108 NGY =  108 NGZ =  140
   dimension x,y,z NGXF=   216 NGYF=  216 NGZF=  280
   support grid    NGXF=   432 NGYF=  432 NGZF=  560
   ions per type =              96  72
   NGX,Y,Z   is equivalent  to a cutoff of  11.22, 11.22, 11.46 a.u.
   NGXF,Y,Z  is equivalent  to a cutoff of  22.44, 22.44, 22.93 a.u.

 SYSTEM =  Si and Ge interface calculation         
 POSCAR =  Ge+Sn                                   

 Startparameter for this run:
   NWRITE =      2    write-flag & timer
   PREC   = normal    normal or accurate (medium, high low for compatibility)
   ISTART =      0    job   : 0-new  1-cont  2-samecut
   ICHARG =      2    charge: 1-file 2-atom 10-const
   ISPIN  =      2    spin polarized calculation?
   LNONCOLLINEAR =      F non collinear calculations
   LSORBIT =      F    spin-orbit coupling
   INIWAV =      1    electr: 0-lowe 1-rand  2-diag
   LASPH  =      T    aspherical Exc in radial PAW
 Electronic Relaxation 1
   ENCUT  =  700.0 eV  51.45 Ry    7.17 a.u.  34.52 34.52 43.80*2*pi/ulx,y,z
   ENINI  =  700.0     initial cutoff
   ENAUG  =  900.0 eV  augmentation charge cutoff
   NELM   =    100;   NELMIN=  2; NELMDL= -5     # of ELM steps 
   EDIFF  = 0.1E-06   stopping-criterion for ELM
   LREAL  =      T    real-space projection
   NLSPLINE    = F    spline interpolate recip. space projectors
   LCOMPAT=      F    compatible to vasp.4.4
   GGA_COMPAT  = T    GGA compatible to vasp.4.4-vasp.4.6
   LMAXPAW     = -100 max onsite density
   LMAXMIX     =    6 max onsite mixed and CHGCAR
   VOSKOWN=      0    Vosko Wilk Nusair interpolation
   ROPT   =   -0.00050  -0.00050
 Ionic relaxation
   EDIFFG = 0.1E-05   stopping-criterion for IOM
   NSW    =      0    number of steps for IOM
   NBLOCK =      1;   KBLOCK =      1    inner block; outer block 
   IBRION =     -1    ionic relax: 0-MD 1-quasi-New 2-CG
   NFREE  =      0    steps in history (QN), initial steepest desc. (CG)
   ISIF   =      2    stress and relaxation
   IWAVPR =     10    prediction:  0-non 1-charg 2-wave 3-comb
   ISYM   =      2    0-nonsym 1-usesym 2-fastsym
   LCORR  =      T    Harris-Foulkes like correction to forces

   POTIM  = 0.5000    time-step for ionic-motion
   TEIN   =    0.0    initial temperature
   TEBEG  =    0.0;   TEEND  =   0.0 temperature during run
   SMASS  =  -3.00    Nose mass-parameter (am)
   estimated Nose-frequenzy (Omega)   =  0.10E-29 period in steps = 0.13E+47 mass=  -0.585E-26a.u.
   SCALEE = 1.0000    scale energy and forces
   NPACO  =    256;   APACO  = 10.0  distance and # of slots for P.C.
   PSTRESS=    0.0 pullay stress

  Mass of Ions in am
   POMASS =  72.61118.71
  Ionic Valenz
   ZVAL   =   4.00  4.00
  Atomic Wigner-Seitz radii
   RWIGS  =  -1.00 -1.00
  virtual crystal weights 
   VCA    =   1.00  1.00
   NELECT =     672.0000    total number of electrons
   NUPDOWN=       1.0000    fix difference up-down

 DOS related values:
   EMIN   =  10.00;   EMAX   =-10.00  energy-range for DOS
   EFERMI =   0.00;   METHOD = LEGACY      
   ISMEAR =     0;   SIGMA  =   0.01  broadening in eV -4-tet -1-fermi 0-gaus

 Electronic relaxation 2 (details)
   IALGO  =     38    algorithm
   LDIAG  =      T    sub-space diagonalisation (order eigenvalues)
   LSUBROT=      F    optimize rotation matrix (better conditioning)
   TURBO    =      0    0=normal 1=particle mesh
   IRESTART =      0    0=no restart 2=restart with 2 vectors
   NREBOOT  =      0    no. of reboots
   NMIN     =      0    reboot dimension
   EREF     =   0.00    reference energy to select bands
   IMIX   =      4    mixing-type and parameters
     AMIX     =   0.60;   BMIX     =  1.00
     AMIX_MAG =   2.40;   BMIX_MAG =  1.00
     AMIN     =   0.10
     WC   =   100.;   INIMIX=   1;  MIXPRE=   1;  MAXMIX= -45

 Intra band minimization:
   WEIMIN = 0.0000     energy-eigenvalue tresh-hold
   EBREAK =  0.62E-10  absolut break condition
   DEPER  =   0.30     relativ break condition  

   TIME   =   0.40     timestep for ELM

  volume/ion in A,a.u.               =      26.80       180.88
  Fermi-wavevector in a.u.,A,eV,Ry     =   0.868358  1.640958 10.259407  0.754045
  Thomas-Fermi vector in A             =   1.987025
 
 Write flags
   LWAVE        =      F    write WAVECAR
   LDOWNSAMPLE  =      F    k-point downsampling of WAVECAR
   LCHARG       =      T    write CHGCAR
   LVTOT        =      F    write LOCPOT, total local potential
   LVHAR        =      T    write LOCPOT, Hartree potential only
   WRT_POTENTIAL=  hartree ionic  ! write potential to hdf5 file
   LELF         =      F    write electronic localiz. function (ELF)
   LORBIT       =      0    0 simple, 1 ext, 2 COOP (PROOUT), +10 PAW based schemes


 Dipole corrections
   LMONO      =      F    monopole corrections only (constant potential shift)
   LDIPOL     =      F    correct potential (dipole corrections)
   IDIPOL     =      0    1-x, 2-y, 3-z, 4-all directions 
   EPSILON    =  1.0000000 bulk dielectric constant
   LVACPOTAV  =      F  vacuum potentials using an averaging scheme for the charge density
   VACPOTFLAT =  0.1000000 required flatness to determine vacuum potential
 Exchange correlation treatment:
   GGA     = PE    functional components
   XC_C    = 1    coefficients multiplying the functional components
   LIBXC   =     F    Libxc                    
   VOSKOWN =     0    Vosko Wilk Nusair interpolation
   LHFCALC =     F    Hartree Fock is set to
   LHFONE  =     F    Hartree Fock one center treatment
   AEXX    =    0.0000 exact exchange contribution

 Parameters of functionals:
   PE:
     No parameter
 
 Van der Waals corrections
   IVDW    =     0    specifies the selected vdW correction

 Linear response parameters
   LEPSILON=     F    determine dielectric tensor
   LRPA    =     F    only Hartree local field effects (RPA)
   LNABLA  =     F    use nabla operator in PAW spheres
   LVEL    =     F    velocity operator in full k-point grid
   CSHIFT  =0.1000    complex shift for real part using Kramers Kronig
   OMEGAMAX=  -1.0    maximum frequency
   DEG_THRESHOLD= 0.2000000E-02 threshold for treating states as degnerate
   RTIME   =   -0.100 relaxation time in fs
  (WPLASMAI=    0.000 imaginary part of plasma frequency in eV, 0.658/RTIME)
   DFIELD  = 0.0000000 0.0000000 0.0000000 field for delta impulse in time
 
  Optional k-point grid parameters
   LKPOINTS_OPT  =     F    use optional k-point grid
   KPOINTS_OPT_MODE=     1    mode for optional k-point grid
 
 Orbital magnetization related:
   ORBITALMAG=     F  switch on orbital magnetization
   LCHIMAG   =     F  perturbation theory with respect to B field
   DQ        =  0.001000  dq finite difference perturbation B field
   LLRAUG    =     F  two centre corrections for induced B field
   LBONE     =     F  B-component reconstruction in AE one-centre
   LVGVCALC  =     T  calculate vGv susceptibility
   LVGVAPPL  =     F  apply vGv susceptibility instead of pGv for G=0

 Random number generation:
   RANDOM_GENERATOR = DEFAULT
   PCG_SEED         = not used


--------------------------------------------------------------------------------------------------------


 Static calculation
 charge density and potential will be updated during run
 spin polarized calculation
 Variant of blocked Davidson
 Davidson routine will perform the subspace rotation
 perform sub-space diagonalisation
    after iterative eigenvector-optimisation
 modified Broyden-mixing scheme, WC =      100.0
 initial mixing is a Kerker type mixing with AMIX =  0.6000 and BMIX =      1.0000
 Hartree-type preconditioning will be used
 using additional bands           68
 real space projection scheme for non local part
 use partial core corrections
 calculate Harris-corrections to forces 
   (improved forces if not selfconsistent)
 use gradient corrections 
 use of overlap-Matrix (Vanderbilt PP)
 Gauss-broadening in eV      SIGMA  =   0.01


--------------------------------------------------------------------------------------------------------


  energy-cutoff  :      700.00
  volume of cell :     4502.96
      direct lattice vectors                 reciprocal lattice vectors
    16.002676010  0.000000000  0.000000000     0.062489549 -0.036078356  0.000000000
     8.001338005 13.858724594  0.000000000     0.000000000  0.072156712  0.000000000
     0.000000000  0.000000000 20.304012299     0.000000000  0.000000000  0.049251349

  length of vectors
    16.002676010 16.002676565 20.304012299     0.072156715  0.072156712  0.049251349


 
 k-points in units of 2pi/SCALE and weight: Automatic KPOINTS generated             
   0.00000000  0.00000000  0.00000000       0.125
   0.03124477 -0.01803918  0.00000000       0.125
   0.03124477  0.01803918  0.00000000       0.125
   0.00000000  0.03607836  0.00000000       0.125
   0.00000000  0.00000000  0.02462567       0.125
   0.03124477 -0.01803918  0.02462567       0.125
   0.03124477  0.01803918  0.02462567       0.125
   0.00000000  0.03607836  0.02462567       0.125
 
 k-points in reciprocal lattice and weights: Automatic KPOINTS generated             
   0.00000000  0.00000000  0.00000000       0.125
   0.50000000 -0.00000000  0.00000000       0.125
   0.50000000  0.50000000  0.00000000       0.125
   0.00000000  0.50000000  0.00000000       0.125
   0.00000000  0.00000000  0.50000000       0.125
   0.50000000 -0.00000000  0.50000000       0.125
   0.50000000  0.50000000  0.50000000       0.125
   0.00000000  0.50000000  0.50000000       0.125
 
 position of ions in fractional coordinates (direct lattice) 
   0.31088322  0.31088316  0.32176235
   0.97755003  0.97755003  0.00000002
   0.64421654  0.64421660  0.16088121
   0.81088316  0.31088316  0.32176235
   0.47755000  0.97755003  0.00000003
   0.14421658  0.64421660  0.16088121
   0.31088316  0.81088316  0.32176235
   0.97755003  0.47755000  0.00000003
   0.64421660  0.14421658  0.16088121
   0.81088316  0.81088316  0.32176235
   0.47755000  0.47755000  0.00000000
   0.14421657  0.14421657  0.16088118
   0.47754979  0.47754973  0.36198267
   0.14421669  0.14421661  0.04022033
   0.81088328  0.81088322  0.20110148
   0.97754979  0.47754967  0.36198267
   0.64421666  0.14421663  0.04022033
   0.31088328  0.81088322  0.20110148
   0.47754967  0.97754979  0.36198267
   0.14421663  0.64421666  0.04022033
   0.81088322  0.31088328  0.20110148
   0.97754967  0.97754979  0.36198264
   0.64421660  0.64421666  0.04022033
   0.31088316  0.31088325  0.20110145
   0.56088316  0.56088316  0.32176238
   0.22755001  0.22755001  0.00000003
   0.89421660  0.89421660  0.16088118
   0.06088321  0.56088316  0.32176241
   0.72755003  0.22755005  0.00000003
   0.39421660  0.89421660  0.16088121
   0.56088316  0.06088318  0.32176235
   0.22755001  0.72754997  0.00000001
   0.89421654  0.39421660  0.16088118
   0.06088319  0.06088311  0.32176235
   0.72755003  0.72754991  0.00000002
   0.39421663  0.39421657  0.16088121
   0.72754979  0.72754979  0.36198264
   0.39421663  0.39421663  0.04022027
   0.06088319  0.06088319  0.20110145
   0.22754979  0.72754979  0.36198264
   0.89421660  0.39421663  0.04022029
   0.56088316  0.06088319  0.20110145
   0.72754979  0.22754985  0.36198264
   0.39421663  0.89421666  0.04022029
   0.06088320  0.56088328  0.20110145
   0.22754985  0.22754985  0.36198264
   0.89421672  0.89421666  0.04022028
   0.56088328  0.56088328  0.20110145
   0.31088316  0.56088316  0.32176235
   0.97755003  0.22755001  0.00000002
   0.64421654  0.89421660  0.16088121
   0.81088316  0.56088316  0.32176238
   0.47755003  0.22755001  0.00000003
   0.14421660  0.89421660  0.16088121
   0.31088316  0.06088318  0.32176235
   0.97755003  0.72754997  0.00000003
   0.64421660  0.39421660  0.16088121
   0.81088316  0.06088309  0.32176235
   0.47755000  0.72754991  0.00000002
   0.14421661  0.39421654  0.16088118
   0.47754979  0.72754979  0.36198264
   0.14421661  0.39421660  0.04022029
   0.81088316  0.06088319  0.20110145
   0.97754973  0.72754979  0.36198264
   0.64421660  0.39421663  0.04022029
   0.31088316  0.06088319  0.20110145
   0.47754973  0.22754985  0.36198261
   0.14421663  0.89421666  0.04022028
   0.81088316  0.56088328  0.20110145
   0.97754979  0.22754985  0.36198261
   0.64421666  0.89421666  0.04022027
   0.31088322  0.56088328  0.20110145
   0.56088311  0.31088316  0.32176235
   0.22755001  0.97755003  0.00000002
   0.89421660  0.64421660  0.16088121
   0.06088318  0.31088316  0.32176238
   0.72754997  0.97755003  0.00000003
   0.39421663  0.64421660  0.16088121
   0.56088316  0.81088316  0.32176238
   0.22755000  0.47755000  0.00000003
   0.89421660  0.14421658  0.16088121
   0.06088318  0.81088311  0.32176235
   0.72754997  0.47754994  0.00000001
   0.39421660  0.14421654  0.16088118
   0.72754979  0.47754985  0.36198267
   0.39421669  0.14421672  0.04022032
   0.06088328  0.81088334  0.20110148
   0.22754967  0.47754985  0.36198267
   0.89421666  0.14421673  0.04022032
   0.56088328  0.81088334  0.20110145
   0.72754979  0.97754985  0.36198264
   0.39421669  0.64421672  0.04022033
   0.06088328  0.31088337  0.20110148
   0.22754973  0.97754979  0.36198267
   0.89421666  0.64421666  0.04022032
   0.56088328  0.31088328  0.20110145
   0.97467339  0.89937109  0.84244823
   0.30800670  0.89937109  0.47340384
   0.64134002  0.89937109  0.65792602
   0.30800670  0.23270440  0.84244823
   0.64134008  0.23270440  0.47340384
   0.97467339  0.23270440  0.65792602
   0.64134008  0.56603777  0.84244823
   0.97467339  0.56603777  0.47340381
   0.30800670  0.56603777  0.65792602
   0.30800670  0.89937109  0.88857889
   0.64134002  0.89937109  0.51953441
   0.97467339  0.89937109  0.70405662
   0.64134008  0.23270440  0.88857889
   0.97467345  0.23270440  0.51953441
   0.30800682  0.23270440  0.70405662
   0.97467321  0.56603777  0.88857877
   0.30800670  0.56603777  0.51953435
   0.64134008  0.56603777  0.70405662
   0.14134002  0.06603777  0.84244823
   0.47467339  0.06603777  0.47340384
   0.80800670  0.06603777  0.65792602
   0.47467345  0.39937115  0.84244823
   0.80800664  0.39937103  0.47340384
   0.14134002  0.39937103  0.65792608
   0.80800670  0.73270440  0.84244823
   0.14134002  0.73270440  0.47340384
   0.47467345  0.73270440  0.65792602
   0.47467333  0.06603777  0.88857889
   0.80800670  0.06603777  0.51953435
   0.14134002  0.06603777  0.70405656
   0.80800659  0.39937115  0.88857889
   0.14134002  0.39937115  0.51953435
   0.47467321  0.39937115  0.70405650
   0.14134002  0.73270440  0.88857883
   0.47467333  0.73270440  0.51953429
   0.80800670  0.73270440  0.70405656
   0.47467345  0.89937109  0.84244823
   0.80800670  0.89937109  0.47340384
   0.14134002  0.89937109  0.65792602
   0.80800670  0.23270440  0.84244823
   0.14134002  0.23270440  0.47340384
   0.47467345  0.23270440  0.65792602
   0.14134002  0.56603777  0.84244823
   0.47467339  0.56603777  0.47340384
   0.80800670  0.56603777  0.65792602
   0.80800670  0.89937109  0.88857883
   0.14134002  0.89937109  0.51953435
   0.47467333  0.89937109  0.70405650
   0.14134002  0.23270440  0.88857889
   0.47467333  0.23270440  0.51953435
   0.80800664  0.23270440  0.70405656
   0.47467333  0.56603777  0.88857877
   0.80800670  0.56603777  0.51953429
   0.14134002  0.56603777  0.70405656
   0.64134008  0.06603777  0.84244823
   0.97467339  0.06603777  0.47340384
   0.30800670  0.06603777  0.65792602
   0.97467339  0.39937115  0.84244823
   0.30800670  0.39937103  0.47340384
   0.64134002  0.39937103  0.65792602
   0.30800670  0.73270440  0.84244829
   0.64134002  0.73270440  0.47340381
   0.97467333  0.73270440  0.65792602
   0.97467333  0.06603777  0.88857889
   0.30800670  0.06603777  0.51953435
   0.64133996  0.06603777  0.70405656
   0.30800670  0.39937103  0.88857889
   0.64134002  0.39937103  0.51953441
   0.97467339  0.39937103  0.70405662
   0.64133996  0.73270440  0.88857889
   0.97467333  0.73270440  0.51953441
   0.30800670  0.73270440  0.70405662
 
 position of ions in cartesian coordinates  (Angst):
   7.46244479  4.30844415  6.53306677
  23.46512462 13.54759664  0.00000051
  15.46378326  8.92802040  3.26653399
  15.46378183  4.30844415  6.53306677
  15.46378614 13.54759664  0.00000067
   7.46244598  8.92802040  3.26653399
  11.46311283 11.23780645  6.53306677
  19.46445538  6.61823393  0.00000063
  11.46311510  1.99865789  3.26653399
  19.46445083 11.23780645  6.53306677
  11.46311689  6.61823393  0.00000000
   3.46177650  1.99865768  3.26653340
  11.46311140  6.61823022  7.34970064
   3.46177876  1.99865831  0.81663410
  19.46445323 11.23780728  4.08316696
  19.46444893  6.61822938  7.34970064
  11.46311642  1.99865852  0.81663410
  11.46311523 11.23780728  4.08316696
  15.46377897 13.54759333  7.34970064
   7.46244718  8.92802123  0.81663410
  15.46378375  4.30844581  4.08316696
  23.46511698 13.54759333  7.34970006
  15.46378470  8.92802123  0.81663410
   7.46244455  4.30844540  4.08316635
  13.46344733  7.77312530  6.53306738
   5.46211375  3.15355299  0.00000071
  21.46478773 12.39270155  3.26653340
   5.46211011  7.77312530  6.53306799
  13.46345223  3.15355341  0.00000071
  13.46344972 12.39270155  3.26653399
   9.46277842  0.84376317  6.53306677
   9.46278239 10.08291466  0.00000024
  17.46411776  5.46333925  3.26653340
   1.46144027  0.84376218  6.53306677
  17.46412016 10.08291384  0.00000047
   9.46278096  5.46333883  3.26653399
  17.46411538 10.08291218  7.34970006
   9.46278144  5.46333966  0.81663282
   1.46144101  0.84376336  4.08316635
   9.46277737 10.08291218  7.34970006
  17.46411896  5.46333966  0.81663320
   9.46277853  0.84376336  4.08316635
  13.46344686  3.15355072  7.34970006
  13.46345068 12.39270238  0.81663320
   5.46211089  7.77312696  4.08316635
   5.46210981  3.15355072  7.34970006
  21.46479011 12.39270238  0.81663298
  13.46345021  7.77312696  4.08316635
   9.46277833  7.77312530  6.53306677
  17.46412100  3.15355299  0.00000041
  17.46411776 12.39270155  3.26653399
  17.46411633  7.77312530  6.53306738
   9.46278299  3.15355299  0.00000055
   9.46278072 12.39270155  3.26653399
   5.46210942  0.84376317  6.53306677
  21.46478964 10.08291466  0.00000055
  13.46344972  5.46333925  3.26653399
  13.46344674  0.84376198  6.53306677
  13.46345068 10.08291384  0.00000047
   5.46211148  5.46333842  3.26653340
  13.46344638 10.08291218  7.34970006
   5.46211196  5.46333925  0.81663320
  13.46344754  0.84376336  4.08316635
  21.46478344 10.08291218  7.34970006
  13.46344996  5.46333966  0.81663320
   5.46210953  0.84376336  4.08316635
   9.46277691  3.15355072  7.34969945
   9.46278168 12.39270238  0.81663298
  17.46411729  7.77312696  4.08316635
  17.46411586  3.15355072  7.34969945
  17.46412016 12.39270238  0.81663282
   9.46278025  7.77312696  4.08316635
  11.46311188  4.30844415  6.53306677
  11.46311737 13.54759664  0.00000045
  19.46445323  8.92802040  3.26653399
   3.46177513  4.30844415  6.53306738
  19.46445466 13.54759664  0.00000059
  11.46311570  8.92802040  3.26653399
  15.46378183 11.23780645  6.53306738
   7.46244789  6.61823393  0.00000063
  15.46378410  1.99865789  3.26653399
   7.46244359 11.23780563  6.53306677
  15.46378494  6.61823310  0.00000028
   7.46244574  1.99865727  3.26653340
  15.46378136  6.61823186  7.34970064
   7.46244859  1.99865975  0.81663379
   7.46244718 11.23780893  4.08316696
   7.46244145  6.61823186  7.34970064
  15.46378626  1.99865996  0.81663395
  15.46378518 11.23780893  4.08316635
  19.46445036 13.54759416  7.34970006
  11.46311760  8.92802205  0.81663410
   3.46177829  4.30844705  4.08316696
  11.46311093 13.54759333  7.34970064
  19.46445467  8.92802123  0.81663379
  11.46311571  4.30844581  4.08316635
  22.79355454 12.46413622 17.10507932
  12.12510356 12.46413622  9.61199741
  17.45932857 12.46413622 13.35853806
   6.79087806  3.22498621 17.10507932
  12.12510403  3.22498621  9.61199741
  17.45932904  3.22498621 13.35853806
  14.79221702  7.84456162 17.10507932
  20.12644203  7.84456162  9.61199680
   9.45799105  7.84456162 13.35853806
  12.12510356 12.46413622 18.04171675
  17.45932857 12.46413622 10.54863303
  22.79355454 12.46413622 14.29517429
  12.12510403  3.22498621 18.04171675
  17.45933000  3.22498621 10.54863303
   6.79087996  3.22498621 14.29517429
  20.12643918  7.84456162 18.04171434
   9.45799105  7.84456162 10.54863181
  14.79221702  7.84456162 14.29517429
   2.79020905  0.91519932 17.10507932
   8.12443502  0.91519932  9.61199741
  13.45866005  0.91519932 13.35853806
  10.79154897  5.53477474 17.10507932
  16.12577112  5.53477309  9.61199741
   5.45732108  5.53477309 13.35853928
  18.79288507 10.15434850 17.10507932
   8.12443407 10.15434850  9.61199741
  13.45866100 10.15434850 13.35853806
   8.12443408  0.91519932 18.04171675
  13.45866005  0.91519932 10.54863181
   2.79020905  0.91519932 14.29517307
  16.12577113  5.53477474 18.04171675
   5.45732204  5.53477474 10.54863181
  10.79154516  5.53477474 14.29517186
   8.12443407 10.15434850 18.04171553
  13.45865910 10.15434850 10.54863061
  18.79288507 10.15434850 14.29517307
  14.79221750 12.46413622 17.10507932
  20.12644157 12.46413622  9.61199741
   9.45799057 12.46413622 13.35853806
  14.79221607  3.22498621 17.10507932
   4.12376507  3.22498621  9.61199741
   9.45799200  3.22498621 13.35853806
   6.79087805  7.84456162 17.10507932
  12.12510402  7.84456162  9.61199741
  17.45932905  7.84456162 13.35853806
  20.12644157 12.46413622 18.04171553
   9.45799057 12.46413622 10.54863181
  14.79221559 12.46413622 14.29517186
   4.12376507  3.22498621 18.04171675
   9.45799009  3.22498621 10.54863181
  14.79221511  3.22498621 14.29517307
  12.12510308  7.84456162 18.04171434
  17.45932905  7.84456162 10.54863061
   6.79087805  7.84456162 14.29517307
  10.79154802  0.91519932 17.10507932
  16.12577303  0.91519932  9.61199741
   5.45732204  0.91519932 13.35853806
  18.79288601  5.53477474 17.10507932
   8.12443408  5.53477309  9.61199741
  13.45865909  5.53477309 13.35853806
  10.79154706 10.15434850 17.10508052
  16.12577207 10.15434850  9.61199680
  21.45999710 10.15434850 13.35853806
  16.12577208  0.91519932 18.04171675
   5.45732204  0.91519932 10.54863181
  10.79154611  0.91519932 14.29517307
   8.12443408  5.53477309 18.04171675
  13.45865909  5.53477309 10.54863303
  18.79288506  5.53477309 14.29517429
  16.12577113 10.15434850 18.04171675
  21.45999710 10.15434850 10.54863303
  10.79154706 10.15434850 14.29517429
 


--------------------------------------------------------------------------------------------------------


 k-point     1 :   0.0000 0.0000 0.0000  plane waves:  189411
 k-point     2 :   0.5000-0.0000 0.0000  plane waves:  189322
 k-point     3 :   0.5000 0.5000 0.0000  plane waves:  189322
 k-point     4 :   0.0000 0.5000 0.0000  plane waves:  189322
 k-point     5 :   0.0000 0.0000 0.5000  plane waves:  189472
 k-point     6 :   0.5000-0.0000 0.5000  plane waves:  189324
 k-point     7 :   0.5000 0.5000 0.5000  plane waves:  189324
 k-point     8 :   0.0000 0.5000 0.5000  plane waves:  189324

 maximum and minimum number of plane-waves per node :     11888    11777

 maximum number of plane-waves:    189472
 maximum index in each direction: 
   IXMAX=   34   IYMAX=   34   IZMAX=   43
   IXMIN=  -35   IYMIN=  -35   IZMIN=  -44


 real space projection operators:
  total allocation   :      70215.03 KBytes
  max/ min on nodes  :       4616.42       3837.23


 parallel 3D FFT for wavefunctions:
    minimum data exchange during FFTs selected (reduces bandwidth)
 parallel 3D FFT for charge:
    minimum data exchange during FFTs selected (reduces bandwidth)


 total amount of memory used by VASP MPI-rank0   425473. kBytes
=======================================================================

   base      :      30000. kBytes
   nonlr-proj:      22806. kBytes
   fftplans  :      34262. kBytes
   grid      :      27955. kBytes
   one-center:        178. kBytes
   wavefun   :     310272. kBytes
 
     INWAV:  cpu time      0.0001: real time      0.0003
 Broyden mixing: mesh for mixing (old mesh)
   NGX = 69   NGY = 69   NGZ = 87
  (NGX  =216   NGY  =216   NGZ  =280)
  gives a total of 414207 points

 initial charge density was supplied:
 charge density of overlapping atoms calculated
 number of electron     672.0000000 magnetization       1.0000000
 keeping initial charge density in first step


--------------------------------------------------------------------------------------------------------


 Maximum index for non-local projection operator          493
 Maximum index for augmentation-charges         5673 (set IRDMAX)


--------------------------------------------------------------------------------------------------------


 First call to EWALD:  gamma=   0.107
 Maximum number of real-space cells 3x 3x 2
 Maximum number of reciprocal cells 3x 3x 3

    FEWALD:  cpu time      0.0045: real time      0.0045


--------------------------------------- Ionic step        1  -------------------------------------------




--------------------------------------- Iteration      1(   1)  ---------------------------------------


    POTLOK:  cpu time      0.4179: real time      0.4212
    SETDIJ:  cpu time      2.5877: real time      2.6035
     EDDAV:  cpu time     76.5803: real time     77.2783
       DOS:  cpu time      0.0037: real time      0.0037
    --------------------------------------------
      LOOP:  cpu time     79.5897: real time     80.3068

 eigenvalue-minimisations  : 12928
 total energy-change (2. order) : 0.3390318E+04  (-0.2816922E+05)
 number of electron     672.0000000 magnetization       1.0000000
 augmentation part      672.0000000 magnetization       1.0000000

 Free energy of the ion-electron system (eV)
  ---------------------------------------------------
  alpha Z        PSCENC =      1020.59519491
  Ewald energy   TEWEN  =    -14123.76852000
  -Hartree energ DENC   =     -4354.26412612
  -exchange      EXHF   =         0.00000000
  -V(xc)+E(xc)   XCENC  =     -9235.83425191
  PAW double counting   =     22099.84193803   -11791.56227843
  entropy T*S    EENTRO =        -0.00188873
  eigenvalues    EBANDS =      2921.51376652
  atomic energy  EATOM  =     16853.79812076
  Solvation  Ediel_sol  =         0.00000000
  ---------------------------------------------------
  free energy    TOTEN  =      3390.31795504 eV

  energy without entropy =     3390.31984377  energy(sigma->0) =     3390.31889940


--------------------------------------------------------------------------------------------------------




--------------------------------------- Iteration      1(   2)  ---------------------------------------


     EDDAV:  cpu time     86.8093: real time     87.5836
       DOS:  cpu time      0.0040: real time      0.0040
    --------------------------------------------
      LOOP:  cpu time     86.8133: real time     87.5876

 eigenvalue-minimisations  : 15136
 total energy-change (2. order) :-0.3662710E+04  (-0.3540910E+04)
 number of electron     672.0000000 magnetization       1.0000000
 augmentation part      672.0000000 magnetization       1.0000000

 Free energy of the ion-electron system (eV)
  ---------------------------------------------------
  alpha Z        PSCENC =      1020.59519491
  Ewald energy   TEWEN  =    -14123.76852000
  -Hartree energ DENC   =     -4354.26412612
  -exchange      EXHF   =         0.00000000
  -V(xc)+E(xc)   XCENC  =     -9235.83425191
  PAW double counting   =     22099.84193803   -11791.56227843
  entropy T*S    EENTRO =        -0.00219873
  eigenvalues    EBANDS =      -741.19558318
  atomic energy  EATOM  =     16853.79812076
  Solvation  Ediel_sol  =         0.00000000
  ---------------------------------------------------
  free energy    TOTEN  =      -272.39170467 eV

  energy without entropy =     -272.38950594  energy(sigma->0) =     -272.39060530


--------------------------------------------------------------------------------------------------------




--------------------------------------- Iteration      1(   3)  ---------------------------------------


     EDDAV:  cpu time     90.4448: real time     91.2657
       DOS:  cpu time      0.0029: real time      0.0029
    --------------------------------------------
      LOOP:  cpu time     90.4477: real time     91.2686

 eigenvalue-minimisations  : 15928
 total energy-change (2. order) :-0.4033471E+03  (-0.3911895E+03)
 number of electron     672.0000000 magnetization       1.0000000
 augmentation part      672.0000000 magnetization       1.0000000

 Free energy of the ion-electron system (eV)
  ---------------------------------------------------
  alpha Z        PSCENC =      1020.59519491
  Ewald energy   TEWEN  =    -14123.76852000
  -Hartree energ DENC   =     -4354.26412612
  -exchange      EXHF   =         0.00000000
  -V(xc)+E(xc)   XCENC  =     -9235.83425191
  PAW double counting   =     22099.84193803   -11791.56227843
  entropy T*S    EENTRO =        -0.00260954
  eigenvalues    EBANDS =     -1144.54228810
  atomic energy  EATOM  =     16853.79812076
  Solvation  Ediel_sol  =         0.00000000
  ---------------------------------------------------
  free energy    TOTEN  =      -675.73882039 eV

  energy without entropy =     -675.73621085  energy(sigma->0) =     -675.73751562


--------------------------------------------------------------------------------------------------------




--------------------------------------- Iteration      1(   4)  ---------------------------------------


     EDDAV:  cpu time     88.8672: real time     89.6620
       DOS:  cpu time      0.0047: real time      0.0048
    --------------------------------------------
      LOOP:  cpu time     88.8720: real time     89.6668

 eigenvalue-minimisations  : 15608
 total energy-change (2. order) :-0.1671684E+02  (-0.1637631E+02)
 number of electron     672.0000000 magnetization       1.0000000
 augmentation part      672.0000000 magnetization       1.0000000

 Free energy of the ion-electron system (eV)
  ---------------------------------------------------
  alpha Z        PSCENC =      1020.59519491
  Ewald energy   TEWEN  =    -14123.76852000
  -Hartree energ DENC   =     -4354.26412612
  -exchange      EXHF   =         0.00000000
  -V(xc)+E(xc)   XCENC  =     -9235.83425191
  PAW double counting   =     22099.84193803   -11791.56227843
  entropy T*S    EENTRO =        -0.00301247
  eigenvalues    EBANDS =     -1161.25872790
  atomic energy  EATOM  =     16853.79812076
  Solvation  Ediel_sol  =         0.00000000
  ---------------------------------------------------
  free energy    TOTEN  =      -692.45566312 eV

  energy without entropy =     -692.45265065  energy(sigma->0) =     -692.45415689


--------------------------------------------------------------------------------------------------------




--------------------------------------- Iteration      1(   5)  ---------------------------------------


     EDDAV:  cpu time     95.5893: real time     96.4501
       DOS:  cpu time      0.0036: real time      0.0036
    CHARGE:  cpu time      4.5478: real time      4.5903
    MIXING:  cpu time      0.0207: real time      0.0208
    --------------------------------------------
      LOOP:  cpu time    100.1613: real time    101.0648

 eigenvalue-minimisations  : 17064
 total energy-change (2. order) :-0.7043088E+00  (-0.6991027E+00)
 number of electron     671.9999994 magnetization       1.0000000
 augmentation part     -141.2932711 magnetization      -0.1368920

 Broyden mixing:
  rms(total) = 0.28353E+01    rms(broyden)= 0.28353E+01
  rms(prec ) = 0.30390E+01
  weight for this iteration     100.00

 Free energy of the ion-electron system (eV)
  ---------------------------------------------------
  alpha Z        PSCENC =      1020.59519491
  Ewald energy   TEWEN  =    -14123.76852000
  -Hartree energ DENC   =     -4354.26412612
  -exchange      EXHF   =         0.00000000
  -V(xc)+E(xc)   XCENC  =     -9235.83425191
  PAW double counting   =     22099.84193803   -11791.56227843
  entropy T*S    EENTRO =        -0.00292409
  eigenvalues    EBANDS =     -1161.96312504
  atomic energy  EATOM  =     16853.79812076
  Solvation  Ediel_sol  =         0.00000000
  ---------------------------------------------------
  free energy    TOTEN  =      -693.15997188 eV

  energy without entropy =     -693.15704779  energy(sigma->0) =     -693.15850983


--------------------------------------------------------------------------------------------------------




--------------------------------------- Iteration      1(   6)  ---------------------------------------


    POTLOK:  cpu time      0.3974: real time      0.4011
    SETDIJ:  cpu time      2.5941: real time      2.6103
     EDDAV:  cpu time    107.5539: real time    108.5989
       DOS:  cpu time      0.0045: real time      0.0045
    CHARGE:  cpu time      4.6755: real time      4.7220
    MIXING:  cpu time      0.0123: real time      0.0124
    --------------------------------------------
      LOOP:  cpu time    115.2377: real time    116.3492

 eigenvalue-minimisations  : 19672
 total energy-change (2. order) : 0.8653578E+01  (-0.1742060E+01)
 number of electron     671.9999994 magnetization       1.0000000
 augmentation part     -141.4030041 magnetization      -0.1106205

 Broyden mixing:
  rms(total) = 0.13935E+01    rms(broyden)= 0.13935E+01
  rms(prec ) = 0.15353E+01
  weight for this iteration     100.00

 eigenvalues of (default mixing * dielectric matrix)
  average eigenvalue GAMMA=   1.7613
  1.7613

 Free energy of the ion-electron system (eV)
  ---------------------------------------------------
  alpha Z        PSCENC =      1020.59519491
  Ewald energy   TEWEN  =    -14123.76852000
  -Hartree energ DENC   =     -4520.14081327
  -exchange      EXHF   =         0.00000000
  -V(xc)+E(xc)   XCENC  =     -9208.49559639
  PAW double counting   =     31281.37605563   -20994.46275084
  entropy T*S    EENTRO =        -0.00601615
  eigenvalues    EBANDS =      -993.40206829
  atomic energy  EATOM  =     16853.79812076
  Solvation  Ediel_sol  =         0.00000000
  ---------------------------------------------------
  free energy    TOTEN  =      -684.50639364 eV

  energy without entropy =     -684.50037749  energy(sigma->0) =     -684.50338557


--------------------------------------------------------------------------------------------------------




--------------------------------------- Iteration      1(   7)  ---------------------------------------


    POTLOK:  cpu time      0.4016: real time      0.4057
    SETDIJ:  cpu time      2.5930: real time      2.6090
     EDDAV:  cpu time     93.1066: real time     93.9701
       DOS:  cpu time      0.0057: real time      0.0057
    CHARGE:  cpu time      4.5774: real time      4.6260
    MIXING:  cpu time      0.0175: real time      0.0176
    --------------------------------------------
      LOOP:  cpu time    100.7018: real time    101.6342

 eigenvalue-minimisations  : 16528
 total energy-change (2. order) :-0.5405655E+00  (-0.1997854E+01)
 number of electron     671.9999994 magnetization       1.0000000
 augmentation part     -140.5280021 magnetization      -0.1595813

 Broyden mixing:
  rms(total) = 0.59408E+00    rms(broyden)= 0.59408E+00
  rms(prec ) = 0.96159E+00
  weight for this iteration     100.00

 eigenvalues of (default mixing * dielectric matrix)
  average eigenvalue GAMMA=   1.1999
  1.8721  0.5278

 Free energy of the ion-electron system (eV)
  ---------------------------------------------------
  alpha Z        PSCENC =      1020.59519491
  Ewald energy   TEWEN  =    -14123.76852000
  -Hartree energ DENC   =     -4543.53216469
  -exchange      EXHF   =         0.00000000
  -V(xc)+E(xc)   XCENC  =     -9191.47280632
  PAW double counting   =     38771.08315719   -28498.54193843
  entropy T*S    EENTRO =        -0.00147647
  eigenvalues    EBANDS =      -973.20652608
  atomic energy  EATOM  =     16853.79812076
  Solvation  Ediel_sol  =         0.00000000
  ---------------------------------------------------
  free energy    TOTEN  =      -685.04695914 eV

  energy without entropy =     -685.04548267  energy(sigma->0) =     -685.04622090


--------------------------------------------------------------------------------------------------------




--------------------------------------- Iteration      1(   8)  ---------------------------------------


    POTLOK:  cpu time      0.3996: real time      0.4026
    SETDIJ:  cpu time      2.5938: real time      2.6096
     EDDAV:  cpu time     91.9843: real time     92.8096
       DOS:  cpu time      0.0038: real time      0.0038
    CHARGE:  cpu time      4.5821: real time      4.6267
    MIXING:  cpu time      0.0108: real time      0.0108
    --------------------------------------------
      LOOP:  cpu time     99.5743: real time    100.4631

 eigenvalue-minimisations  : 16272
 total energy-change (2. order) : 0.1817986E+01  (-0.6833369E+00)
 number of electron     671.9999994 magnetization       1.0000000
 augmentation part     -140.3420894 magnetization      -0.1259280

 Broyden mixing:
  rms(total) = 0.17083E+00    rms(broyden)= 0.17083E+00
  rms(prec ) = 0.25518E+00
  weight for this iteration     100.00

 eigenvalues of (default mixing * dielectric matrix)
  average eigenvalue GAMMA=   1.0530
  1.8782  0.6404  0.6404

 Free energy of the ion-electron system (eV)
  ---------------------------------------------------
  alpha Z        PSCENC =      1020.59519491
  Ewald energy   TEWEN  =    -14123.76852000
  -Hartree energ DENC   =     -4583.37681900
  -exchange      EXHF   =         0.00000000
  -V(xc)+E(xc)   XCENC  =     -9184.77001096
  PAW double counting   =     42410.72653009   -32143.61898605
  entropy T*S    EENTRO =        -0.00408229
  eigenvalues    EBANDS =      -932.81040038
  atomic energy  EATOM  =     16853.79812076
  Solvation  Ediel_sol  =         0.00000000
  ---------------------------------------------------
  free energy    TOTEN  =      -683.22897292 eV

  energy without entropy =     -683.22489063  energy(sigma->0) =     -683.22693177


--------------------------------------------------------------------------------------------------------




--------------------------------------- Iteration      1(   9)  ---------------------------------------


    POTLOK:  cpu time      0.3981: real time      0.4013
    SETDIJ:  cpu time      2.5945: real time      2.6128
     EDDAV:  cpu time     88.3723: real time     89.2878
       DOS:  cpu time      0.0036: real time      0.0036
    CHARGE:  cpu time      4.5712: real time      4.6244
    MIXING:  cpu time      0.0108: real time      0.0109
    --------------------------------------------
      LOOP:  cpu time     95.9505: real time     96.9408

 eigenvalue-minimisations  : 15504
 total energy-change (2. order) :-0.3642001E-01  (-0.1963128E+00)
 number of electron     671.9999994 magnetization       1.0000000
 augmentation part     -140.2668129 magnetization      -0.1128632

 Broyden mixing:
  rms(total) = 0.10790E+00    rms(broyden)= 0.10790E+00
  rms(prec ) = 0.12003E+00
  weight for this iteration     100.00

 eigenvalues of (default mixing * dielectric matrix)
  average eigenvalue GAMMA=   1.0930
  1.7839  1.5037  0.5423  0.5423

 Free energy of the ion-electron system (eV)
  ---------------------------------------------------
  alpha Z        PSCENC =      1020.59519491
  Ewald energy   TEWEN  =    -14123.76852000
  -Hartree energ DENC   =     -4590.05459583
  -exchange      EXHF   =         0.00000000
  -V(xc)+E(xc)   XCENC  =     -9184.41083837
  PAW double counting   =     42955.51147965   -32688.83798827
  entropy T*S    EENTRO =        -0.00378361
  eigenvalues    EBANDS =      -926.09446217
  atomic energy  EATOM  =     16853.79812076
  Solvation  Ediel_sol  =         0.00000000
  ---------------------------------------------------
  free energy    TOTEN  =      -683.26539293 eV

  energy without entropy =     -683.26160931  energy(sigma->0) =     -683.26350112


--------------------------------------------------------------------------------------------------------




--------------------------------------- Iteration      1(  10)  ---------------------------------------


    POTLOK:  cpu time      0.3943: real time      0.3992
    SETDIJ:  cpu time      2.5921: real time      2.6088
     EDDAV:  cpu time     87.6571: real time     88.4925
       DOS:  cpu time      0.0031: real time      0.0031
    CHARGE:  cpu time      4.5796: real time      4.6276
    MIXING:  cpu time      0.0117: real time      0.0118
    --------------------------------------------
      LOOP:  cpu time     95.2379: real time     96.1431

 eigenvalue-minimisations  : 15344
 total energy-change (2. order) :-0.3499348E-02  (-0.3789718E-01)
 number of electron     671.9999994 magnetization       1.0000000
 augmentation part     -140.2849265 magnetization      -0.1138866

 Broyden mixing:
  rms(total) = 0.53892E-01    rms(broyden)= 0.53892E-01
  rms(prec ) = 0.59295E-01
  weight for this iteration     100.00

 eigenvalues of (default mixing * dielectric matrix)
  average eigenvalue GAMMA=   1.1069
  1.8721  1.8721  0.6136  0.6136  0.5633

 Free energy of the ion-electron system (eV)
  ---------------------------------------------------
  alpha Z        PSCENC =      1020.59519491
  Ewald energy   TEWEN  =    -14123.76852000
  -Hartree energ DENC   =     -4584.58808182
  -exchange      EXHF   =         0.00000000
  -V(xc)+E(xc)   XCENC  =     -9184.89896136
  PAW double counting   =     43071.86217853   -32804.98632726
  entropy T*S    EENTRO =        -0.00414034
  eigenvalues    EBANDS =      -931.27835569
  atomic energy  EATOM  =     16853.79812076
  Solvation  Ediel_sol  =         0.00000000
  ---------------------------------------------------
  free energy    TOTEN  =      -683.26889228 eV

  energy without entropy =     -683.26475194  energy(sigma->0) =     -683.26682211


--------------------------------------------------------------------------------------------------------




--------------------------------------- Iteration      1(  11)  ---------------------------------------


    POTLOK:  cpu time      0.4030: real time      0.4061
    SETDIJ:  cpu time      2.5956: real time      2.6121
     EDDAV:  cpu time     87.9316: real time     88.7870
       DOS:  cpu time      0.0040: real time      0.0041
    CHARGE:  cpu time      4.5228: real time      4.5688
    MIXING:  cpu time      0.0150: real time      0.0151
    --------------------------------------------
      LOOP:  cpu time     95.4721: real time     96.3933

 eigenvalue-minimisations  : 15416
 total energy-change (2. order) :-0.1553468E-02  (-0.5132781E-02)
 number of electron     671.9999994 magnetization       1.0000000
 augmentation part     -140.2975488 magnetization      -0.1136237

 Broyden mixing:
  rms(total) = 0.27558E-01    rms(broyden)= 0.27558E-01
  rms(prec ) = 0.29390E-01
  weight for this iteration     100.00

 eigenvalues of (default mixing * dielectric matrix)
  average eigenvalue GAMMA=   1.0388
  1.8427  1.8427  0.6694  0.6694  0.5425  0.6663

 Free energy of the ion-electron system (eV)
  ---------------------------------------------------
  alpha Z        PSCENC =      1020.59519491
  Ewald energy   TEWEN  =    -14123.76852000
  -Hartree energ DENC   =     -4580.73771042
  -exchange      EXHF   =         0.00000000
  -V(xc)+E(xc)   XCENC  =     -9185.09990067
  PAW double counting   =     43215.53224752   -32948.58781743
  entropy T*S    EENTRO =        -0.00376969
  eigenvalues    EBANDS =      -934.99829072
  atomic energy  EATOM  =     16853.79812076
  Solvation  Ediel_sol  =         0.00000000
  ---------------------------------------------------
  free energy    TOTEN  =      -683.27044574 eV

  energy without entropy =     -683.26667606  energy(sigma->0) =     -683.26856090


--------------------------------------------------------------------------------------------------------




--------------------------------------- Iteration      1(  12)  ---------------------------------------


    POTLOK:  cpu time      0.3983: real time      0.4018
    SETDIJ:  cpu time      2.5948: real time      2.6103
     EDDAV:  cpu time     84.2458: real time     85.0502
       DOS:  cpu time      0.0092: real time      0.0093
    CHARGE:  cpu time      4.5071: real time      4.5557
    MIXING:  cpu time      0.0156: real time      0.0157
    --------------------------------------------
      LOOP:  cpu time     91.7709: real time     92.6429

 eigenvalue-minimisations  : 14592
 total energy-change (2. order) : 0.3594557E-03  (-0.1040154E-02)
 number of electron     671.9999994 magnetization       1.0000000
 augmentation part     -140.2960819 magnetization      -0.1175054

 Broyden mixing:
  rms(total) = 0.17639E-01    rms(broyden)= 0.17639E-01
  rms(prec ) = 0.17997E-01
  weight for this iteration     100.00

 eigenvalues of (default mixing * dielectric matrix)
  average eigenvalue GAMMA=   1.0090
  1.8892  1.7324  0.8623  0.8623  0.6218  0.5959  0.4991

 Free energy of the ion-electron system (eV)
[...]
   0.286E-01 0.983E-01 -.793E+02   0.519E-02 -.698E-01 0.792E+02   -.116E-01 -.188E-01 0.562E+00   0.494E-05 -.208E-07 -.445E-05
   -.435E-01 0.525E-01 0.122E+02   -.262E-02 -.581E-02 -.119E+02   -.213E-01 -.137E+00 -.608E+00   0.573E-06 0.660E-05 0.496E-04
   0.453E+01 -.126E+01 0.971E+02   -.453E+01 0.130E+01 -.974E+02   -.126E+00 0.258E-01 -.187E+00   -.150E-04 -.198E-06 0.325E-04
   0.457E-02 -.153E+00 -.811E+02   -.740E-02 0.113E+00 0.820E+02   0.302E-02 0.721E-01 -.168E+01   -.102E-05 -.222E-05 -.143E-04
   -.408E-01 -.403E-01 0.122E+02   0.619E-02 0.134E-02 -.119E+02   0.159E+00 0.284E-01 -.605E+00   -.526E-05 -.634E-06 0.635E-04
   -.281E+01 -.315E+01 0.968E+02   0.289E+01 0.314E+01 -.972E+02   0.782E-01 0.468E-01 0.157E-01   -.465E-05 -.216E-04 0.120E-04
   -.143E-01 0.880E-01 -.798E+02   0.156E-02 -.336E-01 0.798E+02   -.665E-02 -.366E-01 0.621E+00   -.581E-05 0.517E-05 -.266E-05
   0.867E-01 -.182E-01 0.123E+02   -.354E-02 0.447E-02 -.119E+02   -.128E+00 0.130E+00 -.613E+00   0.300E-05 -.728E-05 0.517E-04
   0.101E+01 -.139E+01 0.799E+02   -.541E+00 0.583E+00 -.802E+02   -.381E+00 0.666E+00 0.150E+00   -.685E-05 0.200E-04 0.524E-04
   -.156E+01 -.484E+01 -.966E+02   0.106E+01 0.428E+01 0.971E+02   0.161E+00 0.156E+00 0.121E-01   -.657E-05 -.910E-05 -.894E-05
   -.168E-01 -.441E-02 -.126E+02   -.235E-05 -.290E-03 0.119E+02   0.276E-01 0.173E-02 0.817E+00   0.939E-06 0.160E-05 0.398E-04
   0.828E+00 0.173E+01 0.800E+02   -.309E+00 -.827E+00 -.804E+02   -.455E+00 -.768E+00 0.260E+00   -.435E-05 -.209E-04 0.493E-04
   -.358E+01 0.428E+01 -.978E+02   0.335E+01 -.362E+01 0.981E+02   0.119E+00 -.296E+00 0.444E+00   0.128E-05 -.225E-05 -.133E-04
   0.133E-01 0.278E-03 -.124E+02   0.584E-04 -.421E-03 0.118E+02   -.125E-01 -.330E-03 0.729E+00   -.174E-05 -.305E-05 0.417E-04
   -.186E+01 -.229E+00 0.799E+02   0.849E+00 0.239E+00 -.803E+02   0.849E+00 0.110E-01 0.198E+00   -.304E-05 0.165E-06 0.290E-04
   0.513E+01 0.620E+00 -.972E+02   -.439E+01 -.751E+00 0.977E+02   -.253E+00 0.523E-01 0.155E+00   -.584E-05 0.424E-05 -.134E-04
   -.177E-02 0.433E-01 -.115E+02   -.231E-04 0.820E-03 0.119E+02   0.824E-02 -.408E-01 0.118E+00   -.566E-06 0.192E-05 0.465E-04
   -.281E+01 -.315E+01 0.968E+02   0.289E+01 0.314E+01 -.972E+02   0.782E-01 0.468E-01 0.157E-01   0.893E-05 0.287E-04 0.306E-04
   -.143E-01 0.880E-01 -.798E+02   0.156E-02 -.336E-01 0.798E+02   -.665E-02 -.366E-01 0.621E+00   0.380E-05 -.508E-05 -.692E-05
   0.867E-01 -.182E-01 0.123E+02   -.352E-02 0.445E-02 -.119E+02   -.128E+00 0.130E+00 -.613E+00   0.421E-06 0.252E-05 0.580E-04
   -.175E+01 0.456E+01 0.979E+02   0.165E+01 -.452E+01 -.982E+02   0.989E-01 -.225E+00 -.402E+00   0.103E-04 -.311E-04 0.303E-04
   0.286E-01 0.983E-01 -.793E+02   0.520E-02 -.698E-01 0.792E+02   -.116E-01 -.188E-01 0.562E+00   -.287E-05 0.143E-05 -.380E-05
   -.435E-01 0.525E-01 0.122E+02   -.263E-02 -.581E-02 -.119E+02   -.213E-01 -.137E+00 -.608E+00   0.105E-05 -.168E-05 0.618E-04
   0.453E+01 -.126E+01 0.971E+02   -.453E+01 0.130E+01 -.974E+02   -.126E+00 0.258E-01 -.187E+00   0.623E-05 0.300E-05 0.842E-05
   0.458E-02 -.153E+00 -.811E+02   -.741E-02 0.113E+00 0.820E+02   0.302E-02 0.721E-01 -.168E+01   -.819E-06 0.373E-05 -.418E-05
   -.408E-01 -.404E-01 0.122E+02   0.618E-02 0.136E-02 -.119E+02   0.159E+00 0.284E-01 -.605E+00   0.389E-06 0.253E-06 0.474E-04
 -----------------------------------------------------------------------------------------------
   -.130E+00 0.968E+00 -.584E+01   0.542E-13 -.696E-13 -.776E-12   -.450E+00 -.106E+01 0.605E+01   -.525E-06 0.216E-05 -.104E-02
 
 
 POSITION                                       TOTAL-FORCE (eV/Angst)
 -----------------------------------------------------------------------------------
      7.46244      4.30844      6.53307        -0.077196      0.184479     -0.316162
     23.46512     13.54760      0.00000         0.224194      0.157641      0.229267
     15.46378      8.92802      3.26653        -0.060619     -0.268658      0.145634
     15.46378      4.30844      6.53307        -0.077196      0.184479     -0.316162
     15.46379     13.54760      0.00000         0.224194      0.157641      0.229267
      7.46245      8.92802      3.26653        -0.060619     -0.268658      0.145634
     11.46311     11.23781      6.53307        -0.077196      0.184479     -0.316162
     19.46446      6.61823      0.00000         0.224194      0.157641      0.229267
     11.46312      1.99866      3.26653        -0.060619     -0.268658      0.145634
     19.46445     11.23781      6.53307        -0.077196      0.184479     -0.316162
     11.46312      6.61823      0.00000         0.224194      0.157641      0.229267
      3.46178      1.99866      3.26653        -0.060619     -0.268658      0.145634
     11.46311      6.61823      7.34970        -0.056080      0.313148     -0.089014
      3.46178      1.99866      0.81663         0.010717      0.182957      0.420988
     19.46445     11.23781      4.08317        -0.075530     -0.277801     -0.205603
     19.46445      6.61823      7.34970        -0.056080      0.313148     -0.089014
     11.46312      1.99866      0.81663         0.010717      0.182957      0.420988
     11.46312     11.23781      4.08317        -0.075530     -0.277801     -0.205603
     15.46378     13.54759      7.34970        -0.056080      0.313148     -0.089014
      7.46245      8.92802      0.81663         0.010717      0.182957      0.420988
     15.46378      4.30845      4.08317        -0.075530     -0.277801     -0.205603
     23.46512     13.54759      7.34970        -0.056080      0.313148     -0.089014
     15.46378      8.92802      0.81663         0.010717      0.182957      0.420988
      7.46244      4.30845      4.08317        -0.075530     -0.277801     -0.205603
     13.46345      7.77313      6.53307        -0.154651     -0.152280     -0.354044
      5.46211      3.15355      0.00000        -0.269928      0.109620      0.357537
     21.46479     12.39270      3.26653         0.274391      0.077509      0.166458
      5.46211      7.77313      6.53307        -0.154651     -0.152280     -0.354044
     13.46345      3.15355      0.00000        -0.269928      0.109620      0.357537
     13.46345     12.39270      3.26653         0.274391      0.077509      0.166458
      9.46278      0.84376      6.53307        -0.154651     -0.152280     -0.354044
      9.46278     10.08291      0.00000        -0.269928      0.109620      0.357537
     17.46412      5.46334      3.26653         0.274391      0.077509      0.166458
      1.46144      0.84376      6.53307        -0.154651     -0.152280     -0.354044
     17.46412     10.08291      0.00000        -0.269928      0.109620      0.357537
      9.46278      5.46334      3.26653         0.274391      0.077509      0.166458
     17.46412     10.08291      7.34970        -0.149781     -0.182328     -0.220024
      9.46278      5.46334      0.81663        -0.162896     -0.080626      0.434730
      1.46144      0.84376      4.08317         0.261058      0.056161     -0.194195
      9.46278     10.08291      7.34970        -0.149781     -0.182328     -0.220024
     17.46412      5.46334      0.81663        -0.162896     -0.080626      0.434730
      9.46278      0.84376      4.08317         0.261058      0.056161     -0.194195
     13.46345      3.15355      7.34970        -0.149781     -0.182328     -0.220024
     13.46345     12.39270      0.81663        -0.162896     -0.080626      0.434730
      5.46211      7.77313      4.08317         0.261058      0.056161     -0.194195
      5.46211      3.15355      7.34970        -0.149781     -0.182328     -0.220024
     21.46479     12.39270      0.81663        -0.162896     -0.080626      0.434730
     13.46345      7.77313      4.08317         0.261058      0.056161     -0.194195
      9.46278      7.77313      6.53307        -0.025724     -0.012132     -0.235876
     17.46412      3.15355      0.00000         0.005771     -0.026669     -0.984146
     17.46412     12.39270      3.26653        -0.002433      0.013215      0.120204
     17.46412      7.77313      6.53307        -0.025724     -0.012132     -0.235876
      9.46278      3.15355      0.00000         0.005771     -0.026669     -0.984146
      9.46278     12.39270      3.26653        -0.002433      0.013215      0.120204
      5.46211      0.84376      6.53307        -0.025724     -0.012132     -0.235876
     21.46479     10.08291      0.00000         0.005771     -0.026669     -0.984146
     13.46345      5.46334      3.26653        -0.002433      0.013215      0.120204
     13.46345      0.84376      6.53307        -0.025724     -0.012132     -0.235876
     13.46345     10.08291      0.00000         0.005771     -0.026669     -0.984146
      5.46211      5.46334      3.26653        -0.002433      0.013215      0.120204
     13.46345     10.08291      7.34970        -0.014337     -0.033597      0.395621
      5.46211      5.46334      0.81663         0.025670      0.003236      0.084996
     13.46345      0.84376      4.08317        -0.012360     -0.000435      0.014085
     21.46478     10.08291      7.34970        -0.014337     -0.033597      0.395621
     13.46345      5.46334      0.81663         0.025670      0.003236      0.084996
      5.46211      0.84376      4.08317        -0.012360     -0.000435      0.014085
      9.46278      3.15355      7.34970        -0.014337     -0.033597      0.395621
      9.46278     12.39270      0.81663         0.025670      0.003236      0.084996
     17.46412      7.77313      4.08317        -0.012360     -0.000435      0.014085
     17.46412      3.15355      7.34970        -0.014337     -0.033597      0.395621
     17.46412     12.39270      0.81663         0.025670      0.003236      0.084996
      9.46278      7.77313      4.08317        -0.012360     -0.000435      0.014085
     11.46311      4.30844      6.53307         0.178976     -0.065179     -0.373868
     11.46312     13.54760      0.00000        -0.043025     -0.180176      0.536844
     19.46445      8.92802      3.26653        -0.209325      0.185870      0.166557
      3.46178      4.30844      6.53307         0.178976     -0.065179     -0.373868
     19.46445     13.54760      0.00000        -0.043025     -0.180176      0.536844
     11.46312      8.92802      3.26653        -0.209325      0.185870      0.166557
     15.46378     11.23781      6.53307         0.178976     -0.065179     -0.373868
      7.46245      6.61823      0.00000        -0.043025     -0.180176      0.536844
     15.46378      1.99866      3.26653        -0.209325      0.185870      0.166557
      7.46244     11.23781      6.53307         0.178976     -0.065179     -0.373868
     15.46378      6.61823      0.00000        -0.043025     -0.180176      0.536844
      7.46245      1.99866      3.26653        -0.209325      0.185870      0.166557
     15.46378      6.61823      7.34970         0.219001     -0.001906     -0.432348
      7.46245      1.99866      0.81663         0.173130     -0.077735      0.455965
      7.46245     11.23781      4.08317        -0.220714      0.191262     -0.215036
      7.46244      6.61823      7.34970         0.219001     -0.001906     -0.432348
     15.46379      1.99866      0.81663         0.173130     -0.077735      0.455965
     15.46379     11.23781      4.08317        -0.220714      0.191262     -0.215036
     19.46445     13.54759      7.34970         0.219001     -0.001906     -0.432348
     11.46312      8.92802      0.81663         0.173130     -0.077735      0.455965
      3.46178      4.30845      4.08317        -0.220714      0.191262     -0.215036
     11.46311     13.54759      7.34970         0.219001     -0.001906     -0.432348
     19.46445      8.92802      0.81663         0.173130     -0.077735      0.455965
     11.46312      4.30845      4.08317        -0.220714      0.191262     -0.215036
     22.79355     12.46414     17.10508         0.068154      0.134873     -0.150925
     12.12510     12.46414      9.61200        -0.108853      0.371937      0.762277
     17.45933     12.46414     13.35854         0.004330      0.000096      0.152642
      6.79088      3.22499     17.10508        -0.160906      0.022355     -0.172934
     12.12510      3.22499      9.61200         0.490294     -0.077720      0.602786
     17.45933      3.22499     13.35854         0.009892      0.003896      0.472646
     14.79222      7.84456     17.10508         0.093368     -0.140842     -0.206736
     20.12644      7.84456      9.61200        -0.334021     -0.409531      0.437676
      9.45799      7.84456     13.35854         0.014232     -0.002387      0.113433
     12.12510     12.46414     18.04172         0.002168     -0.189014     -0.734008
     17.45933     12.46414     10.54863         0.025694      0.010236      0.497288
     22.79355     12.46414     14.29517        -0.063931     -0.089306     -0.219829
     12.12510      3.22499     18.04172        -0.116002      0.057740     -0.512275
     17.45933      3.22499     10.54863         0.003640      0.032759     -0.774367
      6.79088      3.22499     14.29517         0.127585     -0.010072     -0.213103
     20.12644      7.84456     18.04171         0.162983      0.033881     -0.414175
      9.45799      7.84456     10.54863        -0.015908      0.018338      0.649446
     14.79222      7.84456     14.29517        -0.041027      0.117185     -0.198412
      2.79021      0.91520     17.10508         0.093368     -0.140842     -0.206736
      8.12444      0.91520      9.61200        -0.334021     -0.409531      0.437676
     13.45866      0.91520     13.35854         0.014232     -0.002387      0.113433
     10.79155      5.53477     17.10508         0.068154      0.134873     -0.150925
     16.12577      5.53477      9.61200        -0.108853      0.371937      0.762277
      5.45732      5.53477     13.35854         0.004330      0.000096      0.152642
     18.79289     10.15435     17.10508        -0.160906      0.022355     -0.172934
      8.12443     10.15435      9.61200         0.490294     -0.077720      0.602786
     13.45866     10.15435     13.35854         0.009892      0.003896      0.472646
      8.12443      0.91520     18.04172         0.162983      0.033881     -0.414175
     13.45866      0.91520     10.54863        -0.015908      0.018338      0.649446
      2.79021      0.91520     14.29517        -0.041027      0.117185     -0.198412
     16.12577      5.53477     18.04172         0.002168     -0.189014     -0.734008
      5.45732      5.53477     10.54863         0.025694      0.010236      0.497288
     10.79155      5.53477     14.29517        -0.063931     -0.089306     -0.219829
      8.12443     10.15435     18.04172        -0.116002      0.057740     -0.512275
     13.45866     10.15435     10.54863         0.003640      0.032759     -0.774367
     18.79289     10.15435     14.29517         0.127585     -0.010072     -0.213103
     14.79222     12.46414     17.10508         0.068154      0.134873     -0.150925
     20.12644     12.46414      9.61200        -0.108853      0.371937      0.762277
      9.45799     12.46414     13.35854         0.004330      0.000096      0.152642
     14.79222      3.22499     17.10508        -0.160906      0.022355     -0.172934
      4.12377      3.22499      9.61200         0.490294     -0.077720      0.602786
      9.45799      3.22499     13.35854         0.009892      0.003896      0.472646
      6.79088      7.84456     17.10508         0.093368     -0.140842     -0.206736
     12.12510      7.84456      9.61200        -0.334021     -0.409531      0.437676
     17.45933      7.84456     13.35854         0.014232     -0.002387      0.113433
     20.12644     12.46414     18.04172         0.002168     -0.189014     -0.734008
      9.45799     12.46414     10.54863         0.025694      0.010236      0.497288
     14.79222     12.46414     14.29517        -0.063931     -0.089306     -0.219829
      4.12377      3.22499     18.04172        -0.116002      0.057740     -0.512275
      9.45799      3.22499     10.54863         0.003640      0.032759     -0.774367
     14.79222      3.22499     14.29517         0.127585     -0.010072     -0.213103
     12.12510      7.84456     18.04171         0.162983      0.033881     -0.414175
     17.45933      7.84456     10.54863        -0.015908      0.018338      0.649446
      6.79088      7.84456     14.29517        -0.041027      0.117185     -0.198412
     10.79155      0.91520     17.10508         0.093368     -0.140842     -0.206736
     16.12577      0.91520      9.61200        -0.334021     -0.409531      0.437676
      5.45732      0.91520     13.35854         0.014232     -0.002387      0.113433
     18.79289      5.53477     17.10508         0.068154      0.134873     -0.150925
      8.12443      5.53477      9.61200        -0.108853      0.371937      0.762277
     13.45866      5.53477     13.35854         0.004330      0.000096      0.152642
     10.79155     10.15435     17.10508        -0.160906      0.022355     -0.172934
     16.12577     10.15435      9.61200         0.490294     -0.077720      0.602786
     21.46000     10.15435     13.35854         0.009892      0.003896      0.472646
     16.12577      0.91520     18.04172         0.162983      0.033881     -0.414175
      5.45732      0.91520     10.54863        -0.015908      0.018338      0.649446
     10.79155      0.91520     14.29517        -0.041027      0.117185     -0.198412
      8.12443      5.53477     18.04172         0.002168     -0.189014     -0.734008
     13.45866      5.53477     10.54863         0.025694      0.010236      0.497288
     18.79289      5.53477     14.29517        -0.063931     -0.089306     -0.219829
     16.12577     10.15435     18.04172        -0.116002      0.057740     -0.512275
     21.46000     10.15435     10.54863         0.003640      0.032759     -0.774367
     10.79155     10.15435     14.29517         0.127585     -0.010072     -0.213103
 -----------------------------------------------------------------------------------
    total drift:                               -0.579473     -0.095989      0.211619


--------------------------------------------------------------------------------------------------------



  FREE ENERGIE OF THE ION-ELECTRON SYSTEM (eV)
  ---------------------------------------------------
  free  energy   TOTEN  =      -683.27066661 eV

  energy  without entropy=     -683.26697966  energy(sigma->0) =     -683.26882314
 


--------------------------------------------------------------------------------------------------------


    POTLOK:  cpu time      2.9288: real time      2.9474


--------------------------------------------------------------------------------------------------------


     LOOP+:  cpu time   2168.4095: real time   2189.5941
    4ORBIT:  cpu time      0.0000: real time      0.0000

 total amount of memory used by VASP MPI-rank0   425473. kBytes
=======================================================================

   base      :      30000. kBytes
   nonlr-proj:      22806. kBytes
   fftplans  :      34262. kBytes
   grid      :      27955. kBytes
   one-center:        178. kBytes
   wavefun   :     310272. kBytes
 
  
  
 General timing and accounting informations for this job:
 ========================================================
  
                  Total CPU time used (sec):     2322.642
                            User time (sec):     2212.719
                          System time (sec):      109.923
                         Elapsed time (sec):     2349.735
  
                   Maximum memory used (kb):      752080.
                   Average memory used (kb):          N/A
  
                          Minor page faults:       362854
                          Major page faults:          175
                 Voluntary context switches:         2412
