 120 120   0   0
  0.2169524E+02  0.7680595E-09  0.1629300E-08  0.2080414E-08  0.5000000E-15
  1.000000000000000E-004
  CAR 
 Si and Ge interface calculation         
      7.90671158     -8.52905240  301      4.86506489      1.00000000
     -8.529  0.0000E+00  0.0000E+00  0.0000E+00  0.0000E+00
     -8.474  0.0000E+00  0.0000E+00  0.0000E+00  0.0000E+00
     -8.419  0.0000E+00  0.0000E+00  0.0000E+00  0.0000E+00
     -8.365  0.0000E+00  0.0000E+00  0.0000E+00  0.0000E+00
     -8.310  0.0000E+00  0.0000E+00  0.0000E+00  0.0000E+00
     -8.255  0.0000E+00  0.0000E+00  0.0000E+00  0.0000E+00
     -8.200  0.0000E+00  0.0000E+00  0.0000E+00  0.0000E+00
     -8.146  0.0000E+00  0.0000E+00  0.0000E+00  0.0000E+00
     -8.091  0.0000E+00  0.0000E+00  0.0000E+00  0.0000E+00
     -8.036  0.0000E+00  0.0000E+00  0.0000E+00  0.0000E+00
     -7.981  0.0000E+00  0.0000E+00  0.0000E+00  0.0000E+00
     -7.926  0.0000E+00  0.0000E+00  0.0000E+00  0.0000E+00
     -7.872  0.0000E+00  0.0000E+00  0.0000E+00  0.0000E+00
     -7.817  0.9358E-06  0.1917E-08  0.5127E-07  0.1050E-09
     -7.762  0.3982E+01  0.2920E+01  0.2181E+00  0.1600E+00
     -7.707  0.5816E+00  0.1643E+01  0.2500E+00  0.2500E+00
     -7.652  0.9486E+01  0.7674E+01  0.7697E+00  0.6704E+00
     -7.598  0.8912E+01  0.1060E+02  0.1258E+01  0.1251E+01
     -7.543  0.5721E+01  0.2971E+01  0.1571E+01  0.1414E+01
     -7.488  0.1663E+02  0.1914E+02  0.2483E+01  0.2463E+01
     -7.433  0.1171E+02  0.1199E+02  0.3124E+01  0.3120E+01
     -7.379  0.6852E+01  0.6746E+01  0.3500E+01  0.3489E+01
     -7.324  0.1800E+02  0.1625E+02  0.4486E+01  0.4380E+01
     -7.269  0.1428E+02  0.1133E+02  0.5268E+01  0.5000E+01
     -7.214  0.1852E+02  0.2282E+02  0.6282E+01  0.6250E+01
     -7.159  0.2126E+02  0.1893E+02  0.7447E+01  0.7287E+01
     -7.105  0.2225E+02  0.1957E+02  0.8666E+01  0.8360E+01
     -7.050  0.1978E+02  0.2510E+02  0.9749E+01  0.9735E+01
     -6.995  0.1512E+02  0.1259E+02  0.1058E+02  0.1042E+02
     -6.940  0.2531E+02  0.2606E+02  0.1196E+02  0.1185E+02
     -6.885  0.1949E+02  0.1826E+02  0.1303E+02  0.1285E+02
     -6.831  0.2349E+02  0.2245E+02  0.1432E+02  0.1408E+02
     -6.776  0.2255E+02  0.2126E+02  0.1555E+02  0.1525E+02
     -6.721  0.2630E+02  0.2852E+02  0.1700E+02  0.1681E+02
     -6.666  0.2354E+02  0.2497E+02  0.1829E+02  0.1818E+02
     -6.612  0.1708E+02  0.1332E+02  0.1922E+02  0.1891E+02
     -6.557  0.2656E+02  0.2988E+02  0.2068E+02  0.2054E+02
     -6.502  0.3018E+02  0.2913E+02  0.2233E+02  0.2214E+02
     -6.447  0.3474E+02  0.3178E+02  0.2423E+02  0.2388E+02
     -6.392  0.4231E+02  0.4518E+02  0.2655E+02  0.2636E+02
     -6.338  0.2341E+02  0.2460E+02  0.2783E+02  0.2770E+02
     -6.283  0.3121E+02  0.2610E+02  0.2954E+02  0.2913E+02
     -6.228  0.3377E+02  0.3948E+02  0.3139E+02  0.3130E+02
     -6.173  0.1766E+02  0.1610E+02  0.3236E+02  0.3218E+02
     -6.118  0.3914E+02  0.3531E+02  0.3451E+02  0.3411E+02
     -6.064  0.3993E+02  0.4557E+02  0.3669E+02  0.3661E+02
     -6.009  0.3575E+02  0.3180E+02  0.3865E+02  0.3835E+02
     -5.954  0.2359E+02  0.2480E+02  0.3994E+02  0.3971E+02
     -5.899  0.3474E+02  0.3714E+02  0.4185E+02  0.4175E+02
     -5.845  0.3676E+02  0.3278E+02  0.4386E+02  0.4354E+02
     -5.790  0.2846E+02  0.2930E+02  0.4542E+02  0.4515E+02
     -5.735  0.3974E+02  0.4226E+02  0.4760E+02  0.4746E+02
     -5.680  0.5768E+02  0.5614E+02  0.5076E+02  0.5054E+02
     -5.625  0.2943E+02  0.3178E+02  0.5237E+02  0.5228E+02
     -5.571  0.3623E+02  0.3226E+02  0.5436E+02  0.5405E+02
     -5.516  0.4526E+02  0.4787E+02  0.5684E+02  0.5667E+02
     -5.461  0.4058E+02  0.4043E+02  0.5906E+02  0.5888E+02
     -5.406  0.4719E+02  0.4574E+02  0.6164E+02  0.6139E+02
     -5.351  0.5153E+02  0.5196E+02  0.6447E+02  0.6424E+02
     -5.297  0.2733E+02  0.2931E+02  0.6596E+02  0.6584E+02
     -5.242  0.4174E+02  0.3970E+02  0.6825E+02  0.6802E+02
     -5.187  0.5340E+02  0.5220E+02  0.7118E+02  0.7088E+02
     -5.132  0.3841E+02  0.3955E+02  0.7328E+02  0.7304E+02
     -5.078  0.4204E+02  0.4200E+02  0.7558E+02  0.7535E+02
     -5.023  0.3815E+02  0.3859E+02  0.7767E+02  0.7746E+02
     -4.968  0.5590E+02  0.5537E+02  0.8074E+02  0.8049E+02
     -4.913  0.2944E+02  0.3060E+02  0.8235E+02  0.8217E+02
     -4.858  0.2302E+02  0.2351E+02  0.8361E+02  0.8346E+02
     -4.804  0.2452E+02  0.2290E+02  0.8495E+02  0.8471E+02
     -4.749  0.4079E+02  0.4124E+02  0.8719E+02  0.8697E+02
     -4.694  0.2918E+02  0.2903E+02  0.8879E+02  0.8856E+02
     -4.639  0.3722E+02  0.3521E+02  0.9083E+02  0.9049E+02
     -4.584  0.2555E+02  0.2706E+02  0.9223E+02  0.9197E+02
     -4.530  0.3357E+02  0.3305E+02  0.9407E+02  0.9378E+02
     -4.475  0.3689E+02  0.3857E+02  0.9609E+02  0.9590E+02
     -4.420  0.5859E+02  0.5842E+02  0.9930E+02  0.9910E+02
     -4.365  0.3640E+02  0.3511E+02  0.1013E+03  0.1010E+03
     -4.311  0.3373E+02  0.3626E+02  0.1031E+03  0.1030E+03
     -4.256  0.2950E+02  0.3016E+02  0.1048E+03  0.1047E+03
     -4.201  0.2911E+02  0.2684E+02  0.1063E+03  0.1061E+03
     -4.146  0.2653E+02  0.2814E+02  0.1078E+03  0.1077E+03
     -4.091  0.2683E+02  0.2710E+02  0.1093E+03  0.1092E+03
     -4.037  0.1534E+02  0.1509E+02  0.1101E+03  0.1100E+03
     -3.982  0.1391E+02  0.1626E+02  0.1109E+03  0.1109E+03
     -3.927  0.8830E+01  0.5350E+01  0.1114E+03  0.1112E+03
     -3.872  0.3903E+02  0.3878E+02  0.1135E+03  0.1133E+03
     -3.817  0.4701E+01  0.8354E+01  0.1138E+03  0.1138E+03
     -3.763  0.2082E+02  0.1561E+02  0.1149E+03  0.1146E+03
     -3.708  0.2012E+02  0.2133E+02  0.1160E+03  0.1158E+03
     -3.653  0.2078E+02  0.2384E+02  0.1171E+03  0.1171E+03
     -3.598  0.6739E+01  0.6628E+01  0.1175E+03  0.1174E+03
     -3.544  0.2745E+02  0.2390E+02  0.1190E+03  0.1188E+03
     -3.489  0.1937E+02  0.2278E+02  0.1201E+03  0.1200E+03
     -3.434  0.1322E+02  0.1274E+02  0.1208E+03  0.1207E+03
     -3.379  0.1489E+02  0.1486E+02  0.1216E+03  0.1215E+03
     -3.324  0.2125E+02  0.1929E+02  0.1228E+03  0.1226E+03
     -3.270  0.2737E+02  0.2684E+02  0.1243E+03  0.1240E+03
     -3.215  0.2386E+02  0.2456E+02  0.1256E+03  0.1254E+03
     -3.160  0.1922E+02  0.1814E+02  0.1266E+03  0.1264E+03
     -3.105  0.3614E+02  0.3536E+02  0.1286E+03  0.1283E+03
     -3.050  0.2669E+02  0.2943E+02  0.1301E+03  0.1299E+03
     -2.996  0.2598E+02  0.2710E+02  0.1315E+03  0.1314E+03
     -2.941  0.2111E+02  0.1850E+02  0.1327E+03  0.1324E+03
     -2.886  0.2861E+02  0.2807E+02  0.1342E+03  0.1340E+03
     -2.831  0.2623E+02  0.2567E+02  0.1357E+03  0.1354E+03
     -2.777  0.3157E+02  0.3264E+02  0.1374E+03  0.1372E+03
     -2.722  0.2853E+02  0.2881E+02  0.1390E+03  0.1387E+03
     -2.667  0.3118E+02  0.2943E+02  0.1407E+03  0.1404E+03
     -2.612  0.3686E+02  0.3587E+02  0.1427E+03  0.1423E+03
     -2.557  0.4324E+02  0.4243E+02  0.1451E+03  0.1446E+03
     -2.503  0.4740E+02  0.5031E+02  0.1476E+03  0.1474E+03
     -2.448  0.6180E+02  0.5798E+02  0.1510E+03  0.1506E+03
     -2.393  0.6427E+02  0.6460E+02  0.1546E+03  0.1541E+03
     -2.338  0.5387E+02  0.5537E+02  0.1575E+03  0.1571E+03
     -2.283  0.5874E+02  0.6005E+02  0.1607E+03  0.1604E+03
     -2.229  0.5752E+02  0.5691E+02  0.1639E+03  0.1636E+03
     -2.174  0.4946E+02  0.4927E+02  0.1666E+03  0.1663E+03
     -2.119  0.4471E+02  0.4289E+02  0.1690E+03  0.1686E+03
     -2.064  0.3901E+02  0.4422E+02  0.1712E+03  0.1710E+03
     -2.010  0.4016E+02  0.3758E+02  0.1734E+03  0.1731E+03
     -1.955  0.3435E+02  0.3876E+02  0.1753E+03  0.1752E+03
     -1.900  0.3844E+02  0.3179E+02  0.1774E+03  0.1769E+03
     -1.845  0.3440E+02  0.3780E+02  0.1792E+03  0.1790E+03
     -1.790  0.3724E+02  0.3729E+02  0.1813E+03  0.1811E+03
     -1.736  0.3129E+02  0.3086E+02  0.1830E+03  0.1828E+03
     -1.681  0.2643E+02  0.2696E+02  0.1844E+03  0.1842E+03
     -1.626  0.2920E+02  0.3070E+02  0.1860E+03  0.1859E+03
     -1.571  0.3409E+02  0.3106E+02  0.1879E+03  0.1876E+03
     -1.516  0.3520E+02  0.3708E+02  0.1898E+03  0.1896E+03
     -1.462  0.3347E+02  0.2945E+02  0.1917E+03  0.1913E+03
     -1.407  0.4690E+02  0.4872E+02  0.1942E+03  0.1939E+03
     -1.352  0.2230E+02  0.2446E+02  0.1955E+03  0.1953E+03
     -1.297  0.3371E+02  0.3467E+02  0.1973E+03  0.1972E+03
     -1.243  0.1518E+02  0.1645E+02  0.1981E+03  0.1981E+03
     -1.188  0.1498E+02  0.1535E+02  0.1990E+03  0.1989E+03
     -1.133  0.2045E+02  0.1790E+02  0.2001E+03  0.1999E+03
     -1.078  0.1776E+02  0.1789E+02  0.2011E+03  0.2009E+03
     -1.023  0.2408E+02  0.2339E+02  0.2024E+03  0.2022E+03
     -0.969  0.2824E+02  0.2861E+02  0.2039E+03  0.2037E+03
     -0.914  0.1924E+02  0.1991E+02  0.2050E+03  0.2048E+03
     -0.859  0.2007E+02  0.2035E+02  0.2061E+03  0.2059E+03
     -0.804  0.1132E+02  0.1336E+02  0.2067E+03  0.2067E+03
     -0.749  0.1437E+02  0.1208E+02  0.2075E+03  0.2073E+03
     -0.695  0.1937E+02  0.2060E+02  0.2085E+03  0.2084E+03
     -0.640  0.1821E+02  0.1521E+02  0.2095E+03  0.2093E+03
     -0.585  0.2883E+02  0.3113E+02  0.2111E+03  0.2110E+03
     -0.530  0.2582E+02  0.2089E+02  0.2125E+03  0.2121E+03
     -0.476  0.3611E+02  0.3794E+02  0.2145E+03  0.2142E+03
     -0.421  0.3051E+02  0.3261E+02  0.2162E+03  0.2160E+03
     -0.366  0.2750E+02  0.2939E+02  0.2177E+03  0.2176E+03
     -0.311  0.1448E+02  0.1486E+02  0.2185E+03  0.2184E+03
     -0.256  0.5673E+01  0.5133E+01  0.2188E+03  0.2187E+03
     -0.202  0.2535E+02  0.2272E+02  0.2202E+03  0.2199E+03
     -0.147  0.1507E+02  0.1804E+02  0.2210E+03  0.2209E+03
     -0.092  0.9709E+01  0.8899E+01  0.2215E+03  0.2214E+03
     -0.037  0.1361E+02  0.1514E+02  0.2223E+03  0.2223E+03
      0.018  0.2151E+02  0.1840E+02  0.2235E+03  0.2233E+03
      0.072  0.1415E+02  0.1752E+02  0.2242E+03  0.2242E+03
      0.127  0.1209E+02  0.1047E+02  0.2249E+03  0.2248E+03
      0.182  0.1886E+02  0.1869E+02  0.2259E+03  0.2258E+03
      0.237  0.5004E+02  0.4872E+02  0.2287E+03  0.2285E+03
      0.291  0.6095E+02  0.5169E+02  0.2320E+03  0.2313E+03
      0.346  0.4708E+02  0.5499E+02  0.2346E+03  0.2343E+03
      0.401  0.3206E+02  0.3354E+02  0.2364E+03  0.2362E+03
      0.456  0.3055E+02  0.3076E+02  0.2380E+03  0.2379E+03
      0.511  0.6370E+02  0.6221E+02  0.2415E+03  0.2413E+03
      0.565  0.5908E+02  0.5435E+02  0.2448E+03  0.2442E+03
      0.620  0.5028E+02  0.5840E+02  0.2475E+03  0.2474E+03
      0.675  0.5659E+02  0.4944E+02  0.2506E+03  0.2501E+03
      0.730  0.4743E+02  0.5218E+02  0.2532E+03  0.2530E+03
      0.785  0.6566E+02  0.5839E+02  0.2568E+03  0.2562E+03
      0.839  0.8960E+02  0.9058E+02  0.2617E+03  0.2612E+03
      0.894  0.6758E+02  0.7176E+02  0.2654E+03  0.2651E+03
      0.949  0.7632E+02  0.7497E+02  0.2696E+03  0.2692E+03
      1.004  0.4363E+02  0.4203E+02  0.2720E+03  0.2715E+03
      1.058  0.3694E+02  0.4078E+02  0.2740E+03  0.2737E+03
      1.113  0.8314E+02  0.7921E+02  0.2786E+03  0.2781E+03
      1.168  0.7038E+02  0.7238E+02  0.2824E+03  0.2820E+03
      1.223  0.6651E+02  0.6060E+02  0.2861E+03  0.2854E+03
      1.278  0.8689E+02  0.9074E+02  0.2908E+03  0.2903E+03
      1.332  0.7102E+02  0.6884E+02  0.2947E+03  0.2941E+03
      1.387  0.7822E+02  0.8066E+02  0.2990E+03  0.2985E+03
      1.442  0.4810E+02  0.5120E+02  0.3016E+03  0.3013E+03
      1.497  0.9320E+02  0.8141E+02  0.3068E+03  0.3058E+03
      1.552  0.7071E+02  0.8159E+02  0.3106E+03  0.3103E+03
      1.606  0.3831E+02  0.3729E+02  0.3127E+03  0.3123E+03
      1.661  0.7664E+02  0.8027E+02  0.3169E+03  0.3167E+03
      1.716  0.8471E+02  0.8340E+02  0.3216E+03  0.3213E+03
      1.771  0.7923E+02  0.7678E+02  0.3259E+03  0.3255E+03
      1.825  0.8517E+02  0.8253E+02  0.3306E+03  0.3300E+03
      1.880  0.9575E+02  0.9701E+02  0.3358E+03  0.3353E+03
      1.935  0.8011E+02  0.7911E+02  0.3402E+03  0.3396E+03
      1.990  0.7331E+02  0.7299E+02  0.3442E+03  0.3436E+03
      2.045  0.6952E+02  0.7256E+02  0.3480E+03  0.3476E+03
      2.099  0.5847E+02  0.6058E+02  0.3512E+03  0.3509E+03
      2.154  0.6056E+02  0.5823E+02  0.3546E+03  0.3541E+03
      2.209  0.7940E+02  0.7987E+02  0.3589E+03  0.3585E+03
      2.264  0.7440E+02  0.6322E+02  0.3630E+03  0.3620E+03
      2.319  0.8197E+02  0.9545E+02  0.3675E+03  0.3672E+03
      2.373  0.5210E+02  0.5051E+02  0.3703E+03  0.3700E+03
      2.428  0.6727E+02  0.6542E+02  0.3740E+03  0.3736E+03
      2.483  0.6514E+02  0.6436E+02  0.3776E+03  0.3771E+03
      2.538  0.9387E+02  0.9428E+02  0.3827E+03  0.3822E+03
      2.592  0.7006E+02  0.6966E+02  0.3866E+03  0.3861E+03
      2.647  0.6449E+02  0.6410E+02  0.3901E+03  0.3896E+03
      2.702  0.6617E+02  0.6877E+02  0.3937E+03  0.3933E+03
      2.757  0.5979E+02  0.6288E+02  0.3970E+03  0.3968E+03
      2.812  0.5686E+02  0.4926E+02  0.4001E+03  0.3995E+03
      2.866  0.4650E+02  0.5145E+02  0.4027E+03  0.4023E+03
      2.921  0.4851E+02  0.4602E+02  0.4053E+03  0.4048E+03
      2.976  0.6925E+02  0.7198E+02  0.4091E+03  0.4088E+03
      3.031  0.7710E+02  0.7033E+02  0.4133E+03  0.4126E+03
      3.086  0.6192E+02  0.6136E+02  0.4167E+03  0.4160E+03
      3.140  0.7298E+02  0.7287E+02  0.4207E+03  0.4200E+03
      3.195  0.6249E+02  0.6809E+02  0.4241E+03  0.4237E+03
      3.250  0.6271E+02  0.6345E+02  0.4276E+03  0.4272E+03
      3.305  0.6669E+02  0.5718E+02  0.4312E+03  0.4303E+03
      3.359  0.7321E+02  0.7786E+02  0.4352E+03  0.4346E+03
      3.414  0.5886E+02  0.6536E+02  0.4385E+03  0.4382E+03
      3.469  0.6330E+02  0.5788E+02  0.4419E+03  0.4413E+03
      3.524  0.5367E+02  0.5628E+02  0.4449E+03  0.4444E+03
      3.579  0.4176E+02  0.4535E+02  0.4472E+03  0.4469E+03
      3.633  0.4437E+02  0.4237E+02  0.4496E+03  0.4492E+03
      3.688  0.4236E+02  0.4600E+02  0.4519E+03  0.4517E+03
      3.743  0.4704E+02  0.4519E+02  0.4545E+03  0.4542E+03
      3.798  0.3321E+02  0.3184E+02  0.4563E+03  0.4560E+03
      3.853  0.3969E+02  0.4020E+02  0.4585E+03  0.4582E+03
      3.907  0.2437E+02  0.2674E+02  0.4598E+03  0.4596E+03
      3.962  0.2870E+02  0.2978E+02  0.4614E+03  0.4613E+03
      4.017  0.4122E+02  0.3517E+02  0.4637E+03  0.4632E+03
      4.072  0.3573E+02  0.3721E+02  0.4656E+03  0.4652E+03
      4.126  0.2325E+02  0.2645E+02  0.4669E+03  0.4667E+03
      4.181  0.2034E+02  0.1963E+02  0.4680E+03  0.4677E+03
      4.236  0.2139E+02  0.1788E+02  0.4692E+03  0.4687E+03
      4.291  0.3243E+02  0.2388E+02  0.4709E+03  0.4700E+03
      4.346  0.1485E+02  0.2779E+02  0.4718E+03  0.4716E+03
      4.400  0.2032E+02  0.2282E+02  0.4729E+03  0.4728E+03
      4.455  0.7042E+01  0.1226E+01  0.4733E+03  0.4729E+03
      4.510  0.2159E+02  0.1359E+02  0.4744E+03  0.4736E+03
      4.565  0.1730E+02  0.2253E+02  0.4754E+03  0.4749E+03
      4.620  0.8675E+01  0.1020E+02  0.4759E+03  0.4754E+03
      4.674  0.1163E+02  0.1237E+02  0.4765E+03  0.4761E+03
      4.729  0.1638E+02  0.7979E+01  0.4774E+03  0.4765E+03
      4.784  0.1099E+02  0.1490E+02  0.4780E+03  0.4773E+03
      4.839  0.3586E+02  0.1369E+02  0.4800E+03  0.4781E+03
      4.893  0.2432E+02  0.4089E+02  0.4813E+03  0.4803E+03
      4.948  0.1624E+02  0.2567E+02  0.4822E+03  0.4817E+03
      5.003  0.2983E+02  0.1904E+02  0.4838E+03  0.4828E+03
      5.058  0.2696E+02  0.2789E+02  0.4853E+03  0.4843E+03
      5.113  0.3412E+02  0.3047E+02  0.4872E+03  0.4860E+03
      5.167  0.3577E+02  0.3157E+02  0.4891E+03  0.4877E+03
      5.222  0.4262E+02  0.3279E+02  0.4915E+03  0.4895E+03
      5.277  0.3828E+02  0.5093E+02  0.4936E+03  0.4923E+03
      5.332  0.2047E+02  0.3050E+02  0.4947E+03  0.4940E+03
      5.387  0.3867E+02  0.4188E+02  0.4968E+03  0.4963E+03
      5.441  0.3681E+02  0.4163E+02  0.4988E+03  0.4985E+03
      5.496  0.3804E+02  0.3030E+02  0.5009E+03  0.5002E+03
      5.551  0.3537E+02  0.4076E+02  0.5028E+03  0.5024E+03
      5.606  0.4417E+02  0.3868E+02  0.5053E+03  0.5046E+03
      5.660  0.4846E+02  0.5184E+02  0.5079E+03  0.5074E+03
      5.715  0.3461E+02  0.3792E+02  0.5098E+03  0.5095E+03
      5.770  0.5152E+02  0.4154E+02  0.5126E+03  0.5118E+03
      5.825  0.5464E+02  0.5766E+02  0.5156E+03  0.5149E+03
      5.880  0.4793E+02  0.5431E+02  0.5183E+03  0.5179E+03
      5.934  0.4642E+02  0.4193E+02  0.5208E+03  0.5202E+03
      5.989  0.7068E+02  0.7168E+02  0.5247E+03  0.5241E+03
      6.044  0.5565E+02  0.5660E+02  0.5277E+03  0.5272E+03
      6.099  0.4530E+02  0.4341E+02  0.5302E+03  0.5296E+03
      6.154  0.3822E+02  0.3988E+02  0.5323E+03  0.5318E+03
      6.208  0.4022E+02  0.4067E+02  0.5345E+03  0.5340E+03
      6.263  0.6801E+02  0.6368E+02  0.5382E+03  0.5375E+03
      6.318  0.4648E+02  0.4940E+02  0.5408E+03  0.5402E+03
      6.373  0.5048E+02  0.4881E+02  0.5435E+03  0.5429E+03
      6.427  0.4819E+02  0.5053E+02  0.5462E+03  0.5456E+03
      6.482  0.6009E+02  0.6108E+02  0.5495E+03  0.5490E+03
      6.537  0.5115E+02  0.4607E+02  0.5523E+03  0.5515E+03
      6.592  0.7329E+02  0.7525E+02  0.5563E+03  0.5556E+03
      6.647  0.6369E+02  0.6446E+02  0.5598E+03  0.5592E+03
      6.701  0.4127E+02  0.4821E+02  0.5620E+03  0.5618E+03
      6.756  0.4220E+02  0.3749E+02  0.5643E+03  0.5639E+03
      6.811  0.4053E+02  0.4454E+02  0.5666E+03  0.5663E+03
      6.866  0.4213E+02  0.4119E+02  0.5689E+03  0.5686E+03
      6.921  0.5216E+02  0.5102E+02  0.5717E+03  0.5714E+03
      6.975  0.3296E+02  0.3723E+02  0.5735E+03  0.5734E+03
      7.030  0.1294E+02  0.1569E+02  0.5742E+03  0.5743E+03
      7.085  0.1748E+02  0.1460E+02  0.5752E+03  0.5751E+03
      7.140  0.1073E+02  0.1285E+02  0.5758E+03  0.5758E+03
      7.194  0.3826E+01  0.4473E+01  0.5760E+03  0.5760E+03
      7.249  0.0000E+00  0.0000E+00  0.5760E+03  0.5760E+03
      7.304  0.0000E+00  0.0000E+00  0.5760E+03  0.5760E+03
      7.359  0.0000E+00  0.0000E+00  0.5760E+03  0.5760E+03
      7.414  0.0000E+00  0.0000E+00  0.5760E+03  0.5760E+03
      7.468  0.0000E+00  0.0000E+00  0.5760E+03  0.5760E+03
      7.523  0.0000E+00  0.0000E+00  0.5760E+03  0.5760E+03
      7.578  0.0000E+00  0.0000E+00  0.5760E+03  0.5760E+03
      7.633  0.0000E+00  0.0000E+00  0.5760E+03  0.5760E+03
      7.688  0.0000E+00  0.0000E+00  0.5760E+03  0.5760E+03
      7.742  0.0000E+00  0.0000E+00  0.5760E+03  0.5760E+03
      7.797  0.0000E+00  0.0000E+00  0.5760E+03  0.5760E+03
      7.852  0.0000E+00  0.0000E+00  0.5760E+03  0.5760E+03
      7.907  0.0000E+00  0.0000E+00  0.5760E+03  0.5760E+03
