 168 168   0   0
  0.2780971E+02  0.1131560E-08  0.1600268E-08  0.2580094E-08  0.5000000E-15
  1.000000000000000E-004
  CAR 
 Si and Ge interface calculation         
      6.37040052     -9.85625824  301      3.36554126      1.00000000
     -9.856  0.0000E+00  0.0000E+00  0.0000E+00  0.0000E+00
     -9.802  0.0000E+00  0.0000E+00  0.0000E+00  0.0000E+00
     -9.748  0.0000E+00  0.0000E+00  0.0000E+00  0.0000E+00
     -9.694  0.0000E+00  0.0000E+00  0.0000E+00  0.0000E+00
     -9.640  0.0000E+00  0.0000E+00  0.0000E+00  0.0000E+00
     -9.586  0.0000E+00  0.0000E+00  0.0000E+00  0.0000E+00
     -9.532  0.0000E+00  0.0000E+00  0.0000E+00  0.0000E+00
     -9.478  0.0000E+00  0.0000E+00  0.0000E+00  0.0000E+00
     -9.424  0.0000E+00  0.0000E+00  0.0000E+00  0.0000E+00
     -9.369  0.0000E+00  0.0000E+00  0.0000E+00  0.0000E+00
     -9.315  0.0000E+00  0.0000E+00  0.0000E+00  0.0000E+00
     -9.261  0.0000E+00  0.0000E+00  0.0000E+00  0.0000E+00
     -9.207  0.0000E+00  0.0000E+00  0.0000E+00  0.0000E+00
     -9.153  0.3478E-05  0.5397E-07  0.1881E-06  0.2919E-08
     -9.099  0.6146E+01  0.6027E+01  0.3324E+00  0.3260E+00
     -9.045  0.1679E-01  0.1355E+00  0.3333E+00  0.3333E+00
     -8.991  0.2029E+02  0.1657E+02  0.1431E+01  0.1230E+01
     -8.937  0.4356E+01  0.8081E+01  0.1667E+01  0.1667E+01
     -8.883  0.2198E+02  0.1695E+02  0.2855E+01  0.2584E+01
     -8.829  0.2775E+01  0.7706E+01  0.3005E+01  0.3000E+01
     -8.774  0.6431E+01  0.6177E+01  0.3353E+01  0.3334E+01
     -8.720  0.1196E+02  0.1230E+02  0.4000E+01  0.4000E+01
     -8.666  0.2007E+02  0.1691E+02  0.5086E+01  0.4915E+01
     -8.612  0.4151E+02  0.4443E+02  0.7331E+01  0.7318E+01
     -8.558  0.1418E+02  0.6324E+01  0.8098E+01  0.7660E+01
     -8.504  0.3965E+02  0.4452E+02  0.1024E+02  0.1007E+02
     -8.450  0.7840E+01  0.1107E+02  0.1067E+02  0.1067E+02
     -8.396  0.4109E+02  0.3512E+02  0.1289E+02  0.1257E+02
     -8.342  0.2564E+02  0.2853E+02  0.1428E+02  0.1411E+02
     -8.288  0.2905E+02  0.2494E+02  0.1585E+02  0.1546E+02
     -8.234  0.2199E+02  0.2860E+02  0.1704E+02  0.1701E+02
     -8.180  0.4620E+02  0.4298E+02  0.1954E+02  0.1933E+02
     -8.125  0.7420E+01  0.8357E+01  0.1994E+02  0.1978E+02
     -8.071  0.4020E+02  0.3987E+02  0.2211E+02  0.2194E+02
     -8.017  0.2315E+02  0.2600E+02  0.2336E+02  0.2334E+02
     -7.963  0.1733E+02  0.1261E+02  0.2430E+02  0.2403E+02
     -7.909  0.1292E+02  0.1800E+02  0.2500E+02  0.2500E+02
     -7.855  0.3488E+02  0.3088E+02  0.2689E+02  0.2667E+02
     -7.801  0.3908E+02  0.4302E+02  0.2900E+02  0.2900E+02
     -7.747  0.8656E+01  0.6993E+01  0.2947E+02  0.2938E+02
     -7.693  0.1064E+02  0.8430E+01  0.3004E+02  0.2983E+02
     -7.639  0.1083E+02  0.1095E+02  0.3063E+02  0.3042E+02
     -7.585  0.7221E+02  0.6743E+02  0.3454E+02  0.3407E+02
     -7.530  0.3283E+02  0.3608E+02  0.3631E+02  0.3602E+02
     -7.476  0.4612E+02  0.4750E+02  0.3881E+02  0.3859E+02
     -7.422  0.2207E+02  0.2603E+02  0.4000E+02  0.4000E+02
     -7.368  0.1224E+02  0.1159E+02  0.4066E+02  0.4063E+02
     -7.314  0.1882E+02  0.1826E+02  0.4168E+02  0.4161E+02
     -7.260  0.5752E+02  0.5488E+02  0.4479E+02  0.4458E+02
     -7.206  0.3120E+02  0.3012E+02  0.4648E+02  0.4621E+02
     -7.152  0.7116E+02  0.7003E+02  0.5033E+02  0.5000E+02
     -7.098  0.3131E+02  0.3655E+02  0.5202E+02  0.5198E+02
     -7.044  0.3052E+02  0.2584E+02  0.5367E+02  0.5337E+02
     -6.990  0.5830E+02  0.5854E+02  0.5683E+02  0.5654E+02
     -6.935  0.3176E+02  0.2814E+02  0.5854E+02  0.5806E+02
     -6.881  0.4538E+02  0.5372E+02  0.6100E+02  0.6097E+02
     -6.827  0.3299E+02  0.2537E+02  0.6278E+02  0.6234E+02
     -6.773  0.6367E+02  0.6134E+02  0.6623E+02  0.6566E+02
     -6.719  0.3637E+02  0.4465E+02  0.6819E+02  0.6807E+02
     -6.665  0.6300E+02  0.5795E+02  0.7160E+02  0.7121E+02
     -6.611  0.4433E+02  0.5138E+02  0.7400E+02  0.7399E+02
     -6.557  0.1759E+02  0.1550E+02  0.7495E+02  0.7483E+02
     -6.503  0.2473E+02  0.2519E+02  0.7629E+02  0.7619E+02
     -6.449  0.3780E+02  0.3933E+02  0.7833E+02  0.7832E+02
     -6.395  0.5437E+02  0.5248E+02  0.8127E+02  0.8115E+02
     -6.340  0.4586E+02  0.4448E+02  0.8375E+02  0.8356E+02
     -6.286  0.6127E+02  0.5939E+02  0.8707E+02  0.8677E+02
     -6.232  0.6890E+02  0.7071E+02  0.9079E+02  0.9060E+02
     -6.178  0.7041E+02  0.7036E+02  0.9460E+02  0.9440E+02
     -6.124  0.5356E+02  0.5354E+02  0.9750E+02  0.9730E+02
     -6.070  0.2541E+02  0.2690E+02  0.9887E+02  0.9875E+02
     -6.016  0.2331E+02  0.2102E+02  0.1001E+03  0.9989E+02
     -5.962  0.3474E+02  0.3786E+02  0.1020E+03  0.1019E+03
     -5.908  0.4657E+02  0.4179E+02  0.1045E+03  0.1042E+03
     -5.854  0.1689E+02  0.2182E+02  0.1054E+03  0.1054E+03
     -5.800  0.4766E+02  0.4574E+02  0.1080E+03  0.1079E+03
     -5.746  0.4761E+02  0.4817E+02  0.1106E+03  0.1105E+03
     -5.691  0.4518E+02  0.4528E+02  0.1130E+03  0.1129E+03
     -5.637  0.1353E+02  0.1322E+02  0.1138E+03  0.1136E+03
     -5.583  0.3734E+02  0.3726E+02  0.1158E+03  0.1156E+03
     -5.529  0.3982E+02  0.3745E+02  0.1179E+03  0.1177E+03
     -5.475  0.6466E+02  0.6592E+02  0.1214E+03  0.1212E+03
     -5.421  0.6319E+02  0.6242E+02  0.1249E+03  0.1246E+03
     -5.367  0.4451E+02  0.4201E+02  0.1273E+03  0.1269E+03
     -5.313  0.4103E+02  0.4456E+02  0.1295E+03  0.1293E+03
     -5.259  0.7562E+02  0.7231E+02  0.1336E+03  0.1332E+03
     -5.205  0.7511E+02  0.7348E+02  0.1376E+03  0.1372E+03
     -5.151  0.4565E+02  0.4656E+02  0.1401E+03  0.1397E+03
     -5.096  0.4567E+02  0.5020E+02  0.1426E+03  0.1424E+03
     -5.042  0.5037E+02  0.4992E+02  0.1453E+03  0.1451E+03
     -4.988  0.5033E+02  0.5117E+02  0.1480E+03  0.1479E+03
     -4.934  0.4637E+02  0.4318E+02  0.1505E+03  0.1502E+03
     -4.880  0.7756E+02  0.7517E+02  0.1547E+03  0.1543E+03
     -4.826  0.6439E+02  0.6965E+02  0.1582E+03  0.1580E+03
     -4.772  0.1713E+02  0.1641E+02  0.1591E+03  0.1589E+03
     -4.718  0.5420E+02  0.5689E+02  0.1621E+03  0.1620E+03
     -4.664  0.2395E+02  0.2460E+02  0.1634E+03  0.1633E+03
     -4.610  0.8259E+02  0.7558E+02  0.1678E+03  0.1674E+03
     -4.556  0.6388E+02  0.6678E+02  0.1713E+03  0.1710E+03
     -4.501  0.3447E+02  0.3705E+02  0.1732E+03  0.1730E+03
     -4.447  0.6234E+02  0.5970E+02  0.1765E+03  0.1763E+03
     -4.393  0.6179E+02  0.6459E+02  0.1799E+03  0.1798E+03
     -4.339  0.4359E+02  0.4045E+02  0.1822E+03  0.1820E+03
     -4.285  0.5148E+02  0.5378E+02  0.1850E+03  0.1849E+03
     -4.231  0.3997E+02  0.3810E+02  0.1872E+03  0.1869E+03
     -4.177  0.3584E+02  0.3549E+02  0.1891E+03  0.1888E+03
     -4.123  0.5909E+02  0.5789E+02  0.1923E+03  0.1920E+03
     -4.069  0.6540E+02  0.6280E+02  0.1958E+03  0.1954E+03
     -4.015  0.4176E+02  0.4635E+02  0.1981E+03  0.1979E+03
     -3.961  0.3789E+02  0.3970E+02  0.2002E+03  0.2000E+03
     -3.906  0.9177E+02  0.8456E+02  0.2051E+03  0.2046E+03
     -3.852  0.4091E+02  0.5020E+02  0.2073E+03  0.2073E+03
     -3.798  0.2126E+02  0.1509E+02  0.2085E+03  0.2081E+03
     -3.744  0.6997E+02  0.7130E+02  0.2123E+03  0.2120E+03
     -3.690  0.5051E+02  0.4950E+02  0.2150E+03  0.2147E+03
     -3.636  0.7592E+02  0.7454E+02  0.2191E+03  0.2187E+03
     -3.582  0.5868E+02  0.5804E+02  0.2223E+03  0.2218E+03
     -3.528  0.1701E+02  0.2270E+02  0.2232E+03  0.2231E+03
     -3.474  0.5161E+02  0.4804E+02  0.2260E+03  0.2257E+03
     -3.420  0.4768E+02  0.4902E+02  0.2286E+03  0.2283E+03
     -3.366  0.5027E+02  0.5065E+02  0.2313E+03  0.2311E+03
     -3.312  0.2093E+02  0.2405E+02  0.2324E+03  0.2324E+03
     -3.257  0.6751E+02  0.6656E+02  0.2361E+03  0.2360E+03
     -3.203  0.3451E+02  0.3476E+02  0.2379E+03  0.2378E+03
     -3.149  0.3651E+02  0.3613E+02  0.2399E+03  0.2398E+03
     -3.095  0.3954E+02  0.3704E+02  0.2421E+03  0.2418E+03
     -3.041  0.4320E+02  0.3783E+02  0.2444E+03  0.2438E+03
     -2.987  0.7079E+02  0.7575E+02  0.2482E+03  0.2479E+03
     -2.933  0.7182E+02  0.7398E+02  0.2521E+03  0.2519E+03
     -2.879  0.2104E+02  0.1851E+02  0.2532E+03  0.2529E+03
     -2.825  0.4482E+02  0.5012E+02  0.2557E+03  0.2556E+03
     -2.771  0.5104E+02  0.4564E+02  0.2584E+03  0.2581E+03
     -2.717  0.2978E+02  0.3188E+02  0.2600E+03  0.2598E+03
     -2.662  0.5433E+02  0.4934E+02  0.2630E+03  0.2625E+03
     -2.608  0.7380E+02  0.7097E+02  0.2670E+03  0.2663E+03
     -2.554  0.5623E+02  0.6537E+02  0.2700E+03  0.2699E+03
     -2.500  0.3984E+02  0.3874E+02  0.2722E+03  0.2720E+03
     -2.446  0.6987E+02  0.6679E+02  0.2759E+03  0.2756E+03
     -2.392  0.3844E+02  0.4117E+02  0.2780E+03  0.2778E+03
     -2.338  0.3767E+02  0.3621E+02  0.2801E+03  0.2798E+03
     -2.284  0.3933E+02  0.4119E+02  0.2822E+03  0.2820E+03
     -2.230  0.6213E+02  0.6259E+02  0.2855E+03  0.2854E+03
     -2.176  0.1458E+02  0.1733E+02  0.2863E+03  0.2863E+03
     -2.122  0.2479E+02  0.2472E+02  0.2877E+03  0.2877E+03
     -2.067  0.4146E+02  0.3612E+02  0.2899E+03  0.2896E+03
     -2.013  0.3030E+02  0.3272E+02  0.2916E+03  0.2914E+03
     -1.959  0.2945E+02  0.2646E+02  0.2931E+03  0.2928E+03
     -1.905  0.3119E+02  0.3110E+02  0.2948E+03  0.2945E+03
     -1.851  0.4126E+02  0.4167E+02  0.2971E+03  0.2968E+03
     -1.797  0.2547E+02  0.3000E+02  0.2984E+03  0.2984E+03
     -1.743  0.7156E+02  0.7172E+02  0.3023E+03  0.3023E+03
     -1.689  0.4158E+01  0.3200E+01  0.3025E+03  0.3024E+03
     -1.635  0.5150E+02  0.5291E+02  0.3053E+03  0.3053E+03
     -1.581  0.2314E+02  0.2104E+02  0.3066E+03  0.3064E+03
     -1.527  0.3104E+02  0.3123E+02  0.3083E+03  0.3081E+03
     -1.472  0.4176E+02  0.4218E+02  0.3105E+03  0.3104E+03
     -1.418  0.2862E+02  0.2984E+02  0.3121E+03  0.3120E+03
     -1.364  0.1069E+02  0.1035E+02  0.3126E+03  0.3126E+03
     -1.310  0.2506E+02  0.2601E+02  0.3140E+03  0.3140E+03
     -1.256  0.2538E-01  0.2985E+00  0.3140E+03  0.3140E+03
     -1.202  0.1093E+02  0.8297E+01  0.3146E+03  0.3144E+03
     -1.148  0.3598E+02  0.3699E+02  0.3165E+03  0.3164E+03
     -1.094  0.1274E+02  0.1154E+02  0.3172E+03  0.3171E+03
     -1.040  0.1404E+02  0.1609E+02  0.3180E+03  0.3179E+03
     -0.986  0.4750E+01  0.3019E+01  0.3182E+03  0.3181E+03
     -0.932  0.4489E+02  0.4631E+02  0.3207E+03  0.3206E+03
     -0.878  0.1225E+02  0.1334E+02  0.3213E+03  0.3213E+03
     -0.823  0.2113E+02  0.1848E+02  0.3225E+03  0.3223E+03
     -0.769  0.2198E+02  0.2452E+02  0.3237E+03  0.3237E+03
     -0.715  0.4863E+02  0.4636E+02  0.3263E+03  0.3262E+03
     -0.661  0.3655E+02  0.3651E+02  0.3283E+03  0.3281E+03
     -0.607  0.6658E+02  0.5151E+02  0.3319E+03  0.3309E+03
     -0.553  0.5821E+02  0.7116E+02  0.3350E+03  0.3348E+03
     -0.499  0.5554E+02  0.5518E+02  0.3380E+03  0.3378E+03
     -0.445  0.8133E+02  0.8476E+02  0.3424E+03  0.3423E+03
     -0.391  0.3669E+02  0.3704E+02  0.3444E+03  0.3443E+03
     -0.337  0.1053E+03  0.9681E+02  0.3501E+03  0.3496E+03
     -0.283  0.6935E+02  0.7062E+02  0.3539E+03  0.3534E+03
     -0.228  0.7914E+02  0.8167E+02  0.3581E+03  0.3578E+03
     -0.174  0.5597E+02  0.5610E+02  0.3612E+03  0.3609E+03
     -0.120  0.6455E+02  0.5539E+02  0.3647E+03  0.3639E+03
     -0.066  0.7524E+02  0.8307E+02  0.3687E+03  0.3683E+03
     -0.012  0.5148E+02  0.4635E+02  0.3715E+03  0.3709E+03
      0.042  0.9609E+02  0.1051E+03  0.3767E+03  0.3765E+03
      0.096  0.8007E+02  0.7543E+02  0.3810E+03  0.3806E+03
      0.150  0.7261E+02  0.7573E+02  0.3850E+03  0.3847E+03
      0.204  0.9197E+02  0.8653E+02  0.3899E+03  0.3894E+03
      0.258  0.1060E+03  0.1087E+03  0.3957E+03  0.3953E+03
      0.312  0.7515E+02  0.7107E+02  0.3997E+03  0.3991E+03
      0.367  0.1146E+03  0.1161E+03  0.4059E+03  0.4054E+03
      0.421  0.1056E+03  0.1050E+03  0.4116E+03  0.4111E+03
      0.475  0.7669E+02  0.7719E+02  0.4158E+03  0.4152E+03
      0.529  0.1412E+03  0.1380E+03  0.4234E+03  0.4227E+03
      0.583  0.1253E+03  0.1295E+03  0.4302E+03  0.4297E+03
      0.637  0.1454E+03  0.1386E+03  0.4381E+03  0.4372E+03
      0.691  0.1694E+03  0.1759E+03  0.4472E+03  0.4467E+03
      0.745  0.7522E+02  0.8317E+02  0.4513E+03  0.4512E+03
      0.799  0.1192E+03  0.1063E+03  0.4578E+03  0.4570E+03
      0.853  0.9507E+02  0.1035E+03  0.4629E+03  0.4626E+03
      0.907  0.1145E+03  0.1106E+03  0.4691E+03  0.4686E+03
      0.962  0.7827E+02  0.7789E+02  0.4733E+03  0.4728E+03
      1.016  0.6635E+02  0.6846E+02  0.4769E+03  0.4765E+03
      1.070  0.1260E+03  0.1260E+03  0.4837E+03  0.4833E+03
      1.124  0.1141E+03  0.1127E+03  0.4899E+03  0.4894E+03
      1.178  0.1217E+03  0.1234E+03  0.4965E+03  0.4961E+03
      1.232  0.1320E+03  0.1240E+03  0.5036E+03  0.5028E+03
      1.286  0.1385E+03  0.1441E+03  0.5111E+03  0.5106E+03
      1.340  0.8417E+02  0.8752E+02  0.5157E+03  0.5153E+03
      1.394  0.1151E+03  0.1109E+03  0.5219E+03  0.5213E+03
      1.448  0.1341E+03  0.1324E+03  0.5291E+03  0.5285E+03
      1.502  0.1139E+03  0.1112E+03  0.5353E+03  0.5345E+03
      1.556  0.9140E+02  0.9730E+02  0.5403E+03  0.5397E+03
      1.611  0.1221E+03  0.1270E+03  0.5469E+03  0.5466E+03
      1.665  0.1011E+03  0.9710E+02  0.5523E+03  0.5519E+03
      1.719  0.1115E+03  0.1103E+03  0.5584E+03  0.5578E+03
      1.773  0.1355E+03  0.1334E+03  0.5657E+03  0.5650E+03
      1.827  0.7355E+02  0.7433E+02  0.5697E+03  0.5691E+03
      1.881  0.1030E+03  0.1038E+03  0.5752E+03  0.5747E+03
      1.935  0.1045E+03  0.9983E+02  0.5809E+03  0.5801E+03
      1.989  0.7583E+02  0.8358E+02  0.5850E+03  0.5846E+03
      2.043  0.9008E+02  0.8979E+02  0.5899E+03  0.5895E+03
      2.097  0.9288E+02  0.8846E+02  0.5949E+03  0.5942E+03
      2.151  0.8121E+02  0.8411E+02  0.5993E+03  0.5988E+03
      2.206  0.1017E+03  0.9716E+02  0.6048E+03  0.6040E+03
      2.260  0.8632E+02  0.9398E+02  0.6094E+03  0.6091E+03
      2.314  0.6921E+02  0.6901E+02  0.6132E+03  0.6129E+03
      2.368  0.6476E+02  0.6702E+02  0.6167E+03  0.6165E+03
      2.422  0.6634E+02  0.6256E+02  0.6203E+03  0.6199E+03
      2.476  0.9312E+02  0.8831E+02  0.6253E+03  0.6246E+03
      2.530  0.6422E+02  0.7446E+02  0.6288E+03  0.6287E+03
      2.584  0.7803E+02  0.7854E+02  0.6330E+03  0.6329E+03
      2.638  0.4533E+02  0.3488E+02  0.6355E+03  0.6348E+03
      2.692  0.9252E+02  0.8910E+02  0.6405E+03  0.6396E+03
      2.746  0.5429E+02  0.6439E+02  0.6434E+03  0.6431E+03
      2.801  0.6634E+02  0.7030E+02  0.6470E+03  0.6469E+03
      2.855  0.5329E+02  0.4727E+02  0.6499E+03  0.6495E+03
      2.909  0.4061E+02  0.3949E+02  0.6521E+03  0.6516E+03
      2.963  0.5683E+02  0.6317E+02  0.6551E+03  0.6550E+03
      3.017  0.3847E+02  0.3032E+02  0.6572E+03  0.6567E+03
      3.071  0.5145E+02  0.5185E+02  0.6600E+03  0.6595E+03
      3.125  0.3866E+02  0.4011E+02  0.6621E+03  0.6616E+03
      3.179  0.4169E+02  0.4808E+02  0.6644E+03  0.6642E+03
      3.233  0.6008E+02  0.4929E+02  0.6676E+03  0.6669E+03
      3.287  0.3192E+02  0.3518E+02  0.6693E+03  0.6688E+03
      3.341  0.2544E+02  0.2419E+02  0.6707E+03  0.6701E+03
      3.396  0.3631E+02  0.4391E+02  0.6727E+03  0.6725E+03
      3.450  0.3073E+02  0.3306E+02  0.6743E+03  0.6743E+03
      3.504  0.2101E+02  0.1394E+02  0.6755E+03  0.6750E+03
      3.558  0.3499E+02  0.3618E+02  0.6774E+03  0.6770E+03
      3.612  0.4249E+02  0.4159E+02  0.6797E+03  0.6792E+03
      3.666  0.2418E+02  0.2678E+02  0.6810E+03  0.6807E+03
      3.720  0.2527E+02  0.3045E+02  0.6823E+03  0.6823E+03
      3.774  0.1846E+02  0.1848E+02  0.6833E+03  0.6833E+03
      3.828  0.2834E+02  0.2335E+02  0.6849E+03  0.6846E+03
      3.882  0.2100E+02  0.2597E+02  0.6860E+03  0.6860E+03
      3.936  0.1147E+02  0.8794E+01  0.6866E+03  0.6865E+03
      3.990  0.1636E+02  0.1663E+02  0.6875E+03  0.6874E+03
      4.045  0.2747E+02  0.2912E+02  0.6890E+03  0.6890E+03
      4.099  0.3085E+02  0.2600E+02  0.6907E+03  0.6904E+03
      4.153  0.4259E+02  0.4321E+02  0.6930E+03  0.6927E+03
      4.207  0.3977E+02  0.3979E+02  0.6951E+03  0.6948E+03
      4.261  0.2665E+02  0.2553E+02  0.6966E+03  0.6962E+03
      4.315  0.3430E+02  0.3919E+02  0.6984E+03  0.6983E+03
      4.369  0.4775E+02  0.4555E+02  0.7010E+03  0.7008E+03
      4.423  0.6732E+02  0.6421E+02  0.7046E+03  0.7043E+03
      4.477  0.7505E+02  0.7370E+02  0.7087E+03  0.7083E+03
      4.531  0.6701E+02  0.7054E+02  0.7123E+03  0.7121E+03
      4.585  0.6616E+02  0.6674E+02  0.7159E+03  0.7157E+03
      4.640  0.5984E+02  0.5487E+02  0.7191E+03  0.7187E+03
      4.694  0.9172E+02  0.9040E+02  0.7241E+03  0.7236E+03
      4.748  0.6815E+02  0.7109E+02  0.7278E+03  0.7274E+03
      4.802  0.7433E+02  0.7548E+02  0.7318E+03  0.7315E+03
      4.856  0.9538E+02  0.9324E+02  0.7370E+03  0.7365E+03
      4.910  0.9155E+02  0.8834E+02  0.7419E+03  0.7413E+03
      4.964  0.1051E+03  0.1102E+03  0.7476E+03  0.7473E+03
      5.018  0.1058E+03  0.1026E+03  0.7533E+03  0.7528E+03
      5.072  0.1154E+03  0.1148E+03  0.7596E+03  0.7590E+03
      5.126  0.9118E+02  0.9049E+02  0.7645E+03  0.7639E+03
      5.180  0.1187E+03  0.1183E+03  0.7709E+03  0.7703E+03
      5.235  0.8648E+02  0.9415E+02  0.7756E+03  0.7754E+03
      5.289  0.8814E+02  0.8265E+02  0.7804E+03  0.7799E+03
      5.343  0.1237E+03  0.1225E+03  0.7871E+03  0.7865E+03
      5.397  0.1042E+03  0.1039E+03  0.7927E+03  0.7921E+03
      5.451  0.1217E+03  0.1229E+03  0.7993E+03  0.7988E+03
      5.505  0.7152E+02  0.7844E+02  0.8031E+03  0.8030E+03
      5.559  0.6288E+02  0.5826E+02  0.8065E+03  0.8062E+03
      5.613  0.1999E+02  0.2057E+02  0.8076E+03  0.8073E+03
      5.667  0.7020E+01  0.1344E+02  0.8080E+03  0.8080E+03
      5.721  0.0000E+00  0.0000E+00  0.8080E+03  0.8080E+03
      5.775  0.0000E+00  0.0000E+00  0.8080E+03  0.8080E+03
      5.830  0.0000E+00  0.0000E+00  0.8080E+03  0.8080E+03
      5.884  0.0000E+00  0.0000E+00  0.8080E+03  0.8080E+03
      5.938  0.0000E+00  0.0000E+00  0.8080E+03  0.8080E+03
      5.992  0.0000E+00  0.0000E+00  0.8080E+03  0.8080E+03
      6.046  0.0000E+00  0.0000E+00  0.8080E+03  0.8080E+03
      6.100  0.0000E+00  0.0000E+00  0.8080E+03  0.8080E+03
      6.154  0.0000E+00  0.0000E+00  0.8080E+03  0.8080E+03
      6.208  0.0000E+00  0.0000E+00  0.8080E+03  0.8080E+03
      6.262  0.0000E+00  0.0000E+00  0.8080E+03  0.8080E+03
      6.316  0.0000E+00  0.0000E+00  0.8080E+03  0.8080E+03
      6.370  0.0000E+00  0.0000E+00  0.8080E+03  0.8080E+03
