Si and Ge interface calculation         
           1
    19.467600    0.000000    0.000000
     0.000000   19.467600    0.000000
     0.000000    0.000000   19.100252
   Sn   Si
   108   156
Direct configuration=     1
   0.20782793  0.25281307  0.89005387
   0.86167407  0.52204382  0.89005387
   0.66170174  0.66666669  0.33974418
   0.16936636  0.06050539  0.89005387
   0.90013558  0.71435153  0.89005387
   0.66170174  0.33333334  0.33974418
   0.30398178  0.23358229  0.81896830
   0.01552033  0.79127467  0.74788278
   0.66170174  0.00000000  0.33974418
   0.32836846  0.66666669  0.00000000
   0.16170174  0.66666669  0.16987211
   0.99503511  0.66666669  0.33974418
   0.13090488  0.86819774  0.89005387
   0.16170174  0.33333334  0.16987211
   0.99503511  0.33333334  0.33974418
   0.36167410  0.02204371  0.89005387
   0.97705865  0.09896692  0.89005387
   0.99503511  0.00000000  0.33974418
   0.66170180  0.66666669  0.00000000
   0.82321245  0.32973614  0.89005387
   0.32836846  0.66666669  0.33974418
   0.66170180  0.33333334  0.00000000
   0.93859708  0.90665925  0.89005387
   0.38090500  0.61819780  0.53462648
   0.66170180  0.00000000  0.00000000
   0.49503511  0.00000000  0.16987211
   0.32836846  0.00000000  0.33974418
   0.07836843  0.91666675  0.08493605
   0.91170180  0.91666675  0.25480810
   0.95782804  0.50281322  0.53462648
   0.07836843  0.58333343  0.08493605
   0.91170180  0.58333343  0.25480810
   0.91936648  0.31050542  0.53462648
   0.07836843  0.25000000  0.08493605
   0.72705883  0.34896702  0.53462648
   0.05398190  0.48358247  0.60571194
   0.41170177  0.91666675  0.08493605
   0.57321268  0.57973623  0.53462648
   0.07836838  0.91666675  0.42468023
   0.41170177  0.58333343  0.08493605
   0.68859726  0.15665934  0.53462648
   0.88090497  0.11819780  0.53462648
   0.41170177  0.25000000  0.08493605
   0.24503510  0.25000000  0.25480810
   0.11167417  0.27204397  0.53462648
   0.74503517  0.91666675  0.08493605
   0.61167419  0.77204394  0.53462648
   0.41170180  0.91666675  0.42468023
   0.74503517  0.58333343  0.08493605
   0.65013570  0.96435159  0.53462648
   0.41170180  0.58333343  0.42468023
   0.74503517  0.25000000  0.08493605
   0.76552028  0.04127467  0.67679733
   0.41170180  0.25000000  0.42468023
   0.16170177  0.83333331  0.00000000
   0.78475100  0.13742843  0.89005387
   0.82836843  0.83333331  0.33974418
   0.16170177  0.50000000  0.00000000
   0.05398178  0.48358232  0.89005387
   0.82836843  0.50000000  0.33974418
   0.16170177  0.16666667  0.00000000
   0.09244330  0.67589003  0.89005387
   0.82836843  0.16666667  0.33974418
   0.49503511  0.83333331  0.00000000
   0.74628949  0.94512075  0.89005387
   0.16170175  0.83333331  0.33974418
   0.49503511  0.50000000  0.00000000
   0.32836843  0.50000000  0.16987211
   0.16170175  0.50000000  0.33974418
   0.49503511  0.16666667  0.00000000
   0.70782799  0.75281304  0.89005387
   0.16170175  0.16666667  0.33974418
   0.82836855  0.83333331  0.00000000
   0.47705874  0.59896690  0.89005387
   0.49503520  0.83333331  0.33974418
   0.82836855  0.50000000  0.00000000
   0.66170186  0.50000000  0.16987211
   0.49503520  0.50000000  0.33974418
   0.43859720  0.40665925  0.89005387
   0.66170186  0.16666667  0.16987211
   0.49503520  0.16666667  0.33974418
   0.24503510  0.75000006  0.08493605
   0.07836843  0.75000006  0.25480810
   0.91170174  0.75000006  0.42468023
   0.24503510  0.41666672  0.08493605
   0.45782810  0.00281322  0.53462648
   0.91170174  0.41666672  0.42468023
   0.24503510  0.08333334  0.08493605
   0.49628958  0.19512083  0.53462648
   0.91170174  0.08333334  0.42468023
   0.57836848  0.75000006  0.08493605
   0.41170186  0.75000006  0.25480810
   0.24503513  0.75000006  0.42468023
   0.57836848  0.41666672  0.08493605
   0.41170186  0.41666672  0.25480810
   0.24503513  0.41666672  0.42468023
   0.63090485  0.36819765  0.89005387
   0.22705880  0.84896707  0.53462648
   0.24503513  0.08333334  0.42468023
   0.91170174  0.75000006  0.08493605
   0.80398190  0.73358238  0.53462648
   0.57836837  0.75000006  0.42468023
   0.91170174  0.41666672  0.08493605
   0.84244347  0.92589009  0.53462648
   0.18859725  0.65665930  0.53462648
   0.91170174  0.08333334  0.08493605
   0.53475112  0.38742858  0.53462648
   0.57836837  0.08333334  0.42468023
   0.07321262  0.07973623  0.53462648
   0.95782793  0.00281310  0.67679733
   0.84244329  0.92588997  0.81896830
   0.15013571  0.46435168  0.53462648
   0.03475106  0.38742852  0.67679733
   0.91936636  0.31050539  0.81896830
   0.30398187  0.23358241  0.53462648
   0.18859720  0.15665928  0.67679733
   0.07321250  0.07973611  0.81896830
   0.41170186  0.08333334  0.25480810
   0.11167411  0.77204394  0.67679733
   0.99628943  0.69512081  0.81896830
   0.32836846  0.33333334  0.33974418
   0.26552030  0.54127467  0.67679733
   0.15013565  0.46435153  0.81896830
   0.74503505  0.08333334  0.25480810
   0.41936645  0.31050542  0.67679733
   0.99503511  0.00000000  0.00000000
   0.24503510  0.58333343  0.25480810
   0.57321256  0.07973611  0.67679733
   0.45782795  0.00281298  0.81896830
   0.07836843  0.41666672  0.25480810
   0.34244344  0.92589015  0.67679733
   0.22705877  0.84896696  0.81896830
   0.57836855  0.91666675  0.25480810
   0.49628952  0.69512081  0.67679733
   0.38090485  0.61819768  0.81896830
   0.76552028  0.54127473  0.53462648
   0.65013564  0.46435159  0.67679733
   0.53475094  0.38742846  0.81896830
   0.74503505  0.58333343  0.42468023
   0.80398184  0.23358226  0.67679733
   0.68859714  0.15665913  0.81896830
   0.74503505  0.41666672  0.25480810
   0.72705883  0.84896696  0.67679733
   0.61167413  0.77204382  0.81896830
   0.99628961  0.69512087  0.53462648
   0.88090497  0.61819774  0.67679733
   0.76552028  0.54127461  0.81896830
   0.09244342  0.67589009  0.60571194
   0.97705877  0.59896696  0.74788278
   0.82836843  0.66666669  0.16987211
   0.24628955  0.44512090  0.60571194
   0.13090488  0.36819777  0.74788278
   0.01552022  0.29127461  0.89005387
   0.40013573  0.21435162  0.60571194
   0.28475103  0.13742849  0.74788278
   0.99503511  0.33333334  0.00000000
   0.16936648  0.06050551  0.60571194
   0.05398178  0.98358238  0.74788278
   0.49503511  0.33333334  0.16987211
   0.32321265  0.82973629  0.60571194
   0.20782799  0.75281316  0.74788278
   0.99503505  0.16666667  0.16987211
   0.47705886  0.59896707  0.60571194
   0.36167419  0.52204388  0.74788278
   0.24628952  0.44512078  0.89005387
   0.63090497  0.36819777  0.60571194
   0.51552028  0.29127461  0.74788278
   0.40013564  0.21435148  0.89005387
   0.78475112  0.13742852  0.60571194
   0.66936642  0.06050539  0.74788278
   0.55398178  0.98358226  0.89005387
   0.55398196  0.98358244  0.60571194
   0.43859729  0.90665930  0.74788278
   0.32321259  0.82973617  0.89005387
   0.70782810  0.75281322  0.60571194
   0.59244341  0.67589003  0.74788278
   0.66170186  0.83333331  0.16987211
   0.86167425  0.52204394  0.60571194
   0.74628955  0.44512078  0.74788278
   0.57836848  0.08333334  0.08493605
   0.01552045  0.29127473  0.60571194
   0.90013570  0.21435157  0.74788278
   0.99503505  0.83333331  0.16987211
   0.93859744  0.90665937  0.60571194
   0.82321274  0.82973623  0.74788278
   0.32836843  0.16666667  0.16987211
   0.07836838  0.25000000  0.42468023
   0.99628949  0.19512083  0.67679733
   0.88090479  0.11819769  0.81896830
   0.57836837  0.41666672  0.42468023
   0.07321262  0.57973623  0.67679733
   0.95782787  0.50281304  0.81896830
   0.34244344  0.42589015  0.53462648
   0.22705877  0.34896702  0.67679733
   0.11167408  0.27204388  0.81896830
   0.07836843  0.08333334  0.25480810
   0.38090491  0.11819769  0.67679733
   0.26552022  0.04127455  0.81896830
   0.26552033  0.04127467  0.53462648
   0.15013564  0.96435153  0.67679733
   0.03475094  0.88742846  0.81896830
   0.41936651  0.81050551  0.53462648
   0.30398181  0.73358238  0.67679733
   0.18859716  0.65665925  0.81896830
   0.24503510  0.91666675  0.25480810
   0.45782801  0.50281310  0.67679733
   0.34244332  0.42588997  0.81896830
   0.91170180  0.25000000  0.25480810
   0.61167419  0.27204388  0.67679733
   0.49628952  0.19512075  0.81896830
   0.07836838  0.58333343  0.42468023
   0.57836855  0.25000000  0.25480810
   0.65013564  0.96435153  0.81896830
   0.57836855  0.58333343  0.25480810
   0.53475100  0.88742852  0.67679733
   0.41936639  0.81050533  0.81896830
   0.74503505  0.75000006  0.25480810
   0.68859720  0.65665925  0.67679733
   0.57321250  0.57973605  0.81896830
   0.74503505  0.91666675  0.42468023
   0.84244341  0.42589009  0.67679733
   0.72705871  0.34896696  0.81896830
   0.03475118  0.88742852  0.53462648
   0.91936648  0.81050539  0.67679733
   0.80398184  0.73358226  0.81896830
   0.20782801  0.25281319  0.60571194
   0.09244335  0.17589006  0.74788278
   0.16170174  0.00000000  0.16987211
   0.13090493  0.86819786  0.60571194
   0.82836843  0.00000000  0.16987211
   0.82836843  0.33333334  0.16987211
   0.28475112  0.63742864  0.60571194
   0.16936645  0.56050545  0.74788278
   0.99503505  0.50000000  0.16987211
   0.43859729  0.40665937  0.60571194
   0.32321262  0.32973623  0.74788278
   0.99503511  0.66666669  0.00000000
   0.59244341  0.17589007  0.60571194
   0.47705880  0.09896695  0.74788278
   0.32836846  0.00000000  0.00000000
   0.36167425  0.02204406  0.60571194
   0.24628958  0.94512087  0.74788278
   0.32836846  0.33333334  0.00000000
   0.51552033  0.79127485  0.60571194
   0.40013567  0.71435165  0.74788278
   0.28475100  0.63742852  0.89005387
   0.66936654  0.56050551  0.60571194
   0.55398184  0.48358238  0.74788278
   0.82836855  0.16666667  0.00000000
   0.82321268  0.32973623  0.60571194
   0.70782799  0.25281310  0.74788278
   0.59244335  0.17588994  0.89005387
   0.97705883  0.09896702  0.60571194
   0.86167413  0.02204382  0.74788278
   0.32836843  0.83333331  0.16987211
   0.74628967  0.94512099  0.60571194
   0.63090497  0.86819786  0.74788278
   0.51552028  0.79127473  0.89005387
   0.90013581  0.71435165  0.60571194
   0.78475112  0.63742852  0.74788278
   0.66936636  0.56050533  0.89005387
   0.74503505  0.25000000  0.42468023
   0.93859714  0.40665930  0.74788278
   0.49503511  0.66666669  0.16987211
