Si Bulk DFT energetics calculations using VASP\n
This script is running on comp019.cluster.local in /lustre/home/ah1365/projects/127870/upgrade_report/case_studies/common/structures/interfaces/228_Ge108Si120_001_001_a0.739645_b0.278107_c2.0_interface2shift4\n
Job started on: Mon  9 Jun 14:21:35 UTC 2025\n
 running   64 mpi-ranks, on    4 nodes
 distrk:  each k-point on   64 cores,    1 groups
 distr:  one band on   16 cores,    4 groups
 vasp.6.4.3 19Mar24 (build Oct 22 2024 11:23:12) complex                        
  
 POSCAR found type information on POSCAR GeSi
 POSCAR found :  2 types and     228 ions
 -----------------------------------------------------------------------------
|                                                                             |
|           W    W    AA    RRRRR   N    N  II  N    N   GGGG   !!!           |
|           W    W   A  A   R    R  NN   N  II  NN   N  G    G  !!!           |
|           W    W  A    A  R    R  N N  N  II  N N  N  G       !!!           |
|           W WW W  AAAAAA  RRRRR   N  N N  II  N  N N  G  GGG   !            |
|           WW  WW  A    A  R   R   N   NN  II  N   NN  G    G                |
|           W    W  A    A  R    R  N    N  II  N    N   GGGG   !!!           |
|                                                                             |
|     You use a magnetic or noncollinear calculation, but did not specify     |
|     the initial magnetic moment with the MAGMOM tag. Note that a            |
|     default of 4.386e-3 will be used for all atoms. This ferromagnetic      |
|     setup may break the symmetry of the crystal, in particular it may       |
|     rule out finding an antiferromagnetic solution. Thence, we              |
|     recommend setting the initial magnetic moment manually or verifying     |
|     carefully that this magnetic setup is desired.                          |
|                                                                             |
 -----------------------------------------------------------------------------

 scaLAPACK will be used
 LDA part: xc-table for (Slater+PW92), standard interpolation
 POSCAR, INCAR and KPOINTS ok, starting setup
 FFT: planning ... GRIDC
 FFT: planning ... GRID_SOFT
 FFT: planning ... GRID
 WAVECAR not read
 entering main loop
       N       E                     dE             d eps       ncg     rms          rms(c)
DAV:   1     0.380789595843E+04    0.38079E+04   -0.40386E+05 17536   0.172E+03
DAV:   2    -0.639925483616E+03   -0.44478E+04   -0.42925E+04 20448   0.213E+02
DAV:   3    -0.106659125614E+04   -0.42667E+03   -0.41252E+03 21720   0.582E+01
DAV:   4    -0.108296667047E+04   -0.16375E+02   -0.16076E+02 20640   0.119E+01
DAV:   5    -0.108361880102E+04   -0.65213E+00   -0.64785E+00 23664   0.230E+00    0.423E+01
DAV:   6    -0.106494874036E+04    0.18670E+02   -0.42818E+01 21680   0.939E+00    0.189E+01
DAV:   7    -0.106443018976E+04    0.51855E+00   -0.30828E+01 20872   0.757E+00    0.978E+00
DAV:   8    -0.106360919743E+04    0.82099E+00   -0.66718E+00 20480   0.385E+00    0.238E+00
DAV:   9    -0.106360412015E+04    0.50773E-02   -0.14272E+00 21256   0.122E+00    0.131E+00
DAV:  10    -0.106358674779E+04    0.17372E-01   -0.19427E-01 20904   0.581E-01    0.739E-01
DAV:  11    -0.106358782488E+04   -0.10771E-02   -0.61141E-02 21456   0.347E-01    0.392E-01
DAV:  12    -0.106358490205E+04    0.29228E-02   -0.19237E-02 21656   0.213E-01    0.192E-01
DAV:  13    -0.106358500412E+04   -0.10207E-03   -0.34221E-03 19720   0.690E-02    0.125E-01
DAV:  14    -0.106358506236E+04   -0.58239E-04   -0.73509E-04 19928   0.326E-02    0.516E-02
DAV:  15    -0.106358507695E+04   -0.14592E-04   -0.24529E-04 20128   0.176E-02    0.383E-02
DAV:  16    -0.106358508237E+04   -0.54205E-05   -0.57782E-05 20104   0.965E-03    0.219E-02
DAV:  17    -0.106358508431E+04   -0.19350E-05   -0.14508E-05 19856   0.431E-03    0.875E-03
DAV:  18    -0.106358508615E+04   -0.18471E-05   -0.27748E-06 19264   0.211E-03    0.593E-03
DAV:  19    -0.106358508801E+04   -0.18570E-05   -0.66097E-07 19944   0.104E-03    0.319E-03
DAV:  20    -0.106358508928E+04   -0.12675E-05   -0.23830E-07 11672   0.624E-04    0.137E-03
DAV:  21    -0.106358508980E+04   -0.52387E-06   -0.10622E-07 10368   0.415E-04    0.666E-04
DAV:  22    -0.106358509003E+04   -0.23257E-06   -0.47266E-08 10176   0.237E-04    0.365E-04
DAV:  23    -0.106358509009E+04   -0.57731E-07   -0.15738E-08 10040   0.151E-04
   1 F= -.10635851E+04 E0= -.10635836E+04  d E =-.299189E-02  mag=     1.0000
Job ended on: Mon  9 Jun 15:15:42 UTC 2025\n
