 264 264   0   0
  0.2770664E+02  0.1946760E-08  0.1946760E-08  0.1930025E-08  0.5000000E-15
  1.000000000000000E-004
  CAR 
 Si and Ge interface calculation         
      6.69595797     -8.48213584  301      4.08812600      1.00000000
     -8.482  0.0000E+00  0.0000E+00  0.0000E+00  0.0000E+00
     -8.432  0.0000E+00  0.0000E+00  0.0000E+00  0.0000E+00
     -8.381  0.0000E+00  0.0000E+00  0.0000E+00  0.0000E+00
     -8.330  0.0000E+00  0.0000E+00  0.0000E+00  0.0000E+00
     -8.280  0.0000E+00  0.0000E+00  0.0000E+00  0.0000E+00
     -8.229  0.0000E+00  0.0000E+00  0.0000E+00  0.0000E+00
     -8.179  0.0000E+00  0.0000E+00  0.0000E+00  0.0000E+00
     -8.128  0.0000E+00  0.0000E+00  0.0000E+00  0.0000E+00
     -8.077  0.0000E+00  0.0000E+00  0.0000E+00  0.0000E+00
     -8.027  0.0000E+00  0.0000E+00  0.0000E+00  0.0000E+00
     -7.976  0.0000E+00  0.0000E+00  0.0000E+00  0.0000E+00
     -7.926  0.0000E+00  0.0000E+00  0.0000E+00  0.0000E+00
     -7.875  0.0000E+00  0.0000E+00  0.0000E+00  0.0000E+00
     -7.824  0.2432E-04  0.5711E-05  0.1231E-05  0.2889E-06
     -7.774  0.9835E+01  0.9774E+01  0.4976E+00  0.4945E+00
     -7.723  0.1179E+01  0.6654E+00  0.5572E+00  0.5282E+00
     -7.673  0.3840E+02  0.3897E+02  0.2500E+01  0.2500E+01
     -7.622  0.2902E+02  0.2564E+02  0.3968E+01  0.3797E+01
     -7.571  0.1051E+02  0.1389E+02  0.4500E+01  0.4500E+01
     -7.521  0.5361E-10  0.4627E-11  0.4500E+01  0.4500E+01
     -7.470  0.1288E+02  0.9829E+01  0.5151E+01  0.4997E+01
     -7.420  0.2665E+02  0.2970E+02  0.6500E+01  0.6500E+01
     -7.369  0.7680E+02  0.7497E+02  0.1039E+02  0.1029E+02
     -7.318  0.2266E+01  0.4093E+01  0.1050E+02  0.1050E+02
     -7.268  0.0000E+00  0.0000E+00  0.1050E+02  0.1050E+02
     -7.217  0.8942E-13  0.1207E-13  0.1050E+02  0.1050E+02
     -7.167  0.3061E+01  0.2225E+01  0.1065E+02  0.1061E+02
     -7.116  0.3383E+02  0.3335E+02  0.1237E+02  0.1230E+02
     -7.066  0.2882E+02  0.2804E+02  0.1382E+02  0.1372E+02
     -7.015  0.3234E+02  0.3246E+02  0.1546E+02  0.1536E+02
     -6.964  0.4153E+02  0.4100E+02  0.1756E+02  0.1743E+02
     -6.914  0.1843E+02  0.2084E+02  0.1850E+02  0.1849E+02
     -6.863  0.9703E-01  0.2155E+00  0.1850E+02  0.1850E+02
     -6.813  0.4110E-02  0.8068E-03  0.1850E+02  0.1850E+02
     -6.762  0.2260E+02  0.1864E+02  0.1964E+02  0.1944E+02
     -6.711  0.7722E+02  0.7760E+02  0.2355E+02  0.2337E+02
     -6.661  0.3236E+02  0.3527E+02  0.2519E+02  0.2515E+02
     -6.610  0.3466E+02  0.3386E+02  0.2694E+02  0.2687E+02
     -6.560  0.1473E+02  0.1428E+02  0.2769E+02  0.2759E+02
     -6.509  0.4013E+02  0.3938E+02  0.2972E+02  0.2958E+02
     -6.458  0.8586E+02  0.8334E+02  0.3406E+02  0.3380E+02
     -6.408  0.8007E+02  0.7939E+02  0.3811E+02  0.3782E+02
     -6.357  0.3282E+02  0.3845E+02  0.3977E+02  0.3976E+02
     -6.307  0.8079E+02  0.7899E+02  0.4386E+02  0.4376E+02
     -6.256  0.1732E+02  0.1727E+02  0.4473E+02  0.4463E+02
     -6.205  0.9244E+02  0.9083E+02  0.4941E+02  0.4923E+02
     -6.155  0.7471E+02  0.7481E+02  0.5319E+02  0.5301E+02
     -6.104  0.4636E+02  0.4918E+02  0.5554E+02  0.5550E+02
     -6.054  0.1018E+02  0.1061E+02  0.5605E+02  0.5604E+02
     -6.003  0.6576E+02  0.5835E+02  0.5938E+02  0.5899E+02
     -5.952  0.1036E+03  0.1033E+03  0.6462E+02  0.6422E+02
     -5.902  0.1074E+03  0.1143E+03  0.7006E+02  0.7000E+02
     -5.851  0.6689E+02  0.6493E+02  0.7344E+02  0.7328E+02
     -5.801  0.1103E+03  0.1108E+03  0.7902E+02  0.7889E+02
     -5.750  0.1142E+03  0.1114E+03  0.8480E+02  0.8453E+02
     -5.699  0.8387E+02  0.8145E+02  0.8904E+02  0.8865E+02
     -5.649  0.9112E+02  0.9590E+02  0.9365E+02  0.9350E+02
     -5.598  0.5246E+02  0.5160E+02  0.9631E+02  0.9611E+02
     -5.548  0.9625E+02  0.9483E+02  0.1012E+03  0.1009E+03
     -5.497  0.1062E+03  0.1051E+03  0.1066E+03  0.1062E+03
     -5.447  0.1220E+03  0.1240E+03  0.1127E+03  0.1125E+03
     -5.396  0.7119E+02  0.7159E+02  0.1163E+03  0.1161E+03
     -5.345  0.1180E+03  0.1154E+03  0.1223E+03  0.1220E+03
     -5.295  0.1223E+03  0.1283E+03  0.1285E+03  0.1285E+03
     -5.244  0.3918E+02  0.3626E+02  0.1305E+03  0.1303E+03
     -5.194  0.8755E+02  0.8906E+02  0.1349E+03  0.1348E+03
     -5.143  0.4481E+02  0.4564E+02  0.1372E+03  0.1371E+03
     -5.092  0.1085E+03  0.1050E+03  0.1427E+03  0.1424E+03
     -5.042  0.1035E+03  0.1062E+03  0.1479E+03  0.1478E+03
     -4.991  0.9936E+02  0.9649E+02  0.1529E+03  0.1527E+03
     -4.941  0.1705E+03  0.1736E+03  0.1615E+03  0.1615E+03
     -4.890  0.8496E+02  0.8073E+02  0.1658E+03  0.1655E+03
     -4.839  0.6420E+02  0.6535E+02  0.1691E+03  0.1688E+03
     -4.789  0.7965E+02  0.7937E+02  0.1731E+03  0.1729E+03
     -4.738  0.6483E+02  0.6806E+02  0.1764E+03  0.1763E+03
     -4.688  0.9080E+02  0.8729E+02  0.1810E+03  0.1807E+03
     -4.637  0.1197E+03  0.1201E+03  0.1870E+03  0.1868E+03
     -4.586  0.1116E+03  0.1108E+03  0.1927E+03  0.1924E+03
     -4.536  0.5891E+02  0.6150E+02  0.1957E+03  0.1955E+03
     -4.485  0.7772E+02  0.7445E+02  0.1996E+03  0.1993E+03
     -4.435  0.1250E+03  0.1251E+03  0.2059E+03  0.2056E+03
     -4.384  0.8135E+02  0.8232E+02  0.2100E+03  0.2098E+03
     -4.333  0.1351E+03  0.1319E+03  0.2169E+03  0.2164E+03
     -4.283  0.1004E+03  0.1028E+03  0.2220E+03  0.2216E+03
     -4.232  0.6119E+02  0.6014E+02  0.2251E+03  0.2247E+03
     -4.182  0.9687E+02  0.1031E+03  0.2300E+03  0.2299E+03
     -4.131  0.7043E+02  0.6813E+02  0.2335E+03  0.2334E+03
     -4.080  0.3478E+02  0.3705E+02  0.2353E+03  0.2352E+03
     -4.030  0.3450E+02  0.3037E+02  0.2370E+03  0.2368E+03
     -3.979  0.6195E+02  0.6292E+02  0.2402E+03  0.2399E+03
     -3.929  0.3766E+02  0.4090E+02  0.2421E+03  0.2420E+03
     -3.878  0.6342E+02  0.6048E+02  0.2453E+03  0.2451E+03
     -3.828  0.8061E+02  0.7918E+02  0.2494E+03  0.2491E+03
     -3.777  0.5099E+02  0.5368E+02  0.2519E+03  0.2518E+03
     -3.726  0.3947E+02  0.4013E+02  0.2539E+03  0.2538E+03
     -3.676  0.6159E+02  0.5997E+02  0.2570E+03  0.2569E+03
     -3.625  0.5844E+02  0.5745E+02  0.2600E+03  0.2598E+03
     -3.575  0.3234E+02  0.3134E+02  0.2616E+03  0.2614E+03
     -3.524  0.1054E+03  0.1064E+03  0.2670E+03  0.2667E+03
     -3.473  0.6039E+02  0.6198E+02  0.2700E+03  0.2699E+03
     -3.423  0.2487E+02  0.2684E+02  0.2713E+03  0.2712E+03
     -3.372  0.6097E+02  0.5656E+02  0.2744E+03  0.2741E+03
     -3.322  0.9570E+02  0.9606E+02  0.2792E+03  0.2790E+03
     -3.271  0.7980E+02  0.8142E+02  0.2832E+03  0.2831E+03
     -3.220  0.7330E+02  0.6354E+02  0.2870E+03  0.2863E+03
     -3.170  0.8825E+02  0.9589E+02  0.2914E+03  0.2911E+03
     -3.119  0.6121E+02  0.6282E+02  0.2945E+03  0.2943E+03
     -3.069  0.9049E+02  0.8962E+02  0.2991E+03  0.2989E+03
     -3.018  0.4553E+02  0.4921E+02  0.3014E+03  0.3013E+03
     -2.967  0.4200E+02  0.3553E+02  0.3035E+03  0.3031E+03
     -2.917  0.9971E+02  0.1030E+03  0.3086E+03  0.3083E+03
     -2.866  0.7890E+02  0.7422E+02  0.3126E+03  0.3121E+03
     -2.816  0.9554E+02  0.1023E+03  0.3174E+03  0.3173E+03
     -2.765  0.4958E+02  0.5092E+02  0.3199E+03  0.3199E+03
     -2.714  0.8195E+02  0.7756E+02  0.3240E+03  0.3238E+03
     -2.664  0.8795E+02  0.8785E+02  0.3285E+03  0.3282E+03
     -2.613  0.1405E+03  0.1346E+03  0.3356E+03  0.3350E+03
     -2.563  0.1127E+03  0.1208E+03  0.3413E+03  0.3411E+03
     -2.512  0.1308E+03  0.1255E+03  0.3479E+03  0.3475E+03
     -2.461  0.1437E+03  0.1462E+03  0.3552E+03  0.3549E+03
     -2.411  0.1089E+03  0.1101E+03  0.3607E+03  0.3605E+03
     -2.360  0.8520E+02  0.8354E+02  0.3650E+03  0.3647E+03
     -2.310  0.1072E+03  0.1085E+03  0.3704E+03  0.3702E+03
     -2.259  0.9198E+02  0.8797E+02  0.3751E+03  0.3746E+03
     -2.209  0.6957E+02  0.7419E+02  0.3786E+03  0.3784E+03
     -2.158  0.9875E+02  0.9814E+02  0.3836E+03  0.3834E+03
     -2.107  0.8045E+02  0.8453E+02  0.3877E+03  0.3876E+03
     -2.057  0.8382E+02  0.8130E+02  0.3919E+03  0.3917E+03
     -2.006  0.1020E+03  0.9801E+02  0.3971E+03  0.3967E+03
     -1.956  0.7857E+02  0.8312E+02  0.4011E+03  0.4009E+03
     -1.905  0.5758E+02  0.5629E+02  0.4040E+03  0.4038E+03
     -1.854  0.7060E+02  0.7032E+02  0.4075E+03  0.4073E+03
     -1.804  0.1133E+03  0.1112E+03  0.4133E+03  0.4129E+03
     -1.753  0.9686E+02  0.9933E+02  0.4182E+03  0.4180E+03
     -1.703  0.2991E+02  0.3076E+02  0.4197E+03  0.4195E+03
     -1.652  0.8701E+02  0.8546E+02  0.4241E+03  0.4238E+03
     -1.601  0.8649E+02  0.8818E+02  0.4285E+03  0.4283E+03
     -1.551  0.8277E+02  0.7917E+02  0.4326E+03  0.4323E+03
     -1.500  0.7700E+02  0.8003E+02  0.4365E+03  0.4364E+03
     -1.450  0.6283E+02  0.6359E+02  0.4397E+03  0.4396E+03
     -1.399  0.6120E+02  0.6228E+02  0.4428E+03  0.4427E+03
     -1.348  0.5857E+02  0.5610E+02  0.4458E+03  0.4456E+03
     -1.298  0.5364E+02  0.5356E+02  0.4485E+03  0.4483E+03
     -1.247  0.2965E+02  0.3399E+02  0.4500E+03  0.4500E+03
     -1.197  0.6197E+02  0.5968E+02  0.4531E+03  0.4530E+03
     -1.146  0.4440E+02  0.4517E+02  0.4554E+03  0.4553E+03
     -1.095  0.4022E+02  0.3568E+02  0.4574E+03  0.4571E+03
     -1.045  0.6476E+02  0.6738E+02  0.4607E+03  0.4605E+03
     -0.994  0.6249E+02  0.6059E+02  0.4639E+03  0.4636E+03
     -0.944  0.4636E+02  0.4668E+02  0.4662E+03  0.4659E+03
     -0.893  0.3682E+02  0.3814E+02  0.4681E+03  0.4679E+03
     -0.842  0.9643E+02  0.9161E+02  0.4729E+03  0.4725E+03
     -0.792  0.5738E+02  0.6364E+02  0.4758E+03  0.4757E+03
     -0.741  0.5629E+02  0.5669E+02  0.4787E+03  0.4786E+03
     -0.691  0.3649E+02  0.3402E+02  0.4805E+03  0.4803E+03
     -0.640  0.5971E+02  0.6185E+02  0.4836E+03  0.4834E+03
     -0.590  0.5344E+02  0.5532E+02  0.4863E+03  0.4862E+03
     -0.539  0.3397E+02  0.3182E+02  0.4880E+03  0.4878E+03
     -0.488  0.1063E+02  0.1299E+02  0.4885E+03  0.4885E+03
     -0.438  0.2555E+02  0.2469E+02  0.4898E+03  0.4898E+03
     -0.387  0.3835E+02  0.3492E+02  0.4918E+03  0.4915E+03
     -0.337  0.3963E+02  0.4283E+02  0.4938E+03  0.4937E+03
     -0.286  0.2510E+02  0.2605E+02  0.4950E+03  0.4950E+03
     -0.235  0.4454E+02  0.4214E+02  0.4973E+03  0.4971E+03
     -0.185  0.7493E+02  0.7348E+02  0.5011E+03  0.5009E+03
     -0.134  0.4001E+02  0.4223E+02  0.5031E+03  0.5030E+03
     -0.084  0.5740E+02  0.5663E+02  0.5060E+03  0.5059E+03
     -0.033  0.8231E+02  0.8150E+02  0.5102E+03  0.5100E+03
      0.018  0.4803E+02  0.4824E+02  0.5126E+03  0.5124E+03
      0.068  0.1431E+03  0.1388E+03  0.5198E+03  0.5194E+03
      0.119  0.1155E+03  0.1162E+03  0.5257E+03  0.5253E+03
      0.169  0.1201E+03  0.1177E+03  0.5318E+03  0.5313E+03
      0.220  0.1559E+03  0.1592E+03  0.5396E+03  0.5393E+03
      0.271  0.1248E+03  0.1282E+03  0.5460E+03  0.5458E+03
      0.321  0.1066E+03  0.1025E+03  0.5513E+03  0.5510E+03
      0.372  0.6521E+02  0.6640E+02  0.5546E+03  0.5544E+03
      0.422  0.1386E+03  0.1357E+03  0.5617E+03  0.5612E+03
      0.473  0.1205E+03  0.1203E+03  0.5678E+03  0.5673E+03
      0.524  0.1212E+03  0.1235E+03  0.5739E+03  0.5736E+03
      0.574  0.5692E+02  0.6033E+02  0.5768E+03  0.5766E+03
      0.625  0.7324E+02  0.7302E+02  0.5805E+03  0.5803E+03
      0.675  0.1220E+03  0.1176E+03  0.5866E+03  0.5863E+03
      0.726  0.1732E+03  0.1701E+03  0.5954E+03  0.5949E+03
      0.777  0.1615E+03  0.1633E+03  0.6036E+03  0.6031E+03
      0.827  0.1858E+03  0.1873E+03  0.6130E+03  0.6126E+03
      0.878  0.1797E+03  0.1809E+03  0.6221E+03  0.6218E+03
      0.928  0.1161E+03  0.1159E+03  0.6279E+03  0.6276E+03
      0.979  0.2193E+03  0.2161E+03  0.6390E+03  0.6386E+03
      1.029  0.1591E+03  0.1595E+03  0.6471E+03  0.6466E+03
      1.080  0.1600E+03  0.1596E+03  0.6552E+03  0.6547E+03
      1.131  0.1897E+03  0.1895E+03  0.6648E+03  0.6643E+03
      1.181  0.1642E+03  0.1662E+03  0.6731E+03  0.6727E+03
      1.232  0.2253E+03  0.2217E+03  0.6845E+03  0.6839E+03
      1.282  0.1322E+03  0.1387E+03  0.6912E+03  0.6909E+03
      1.333  0.1285E+03  0.1272E+03  0.6977E+03  0.6974E+03
      1.384  0.1139E+03  0.1102E+03  0.7034E+03  0.7029E+03
      1.434  0.1880E+03  0.1924E+03  0.7130E+03  0.7127E+03
      1.485  0.2516E+03  0.2429E+03  0.7257E+03  0.7250E+03
      1.535  0.2163E+03  0.2202E+03  0.7366E+03  0.7361E+03
      1.586  0.1628E+03  0.1659E+03  0.7449E+03  0.7445E+03
      1.637  0.1554E+03  0.1490E+03  0.7527E+03  0.7520E+03
      1.687  0.1768E+03  0.1787E+03  0.7617E+03  0.7611E+03
      1.738  0.1864E+03  0.1916E+03  0.7711E+03  0.7708E+03
      1.788  0.1431E+03  0.1401E+03  0.7783E+03  0.7779E+03
      1.839  0.2259E+03  0.2263E+03  0.7898E+03  0.7893E+03
      1.890  0.1474E+03  0.1469E+03  0.7972E+03  0.7968E+03
      1.940  0.1984E+03  0.1944E+03  0.8073E+03  0.8066E+03
      1.991  0.1749E+03  0.1810E+03  0.8161E+03  0.8157E+03
      2.041  0.1742E+03  0.1667E+03  0.8249E+03  0.8242E+03
      2.092  0.2058E+03  0.2127E+03  0.8353E+03  0.8349E+03
      2.143  0.1623E+03  0.1604E+03  0.8435E+03  0.8431E+03
      2.193  0.1256E+03  0.1255E+03  0.8499E+03  0.8494E+03
      2.244  0.1728E+03  0.1744E+03  0.8586E+03  0.8582E+03
      2.294  0.1578E+03  0.1578E+03  0.8666E+03  0.8662E+03
      2.345  0.1968E+03  0.1891E+03  0.8766E+03  0.8758E+03
      2.395  0.1899E+03  0.1969E+03  0.8862E+03  0.8857E+03
      2.446  0.1042E+03  0.1020E+03  0.8915E+03  0.8909E+03
      2.497  0.1630E+03  0.1675E+03  0.8997E+03  0.8994E+03
      2.547  0.1159E+03  0.1171E+03  0.9056E+03  0.9053E+03
      2.598  0.1508E+03  0.1388E+03  0.9132E+03  0.9123E+03
      2.648  0.1525E+03  0.1641E+03  0.9209E+03  0.9206E+03
      2.699  0.1640E+03  0.1575E+03  0.9292E+03  0.9286E+03
      2.750  0.1466E+03  0.1439E+03  0.9366E+03  0.9359E+03
      2.800  0.1653E+03  0.1704E+03  0.9450E+03  0.9445E+03
      2.851  0.1583E+03  0.1570E+03  0.9530E+03  0.9524E+03
      2.901  0.9431E+02  0.1020E+03  0.9578E+03  0.9576E+03
      2.952  0.8218E+02  0.7339E+02  0.9619E+03  0.9613E+03
      3.003  0.1579E+03  0.1584E+03  0.9699E+03  0.9693E+03
      3.053  0.1279E+03  0.1310E+03  0.9764E+03  0.9760E+03
      3.104  0.1072E+03  0.1097E+03  0.9818E+03  0.9815E+03
      3.154  0.1274E+03  0.1181E+03  0.9883E+03  0.9875E+03
      3.205  0.1040E+03  0.1117E+03  0.9935E+03  0.9931E+03
      3.256  0.1090E+03  0.1084E+03  0.9990E+03  0.9986E+03
      3.306  0.1053E+03  0.1036E+03  0.1004E+04  0.1004E+04
      3.357  0.9653E+02  0.1000E+03  0.1009E+04  0.1009E+04
      3.407  0.8085E+02  0.7656E+02  0.1013E+04  0.1013E+04
      3.458  0.8218E+02  0.8670E+02  0.1017E+04  0.1017E+04
      3.509  0.8878E+02  0.9001E+02  0.1022E+04  0.1022E+04
      3.559  0.5734E+02  0.5331E+02  0.1025E+04  0.1024E+04
      3.610  0.1096E+03  0.1118E+03  0.1030E+04  0.1030E+04
      3.660  0.4206E+02  0.4746E+02  0.1033E+04  0.1032E+04
      3.711  0.5338E+02  0.4424E+02  0.1035E+04  0.1035E+04
      3.762  0.5754E+02  0.6139E+02  0.1038E+04  0.1038E+04
      3.812  0.2882E+02  0.3029E+02  0.1040E+04  0.1039E+04
      3.863  0.5293E+02  0.5200E+02  0.1042E+04  0.1042E+04
      3.913  0.3198E+02  0.3160E+02  0.1044E+04  0.1044E+04
      3.964  0.6745E+02  0.6117E+02  0.1047E+04  0.1047E+04
      4.014  0.5253E+02  0.5668E+02  0.1050E+04  0.1050E+04
      4.065  0.6885E+02  0.6067E+02  0.1053E+04  0.1053E+04
      4.116  0.1161E+03  0.1167E+03  0.1059E+04  0.1059E+04
      4.166  0.1125E+03  0.1025E+03  0.1065E+04  0.1064E+04
      4.217  0.1009E+03  0.1128E+03  0.1070E+04  0.1069E+04
      4.267  0.9950E+02  0.9705E+02  0.1075E+04  0.1074E+04
      4.318  0.9200E+02  0.1068E+03  0.1080E+04  0.1080E+04
      4.369  0.1059E+03  0.8911E+02  0.1085E+04  0.1084E+04
      4.419  0.1112E+03  0.1150E+03  0.1091E+04  0.1090E+04
      4.470  0.1080E+03  0.1060E+03  0.1096E+04  0.1095E+04
      4.520  0.9538E+02  0.1027E+03  0.1101E+04  0.1101E+04
      4.571  0.1246E+03  0.1247E+03  0.1107E+04  0.1107E+04
      4.622  0.8755E+02  0.9075E+02  0.1112E+04  0.1112E+04
      4.672  0.1278E+03  0.1161E+03  0.1118E+04  0.1117E+04
      4.723  0.1375E+03  0.1308E+03  0.1125E+04  0.1124E+04
      4.773  0.1290E+03  0.1436E+03  0.1132E+04  0.1131E+04
      4.824  0.1016E+03  0.9734E+02  0.1137E+04  0.1136E+04
      4.875  0.1300E+03  0.1321E+03  0.1144E+04  0.1143E+04
      4.925  0.1158E+03  0.1192E+03  0.1149E+04  0.1149E+04
      4.976  0.1317E+03  0.1286E+03  0.1156E+04  0.1155E+04
      5.026  0.1139E+03  0.1085E+03  0.1162E+04  0.1161E+04
      5.077  0.1330E+03  0.1337E+03  0.1169E+04  0.1168E+04
      5.128  0.8426E+02  0.9263E+02  0.1173E+04  0.1172E+04
      5.178  0.1376E+03  0.1301E+03  0.1180E+04  0.1179E+04
      5.229  0.1327E+03  0.1350E+03  0.1186E+04  0.1186E+04
      5.279  0.3871E+02  0.4455E+02  0.1188E+04  0.1188E+04
      5.330  0.1114E+03  0.1103E+03  0.1194E+04  0.1194E+04
      5.381  0.1143E+03  0.1106E+03  0.1200E+04  0.1199E+04
      5.431  0.1446E+03  0.1526E+03  0.1207E+04  0.1207E+04
      5.482  0.1288E+03  0.1244E+03  0.1214E+04  0.1213E+04
      5.532  0.1163E+03  0.1112E+03  0.1220E+04  0.1219E+04
      5.583  0.1687E+03  0.1659E+03  0.1228E+04  0.1227E+04
      5.633  0.1687E+03  0.1710E+03  0.1237E+04  0.1236E+04
      5.684  0.1056E+03  0.1139E+03  0.1242E+04  0.1242E+04
      5.735  0.1049E+03  0.1053E+03  0.1247E+04  0.1247E+04
      5.785  0.1141E+03  0.1091E+03  0.1253E+04  0.1252E+04
      5.836  0.1229E+03  0.1280E+03  0.1259E+04  0.1259E+04
      5.886  0.9780E+02  0.9988E+02  0.1264E+04  0.1264E+04
      5.937  0.1123E+03  0.1027E+03  0.1270E+04  0.1269E+04
      5.988  0.3637E+02  0.4465E+02  0.1272E+04  0.1271E+04
      6.038  0.4976E+01  0.1049E+02  0.1272E+04  0.1272E+04
      6.089  0.0000E+00  0.0000E+00  0.1272E+04  0.1272E+04
      6.139  0.0000E+00  0.0000E+00  0.1272E+04  0.1272E+04
      6.190  0.0000E+00  0.0000E+00  0.1272E+04  0.1272E+04
      6.241  0.0000E+00  0.0000E+00  0.1272E+04  0.1272E+04
      6.291  0.0000E+00  0.0000E+00  0.1272E+04  0.1272E+04
      6.342  0.0000E+00  0.0000E+00  0.1272E+04  0.1272E+04
      6.392  0.0000E+00  0.0000E+00  0.1272E+04  0.1272E+04
      6.443  0.0000E+00  0.0000E+00  0.1272E+04  0.1272E+04
      6.494  0.0000E+00  0.0000E+00  0.1272E+04  0.1272E+04
      6.544  0.0000E+00  0.0000E+00  0.1272E+04  0.1272E+04
      6.595  0.0000E+00  0.0000E+00  0.1272E+04  0.1272E+04
      6.645  0.0000E+00  0.0000E+00  0.1272E+04  0.1272E+04
      6.696  0.0000E+00  0.0000E+00  0.1272E+04  0.1272E+04
