 264 264   0   0
  0.2770664E+02  0.1946760E-08  0.1946760E-08  0.1930025E-08  0.5000000E-15
  1.000000000000000E-004
  CAR 
 Si and Ge interface calculation         
      6.64612605     -8.91545097  301      4.05267604      1.00000000
     -8.915  0.0000E+00  0.0000E+00  0.0000E+00  0.0000E+00
     -8.864  0.0000E+00  0.0000E+00  0.0000E+00  0.0000E+00
     -8.812  0.0000E+00  0.0000E+00  0.0000E+00  0.0000E+00
     -8.760  0.0000E+00  0.0000E+00  0.0000E+00  0.0000E+00
     -8.708  0.0000E+00  0.0000E+00  0.0000E+00  0.0000E+00
     -8.656  0.0000E+00  0.0000E+00  0.0000E+00  0.0000E+00
     -8.604  0.0000E+00  0.0000E+00  0.0000E+00  0.0000E+00
     -8.552  0.0000E+00  0.0000E+00  0.0000E+00  0.0000E+00
     -8.500  0.0000E+00  0.0000E+00  0.0000E+00  0.0000E+00
     -8.449  0.0000E+00  0.0000E+00  0.0000E+00  0.0000E+00
     -8.397  0.0000E+00  0.0000E+00  0.0000E+00  0.0000E+00
     -8.345  0.0000E+00  0.0000E+00  0.0000E+00  0.0000E+00
     -8.293  0.0000E+00  0.0000E+00  0.0000E+00  0.0000E+00
     -8.241  0.1437E-04  0.4314E-05  0.7455E-06  0.2238E-06
     -8.189  0.9856E+01  0.9702E+01  0.5113E+00  0.5033E+00
     -8.137  0.2639E+02  0.2582E+02  0.1880E+01  0.1843E+01
     -8.086  0.2310E+01  0.3033E+01  0.2000E+01  0.2000E+01
     -8.034  0.1864E+02  0.1765E+02  0.2967E+01  0.2915E+01
     -7.982  0.1040E+02  0.1133E+02  0.3506E+01  0.3503E+01
     -7.930  0.1193E+02  0.1136E+02  0.4125E+01  0.4092E+01
     -7.878  0.1670E+02  0.1719E+02  0.4991E+01  0.4984E+01
     -7.826  0.2885E+02  0.2876E+02  0.6487E+01  0.6476E+01
     -7.774  0.2136E+02  0.2088E+02  0.7595E+01  0.7559E+01
     -7.722  0.2465E+02  0.2384E+02  0.8874E+01  0.8796E+01
     -7.671  0.1339E+02  0.1444E+02  0.9569E+01  0.9545E+01
     -7.619  0.1795E+02  0.1841E+02  0.1050E+02  0.1050E+02
     -7.567  0.1183E-02  0.2906E-02  0.1050E+02  0.1050E+02
     -7.515  0.2229E+02  0.2142E+02  0.1166E+02  0.1161E+02
     -7.463  0.1628E+02  0.1715E+02  0.1250E+02  0.1250E+02
     -7.411  0.3298E+02  0.3152E+02  0.1421E+02  0.1414E+02
     -7.359  0.3443E+02  0.3585E+02  0.1600E+02  0.1600E+02
     -7.307  0.1389E+02  0.1239E+02  0.1672E+02  0.1664E+02
     -7.256  0.2798E+02  0.2695E+02  0.1817E+02  0.1804E+02
     -7.204  0.2715E+02  0.2849E+02  0.1958E+02  0.1951E+02
     -7.152  0.3180E+02  0.3173E+02  0.2123E+02  0.2116E+02
     -7.100  0.1889E+02  0.1899E+02  0.2221E+02  0.2214E+02
     -7.048  0.4409E+02  0.4505E+02  0.2449E+02  0.2448E+02
     -6.996  0.6705E+02  0.6405E+02  0.2797E+02  0.2780E+02
     -6.944  0.2951E+02  0.3190E+02  0.2950E+02  0.2946E+02
     -6.892  0.3879E+02  0.3774E+02  0.3152E+02  0.3142E+02
     -6.841  0.2974E+02  0.2936E+02  0.3306E+02  0.3294E+02
     -6.789  0.2657E+02  0.2805E+02  0.3444E+02  0.3439E+02
     -6.737  0.5177E+02  0.5012E+02  0.3712E+02  0.3699E+02
     -6.685  0.6349E+02  0.6343E+02  0.4042E+02  0.4028E+02
     -6.633  0.4044E+02  0.4257E+02  0.4251E+02  0.4249E+02
     -6.581  0.3476E+02  0.3393E+02  0.4432E+02  0.4425E+02
     -6.529  0.5914E+02  0.5867E+02  0.4738E+02  0.4730E+02
     -6.477  0.3284E+02  0.3361E+02  0.4909E+02  0.4904E+02
     -6.426  0.4494E+02  0.4482E+02  0.5142E+02  0.5136E+02
     -6.374  0.3062E+02  0.3118E+02  0.5301E+02  0.5298E+02
     -6.322  0.5207E+02  0.5080E+02  0.5571E+02  0.5562E+02
     -6.270  0.3834E+02  0.3895E+02  0.5770E+02  0.5764E+02
     -6.218  0.5467E+02  0.5208E+02  0.6053E+02  0.6034E+02
     -6.166  0.6106E+02  0.6129E+02  0.6370E+02  0.6352E+02
     -6.114  0.6972E+02  0.7018E+02  0.6732E+02  0.6716E+02
     -6.062  0.7246E+02  0.7216E+02  0.7108E+02  0.7090E+02
     -6.011  0.9879E+02  0.9982E+02  0.7620E+02  0.7608E+02
     -5.959  0.5880E+02  0.5911E+02  0.7925E+02  0.7915E+02
     -5.907  0.6240E+02  0.6213E+02  0.8249E+02  0.8237E+02
     -5.855  0.5072E+02  0.5010E+02  0.8512E+02  0.8497E+02
     -5.803  0.6554E+02  0.6563E+02  0.8852E+02  0.8837E+02
     -5.751  0.7994E+02  0.8000E+02  0.9267E+02  0.9252E+02
     -5.699  0.7816E+02  0.7787E+02  0.9672E+02  0.9656E+02
     -5.648  0.8960E+02  0.8845E+02  0.1014E+03  0.1011E+03
     -5.596  0.7049E+02  0.7179E+02  0.1050E+03  0.1049E+03
     -5.544  0.7764E+02  0.7823E+02  0.1091E+03  0.1089E+03
     -5.492  0.6867E+02  0.6807E+02  0.1126E+03  0.1125E+03
     -5.440  0.6450E+02  0.6476E+02  0.1160E+03  0.1158E+03
     -5.388  0.6511E+02  0.6498E+02  0.1193E+03  0.1192E+03
     -5.336  0.8311E+02  0.8052E+02  0.1236E+03  0.1234E+03
     -5.284  0.9046E+02  0.9229E+02  0.1283E+03  0.1282E+03
     -5.233  0.7331E+02  0.7315E+02  0.1321E+03  0.1319E+03
     -5.181  0.6661E+02  0.6705E+02  0.1356E+03  0.1354E+03
     -5.129  0.5447E+02  0.5413E+02  0.1384E+03  0.1382E+03
     -5.077  0.6973E+02  0.7128E+02  0.1420E+03  0.1419E+03
     -5.025  0.8368E+02  0.8175E+02  0.1464E+03  0.1462E+03
     -4.973  0.7280E+02  0.7324E+02  0.1502E+03  0.1500E+03
     -4.921  0.6242E+02  0.6258E+02  0.1534E+03  0.1532E+03
     -4.869  0.9557E+02  0.9414E+02  0.1584E+03  0.1581E+03
     -4.818  0.1007E+03  0.1004E+03  0.1636E+03  0.1633E+03
     -4.766  0.9575E+02  0.9762E+02  0.1685E+03  0.1684E+03
     -4.714  0.9990E+02  0.9583E+02  0.1737E+03  0.1733E+03
     -4.662  0.1049E+03  0.1062E+03  0.1792E+03  0.1789E+03
     -4.610  0.1118E+03  0.1113E+03  0.1850E+03  0.1846E+03
     -4.558  0.1229E+03  0.1215E+03  0.1913E+03  0.1909E+03
     -4.506  0.1174E+03  0.1194E+03  0.1974E+03  0.1971E+03
     -4.454  0.8445E+02  0.8448E+02  0.2018E+03  0.2015E+03
     -4.403  0.9677E+02  0.9560E+02  0.2068E+03  0.2065E+03
     -4.351  0.8839E+02  0.9254E+02  0.2114E+03  0.2113E+03
     -4.299  0.6537E+02  0.6350E+02  0.2148E+03  0.2146E+03
     -4.247  0.6337E+02  0.6358E+02  0.2181E+03  0.2179E+03
     -4.195  0.8582E+02  0.8613E+02  0.2225E+03  0.2223E+03
     -4.143  0.8621E+02  0.8724E+02  0.2270E+03  0.2269E+03
     -4.091  0.3907E+02  0.3843E+02  0.2290E+03  0.2288E+03
     -4.039  0.6061E+02  0.6062E+02  0.2322E+03  0.2320E+03
     -3.988  0.7871E+02  0.7907E+02  0.2363E+03  0.2361E+03
     -3.936  0.5152E+02  0.5024E+02  0.2389E+03  0.2387E+03
     -3.884  0.8342E+02  0.8364E+02  0.2433E+03  0.2430E+03
     -3.832  0.7037E+02  0.6736E+02  0.2469E+03  0.2465E+03
     -3.780  0.7376E+02  0.7644E+02  0.2507E+03  0.2505E+03
     -3.728  0.6219E+02  0.6204E+02  0.2540E+03  0.2537E+03
     -3.676  0.6547E+02  0.6345E+02  0.2574E+03  0.2570E+03
     -3.625  0.7745E+02  0.7715E+02  0.2614E+03  0.2610E+03
     -3.573  0.5576E+02  0.6245E+02  0.2643E+03  0.2642E+03
     -3.521  0.3500E+02  0.3017E+02  0.2661E+03  0.2658E+03
     -3.469  0.8202E+02  0.8124E+02  0.2703E+03  0.2700E+03
     -3.417  0.6672E+02  0.6933E+02  0.2738E+03  0.2736E+03
     -3.365  0.8603E+02  0.8213E+02  0.2783E+03  0.2779E+03
     -3.313  0.6105E+02  0.6359E+02  0.2814E+03  0.2812E+03
     -3.261  0.9430E+02  0.9383E+02  0.2863E+03  0.2860E+03
     -3.210  0.7415E+02  0.7713E+02  0.2902E+03  0.2900E+03
     -3.158  0.8368E+02  0.7894E+02  0.2945E+03  0.2941E+03
     -3.106  0.8089E+02  0.8475E+02  0.2987E+03  0.2985E+03
     -3.054  0.8418E+02  0.8133E+02  0.3031E+03  0.3028E+03
     -3.002  0.6315E+02  0.6433E+02  0.3064E+03  0.3061E+03
     -2.950  0.6185E+02  0.6083E+02  0.3096E+03  0.3092E+03
     -2.898  0.1209E+03  0.1206E+03  0.3158E+03  0.3155E+03
     -2.846  0.9174E+02  0.9341E+02  0.3206E+03  0.3204E+03
     -2.795  0.6626E+02  0.6602E+02  0.3240E+03  0.3238E+03
     -2.743  0.1061E+03  0.1046E+03  0.3295E+03  0.3292E+03
     -2.691  0.1010E+03  0.1025E+03  0.3348E+03  0.3345E+03
     -2.639  0.8321E+02  0.8189E+02  0.3391E+03  0.3388E+03
     -2.587  0.1114E+03  0.1085E+03  0.3449E+03  0.3444E+03
     -2.535  0.1219E+03  0.1247E+03  0.3512E+03  0.3509E+03
     -2.483  0.1160E+03  0.1170E+03  0.3572E+03  0.3569E+03
     -2.431  0.9034E+02  0.8916E+02  0.3619E+03  0.3616E+03
     -2.380  0.8068E+02  0.8215E+02  0.3661E+03  0.3658E+03
     -2.328  0.1006E+03  0.9752E+02  0.3713E+03  0.3709E+03
     -2.276  0.1027E+03  0.1066E+03  0.3766E+03  0.3764E+03
     -2.224  0.8887E+02  0.8877E+02  0.3812E+03  0.3810E+03
     -2.172  0.4679E+02  0.4871E+02  0.3837E+03  0.3835E+03
     -2.120  0.4960E+02  0.4851E+02  0.3862E+03  0.3861E+03
     -2.068  0.4514E+02  0.4472E+02  0.3886E+03  0.3884E+03
     -2.016  0.8700E+02  0.8776E+02  0.3931E+03  0.3929E+03
     -1.965  0.8313E+02  0.8064E+02  0.3974E+03  0.3971E+03
     -1.913  0.1016E+03  0.1012E+03  0.4027E+03  0.4024E+03
     -1.861  0.8572E+02  0.8455E+02  0.4071E+03  0.4067E+03
     -1.809  0.8678E+02  0.8805E+02  0.4116E+03  0.4113E+03
     -1.757  0.9426E+02  0.9447E+02  0.4165E+03  0.4162E+03
     -1.705  0.7971E+02  0.7863E+02  0.4206E+03  0.4203E+03
     -1.653  0.8981E+02  0.9191E+02  0.4253E+03  0.4251E+03
     -1.602  0.6890E+02  0.6845E+02  0.4289E+03  0.4286E+03
     -1.550  0.9977E+02  0.9979E+02  0.4340E+03  0.4338E+03
     -1.498  0.7574E+02  0.7743E+02  0.4380E+03  0.4378E+03
     -1.446  0.5083E+02  0.5192E+02  0.4406E+03  0.4405E+03
     -1.394  0.3702E+02  0.3702E+02  0.4425E+03  0.4424E+03
     -1.342  0.7215E+02  0.6880E+02  0.4463E+03  0.4460E+03
     -1.290  0.5588E+02  0.5639E+02  0.4492E+03  0.4489E+03
     -1.238  0.5653E+02  0.6061E+02  0.4521E+03  0.4521E+03
     -1.187  0.3819E+02  0.3559E+02  0.4541E+03  0.4539E+03
     -1.135  0.7141E+02  0.7070E+02  0.4578E+03  0.4576E+03
     -1.083  0.5336E+02  0.5393E+02  0.4606E+03  0.4604E+03
     -1.031  0.6943E+02  0.6933E+02  0.4642E+03  0.4640E+03
     -0.979  0.4209E+02  0.4397E+02  0.4663E+03  0.4662E+03
     -0.927  0.4339E+02  0.4288E+02  0.4686E+03  0.4685E+03
     -0.875  0.5599E+02  0.5529E+02  0.4715E+03  0.4713E+03
     -0.823  0.5107E+02  0.5002E+02  0.4741E+03  0.4739E+03
     -0.772  0.7610E+02  0.7570E+02  0.4781E+03  0.4779E+03
     -0.720  0.4635E+02  0.4604E+02  0.4805E+03  0.4802E+03
     -0.668  0.6426E+02  0.6605E+02  0.4838E+03  0.4837E+03
     -0.616  0.4751E+02  0.4932E+02  0.4863E+03  0.4862E+03
     -0.564  0.3290E+02  0.3348E+02  0.4880E+03  0.4880E+03
     -0.512  0.2402E+02  0.2468E+02  0.4892E+03  0.4892E+03
     -0.460  0.3612E+02  0.3402E+02  0.4911E+03  0.4910E+03
     -0.408  0.3731E+02  0.3652E+02  0.4931E+03  0.4929E+03
     -0.357  0.5822E+02  0.5836E+02  0.4961E+03  0.4959E+03
     -0.305  0.8757E+02  0.8678E+02  0.5006E+03  0.5004E+03
     -0.253  0.6169E+02  0.6171E+02  0.5038E+03  0.5036E+03
     -0.201  0.6828E+02  0.6876E+02  0.5074E+03  0.5072E+03
     -0.149  0.1287E+03  0.1276E+03  0.5140E+03  0.5138E+03
     -0.097  0.1063E+03  0.1075E+03  0.5196E+03  0.5194E+03
     -0.045  0.1009E+03  0.9851E+02  0.5248E+03  0.5245E+03
      0.007  0.1210E+03  0.1228E+03  0.5311E+03  0.5309E+03
      0.058  0.1499E+03  0.1449E+03  0.5388E+03  0.5384E+03
      0.110  0.1370E+03  0.1400E+03  0.5460E+03  0.5457E+03
      0.162  0.8237E+02  0.8481E+02  0.5502E+03  0.5501E+03
      0.214  0.8317E+02  0.8137E+02  0.5545E+03  0.5543E+03
      0.266  0.1057E+03  0.1062E+03  0.5600E+03  0.5598E+03
      0.318  0.7708E+02  0.7782E+02  0.5640E+03  0.5638E+03
      0.370  0.6807E+02  0.6647E+02  0.5675E+03  0.5673E+03
      0.421  0.1221E+03  0.1237E+03  0.5739E+03  0.5737E+03
      0.473  0.7553E+02  0.7757E+02  0.5778E+03  0.5777E+03
      0.525  0.1068E+03  0.1034E+03  0.5833E+03  0.5831E+03
      0.577  0.1346E+03  0.1346E+03  0.5903E+03  0.5901E+03
      0.629  0.1306E+03  0.1297E+03  0.5971E+03  0.5968E+03
      0.681  0.1477E+03  0.1472E+03  0.6048E+03  0.6044E+03
      0.733  0.1196E+03  0.1211E+03  0.6110E+03  0.6107E+03
      0.785  0.1319E+03  0.1304E+03  0.6178E+03  0.6175E+03
      0.836  0.1034E+03  0.1068E+03  0.6232E+03  0.6230E+03
      0.888  0.9151E+02  0.9074E+02  0.6279E+03  0.6277E+03
      0.940  0.9350E+02  0.9133E+02  0.6328E+03  0.6324E+03
      0.992  0.1154E+03  0.1150E+03  0.6388E+03  0.6384E+03
      1.044  0.1536E+03  0.1511E+03  0.6467E+03  0.6463E+03
      1.096  0.1341E+03  0.1385E+03  0.6537E+03  0.6534E+03
      1.148  0.1332E+03  0.1279E+03  0.6606E+03  0.6601E+03
      1.200  0.1723E+03  0.1708E+03  0.6695E+03  0.6689E+03
      1.251  0.1751E+03  0.1803E+03  0.6786E+03  0.6783E+03
      1.303  0.1575E+03  0.1537E+03  0.6868E+03  0.6863E+03
      1.355  0.2046E+03  0.2055E+03  0.6974E+03  0.6969E+03
      1.407  0.1905E+03  0.1929E+03  0.7073E+03  0.7069E+03
      1.459  0.1242E+03  0.1207E+03  0.7137E+03  0.7132E+03
      1.511  0.1958E+03  0.1950E+03  0.7239E+03  0.7233E+03
      1.563  0.1977E+03  0.1989E+03  0.7341E+03  0.7336E+03
      1.615  0.2131E+03  0.2135E+03  0.7452E+03  0.7447E+03
      1.666  0.1563E+03  0.1575E+03  0.7533E+03  0.7529E+03
      1.718  0.1903E+03  0.1875E+03  0.7632E+03  0.7626E+03
      1.770  0.1891E+03  0.1938E+03  0.7730E+03  0.7726E+03
      1.822  0.1722E+03  0.1673E+03  0.7819E+03  0.7813E+03
      1.874  0.1752E+03  0.1776E+03  0.7910E+03  0.7905E+03
      1.926  0.1771E+03  0.1746E+03  0.8002E+03  0.7996E+03
      1.978  0.2008E+03  0.2024E+03  0.8106E+03  0.8101E+03
      2.030  0.1679E+03  0.1670E+03  0.8193E+03  0.8187E+03
      2.081  0.1846E+03  0.1836E+03  0.8289E+03  0.8283E+03
      2.133  0.1697E+03  0.1690E+03  0.8377E+03  0.8370E+03
      2.185  0.1921E+03  0.1938E+03  0.8476E+03  0.8471E+03
      2.237  0.1637E+03  0.1664E+03  0.8561E+03  0.8557E+03
      2.289  0.1685E+03  0.1660E+03  0.8649E+03  0.8643E+03
      2.341  0.1534E+03  0.1538E+03  0.8728E+03  0.8723E+03
      2.393  0.2011E+03  0.1958E+03  0.8833E+03  0.8825E+03
      2.445  0.1692E+03  0.1740E+03  0.8920E+03  0.8915E+03
      2.496  0.1310E+03  0.1330E+03  0.8988E+03  0.8984E+03
      2.548  0.1879E+03  0.1876E+03  0.9086E+03  0.9081E+03
      2.600  0.1262E+03  0.1247E+03  0.9151E+03  0.9146E+03
      2.652  0.1216E+03  0.1252E+03  0.9214E+03  0.9211E+03
      2.704  0.1330E+03  0.1247E+03  0.9283E+03  0.9276E+03
      2.756  0.1438E+03  0.1521E+03  0.9358E+03  0.9354E+03
      2.808  0.1497E+03  0.1361E+03  0.9435E+03  0.9425E+03
      2.859  0.1350E+03  0.1391E+03  0.9505E+03  0.9497E+03
      2.911  0.1440E+03  0.1496E+03  0.9580E+03  0.9575E+03
      2.963  0.1043E+03  0.1046E+03  0.9634E+03  0.9629E+03
      3.015  0.1264E+03  0.1251E+03  0.9700E+03  0.9694E+03
      3.067  0.1410E+03  0.1411E+03  0.9773E+03  0.9767E+03
      3.119  0.1240E+03  0.1228E+03  0.9837E+03  0.9831E+03
      3.171  0.1005E+03  0.9897E+02  0.9889E+03  0.9882E+03
      3.223  0.1039E+03  0.1079E+03  0.9943E+03  0.9938E+03
      3.274  0.1069E+03  0.1052E+03  0.9999E+03  0.9993E+03
      3.326  0.1190E+03  0.1201E+03  0.1006E+04  0.1006E+04
      3.378  0.6425E+02  0.7022E+02  0.1009E+04  0.1009E+04
      3.430  0.8873E+02  0.8573E+02  0.1014E+04  0.1014E+04
      3.482  0.7805E+02  0.7684E+02  0.1018E+04  0.1018E+04
      3.534  0.8615E+02  0.8405E+02  0.1023E+04  0.1022E+04
      3.586  0.8526E+02  0.8737E+02  0.1027E+04  0.1026E+04
      3.638  0.8967E+02  0.8823E+02  0.1032E+04  0.1031E+04
      3.689  0.4850E+02  0.5221E+02  0.1034E+04  0.1034E+04
      3.741  0.5773E+02  0.5865E+02  0.1037E+04  0.1037E+04
      3.793  0.4122E+02  0.3758E+02  0.1039E+04  0.1039E+04
      3.845  0.6401E+02  0.7228E+02  0.1043E+04  0.1042E+04
      3.897  0.3758E+02  0.2947E+02  0.1044E+04  0.1044E+04
      3.949  0.4941E+02  0.4641E+02  0.1047E+04  0.1046E+04
      4.001  0.7566E+02  0.7687E+02  0.1051E+04  0.1050E+04
      4.053  0.1076E+03  0.8792E+02  0.1057E+04  0.1055E+04
      4.104  0.6557E+02  0.8091E+02  0.1060E+04  0.1059E+04
      4.156  0.1215E+03  0.1192E+03  0.1066E+04  0.1065E+04
      4.208  0.7937E+02  0.8542E+02  0.1070E+04  0.1070E+04
      4.260  0.1064E+03  0.9957E+02  0.1076E+04  0.1075E+04
      4.312  0.7420E+02  0.8193E+02  0.1080E+04  0.1079E+04
      4.364  0.1007E+03  0.8922E+02  0.1085E+04  0.1084E+04
      4.416  0.1510E+03  0.1533E+03  0.1093E+04  0.1092E+04
      4.468  0.1138E+03  0.1213E+03  0.1099E+04  0.1098E+04
      4.519  0.9201E+02  0.9341E+02  0.1103E+04  0.1103E+04
      4.571  0.9866E+02  0.9810E+02  0.1109E+04  0.1108E+04
      4.623  0.8992E+02  0.8860E+02  0.1113E+04  0.1113E+04
      4.675  0.1179E+03  0.1160E+03  0.1119E+04  0.1119E+04
      4.727  0.1372E+03  0.1427E+03  0.1126E+04  0.1126E+04
      4.779  0.1046E+03  0.1009E+03  0.1132E+04  0.1131E+04
      4.831  0.1467E+03  0.1460E+03  0.1140E+04  0.1139E+04
      4.882  0.1029E+03  0.1066E+03  0.1145E+04  0.1144E+04
      4.934  0.1179E+03  0.1132E+03  0.1151E+04  0.1150E+04
      4.986  0.1435E+03  0.1402E+03  0.1158E+04  0.1158E+04
      5.038  0.1152E+03  0.1208E+03  0.1164E+04  0.1164E+04
      5.090  0.1184E+03  0.1142E+03  0.1171E+04  0.1170E+04
      5.142  0.1110E+03  0.1188E+03  0.1176E+04  0.1176E+04
      5.194  0.1080E+03  0.1075E+03  0.1182E+04  0.1181E+04
      5.246  0.8520E+02  0.8645E+02  0.1186E+04  0.1186E+04
      5.297  0.1387E+03  0.1354E+03  0.1194E+04  0.1193E+04
      5.349  0.1133E+03  0.1165E+03  0.1199E+04  0.1199E+04
      5.401  0.1374E+03  0.1370E+03  0.1207E+04  0.1206E+04
      5.453  0.1480E+03  0.1475E+03  0.1214E+04  0.1214E+04
      5.505  0.1361E+03  0.1359E+03  0.1221E+04  0.1221E+04
      5.557  0.1441E+03  0.1410E+03  0.1229E+04  0.1228E+04
      5.609  0.1307E+03  0.1337E+03  0.1236E+04  0.1235E+04
      5.661  0.1260E+03  0.1270E+03  0.1242E+04  0.1242E+04
      5.712  0.1549E+03  0.1515E+03  0.1250E+04  0.1249E+04
      5.764  0.1012E+03  0.1066E+03  0.1255E+04  0.1255E+04
      5.816  0.1257E+03  0.1241E+03  0.1262E+04  0.1261E+04
      5.868  0.1233E+03  0.1254E+03  0.1268E+04  0.1268E+04
      5.920  0.6250E+02  0.6765E+02  0.1271E+04  0.1271E+04
      5.972  0.9884E+01  0.1024E+02  0.1272E+04  0.1272E+04
      6.024  0.0000E+00  0.0000E+00  0.1272E+04  0.1272E+04
      6.076  0.0000E+00  0.0000E+00  0.1272E+04  0.1272E+04
      6.127  0.0000E+00  0.0000E+00  0.1272E+04  0.1272E+04
      6.179  0.0000E+00  0.0000E+00  0.1272E+04  0.1272E+04
      6.231  0.0000E+00  0.0000E+00  0.1272E+04  0.1272E+04
      6.283  0.0000E+00  0.0000E+00  0.1272E+04  0.1272E+04
      6.335  0.0000E+00  0.0000E+00  0.1272E+04  0.1272E+04
      6.387  0.0000E+00  0.0000E+00  0.1272E+04  0.1272E+04
      6.439  0.0000E+00  0.0000E+00  0.1272E+04  0.1272E+04
      6.491  0.0000E+00  0.0000E+00  0.1272E+04  0.1272E+04
      6.542  0.0000E+00  0.0000E+00  0.1272E+04  0.1272E+04
      6.594  0.0000E+00  0.0000E+00  0.1272E+04  0.1272E+04
      6.646  0.0000E+00  0.0000E+00  0.1272E+04  0.1272E+04
