Si and Ge interface calculation         
           1
    13.858725    0.000000    0.000000
     0.000000   19.599195    0.000000
     0.000000    0.000000   13.629249
   Ge   Sn
   144    36
Direct configuration=     1
   0.97937846  0.49999997  0.00000002
   0.72937834  0.49999994  0.14676786
   0.47937822  0.49999988  0.29353571
   0.22937822  0.49999982  0.44030344
   0.97937822  0.49999973  0.58707118
   0.72937798  0.49999970  0.73383904
   0.31271177  0.66666669  0.00000002
   0.06271167  0.66666663  0.14676782
   0.81271160  0.66666657  0.29353565
   0.56271154  0.66666651  0.44030338
   0.31271148  0.66666645  0.58707118
   0.06271136  0.66666639  0.73383904
   0.64604503  0.83333331  0.00000002
   0.39604497  0.83333325  0.14676782
   0.14604483  0.83333319  0.29353565
   0.89604485  0.83333319  0.44030338
   0.64604473  0.83333307  0.58707118
   0.39604467  0.83333302  0.73383904
   0.97937846  0.00000000  0.00000003
   0.72937834  0.99999994  0.14676781
   0.47937828  0.99999988  0.29353565
   0.22937828  0.99999982  0.44030338
   0.97937822  0.99999976  0.58707118
   0.72937810  0.99999970  0.73383904
   0.31271177  0.16666666  0.00000003
   0.06271169  0.16666661  0.14676781
   0.81271160  0.16666654  0.29353562
   0.56271154  0.16666648  0.44030338
   0.31271148  0.16666643  0.58707118
   0.06271136  0.16666636  0.73383904
   0.64604515  0.33333334  0.00000002
   0.39604500  0.33333328  0.14676782
   0.14604492  0.33333322  0.29353562
   0.89604485  0.33333313  0.44030338
   0.64604485  0.33333311  0.58707118
   0.39604473  0.33333305  0.73383904
   0.14604510  0.83333337  0.00000001
   0.89604497  0.83333331  0.14676780
   0.64604485  0.83333325  0.29353565
   0.39604479  0.83333319  0.44030344
   0.14604485  0.83333313  0.58707124
   0.89604473  0.83333302  0.73383897
   0.14604510  0.33333331  0.00000003
   0.89604503  0.33333328  0.14676786
   0.64604491  0.33333322  0.29353565
   0.39604491  0.33333313  0.44030344
   0.14604485  0.33333307  0.58707118
   0.89604473  0.33333302  0.73383897
   0.47937849  0.50000000  0.00000003
   0.22937836  0.49999994  0.14676786
   0.97937822  0.49999988  0.29353565
   0.72937822  0.49999979  0.44030344
   0.47937816  0.49999976  0.58707118
   0.22937804  0.49999967  0.73383897
   0.81271166  0.66666669  0.00000003
   0.56271166  0.66666663  0.14676786
   0.31271154  0.66666651  0.29353562
   0.06271150  0.66666651  0.44030344
   0.81271142  0.66666645  0.58707118
   0.56271136  0.66666633  0.73383897
   0.47937843  0.00000000  0.00000002
   0.22937836  0.99999994  0.14676782
   0.97937822  0.99999988  0.29353562
   0.72937822  0.99999982  0.44030344
   0.47937816  0.99999976  0.58707118
   0.22937804  0.99999970  0.73383904
   0.81271177  0.16666667  0.00000002
   0.56271172  0.16666660  0.14676782
   0.31271166  0.16666657  0.29353562
   0.06271160  0.16666651  0.44030344
   0.81271160  0.16666643  0.58707118
   0.56271148  0.16666640  0.73383904
   0.14604515  0.70833337  0.00000000
   0.89604497  0.70833331  0.14676786
   0.64604491  0.70833325  0.29353571
   0.39604485  0.70833319  0.44030344
   0.14604485  0.70833313  0.58707118
   0.89604473  0.70833307  0.73383897
   0.47937843  0.87500006  0.00000000
   0.22937839  0.87500000  0.14676786
   0.97937822  0.87499994  0.29353571
   0.72937822  0.87499988  0.44030344
   0.47937822  0.87499976  0.58707118
   0.22937810  0.87499976  0.73383897
   0.14604509  0.20833333  0.00000003
   0.89604503  0.20833327  0.14676781
   0.64604491  0.20833321  0.29353562
   0.39604485  0.20833315  0.44030344
   0.14604485  0.20833311  0.58707118
   0.89604473  0.20833305  0.73383897
   0.47937849  0.37500000  0.00000003
   0.22937837  0.37499994  0.14676782
   0.97937828  0.37499988  0.29353565
   0.72937822  0.37499982  0.44030344
   0.47937822  0.37499976  0.58707118
   0.22937804  0.37499970  0.73383897
   0.81271177  0.54166669  0.00000003
   0.56271177  0.54166663  0.14676782
   0.31271163  0.54166657  0.29353565
   0.06271158  0.54166651  0.44030344
   0.81271154  0.54166645  0.58707118
   0.56271148  0.54166639  0.73383897
   0.81271184  0.04166666  0.00000001
   0.56271172  0.04166659  0.14676782
   0.31271163  0.04166653  0.29353565
   0.06271157  0.04166649  0.44030344
   0.81271154  0.04166642  0.58707118
   0.56271148  0.04166634  0.73383904
   0.97937852  0.87500006  0.00000002
   0.72937834  0.87499994  0.14676780
   0.47937828  0.87499988  0.29353565
   0.22937822  0.87499982  0.44030344
   0.97937822  0.87499976  0.58707124
   0.72937810  0.87499970  0.73383897
   0.97937846  0.37499997  0.00000001
   0.72937834  0.37499991  0.14676782
   0.47937828  0.37499985  0.29353565
   0.22937822  0.37499979  0.44030338
   0.97937822  0.37499973  0.58707118
   0.72937810  0.37499967  0.73383897
   0.31271184  0.54166669  0.00000001
   0.06271169  0.54166663  0.14676782
   0.81271160  0.54166657  0.29353571
   0.56271154  0.54166651  0.44030344
   0.31271154  0.54166645  0.58707118
   0.06271142  0.54166639  0.73383904
   0.64604509  0.70833331  0.00000001
   0.39604500  0.70833325  0.14676782
   0.14604490  0.70833319  0.29353565
   0.89604485  0.70833313  0.44030338
   0.64604485  0.70833307  0.58707118
   0.39604473  0.70833302  0.73383897
   0.31271175  0.04166665  0.00000002
   0.06271169  0.04166659  0.14676781
   0.81271160  0.04166654  0.29353562
   0.56271154  0.04166648  0.44030344
   0.31271154  0.04166643  0.58707118
   0.06271142  0.04166637  0.73383897
   0.64604521  0.20833336  0.00000002
   0.39604506  0.20833328  0.14676781
   0.14604494  0.20833321  0.29353562
   0.89604491  0.20833316  0.44030344
   0.64604485  0.20833311  0.58707118
   0.39604473  0.20833305  0.73383897
   0.98290563  0.65242130  0.73383904
   0.78290558  0.48575461  0.84030348
   0.58290541  0.31908789  0.94676799
   0.98290563  0.31908801  0.73383904
   0.78290558  0.15242132  0.84030348
   0.58290541  0.98575461  0.94676799
   0.98290563  0.98575473  0.73383904
   0.78290558  0.81908804  0.84030348
   0.58290541  0.65242130  0.94676799
   0.63290560  0.90242141  0.78707117
   0.43290553  0.73575473  0.89353555
   0.23290543  0.56908804  0.00000000
   0.63290560  0.56908798  0.78707117
   0.43290553  0.40242130  0.89353555
   0.23290543  0.23575461  0.00000000
   0.63290560  0.23575476  0.78707117
   0.43290553  0.06908806  0.89353555
   0.23290543  0.90242136  0.00000000
   0.48290560  0.81908792  0.73383904
   0.28290546  0.65242124  0.84030348
   0.08290535  0.48575458  0.94676799
   0.48290560  0.48575467  0.73383904
   0.28290546  0.31908798  0.84030348
   0.08290535  0.15242128  0.94676799
   0.48290560  0.15242136  0.73383904
   0.28290546  0.98575467  0.84030348
   0.08290535  0.81908798  0.94676799
   0.13290565  0.73575467  0.78707117
   0.93290555  0.56908798  0.89353555
   0.73290551  0.40242130  0.00000000
   0.13290565  0.40242138  0.78707117
   0.93290555  0.23575471  0.89353555
   0.73290551  0.06908801  0.00000000
   0.13290565  0.06908801  0.78707117
   0.93290555  0.90242136  0.89353555
   0.73290551  0.73575461  0.00000000
