Si and Ge interface calculation         
           1
    16.293001    0.000000    0.000000
   -10.862000   12.144086    0.000000
     0.000000    0.000000    7.006474
   Si   C 
    36    84
Direct configuration=     1
   0.97435850  0.98290563  0.00000000
   0.67435843  0.78290558  0.17332670
   0.37435842  0.58290553  0.34665340
   0.30769178  0.98290563  0.00000000
   0.00769173  0.78290558  0.17332670
   0.70769167  0.58290553  0.34665340
   0.64102507  0.98290563  0.00000000
   0.34102503  0.78290558  0.17332670
   0.04102499  0.58290553  0.34665340
   0.15769197  0.63290560  0.08666317
   0.85769194  0.43290553  0.25998989
   0.55769193  0.23290551  0.43331653
   0.49102521  0.63290560  0.08666317
   0.19102515  0.43290553  0.25998989
   0.89102519  0.23290551  0.43331653
   0.82435846  0.63290560  0.08666317
   0.52435839  0.43290553  0.25998989
   0.22435850  0.23290551  0.43331653
   0.14102516  0.48290560  0.00000000
   0.84102511  0.28290549  0.17332670
   0.54102510  0.08290543  0.34665340
   0.47435844  0.48290560  0.00000000
   0.17435838  0.28290549  0.17332670
   0.87435836  0.08290543  0.34665340
   0.80769169  0.48290560  0.00000000
   0.50769168  0.28290549  0.17332670
   0.20769163  0.08290543  0.34665340
   0.99102521  0.13290566  0.08666318
   0.69102514  0.93290561  0.25998989
   0.39102519  0.73290557  0.43331653
   0.32435846  0.13290566  0.08666318
   0.02435841  0.93290561  0.25998989
   0.72435844  0.73290557  0.43331653
   0.65769166  0.13290566  0.08666318
   0.35769162  0.93290561  0.25998989
   0.05769165  0.73290557  0.43331653
   0.13592589  0.20695710  0.57436830
   0.37878311  0.17838573  0.68820030
   0.62164033  0.14981413  0.80203235
   0.42164016  0.34981430  0.57436830
   0.66449738  0.32124281  0.68820030
   0.90735459  0.29267132  0.80203235
   0.70735437  0.49267140  0.57436830
   0.95021164  0.46409991  0.68820030
   0.19306892  0.43552846  0.80203235
   0.99306876  0.63552856  0.57436830
   0.23592597  0.60695708  0.68820030
   0.47878331  0.57838565  0.80203235
   0.27878302  0.77838570  0.57436830
   0.52164024  0.74981427  0.68820030
   0.76449746  0.72124279  0.80203235
   0.56449735  0.92124289  0.57436830
   0.80735457  0.89267141  0.68820030
   0.05021179  0.86409992  0.80203235
   0.85021156  0.06410003  0.57436830
   0.09306884  0.03552842  0.68820030
   0.33592600  0.00695705  0.80203235
   0.97164005  0.29981428  0.63128424
   0.21449739  0.27124283  0.74511617
   0.45735460  0.24267131  0.85894823
   0.25735426  0.44267142  0.63128418
   0.50021154  0.41409996  0.74511629
   0.74306876  0.38552844  0.85894823
   0.54306865  0.58552861  0.63128418
   0.78592587  0.55695713  0.74511629
   0.02878320  0.52838564  0.85894823
   0.82878298  0.72838575  0.63128418
   0.07164025  0.69981420  0.74511629
   0.31449753  0.67124283  0.85894823
   0.11449713  0.87124288  0.63128418
   0.35735446  0.84267139  0.74511629
   0.60021156  0.81409991  0.85894823
   0.40021157  0.01410008  0.63128424
   0.64306885  0.98552847  0.74511629
   0.88592607  0.95695704  0.85894823
   0.68592572  0.15695715  0.63128424
   0.92878294  0.12838566  0.74511629
   0.17164022  0.09981418  0.85894823
   0.77878314  0.27838576  0.57436830
   0.02164030  0.24981424  0.68820030
   0.26449758  0.22124281  0.80203235
   0.06449747  0.42124289  0.57436830
   0.30735463  0.39267138  0.68820030
   0.55021173  0.36409989  0.80203235
   0.35021162  0.56410003  0.57436830
   0.59306884  0.53552854  0.68820030
   0.83592606  0.50695705  0.80203235
   0.63592583  0.70695716  0.57436830
   0.87878311  0.67838568  0.68820030
   0.12164039  0.64981425  0.80203235
   0.92164016  0.84981430  0.57436830
   0.16449744  0.82124287  0.68820030
   0.40735453  0.79267132  0.80203235
   0.20735446  0.99267149  0.57436830
   0.45021167  0.96410006  0.68820035
   0.69306898  0.93552858  0.80203235
   0.49306873  0.13552856  0.57436830
   0.73592591  0.10695720  0.68820035
   0.97878325  0.07838571  0.80203235
   0.32878304  0.22838573  0.63128418
   0.57164031  0.19981420  0.74511629
   0.81449759  0.17124271  0.85894823
   0.61449718  0.37124288  0.63128418
   0.85735446  0.34267139  0.74511629
   0.10021174  0.31409994  0.85894823
   0.90021145  0.51409996  0.63128418
   0.14306885  0.48552856  0.74511629
   0.38592607  0.45695710  0.85894823
   0.18592566  0.65695715  0.63128418
   0.42878300  0.62838566  0.74511617
   0.67164022  0.59981418  0.85894823
   0.47164011  0.79981422  0.63128418
   0.71449745  0.77124274  0.74511629
   0.95735466  0.74267131  0.85894823
   0.75735444  0.94267142  0.63128418
   0.00021172  0.91409993  0.74511629
   0.24306899  0.88552856  0.85894823
   0.04306865  0.08552861  0.63128418
   0.28592593  0.05695713  0.74511629
   0.52878314  0.02838564  0.85894823
