 vasp.6.4.3 19Mar24 (build Oct 22 2024 11:23:12) complex                        
  
 executed on             LinuxIFC date 2025.04.30  08:38:22
 running   16 mpi-ranks, on    1 nodes
 distrk:  each k-point on   16 cores,    1 groups
 distr:  one band on NCORE=  16 cores,    1 groups


--------------------------------------------------------------------------------------------------------


 INCAR:
   SYSTEM = Si011 and Ge011 interface calculation
   ISTART = 0
   ICHARG = 2
   LWAVE = .FALSE.
   LREAL = AUTO
   ENCUT = 700
   ENAUG = 900
   ADDGRID = .TRUE.
   LMAXMIX = 6
   LASPH = .TRUE.
   LMIXTAU = .TRUE.
   NCORE = 16
   NELM = 100
   NBANDS = 346
   EDIFF = 1d-7
   AMIX = 0.6
   ISMEAR = 0
   SIGMA = 0.01
   NELECT = 576
   ISPIN = 2
   NUPDOWN = 1
   LVTOT = .FALSE.
   LVHAR = .TRUE.

 POTCAR:    PAW_PBE Si 05Jan2001                  
 POTCAR:    PAW_PBE Ge 05Jan2001                  
 -----------------------------------------------------------------------------
|                                                                             |
|           W    W    AA    RRRRR   N    N  II  N    N   GGGG   !!!           |
|           W    W   A  A   R    R  NN   N  II  NN   N  G    G  !!!           |
|           W    W  A    A  R    R  N N  N  II  N N  N  G       !!!           |
|           W WW W  AAAAAA  RRRRR   N  N N  II  N  N N  G  GGG   !            |
|           WW  WW  A    A  R   R   N   NN  II  N   NN  G    G                |
|           W    W  A    A  R    R  N    N  II  N    N   GGGG   !!!           |
|                                                                             |
|     You use a magnetic or noncollinear calculation, but did not specify     |
|     the initial magnetic moment with the MAGMOM tag. Note that a            |
|     default of 6.944e-3 will be used for all atoms. This ferromagnetic      |
|     setup may break the symmetry of the crystal, in particular it may       |
|     rule out finding an antiferromagnetic solution. Thence, we              |
|     recommend setting the initial magnetic moment manually or verifying     |
|     carefully that this magnetic setup is desired.                          |
|                                                                             |
 -----------------------------------------------------------------------------

 -----------------------------------------------------------------------------
|                                                                             |
|           W    W    AA    RRRRR   N    N  II  N    N   GGGG   !!!           |
|           W    W   A  A   R    R  NN   N  II  NN   N  G    G  !!!           |
|           W    W  A    A  R    R  N N  N  II  N N  N  G       !!!           |
|           W WW W  AAAAAA  RRRRR   N  N N  II  N  N N  G  GGG   !            |
|           WW  WW  A    A  R   R   N   NN  II  N   NN  G    G                |
|           W    W  A    A  R    R  N    N  II  N    N   GGGG   !!!           |
|                                                                             |
|     For optimal performance we recommend to set                             |
|       NCORE = 2 up to number-of-cores-per-socket                            |
|     NCORE specifies how many cores store one orbital (NPAR=cpu/NCORE).      |
|     This setting can greatly improve the performance of VASP for DFT.       |
|     The default, NCORE=1 might be grossly inefficient on modern             |
|     multi-core architectures or massively parallel machines. Do your        |
|     own testing! More info at https://www.vasp.at/wiki/index.php/NCORE      |
|     Unfortunately you need to use the default for GW and RPA                |
|     calculations (for HF NCORE is supported but not extensively tested      |
|     yet).                                                                   |
|                                                                             |
 -----------------------------------------------------------------------------

 POTCAR:    PAW_PBE Si 05Jan2001                  
   VRHFIN =Si: s2p2                                                                                 
   LEXCH  = PE                                                                                      
   EATOM  =   103.0669 eV,    7.5752 Ry                                                             
                                                                                                    
   TITEL  = PAW_PBE Si 05Jan2001                                                                    
   LULTRA =        F    use ultrasoft PP ?                                                          
   IUNSCR =        1    unscreen: 0-lin 1-nonlin 2-no                                               
   RPACOR =    1.500    partial core radius                                                         
   POMASS =   28.085; ZVAL   =    4.000    mass and valenz                                          
   RCORE  =    1.900    outmost cutoff radius                                                       
   RWIGS  =    2.480; RWIGS  =    1.312    wigner-seitz radius (au A)                               
   ENMAX  =  245.345; ENMIN  =  184.009 eV                                                          
   ICORE  =        2    local potential                                                             
   LCOR   =        T    correct aug charges                                                         
   LPAW   =        T    paw PP                                                                      
   EAUG   =  322.069                                                                                
   DEXC   =    0.000                                                                                
   RMAX   =    1.950    core radius for proj-oper                                                   
   RAUG   =    1.300    factor for augmentation sphere                                              
   RDEP   =    1.993    radius for radial grids                                                     
   RDEPT  =    1.837    core radius for aug-charge                                                  
                                                                                                    
   Atomic configuration                                                                             
    6 entries                                                                                       
     n  l   j            E        occ.                                                              
     1  0  0.50     -1785.8828   2.0000                                                             
     2  0  0.50      -139.4969   2.0000                                                             
     2  1  1.50       -95.5546   6.0000                                                             
     3  0  0.50       -10.8127   2.0000                                                             
     3  1  0.50        -4.0811   2.0000                                                             
     3  2  1.50        -4.0817   0.0000                                                             
   Description                                                                                      
     l       E           TYP  RCUT    TYP  RCUT                                                     
     0    -10.8127223     23  1.900                                                                 
     0     -7.6451159     23  1.900                                                                 
     1     -4.0811372     23  1.900                                                                 
     1      2.4879257     23  1.900                                                                 
     2     -4.0817478      7  1.900                                                                 
  local pseudopotential read in
  partial core-charges read in
  partial kinetic energy density read in
  atomic valenz-charges read in
  non local Contribution for L=           0  read in
    real space projection operators read in
  non local Contribution for L=           0  read in
    real space projection operators read in
  non local Contribution for L=           1  read in
    real space projection operators read in
  non local Contribution for L=           1  read in
    real space projection operators read in
    PAW grid and wavefunctions read in
 
   number of l-projection  operators is LMAX  =           4
   number of lm-projection operators is LMMAX =           8
 
 POTCAR:    PAW_PBE Ge 05Jan2001                  
   VRHFIN =Ge: s2p2                                                                                 
   LEXCH  = PE                                                                                      
   EATOM  =   104.9960 eV,    7.7170 Ry                                                             
                                                                                                    
   TITEL  = PAW_PBE Ge 05Jan2001                                                                    
   LULTRA =        F    use ultrasoft PP ?                                                          
   IUNSCR =        1    unscreen: 0-lin 1-nonlin 2-no                                               
   RPACOR =    2.170    partial core radius                                                         
   POMASS =   72.610; ZVAL   =    4.000    mass and valenz                                          
   RCORE  =    2.300    outmost cutoff radius                                                       
   RWIGS  =    2.300; RWIGS  =    1.217    wigner-seitz radius (au A)                               
   ENMAX  =  173.807; ENMIN  =  130.355 eV                                                          
   ICORE  =        3    local potential                                                             
   LCOR   =        T    correct aug charges                                                         
   LPAW   =        T    paw PP                                                                      
   EAUG   =  385.843                                                                                
   DEXC   =    0.000                                                                                
   RMAX   =    2.342    core radius for proj-oper                                                   
   RAUG   =    1.300    factor for augmentation sphere                                              
   RDEP   =    2.318    radius for radial grids                                                     
   RDEPT  =    2.103    core radius for aug-charge                                                  
                                                                                                    
   Atomic configuration                                                                             
   10 entries                                                                                       
     n  l   j            E        occ.                                                              
     1  0  0.50    -10959.8463   2.0000                                                             
     2  0  0.50     -1371.6056   2.0000                                                             
     2  1  1.50     -1198.4791   6.0000                                                             
     3  0  0.50      -168.4733   2.0000                                                             
     3  1  1.50      -115.6019   6.0000                                                             
     3  2  2.50       -29.3106  10.0000                                                             
     4  0  0.50       -11.7309   2.0000                                                             
     4  1  0.50        -3.8952   2.0000                                                             
     4  2  1.50        -4.0817   0.0000                                                             
     4  3  2.50        -4.0817   0.0000                                                             
   Description                                                                                      
     l       E           TYP  RCUT    TYP  RCUT                                                     
     0    -11.7309493     23  2.300                                                                 
     0     -7.4578696     23  2.300                                                                 
     1     -3.8952261     23  2.300                                                                 
     1      6.1178114     23  2.300                                                                 
     2     -4.0817478     23  2.300                                                                 
     3     -1.3605826      7  2.300                                                                 
  local pseudopotential read in
  partial core-charges read in
  partial kinetic energy density read in
  atomic valenz-charges read in
  non local Contribution for L=           0  read in
    real space projection operators read in
  non local Contribution for L=           0  read in
    real space projection operators read in
  non local Contribution for L=           1  read in
    real space projection operators read in
  non local Contribution for L=           1  read in
    real space projection operators read in
  non local Contribution for L=           2  read in
    real space projection operators read in
    PAW grid and wavefunctions read in
 
   number of l-projection  operators is LMAX  =           5
   number of lm-projection operators is LMMAX =          13
 
 Optimization of the real space projectors (new method)

 maximal supplied QI-value         = 19.84
 optimisation between [QCUT,QGAM] = [ 13.49, 26.99] = [ 50.98,203.92] Ry 
 Optimized for a Real-space Cutoff    1.07 Angstroem

   l    n(q)    QCUT    max X(q) W(low)/X(q) W(high)/X(q)  e(spline) 
   0      9    13.493   159.560    0.22E-03    0.15E-03    0.72E-07
   0      9    13.493   115.863    0.21E-03    0.15E-03    0.71E-07
   1      8    13.493    88.339    0.15E-03    0.11E-03    0.13E-06
   1      8    13.493    48.592    0.15E-03    0.10E-03    0.13E-06
 Optimization of the real space projectors (new method)

 maximal supplied QI-value         = 16.25
 optimisation between [QCUT,QGAM] = [ 13.49, 26.98] = [ 50.95,203.80] Ry 
 Optimized for a Real-space Cutoff    1.25 Angstroem

   l    n(q)    QCUT    max X(q) W(low)/X(q) W(high)/X(q)  e(spline) 
   0     10    13.489    65.336    0.91E-04    0.11E-03    0.34E-06
   0     10    13.489    52.220    0.89E-04    0.11E-03    0.34E-06
   1     10    13.489    36.409    0.22E-03    0.27E-03    0.14E-06
   1     10    13.489    21.334    0.21E-03    0.27E-03    0.14E-06
   2      9    13.489     4.673    0.11E-03    0.12E-03    0.19E-06
  PAW_PBE Si 05Jan2001                  :
 energy of atom  1       EATOM= -103.0669
 kinetic energy error for atom=    0.0003 (will be added to EATOM!!)
  PAW_PBE Ge 05Jan2001                  :
 energy of atom  2       EATOM= -104.9960
 kinetic energy error for atom=    0.0001 (will be added to EATOM!!)
 
 
 POSCAR: fcc Si+fcc Ge
  positions in direct lattice
  No initial velocities read in


 exchange-correlation table for PE
   RHO(1)=    0.500       N(1)  =     2000
   RHO(2)=  100.500       N(2)  =     4000
 


--------------------------------------------------------------------------------------------------------


 ion  position               nearest neighbor table
   1  0.000  0.000  0.000- 114 2.37  38 2.37 108 2.37  96 2.61  49 2.66
   2  0.000  0.750  0.080-  39 2.37  50 2.37 108 2.37  56 2.37
   3  0.000  0.500  0.161-  56 2.37  51 2.37  40 2.37  57 2.37
   4  0.000  0.250  0.241-  52 2.37  41 2.37  57 2.37  58 2.37
   5  0.376  0.817  0.493- 133 2.37  54 2.37 116 2.43  66 2.60
   6  0.000  0.750  0.402- 109 2.37  59 2.37 103 2.37  91 2.61  54 2.66
   7  0.793  0.900  0.909-  96 2.37  90 2.37 107 2.43 114 2.61
   8  0.333  0.083  0.080-  45 2.37  62 2.37  38 2.37  61 2.37
   9  0.333  0.833  0.161-  62 2.37  63 2.37  39 2.37  46 2.37
  10  0.333  0.583  0.241-  64 2.37  40 2.37  63 2.37  47 2.37
  11  0.333  0.333  0.322-  65 2.37  41 2.37  64 2.37  48 2.37
  12  0.793  0.650  0.493-  91 2.37  85 2.37  86 2.43 109 2.61
  13  0.459  0.734  0.909- 102 2.37  90 2.37  43 2.41  83 2.43  25 2.84
  14  0.667  0.417  0.080-  51 2.37  44 2.37  67 2.37  68 2.37
  15  0.667  0.167  0.161-  68 2.37  45 2.37  52 2.37  69 2.37
  16  0.667  0.917  0.241-  46 2.37  53 2.37  69 2.37  70 2.37
  17  0.667  0.667  0.322-  47 2.37  70 2.37 109 2.37  71 2.37
  18  0.459  0.484  0.493-  97 2.37  85 2.37  48 2.41  98 2.43  30 2.84
  19  0.000  0.500  0.000-  67 2.37  56 2.37  37 2.37  27 2.61 132 2.66
  20  0.376  0.067  0.909- 138 2.37  49 2.37 137 2.43  61 2.60
  21  0.000  0.000  0.161-  38 2.37  69 2.37  58 2.37  39 2.37
  22  0.000  0.750  0.241-  70 2.37  59 2.37  39 2.37  40 2.37
  23  0.000  0.500  0.322-  71 2.37  40 2.37 103 2.37  41 2.37
  24  0.000  0.250  0.402-  72 2.37  41 2.37  42 2.37  28 2.61 127 2.66
  25  0.333  0.833  0.000-  43 2.37 108 2.37  62 2.37  13 2.84
  26  0.333  0.583  0.080-  63 2.37  44 2.37  56 2.37  43 2.37
  27  0.043  0.400  0.909- 126 2.37 132 2.37  37 2.41 131 2.43  19 2.61
  28  0.043  0.150  0.493- 121 2.37 127 2.37  42 2.41 110 2.43  24 2.61
  29  0.333  0.833  0.322-  47 2.37  59 2.37  46 2.37  66 2.37
  30  0.333  0.583  0.402-  48 2.37 103 2.37  47 2.37  18 2.84
  31  0.667  0.167  0.000-  61 2.37  68 2.37 114 2.37  55 2.41
  32  0.667  0.917  0.080-  69 2.37  62 2.37 114 2.37  50 2.37
  33  0.667  0.667  0.161-  50 2.37  63 2.37  70 2.37  51 2.37
  34  0.667  0.417  0.241-  64 2.37  51 2.37  71 2.37  52 2.37
  35  0.667  0.167  0.322-  65 2.37  52 2.37  72 2.37  53 2.37
  36  0.667  0.917  0.402-  66 2.37  53 2.37 109 2.37  60 2.41
  37  0.083  0.333  0.000- 144 2.37  84 2.37  19 2.37  27 2.41
  38  0.083  0.083  0.080-  21 2.37   8 2.37   1 2.37  84 2.37
  39  0.083  0.833  0.161-   2 2.37   9 2.37  22 2.37  21 2.37
  40  0.083  0.583  0.241-  10 2.37   3 2.37  23 2.37  22 2.37
  41  0.083  0.333  0.322-  11 2.37   4 2.37  24 2.37  23 2.37
  42  0.083  0.083  0.402- 139 2.37  79 2.37  24 2.37  28 2.41
  43  0.417  0.667  0.000-  25 2.37 120 2.37  26 2.37  13 2.41 102 2.60
  44  0.417  0.417  0.080-  78 2.37  26 2.37  14 2.37 144 2.37
  45  0.417  0.167  0.161-   8 2.37  78 2.37  15 2.37  73 2.37
  46  0.417  0.917  0.241-  73 2.37  16 2.37  29 2.37   9 2.37
  47  0.417  0.667  0.322-  29 2.37  17 2.37  10 2.37  30 2.37
  48  0.417  0.417  0.402-  30 2.37 115 2.37  11 2.37  18 2.41  97 2.60
  49  0.126  0.067  0.909-  20 2.37  96 2.37  77 2.43   1 2.66
  50  0.750  0.750  0.080-  33 2.37   2 2.37 120 2.37  32 2.37
  51  0.750  0.500  0.161-  14 2.37   3 2.37  34 2.37  33 2.37
  52  0.750  0.250  0.241-   4 2.37  15 2.37  35 2.37  34 2.37
  53  0.750  0.000  0.322-  79 2.37  36 2.37  16 2.37  35 2.37
  54  0.126  0.817  0.493-   5 2.37  91 2.37  92 2.43   6 2.66
  55  0.709  0.234  0.909- 138 2.37 126 2.37  31 2.41 125 2.43
  56  0.083  0.583  0.080-   3 2.37  26 2.37  19 2.37   2 2.37
  57  0.083  0.333  0.161-  84 2.37  78 2.37   4 2.37   3 2.37
  58  0.083  0.083  0.241-  73 2.37  21 2.37  79 2.37   4 2.37
  59  0.083  0.833  0.322-  29 2.37  22 2.37   6 2.37  79 2.37
  60  0.709  0.984  0.493- 133 2.37 121 2.37  36 2.41 140 2.43
  61  0.417  0.167  0.000- 144 2.37  31 2.37   8 2.37 138 2.41  20 2.60
  62  0.417  0.917  0.080-   9 2.37   8 2.37  32 2.37  25 2.37
  63  0.417  0.667  0.161-  26 2.37   9 2.37  33 2.37  10 2.37
  64  0.417  0.417  0.241-  10 2.37  34 2.37  11 2.37  78 2.37
  65  0.417  0.167  0.322-  11 2.37  35 2.37  73 2.37 139 2.37
  66  0.417  0.917  0.402- 139 2.37  36 2.37  29 2.37 133 2.41   5 2.60
  67  0.750  0.500  0.000-  19 2.37  14 2.37 120 2.37 126 2.61
  68  0.750  0.250  0.080-  15 2.37  84 2.37  31 2.37  14 2.37
  69  0.750  0.000  0.161-  32 2.37  21 2.37  16 2.37  15 2.37
  70  0.750  0.750  0.241-  22 2.37  17 2.37  33 2.37  16 2.37
  71  0.750  0.500  0.322-  23 2.37  34 2.37 115 2.37  17 2.37
  72  0.750  0.250  0.402-  24 2.37  35 2.37 115 2.37 121 2.61
  73  0.333  0.083  0.241-  46 2.37  58 2.37  45 2.37  65 2.37
  74  0.043  0.400  0.576- 122 2.37 128 2.37 127 2.43 111 2.43
  75  0.043  0.650  0.660- 123 2.37 129 2.37 128 2.43 112 2.43
  76  0.043  0.900  0.743- 124 2.37 130 2.37 113 2.43 129 2.43
  77  0.043  0.150  0.826- 125 2.37 131 2.37 130 2.43  49 2.43
  78  0.333  0.333  0.161-  44 2.37  45 2.37  57 2.37  64 2.37
  79  0.000  0.000  0.322-  53 2.37  42 2.37  58 2.37  59 2.37
  80  0.376  0.067  0.576- 134 2.37 110 2.37 133 2.43 117 2.43
  81  0.376  0.317  0.660- 135 2.37 111 2.37 134 2.43 118 2.43
  82  0.376  0.567  0.743- 136 2.37 112 2.37 119 2.43 135 2.43
  83  0.376  0.817  0.826- 137 2.37 113 2.37 136 2.43  13 2.43
  84  0.000  0.250  0.080-  57 2.37  68 2.37  37 2.37  38 2.37
  85  0.709  0.484  0.493-  18 2.37  12 2.37 115 2.41 122 2.43
  86  0.709  0.734  0.576- 116 2.37 140 2.37 123 2.43  12 2.43
  87  0.709  0.984  0.660- 117 2.37 141 2.37 140 2.43 124 2.43
  88  0.709  0.234  0.743- 118 2.37 142 2.37 125 2.43 141 2.43
  89  0.709  0.484  0.826- 119 2.37 143 2.37 142 2.43 126 2.43
  90  0.709  0.734  0.909-  13 2.37   7 2.37 120 2.41 143 2.43
  91  0.043  0.650  0.493-  12 2.37  54 2.37 103 2.41 128 2.43   6 2.61
  92  0.043  0.900  0.576- 140 2.37 110 2.37 129 2.43  54 2.43
  93  0.043  0.150  0.660- 141 2.37 111 2.37 130 2.43 110 2.43
  94  0.043  0.400  0.743- 142 2.37 112 2.37 131 2.43 111 2.43
  95  0.043  0.650  0.826- 143 2.37 113 2.37 112 2.43 132 2.43
  96  0.043  0.900  0.909-   7 2.37  49 2.37 108 2.41 113 2.43   1 2.61
  97  0.376  0.317  0.493-  18 2.37 127 2.37 134 2.43  48 2.60
  98  0.376  0.567  0.576- 116 2.37 128 2.37  18 2.43 135 2.43
  99  0.376  0.817  0.660- 117 2.37 129 2.37 116 2.43 136 2.43
 100  0.376  0.067  0.743- 118 2.37 130 2.37 137 2.43 117 2.43
 101  0.376  0.317  0.826- 119 2.37 131 2.37 118 2.43 138 2.43
 102  0.376  0.567  0.909-  13 2.37 132 2.37 119 2.43  43 2.60
 103  0.083  0.583  0.402-  30 2.37  23 2.37   6 2.37  91 2.41
 104  0.709  0.234  0.576- 134 2.37 122 2.37 121 2.43 141 2.43
 105  0.709  0.484  0.660- 135 2.37 123 2.37 122 2.43 142 2.43
 106  0.709  0.734  0.743- 136 2.37 124 2.37 143 2.43 123 2.43
 107  0.709  0.984  0.826- 137 2.37 125 2.37 124 2.43   7 2.43
 108  0.083  0.833  0.000-  25 2.37   2 2.37   1 2.37  96 2.41
 109  0.750  0.750  0.402-   6 2.37  17 2.37  36 2.37  12 2.61
 110  0.126  0.067  0.576-  80 2.37  92 2.37  28 2.43  93 2.43
 111  0.126  0.317  0.660-  81 2.37  93 2.37  74 2.43  94 2.43
 112  0.126  0.567  0.743-  82 2.37  94 2.37  95 2.43  75 2.43
 113  0.126  0.817  0.826-  83 2.37  95 2.37  76 2.43  96 2.43
 114  0.750  0.000  0.000-   1 2.37  32 2.37  31 2.37   7 2.61
 115  0.667  0.417  0.402-  48 2.37  71 2.37  72 2.37  85 2.41
 116  0.459  0.734  0.576-  98 2.37  86 2.37   5 2.43  99 2.43
 117  0.459  0.984  0.660-  99 2.37  87 2.37  80 2.43 100 2.43
 118  0.459  0.234  0.743- 100 2.37  88 2.37 101 2.43  81 2.43
 119  0.459  0.484  0.826- 101 2.37  89 2.37  82 2.43 102 2.43
 120  0.667  0.667  0.000-  43 2.37  50 2.37  67 2.37  90 2.41
 121  0.793  0.150  0.493-  28 2.37  60 2.37 104 2.43  72 2.61
 122  0.793  0.400  0.576-  74 2.37 104 2.37  85 2.43 105 2.43
 123  0.793  0.650  0.660-  75 2.37 105 2.37  86 2.43 106 2.43
 124  0.793  0.900  0.743-  76 2.37 106 2.37 107 2.43  87 2.43
 125  0.793  0.150  0.826-  77 2.37 107 2.37  88 2.43  55 2.43
 126  0.793  0.400  0.909-  27 2.37  55 2.37  89 2.43  67 2.61
 127  0.126  0.317  0.493-  97 2.37  28 2.37  74 2.43  24 2.66
 128  0.126  0.567  0.576-  98 2.37  74 2.37  91 2.43  75 2.43
 129  0.126  0.817  0.660-  99 2.37  75 2.37  92 2.43  76 2.43
 130  0.126  0.067  0.743- 100 2.37  76 2.37  77 2.43  93 2.43
 131  0.126  0.317  0.826- 101 2.37  77 2.37  94 2.43  27 2.43
 132  0.126  0.567  0.909- 102 2.37  27 2.37  95 2.43  19 2.66
 133  0.459  0.984  0.493-   5 2.37  60 2.37  66 2.41  80 2.43 139 2.84
 134  0.459  0.234  0.576-  80 2.37 104 2.37  97 2.43  81 2.43
 135  0.459  0.484  0.660-  81 2.37 105 2.37  98 2.43  82 2.43
 136  0.459  0.734  0.743-  82 2.37 106 2.37  83 2.43  99 2.43
 137  0.459  0.984  0.826-  83 2.37 107 2.37 100 2.43  20 2.43
 138  0.459  0.234  0.909-  20 2.37  55 2.37  61 2.41 101 2.43 144 2.84
 139  0.333  0.083  0.402-  66 2.37  42 2.37  65 2.37 133 2.84
 140  0.793  0.900  0.576-  92 2.37  86 2.37  87 2.43  60 2.43
 141  0.793  0.150  0.660-  93 2.37  87 2.37  88 2.43 104 2.43
 142  0.793  0.400  0.743-  94 2.37  88 2.37  89 2.43 105 2.43
 143  0.793  0.650  0.826-  95 2.37  89 2.37 106 2.43  90 2.43
 144  0.333  0.333  0.000-  61 2.37  37 2.37  44 2.37 138 2.84
 
  LATTYP: Found a simple orthorhombic cell.
 ALAT       =     9.4916384250
 B/A-ratio  =     1.4142135624
 C/A-ratio  =     2.5383314005
  
  Lattice vectors:
  
 A1 = (   9.4916384250,   0.0000000000,   0.0000000000)
 A2 = (   0.0000000000,  13.4232037900,   0.0000000000)
 A3 = (   0.0000000000,   0.0000000000,  24.0929238560)


Analysis of symmetry for initial positions (statically):
=====================================================================
 Subroutine PRICEL returns:
 Original cell was already a primitive cell.
 

 Routine SETGRP: Setting up the symmetry group for a 
 simple orthorhombic supercell.


 Subroutine GETGRP returns: Found  1 space group operations
 (whereof  1 operations were pure point group operations)
 out of a pool of  8 trial point group operations.


The static configuration has the point symmetry C_1 .


Analysis of symmetry for dynamics (positions and initial velocities):
=====================================================================
 Subroutine PRICEL returns:
 Original cell was already a primitive cell.
 

 Routine SETGRP: Setting up the symmetry group for a 
 simple orthorhombic supercell.


 Subroutine GETGRP returns: Found  1 space group operations
 (whereof  1 operations were pure point group operations)
 out of a pool of  8 trial point group operations.


The dynamic configuration has the point symmetry C_1 .


Analysis of structural, dynamic, and magnetic symmetry:
=====================================================================
 Subroutine PRICEL returns:
 Original cell was already a primitive cell.
 

 Routine SETGRP: Setting up the symmetry group for a 
 simple orthorhombic supercell.


 Subroutine GETGRP returns: Found  1 space group operations
 (whereof  1 operations were pure point group operations)
 out of a pool of  8 trial point group operations.


The overall configuration has the point symmetry C_1 .


 Subroutine INISYM returns: Found  1 space group operations
 (whereof  1 operations are pure point group operations),
 and found     1 'primitive' translations


----------------------------------------------------------------------------------------

                                     Primitive cell                                     

  volume of cell :    3069.6360

  direct lattice vectors                    reciprocal lattice vectors
     9.491638425  0.000000000  0.000000000     0.105355889  0.000000000  0.000000000
     0.000000000 13.423203790  0.000000000     0.000000000  0.074497863  0.000000000
     0.000000000  0.000000000 24.092923856     0.000000000  0.000000000  0.041505963

  length of vectors
     9.491638425 13.423203790 24.092923856     0.105355889  0.074497863  0.041505963

  position of ions in fractional coordinates (direct lattice)
     0.000000000  0.000000000  0.000000000
     0.000000000  0.750000000  0.080416665
     0.000000000  0.500000000  0.160833329
     0.000000000  0.250000000  0.241249994
     0.375886525  0.817042607  0.493396442
     0.000000000  0.750000000  0.402083324
     0.792553191  0.900375940  0.908686882
     0.333333333  0.083333333  0.080416665
     0.333333333  0.833333333  0.160833329
     0.333333333  0.583333333  0.241249994
     0.333333333  0.333333333  0.321666659
     0.792553191  0.650375940  0.493396442
     0.459219858  0.733709273  0.908686882
     0.666666667  0.416666667  0.080416665
     0.666666667  0.166666667  0.160833329
     0.666666667  0.916666667  0.241249994
     0.666666667  0.666666667  0.321666659
     0.459219858  0.483709273  0.493396442
     0.000000000  0.500000000  0.000000000
     0.375886525  0.067042607  0.908686882
     0.000000000  0.000000000  0.160833329
     0.000000000  0.750000000  0.241249994
     0.000000000  0.500000000  0.321666659
     0.000000000  0.250000000  0.402083324
     0.333333333  0.833333333  0.000000000
     0.333333333  0.583333333  0.080416665
     0.042553191  0.400375940  0.908686882
     0.042553191  0.150375940  0.493396442
     0.333333333  0.833333333  0.321666659
     0.333333333  0.583333333  0.402083324
     0.666666667  0.166666667  0.000000000
     0.666666667  0.916666667  0.080416665
     0.666666667  0.666666667  0.160833329
     0.666666667  0.416666667  0.241249994
     0.666666667  0.166666667  0.321666659
     0.666666667  0.916666667  0.402083324
     0.083333333  0.333333333  0.000000000
     0.083333333  0.083333333  0.080416665
     0.083333333  0.833333333  0.160833329
     0.083333333  0.583333333  0.241249994
     0.083333333  0.333333333  0.321666659
     0.083333333  0.083333333  0.402083324
     0.416666667  0.666666667  0.000000000
     0.416666667  0.416666667  0.080416665
     0.416666667  0.166666667  0.160833329
     0.416666667  0.916666667  0.241249994
     0.416666667  0.666666667  0.321666659
     0.416666667  0.416666667  0.402083324
     0.125886525  0.067042607  0.908686882
     0.750000000  0.750000000  0.080416665
     0.750000000  0.500000000  0.160833329
     0.750000000  0.250000000  0.241249994
     0.750000000  0.000000000  0.321666659
     0.125886525  0.817042607  0.493396442
     0.709219858  0.233709273  0.908686882
     0.083333333  0.583333333  0.080416665
     0.083333333  0.333333333  0.160833329
     0.083333333  0.083333333  0.241249994
     0.083333333  0.833333333  0.321666659
     0.709219858  0.983709273  0.493396442
     0.416666667  0.166666667  0.000000000
     0.416666667  0.916666667  0.080416665
     0.416666667  0.666666667  0.160833329
     0.416666667  0.416666667  0.241249994
     0.416666667  0.166666667  0.321666659
     0.416666667  0.916666667  0.402083324
     0.750000000  0.500000000  0.000000000
     0.750000000  0.250000000  0.080416665
     0.750000000  0.000000000  0.160833329
     0.750000000  0.750000000  0.241249994
     0.750000000  0.500000000  0.321666659
     0.750000000  0.250000000  0.402083324
     0.333333333  0.083333333  0.241249994
     0.042553191  0.400375940  0.576454530
     0.042553191  0.650375940  0.659512618
     0.042553191  0.900375940  0.742570706
     0.042553191  0.150375940  0.825628794
     0.333333333  0.333333333  0.160833329
     0.000000000  0.000000000  0.321666659
     0.375886525  0.067042607  0.576454530
     0.375886525  0.317042607  0.659512618
     0.375886525  0.567042607  0.742570706
     0.375886525  0.817042607  0.825628794
     0.000000000  0.250000000  0.080416665
     0.709219858  0.483709273  0.493396442
     0.709219858  0.733709273  0.576454530
     0.709219858  0.983709273  0.659512618
     0.709219858  0.233709273  0.742570706
     0.709219858  0.483709273  0.825628794
     0.709219858  0.733709273  0.908686882
     0.042553191  0.650375940  0.493396442
     0.042553191  0.900375940  0.576454530
     0.042553191  0.150375940  0.659512618
     0.042553191  0.400375940  0.742570706
     0.042553191  0.650375940  0.825628794
     0.042553191  0.900375940  0.908686882
     0.375886525  0.317042607  0.493396442
     0.375886525  0.567042607  0.576454530
     0.375886525  0.817042607  0.659512618
     0.375886525  0.067042607  0.742570706
     0.375886525  0.317042607  0.825628794
     0.375886525  0.567042607  0.908686882
     0.083333333  0.583333333  0.402083324
     0.709219858  0.233709273  0.576454530
     0.709219858  0.483709273  0.659512618
     0.709219858  0.733709273  0.742570706
     0.709219858  0.983709273  0.825628794
     0.083333333  0.833333333  0.000000000
     0.750000000  0.750000000  0.402083324
     0.125886525  0.067042607  0.576454530
     0.125886525  0.317042607  0.659512618
     0.125886525  0.567042607  0.742570706
     0.125886525  0.817042607  0.825628794
     0.750000000  0.000000000  0.000000000
     0.666666667  0.416666667  0.402083324
     0.459219858  0.733709273  0.576454530
     0.459219858  0.983709273  0.659512618
     0.459219858  0.233709273  0.742570706
     0.459219858  0.483709273  0.825628794
     0.666666667  0.666666667  0.000000000
     0.792553191  0.150375940  0.493396442
     0.792553191  0.400375940  0.576454530
     0.792553191  0.650375940  0.659512618
     0.792553191  0.900375940  0.742570706
     0.792553191  0.150375940  0.825628794
     0.792553191  0.400375940  0.908686882
     0.125886525  0.317042607  0.493396442
     0.125886525  0.567042607  0.576454530
     0.125886525  0.817042607  0.659512618
     0.125886525  0.067042607  0.742570706
     0.125886525  0.317042607  0.825628794
     0.125886525  0.567042607  0.908686882
     0.459219858  0.983709273  0.493396442
     0.459219858  0.233709273  0.576454530
     0.459219858  0.483709273  0.659512618
     0.459219858  0.733709273  0.742570706
     0.459219858  0.983709273  0.825628794
     0.459219858  0.233709273  0.908686882
     0.333333333  0.083333333  0.402083324
     0.792553191  0.900375940  0.576454530
     0.792553191  0.150375940  0.659512618
     0.792553191  0.400375940  0.742570706
     0.792553191  0.650375940  0.825628794
     0.333333333  0.333333333  0.000000000

  ion indices of the primitive-cell ions
   primitive index   ion index
                 1           1
                 2           2
                 3           3
                 4           4
                 5           5
                 6           6
                 7           7
                 8           8
                 9           9
                10          10
                11          11
                12          12
                13          13
                14          14
                15          15
                16          16
                17          17
                18          18
                19          19
                20          20
                21          21
                22          22
                23          23
                24          24
                25          25
                26          26
                27          27
                28          28
                29          29
                30          30
                31          31
                32          32
                33          33
                34          34
                35          35
                36          36
                37          37
                38          38
                39          39
                40          40
                41          41
                42          42
                43          43
                44          44
                45          45
                46          46
                47          47
                48          48
                49          49
                50          50
                51          51
                52          52
                53          53
                54          54
                55          55
                56          56
                57          57
                58          58
                59          59
                60          60
                61          61
                62          62
                63          63
                64          64
                65          65
                66          66
                67          67
                68          68
                69          69
                70          70
                71          71
                72          72
                73          73
                74          74
                75          75
                76          76
                77          77
                78          78
                79          79
                80          80
                81          81
                82          82
                83          83
                84          84
                85          85
                86          86
                87          87
                88          88
                89          89
                90          90
                91          91
                92          92
                93          93
                94          94
                95          95
                96          96
                97          97
                98          98
                99          99
               100         100
               101         101
               102         102
               103         103
               104         104
               105         105
               106         106
               107         107
               108         108
               109         109
               110         110
               111         111
               112         112
               113         113
               114         114
               115         115
               116         116
               117         117
               118         118
               119         119
               120         120
               121         121
               122         122
               123         123
               124         124
               125         125
               126         126
               127         127
               128         128
               129         129
               130         130
               131         131
               132         132
               133         133
               134         134
               135         135
               136         136
               137         137
               138         138
               139         139
               140         140
               141         141
               142         142
               143         143
               144         144

----------------------------------------------------------------------------------------

 
 
 KPOINTS: Automatic KPOINTS generated             

Automatic generation of k-mesh.
 Grid dimensions read from file:
 generate k-points for:    3    2    1

 Generating k-lattice:

  Cartesian coordinates                     Fractional coordinates (reciprocal lattice)
     0.035118630  0.000000000  0.000000000     0.333333333  0.000000000  0.000000000
     0.000000000  0.037248932  0.000000000     0.000000000  0.500000000  0.000000000
     0.000000000  0.000000000  0.041505963     0.000000000  0.000000000  1.000000000

  Length of vectors
     0.035118630  0.037248932  0.041505963

  Shift w.r.t. Gamma in fractional coordinates (k-lattice)
     0.000000000  0.000000000  0.000000000

 
 Subroutine IBZKPT returns following result:
 ===========================================
 
 Found      4 irreducible k-points:
 
 Following reciprocal coordinates:
            Coordinates               Weight
  0.000000  0.000000  0.000000      1.000000
  0.333333  0.000000  0.000000      2.000000
  0.000000  0.500000  0.000000      1.000000
  0.333333  0.500000  0.000000      2.000000
 
 Following cartesian coordinates:
            Coordinates               Weight
  0.000000  0.000000  0.000000      1.000000
  0.035119  0.000000  0.000000      2.000000
  0.000000  0.037249  0.000000      1.000000
  0.035119  0.037249  0.000000      2.000000
 


--------------------------------------------------------------------------------------------------------




 Dimension of arrays:
   k-points           NKPTS =      4   k-points in BZ     NKDIM =      4   number of bands    NBANDS=    346
   number of dos      NEDOS =    301   number of ions     NIONS =    144
   non local maximal  LDIM  =      5   non local SUM 2l+1 LMDIM =     13
   total plane-waves  NPLWV = 921600
   max r-space proj   IRMAX =   2483   max aug-charges    IRDMAX= 130725
   dimension x,y,z NGX =    64 NGY =   90 NGZ =  160
   dimension x,y,z NGXF=   128 NGYF=  180 NGZF=  320
   support grid    NGXF=   256 NGYF=  360 NGZF=  640
   ions per type =              72  72
   NGX,Y,Z   is equivalent  to a cutoff of  11.21, 11.15, 11.04 a.u.
   NGXF,Y,Z  is equivalent  to a cutoff of  22.42, 22.29, 22.08 a.u.

 SYSTEM =  Si011 and Ge011 interface calculation   
 POSCAR =  fcc Si+fcc Ge                           

 Startparameter for this run:
   NWRITE =      2    write-flag & timer
   PREC   = normal    normal or accurate (medium, high low for compatibility)
   ISTART =      0    job   : 0-new  1-cont  2-samecut
   ICHARG =      2    charge: 1-file 2-atom 10-const
   ISPIN  =      2    spin polarized calculation?
   LNONCOLLINEAR =      F non collinear calculations
   LSORBIT =      F    spin-orbit coupling
   INIWAV =      1    electr: 0-lowe 1-rand  2-diag
   LASPH  =      T    aspherical Exc in radial PAW
 Electronic Relaxation 1
   ENCUT  =  700.0 eV  51.45 Ry    7.17 a.u.  20.48 28.96 51.98*2*pi/ulx,y,z
   ENINI  =  700.0     initial cutoff
   ENAUG  =  900.0 eV  augmentation charge cutoff
   NELM   =    100;   NELMIN=  2; NELMDL= -5     # of ELM steps 
   EDIFF  = 0.1E-06   stopping-criterion for ELM
   LREAL  =      T    real-space projection
   NLSPLINE    = F    spline interpolate recip. space projectors
   LCOMPAT=      F    compatible to vasp.4.4
   GGA_COMPAT  = T    GGA compatible to vasp.4.4-vasp.4.6
   LMAXPAW     = -100 max onsite density
   LMAXMIX     =    6 max onsite mixed and CHGCAR
   VOSKOWN=      0    Vosko Wilk Nusair interpolation
   ROPT   =   -0.00050  -0.00050
 Ionic relaxation
   EDIFFG = 0.1E-05   stopping-criterion for IOM
   NSW    =      0    number of steps for IOM
   NBLOCK =      1;   KBLOCK =      1    inner block; outer block 
   IBRION =     -1    ionic relax: 0-MD 1-quasi-New 2-CG
   NFREE  =      0    steps in history (QN), initial steepest desc. (CG)
   ISIF   =      2    stress and relaxation
   IWAVPR =     10    prediction:  0-non 1-charg 2-wave 3-comb
   ISYM   =      2    0-nonsym 1-usesym 2-fastsym
   LCORR  =      T    Harris-Foulkes like correction to forces

   POTIM  = 0.5000    time-step for ionic-motion
   TEIN   =    0.0    initial temperature
   TEBEG  =    0.0;   TEEND  =   0.0 temperature during run
   SMASS  =  -3.00    Nose mass-parameter (am)
   estimated Nose-frequenzy (Omega)   =  0.10E-29 period in steps = 0.13E+47 mass=  -0.206E-26a.u.
   SCALEE = 1.0000    scale energy and forces
   NPACO  =    256;   APACO  = 10.0  distance and # of slots for P.C.
   PSTRESS=    0.0 pullay stress

  Mass of Ions in am
   POMASS =  28.09 72.61
  Ionic Valenz
   ZVAL   =   4.00  4.00
  Atomic Wigner-Seitz radii
   RWIGS  =  -1.00 -1.00
  virtual crystal weights 
   VCA    =   1.00  1.00
   NELECT =     576.0000    total number of electrons
   NUPDOWN=       1.0000    fix difference up-down

 DOS related values:
   EMIN   =  10.00;   EMAX   =-10.00  energy-range for DOS
   EFERMI =   0.00;   METHOD = LEGACY      
   ISMEAR =     0;   SIGMA  =   0.01  broadening in eV -4-tet -1-fermi 0-gaus

 Electronic relaxation 2 (details)
   IALGO  =     38    algorithm
   LDIAG  =      T    sub-space diagonalisation (order eigenvalues)
   LSUBROT=      F    optimize rotation matrix (better conditioning)
   TURBO    =      0    0=normal 1=particle mesh
   IRESTART =      0    0=no restart 2=restart with 2 vectors
   NREBOOT  =      0    no. of reboots
   NMIN     =      0    reboot dimension
   EREF     =   0.00    reference energy to select bands
   IMIX   =      4    mixing-type and parameters
     AMIX     =   0.60;   BMIX     =  1.00
     AMIX_MAG =   2.40;   BMIX_MAG =  1.00
     AMIN     =   0.10
     WC   =   100.;   INIMIX=   1;  MIXPRE=   1;  MAXMIX= -45

 Intra band minimization:
   WEIMIN = 0.0000     energy-eigenvalue tresh-hold
   EBREAK =  0.72E-10  absolut break condition
   DEPER  =   0.30     relativ break condition  

   TIME   =   0.40     timestep for ELM

  volume/ion in A,a.u.               =      21.32       143.85
  Fermi-wavevector in a.u.,A,eV,Ry     =   0.937246  1.771137 11.951754  0.878429
  Thomas-Fermi vector in A             =   2.064337
 
 Write flags
   LWAVE        =      F    write WAVECAR
   LDOWNSAMPLE  =      F    k-point downsampling of WAVECAR
   LCHARG       =      T    write CHGCAR
   LVTOT        =      F    write LOCPOT, total local potential
   LVHAR        =      T    write LOCPOT, Hartree potential only
   WRT_POTENTIAL=  hartree ionic  ! write potential to hdf5 file
   LELF         =      F    write electronic localiz. function (ELF)
   LORBIT       =      0    0 simple, 1 ext, 2 COOP (PROOUT), +10 PAW based schemes


 Dipole corrections
   LMONO      =      F    monopole corrections only (constant potential shift)
   LDIPOL     =      F    correct potential (dipole corrections)
   IDIPOL     =      0    1-x, 2-y, 3-z, 4-all directions 
   EPSILON    =  1.0000000 bulk dielectric constant
   LVACPOTAV  =      F  vacuum potentials using an averaging scheme for the charge density
   VACPOTFLAT =  0.1000000 required flatness to determine vacuum potential
 Exchange correlation treatment:
   GGA     = PE    functional components
   XC_C    = 1    coefficients multiplying the functional components
   LIBXC   =     F    Libxc                    
   VOSKOWN =     0    Vosko Wilk Nusair interpolation
   LHFCALC =     F    Hartree Fock is set to
   LHFONE  =     F    Hartree Fock one center treatment
   AEXX    =    0.0000 exact exchange contribution

 Parameters of functionals:
   PE:
     No parameter
 
 Van der Waals corrections
   IVDW    =     0    specifies the selected vdW correction

 Linear response parameters
   LEPSILON=     F    determine dielectric tensor
   LRPA    =     F    only Hartree local field effects (RPA)
   LNABLA  =     F    use nabla operator in PAW spheres
   LVEL    =     F    velocity operator in full k-point grid
   CSHIFT  =0.1000    complex shift for real part using Kramers Kronig
   OMEGAMAX=  -1.0    maximum frequency
   DEG_THRESHOLD= 0.2000000E-02 threshold for treating states as degnerate
   RTIME   =   -0.100 relaxation time in fs
  (WPLASMAI=    0.000 imaginary part of plasma frequency in eV, 0.658/RTIME)
   DFIELD  = 0.0000000 0.0000000 0.0000000 field for delta impulse in time
 
  Optional k-point grid parameters
   LKPOINTS_OPT  =     F    use optional k-point grid
   KPOINTS_OPT_MODE=     1    mode for optional k-point grid
 
 Orbital magnetization related:
   ORBITALMAG=     F  switch on orbital magnetization
   LCHIMAG   =     F  perturbation theory with respect to B field
   DQ        =  0.001000  dq finite difference perturbation B field
   LLRAUG    =     F  two centre corrections for induced B field
   LBONE     =     F  B-component reconstruction in AE one-centre
   LVGVCALC  =     T  calculate vGv susceptibility
   LVGVAPPL  =     F  apply vGv susceptibility instead of pGv for G=0

 Random number generation:
   RANDOM_GENERATOR = DEFAULT
   PCG_SEED         = not used


--------------------------------------------------------------------------------------------------------


 Static calculation
 charge density and potential will be updated during run
 spin polarized calculation
 Variant of blocked Davidson
 Davidson routine will perform the subspace rotation
 perform sub-space diagonalisation
    after iterative eigenvector-optimisation
 modified Broyden-mixing scheme, WC =      100.0
 initial mixing is a Kerker type mixing with AMIX =  0.6000 and BMIX =      1.0000
 Hartree-type preconditioning will be used
 using additional bands           58
 real space projection scheme for non local part
 use partial core corrections
 calculate Harris-corrections to forces 
   (improved forces if not selfconsistent)
 use gradient corrections 
 use of overlap-Matrix (Vanderbilt PP)
 Gauss-broadening in eV      SIGMA  =   0.01


--------------------------------------------------------------------------------------------------------


  energy-cutoff  :      700.00
  volume of cell :     3069.64
      direct lattice vectors                 reciprocal lattice vectors
     9.491638425  0.000000000  0.000000000     0.105355889  0.000000000  0.000000000
     0.000000000 13.423203790  0.000000000     0.000000000  0.074497863  0.000000000
     0.000000000  0.000000000 24.092923856     0.000000000  0.000000000  0.041505963

  length of vectors
     9.491638425 13.423203790 24.092923856     0.105355889  0.074497863  0.041505963


 
 k-points in units of 2pi/SCALE and weight: Automatic KPOINTS generated             
   0.00000000  0.00000000  0.00000000       0.167
   0.03511863  0.00000000  0.00000000       0.333
   0.00000000  0.03724893  0.00000000       0.167
   0.03511863  0.03724893  0.00000000       0.333
 
 k-points in reciprocal lattice and weights: Automatic KPOINTS generated             
   0.00000000  0.00000000  0.00000000       0.167
   0.33333333  0.00000000  0.00000000       0.333
   0.00000000  0.50000000  0.00000000       0.167
   0.33333333  0.50000000  0.00000000       0.333
 
 position of ions in fractional coordinates (direct lattice) 
   0.00000000  0.00000000  0.00000000
   0.00000000  0.75000000  0.08041667
   0.00000000  0.50000000  0.16083333
   0.00000000  0.25000000  0.24124999
   0.37588652  0.81704261  0.49339644
   0.00000000  0.75000000  0.40208332
   0.79255319  0.90037594  0.90868688
   0.33333333  0.08333333  0.08041667
   0.33333333  0.83333333  0.16083333
   0.33333333  0.58333333  0.24124999
   0.33333333  0.33333333  0.32166666
   0.79255319  0.65037594  0.49339644
   0.45921986  0.73370927  0.90868688
   0.66666667  0.41666667  0.08041667
   0.66666667  0.16666667  0.16083333
   0.66666667  0.91666667  0.24124999
   0.66666667  0.66666667  0.32166666
   0.45921986  0.48370927  0.49339644
   0.00000000  0.50000000  0.00000000
   0.37588652  0.06704261  0.90868688
   0.00000000  0.00000000  0.16083333
   0.00000000  0.75000000  0.24124999
   0.00000000  0.50000000  0.32166666
   0.00000000  0.25000000  0.40208332
   0.33333333  0.83333333  0.00000000
   0.33333333  0.58333333  0.08041667
   0.04255319  0.40037594  0.90868688
   0.04255319  0.15037594  0.49339644
   0.33333333  0.83333333  0.32166666
   0.33333333  0.58333333  0.40208332
   0.66666667  0.16666667  0.00000000
   0.66666667  0.91666667  0.08041667
   0.66666667  0.66666667  0.16083333
   0.66666667  0.41666667  0.24124999
   0.66666667  0.16666667  0.32166666
   0.66666667  0.91666667  0.40208332
   0.08333333  0.33333333  0.00000000
   0.08333333  0.08333333  0.08041667
   0.08333333  0.83333333  0.16083333
   0.08333333  0.58333333  0.24124999
   0.08333333  0.33333333  0.32166666
   0.08333333  0.08333333  0.40208332
   0.41666667  0.66666667  0.00000000
   0.41666667  0.41666667  0.08041667
   0.41666667  0.16666667  0.16083333
   0.41666667  0.91666667  0.24124999
   0.41666667  0.66666667  0.32166666
   0.41666667  0.41666667  0.40208332
   0.12588652  0.06704261  0.90868688
   0.75000000  0.75000000  0.08041667
   0.75000000  0.50000000  0.16083333
   0.75000000  0.25000000  0.24124999
   0.75000000  0.00000000  0.32166666
   0.12588652  0.81704261  0.49339644
   0.70921986  0.23370927  0.90868688
   0.08333333  0.58333333  0.08041667
   0.08333333  0.33333333  0.16083333
   0.08333333  0.08333333  0.24124999
   0.08333333  0.83333333  0.32166666
   0.70921986  0.98370927  0.49339644
   0.41666667  0.16666667  0.00000000
   0.41666667  0.91666667  0.08041667
   0.41666667  0.66666667  0.16083333
   0.41666667  0.41666667  0.24124999
   0.41666667  0.16666667  0.32166666
   0.41666667  0.91666667  0.40208332
   0.75000000  0.50000000  0.00000000
   0.75000000  0.25000000  0.08041667
   0.75000000  0.00000000  0.16083333
   0.75000000  0.75000000  0.24124999
   0.75000000  0.50000000  0.32166666
   0.75000000  0.25000000  0.40208332
   0.33333333  0.08333333  0.24124999
   0.04255319  0.40037594  0.57645453
   0.04255319  0.65037594  0.65951262
   0.04255319  0.90037594  0.74257071
   0.04255319  0.15037594  0.82562879
   0.33333333  0.33333333  0.16083333
   0.00000000  0.00000000  0.32166666
   0.37588652  0.06704261  0.57645453
   0.37588652  0.31704261  0.65951262
   0.37588652  0.56704261  0.74257071
   0.37588652  0.81704261  0.82562879
   0.00000000  0.25000000  0.08041667
   0.70921986  0.48370927  0.49339644
   0.70921986  0.73370927  0.57645453
   0.70921986  0.98370927  0.65951262
   0.70921986  0.23370927  0.74257071
   0.70921986  0.48370927  0.82562879
   0.70921986  0.73370927  0.90868688
   0.04255319  0.65037594  0.49339644
   0.04255319  0.90037594  0.57645453
   0.04255319  0.15037594  0.65951262
   0.04255319  0.40037594  0.74257071
   0.04255319  0.65037594  0.82562879
   0.04255319  0.90037594  0.90868688
   0.37588652  0.31704261  0.49339644
   0.37588652  0.56704261  0.57645453
   0.37588652  0.81704261  0.65951262
   0.37588652  0.06704261  0.74257071
   0.37588652  0.31704261  0.82562879
   0.37588652  0.56704261  0.90868688
   0.08333333  0.58333333  0.40208332
   0.70921986  0.23370927  0.57645453
   0.70921986  0.48370927  0.65951262
   0.70921986  0.73370927  0.74257071
   0.70921986  0.98370927  0.82562879
   0.08333333  0.83333333  0.00000000
   0.75000000  0.75000000  0.40208332
   0.12588652  0.06704261  0.57645453
   0.12588652  0.31704261  0.65951262
   0.12588652  0.56704261  0.74257071
   0.12588652  0.81704261  0.82562879
   0.75000000  0.00000000  0.00000000
   0.66666667  0.41666667  0.40208332
   0.45921986  0.73370927  0.57645453
   0.45921986  0.98370927  0.65951262
   0.45921986  0.23370927  0.74257071
   0.45921986  0.48370927  0.82562879
   0.66666667  0.66666667  0.00000000
   0.79255319  0.15037594  0.49339644
   0.79255319  0.40037594  0.57645453
   0.79255319  0.65037594  0.65951262
   0.79255319  0.90037594  0.74257071
   0.79255319  0.15037594  0.82562879
   0.79255319  0.40037594  0.90868688
   0.12588652  0.31704261  0.49339644
   0.12588652  0.56704261  0.57645453
   0.12588652  0.81704261  0.65951262
   0.12588652  0.06704261  0.74257071
   0.12588652  0.31704261  0.82562879
   0.12588652  0.56704261  0.90868688
   0.45921986  0.98370927  0.49339644
   0.45921986  0.23370927  0.57645453
   0.45921986  0.48370927  0.65951262
   0.45921986  0.73370927  0.74257071
   0.45921986  0.98370927  0.82562879
   0.45921986  0.23370927  0.90868688
   0.33333333  0.08333333  0.40208332
   0.79255319  0.90037594  0.57645453
   0.79255319  0.15037594  0.65951262
   0.79255319  0.40037594  0.74257071
   0.79255319  0.65037594  0.82562879
   0.33333333  0.33333333  0.00000000
 
 position of ions in cartesian coordinates  (Angst):
   0.00000000  0.00000000  0.00000000
   0.00000000 10.06740284  1.93747259
   0.00000000  6.71160190  3.87494515
   0.00000000  3.35580095  5.81241774
   3.56777898 10.96732942 11.88736291
   0.00000000 10.06740284  9.68736291
   7.52262832 12.08592973 21.89292386
   3.16387947  1.11860031  1.93747259
   3.16387947 11.18600315  3.87494515
   3.16387947  7.83020221  5.81241774
   3.16387947  4.47440126  7.74989032
   7.52262832  8.73012878 11.88736291
   4.35874885  9.84872909 21.89292386
   6.32775895  5.59300158  1.93747259
   6.32775895  2.23720064  3.87494515
   6.32775895 12.30460348  5.81241774
   6.32775895  8.94880253  7.74989032
   4.35874885  6.49292815 11.88736291
   0.00000000  6.71160190  0.00000000
   3.56777898  0.89992658 21.89292386
   0.00000000  0.00000000  3.87494515
   0.00000000 10.06740284  5.81241774
   0.00000000  6.71160190  7.74989032
   0.00000000  3.35580095  9.68736291
   3.16387947 11.18600315  0.00000000
   3.16387947  7.83020221  1.93747259
   0.40389950  5.37432784 21.89292386
   0.40389950  2.01852689 11.88736291
   3.16387947 11.18600315  7.74989032
   3.16387947  7.83020221  9.68736291
   6.32775895  2.23720064  0.00000000
   6.32775895 12.30460348  1.93747259
   6.32775895  8.94880253  3.87494515
   6.32775895  5.59300158  5.81241774
   6.32775895  2.23720064  7.74989032
   6.32775895 12.30460348  9.68736291
   0.79096987  4.47440126  0.00000000
   0.79096987  1.11860031  1.93747259
   0.79096987 11.18600315  3.87494515
   0.79096987  7.83020221  5.81241774
   0.79096987  4.47440126  7.74989032
   0.79096987  1.11860031  9.68736291
   3.95484935  8.94880253  0.00000000
   3.95484935  5.59300158  1.93747259
   3.95484935  2.23720064  3.87494515
   3.95484935 12.30460348  5.81241774
   3.95484935  8.94880253  7.74989032
   3.95484935  5.59300158  9.68736291
   1.19486938  0.89992658 21.89292386
   7.11872882 10.06740284  1.93747259
   7.11872882  6.71160190  3.87494515
   7.11872882  3.35580095  5.81241774
   7.11872882  0.00000000  7.74989032
   1.19486938 10.96732942 11.88736291
   6.73165846  3.13712720 21.89292386
   0.79096987  7.83020221  1.93747259
   0.79096987  4.47440126  3.87494515
   0.79096987  1.11860031  5.81241774
   0.79096987 11.18600315  7.74989032
   6.73165846 13.20453004 11.88736291
   3.95484935  2.23720064  0.00000000
   3.95484935 12.30460348  1.93747259
   3.95484935  8.94880253  3.87494515
   3.95484935  5.59300158  5.81241774
   3.95484935  2.23720064  7.74989032
   3.95484935 12.30460348  9.68736291
   7.11872882  6.71160190  0.00000000
   7.11872882  3.35580095  1.93747259
   7.11872882  0.00000000  3.87494515
   7.11872882 10.06740284  5.81241774
   7.11872882  6.71160190  7.74989032
   7.11872882  3.35580095  9.68736291
   3.16387947  1.11860031  5.81241774
   0.40389950  5.37432784 13.88847510
   0.40389950  8.73012878 15.88958729
   0.40389950 12.08592973 17.89069948
   0.40389950  2.01852689 19.89181167
   3.16387947  4.47440126  3.87494515
   0.00000000  0.00000000  7.74989032
   3.56777898  0.89992658 13.88847510
   3.56777898  4.25572752 15.88958729
   3.56777898  7.61152847 17.89069948
   3.56777898 10.96732942 19.89181167
   0.00000000  3.35580095  1.93747259
   6.73165846  6.49292815 11.88736291
   6.73165846  9.84872909 13.88847510
   6.73165846 13.20453004 15.88958729
   6.73165846  3.13712720 17.89069948
   6.73165846  6.49292815 19.89181167
   6.73165846  9.84872909 21.89292386
   0.40389950  8.73012878 11.88736291
   0.40389950 12.08592973 13.88847510
   0.40389950  2.01852689 15.88958729
   0.40389950  5.37432784 17.89069948
   0.40389950  8.73012878 19.89181167
   0.40389950 12.08592973 21.89292386
   3.56777898  4.25572752 11.88736291
   3.56777898  7.61152847 13.88847510
   3.56777898 10.96732942 15.88958729
   3.56777898  0.89992658 17.89069948
   3.56777898  4.25572752 19.89181167
   3.56777898  7.61152847 21.89292386
   0.79096987  7.83020221  9.68736291
   6.73165846  3.13712720 13.88847510
   6.73165846  6.49292815 15.88958729
   6.73165846  9.84872909 17.89069948
   6.73165846 13.20453004 19.89181167
   0.79096987 11.18600315  0.00000000
   7.11872882 10.06740284  9.68736291
   1.19486938  0.89992658 13.88847510
   1.19486938  4.25572752 15.88958729
   1.19486938  7.61152847 17.89069948
   1.19486938 10.96732942 19.89181167
   7.11872882  0.00000000  0.00000000
   6.32775895  5.59300158  9.68736291
   4.35874885  9.84872909 13.88847510
   4.35874885 13.20453004 15.88958729
   4.35874885  3.13712720 17.89069948
   4.35874885  6.49292815 19.89181167
   6.32775895  8.94880253  0.00000000
   7.52262832  2.01852689 11.88736291
   7.52262832  5.37432784 13.88847510
   7.52262832  8.73012878 15.88958729
   7.52262832 12.08592973 17.89069948
   7.52262832  2.01852689 19.89181167
   7.52262832  5.37432784 21.89292386
   1.19486938  4.25572752 11.88736291
   1.19486938  7.61152847 13.88847510
   1.19486938 10.96732942 15.88958729
   1.19486938  0.89992658 17.89069948
   1.19486938  4.25572752 19.89181167
   1.19486938  7.61152847 21.89292386
   4.35874885 13.20453004 11.88736291
   4.35874885  3.13712720 13.88847510
   4.35874885  6.49292815 15.88958729
   4.35874885  9.84872909 17.89069948
   4.35874885 13.20453004 19.89181167
   4.35874885  3.13712720 21.89292386
   3.16387947  1.11860031  9.68736291
   7.52262832 12.08592973 13.88847510
   7.52262832  2.01852689 15.88958729
   7.52262832  5.37432784 17.89069948
   7.52262832  8.73012878 19.89181167
   3.16387947  4.47440126  0.00000000
 


--------------------------------------------------------------------------------------------------------


 k-point     1 :   0.0000 0.0000 0.0000  plane waves:  129107
 k-point     2 :   0.3333 0.0000 0.0000  plane waves:  129083
 k-point     3 :   0.0000 0.5000 0.0000  plane waves:  129106
 k-point     4 :   0.3333 0.5000 0.0000  plane waves:  129070

 maximum and minimum number of plane-waves per node :      8102     8035

 maximum number of plane-waves:    129107
 maximum index in each direction: 
   IXMAX=   20   IYMAX=   28   IZMAX=   51
   IXMIN=  -20   IYMIN=  -29   IZMIN=  -51


 real space projection operators:
  total allocation   :      24096.24 KBytes
  max/ min on nodes  :       1539.80       1463.11


 parallel 3D FFT for wavefunctions:
    minimum data exchange during FFTs selected (reduces bandwidth)
 parallel 3D FFT for charge:
    minimum data exchange during FFTs selected (reduces bandwidth)


 total amount of memory used by VASP MPI-rank0   511244. kBytes
=======================================================================

   base      :      30000. kBytes
   nonlr-proj:       7839. kBytes
   fftplans  :      69092. kBytes
   grid      :      42335. kBytes
   one-center:        146. kBytes
   wavefun   :     361832. kBytes
 
     INWAV:  cpu time      0.0001: real time      0.0003
 Broyden mixing: mesh for mixing (old mesh)
   NGX = 41   NGY = 57   NGZ =103
  (NGX  =128   NGY  =180   NGZ  =320)
  gives a total of 240711 points

 initial charge density was supplied:
 charge density of overlapping atoms calculated
 number of electron     576.0000000 magnetization       1.0000000
 keeping initial charge density in first step


--------------------------------------------------------------------------------------------------------


 Maximum index for non-local projection operator          217
 Maximum index for augmentation-charges         8110 (set IRDMAX)


--------------------------------------------------------------------------------------------------------


 First call to EWALD:  gamma=   0.122
 Maximum number of real-space cells 4x 3x 2
 Maximum number of reciprocal cells 2x 3x 4

    FEWALD:  cpu time      0.0058: real time      0.0059


--------------------------------------- Ionic step        1  -------------------------------------------




--------------------------------------- Iteration      1(   1)  ---------------------------------------


    POTLOK:  cpu time      0.8481: real time      0.8555
    SETDIJ:  cpu time      4.3914: real time      4.4127
     EDDAV:  cpu time     61.0935: real time     61.5948
       DOS:  cpu time      0.0033: real time      0.0033
    --------------------------------------------
      LOOP:  cpu time     66.3363: real time     66.8663

 eigenvalue-minimisations  :  5536
 total energy-change (2. order) : 0.2454934E+04  (-0.2581104E+05)
 number of electron     576.0000000 magnetization       1.0000000
 augmentation part      576.0000000 magnetization       1.0000000

 Free energy of the ion-electron system (eV)
  ---------------------------------------------------
  alpha Z        PSCENC =       759.26891756
  Ewald energy   TEWEN  =    -15880.22937473
  -Hartree energ DENC   =     -1042.26836136
  -exchange      EXHF   =         0.00000000
  -V(xc)+E(xc)   XCENC  =     -1208.90672281
  PAW double counting   =     12691.36703575   -10381.54560829
  entropy T*S    EENTRO =        -0.00039948
  eigenvalues    EBANDS =      2536.74575777
  atomic energy  EATOM  =     14980.50241411
  Solvation  Ediel_sol  =         0.00000000
  ---------------------------------------------------
  free energy    TOTEN  =      2454.93365851 eV

  energy without entropy =     2454.93405800  energy(sigma->0) =     2454.93385825


--------------------------------------------------------------------------------------------------------




--------------------------------------- Iteration      1(   2)  ---------------------------------------


     EDDAV:  cpu time     68.7869: real time     69.3424
       DOS:  cpu time      0.0028: real time      0.0028
    --------------------------------------------
      LOOP:  cpu time     68.7897: real time     69.3453

 eigenvalue-minimisations  :  6472
 total energy-change (2. order) :-0.2871682E+04  (-0.2767564E+04)
 number of electron     576.0000000 magnetization       1.0000000
 augmentation part      576.0000000 magnetization       1.0000000

 Free energy of the ion-electron system (eV)
  ---------------------------------------------------
  alpha Z        PSCENC =       759.26891756
  Ewald energy   TEWEN  =    -15880.22937473
  -Hartree energ DENC   =     -1042.26836136
  -exchange      EXHF   =         0.00000000
  -V(xc)+E(xc)   XCENC  =     -1208.90672281
  PAW double counting   =     12691.36703575   -10381.54560829
  entropy T*S    EENTRO =        -0.00229774
  eigenvalues    EBANDS =      -334.93470258
  atomic energy  EATOM  =     14980.50241411
  Solvation  Ediel_sol  =         0.00000000
  ---------------------------------------------------
  free energy    TOTEN  =      -416.74870010 eV

  energy without entropy =     -416.74640235  energy(sigma->0) =     -416.74755122


--------------------------------------------------------------------------------------------------------




--------------------------------------- Iteration      1(   3)  ---------------------------------------


     EDDAV:  cpu time     71.5981: real time     72.2224
       DOS:  cpu time      0.0023: real time      0.0024
    --------------------------------------------
      LOOP:  cpu time     71.6004: real time     72.2247

 eigenvalue-minimisations  :  6800
 total energy-change (2. order) :-0.2719469E+03  (-0.2651130E+03)
 number of electron     576.0000000 magnetization       1.0000000
 augmentation part      576.0000000 magnetization       1.0000000

 Free energy of the ion-electron system (eV)
  ---------------------------------------------------
  alpha Z        PSCENC =       759.26891756
  Ewald energy   TEWEN  =    -15880.22937473
  -Hartree energ DENC   =     -1042.26836136
  -exchange      EXHF   =         0.00000000
  -V(xc)+E(xc)   XCENC  =     -1208.90672281
  PAW double counting   =     12691.36703575   -10381.54560829
  entropy T*S    EENTRO =        -0.00115759
  eigenvalues    EBANDS =      -606.88270865
  atomic energy  EATOM  =     14980.50241411
  Solvation  Ediel_sol  =         0.00000000
  ---------------------------------------------------
  free energy    TOTEN  =      -688.69556601 eV

  energy without entropy =     -688.69440842  energy(sigma->0) =     -688.69498722


--------------------------------------------------------------------------------------------------------




--------------------------------------- Iteration      1(   4)  ---------------------------------------


     EDDAV:  cpu time     68.9603: real time     69.5876
       DOS:  cpu time      0.0048: real time      0.0048
    --------------------------------------------
      LOOP:  cpu time     68.9651: real time     69.5924

 eigenvalue-minimisations  :  6480
 total energy-change (2. order) :-0.9071080E+01  (-0.8966006E+01)
 number of electron     576.0000000 magnetization       1.0000000
 augmentation part      576.0000000 magnetization       1.0000000

 Free energy of the ion-electron system (eV)
  ---------------------------------------------------
  alpha Z        PSCENC =       759.26891756
  Ewald energy   TEWEN  =    -15880.22937473
  -Hartree energ DENC   =     -1042.26836136
  -exchange      EXHF   =         0.00000000
  -V(xc)+E(xc)   XCENC  =     -1208.90672281
  PAW double counting   =     12691.36703575   -10381.54560829
  entropy T*S    EENTRO =        -0.00133378
  eigenvalues    EBANDS =      -615.95361209
  atomic energy  EATOM  =     14980.50241411
  Solvation  Ediel_sol  =         0.00000000
  ---------------------------------------------------
  free energy    TOTEN  =      -697.76664565 eV

  energy without entropy =     -697.76531187  energy(sigma->0) =     -697.76597876


--------------------------------------------------------------------------------------------------------




--------------------------------------- Iteration      1(   5)  ---------------------------------------


     EDDAV:  cpu time     76.8141: real time     77.5265
       DOS:  cpu time      0.0048: real time      0.0048
    CHARGE:  cpu time      3.2752: real time      3.3041
    MIXING:  cpu time      0.0198: real time      0.0200
    --------------------------------------------
      LOOP:  cpu time     80.1139: real time     80.8554

 eigenvalue-minimisations  :  7400
 total energy-change (2. order) :-0.3354610E+00  (-0.3343480E+00)
 number of electron     575.9999996 magnetization       1.0000000
 augmentation part      -64.0819259 magnetization      -0.0790206

 Broyden mixing:
  rms(total) = 0.33673E+01    rms(broyden)= 0.33673E+01
  rms(prec ) = 0.34667E+01
  weight for this iteration     100.00

 Free energy of the ion-electron system (eV)
  ---------------------------------------------------
  alpha Z        PSCENC =       759.26891756
  Ewald energy   TEWEN  =    -15880.22937473
  -Hartree energ DENC   =     -1042.26836136
  -exchange      EXHF   =         0.00000000
  -V(xc)+E(xc)   XCENC  =     -1208.90672281
  PAW double counting   =     12691.36703575   -10381.54560829
  entropy T*S    EENTRO =        -0.00134284
  eigenvalues    EBANDS =      -616.28906399
  atomic energy  EATOM  =     14980.50241411
  Solvation  Ediel_sol  =         0.00000000
  ---------------------------------------------------
  free energy    TOTEN  =      -698.10210660 eV

  energy without entropy =     -698.10076377  energy(sigma->0) =     -698.10143519


--------------------------------------------------------------------------------------------------------




--------------------------------------- Iteration      1(   6)  ---------------------------------------


    POTLOK:  cpu time      0.8426: real time      0.8518
    SETDIJ:  cpu time      4.3641: real time      4.3900
     EDDAV:  cpu time     69.4605: real time     70.1141
       DOS:  cpu time      0.0013: real time      0.0013
    CHARGE:  cpu time      3.2132: real time      3.2436
    MIXING:  cpu time      0.0206: real time      0.0208
    --------------------------------------------
      LOOP:  cpu time     77.9023: real time     78.6217

 eigenvalue-minimisations  :  6480
 total energy-change (2. order) : 0.9672386E+01  (-0.1326710E+01)
 number of electron     575.9999996 magnetization       1.0000000
 augmentation part      -63.4501791 magnetization      -0.0865904

 Broyden mixing:
  rms(total) = 0.15505E+01    rms(broyden)= 0.15505E+01
  rms(prec ) = 0.15854E+01
  weight for this iteration     100.00

 eigenvalues of (default mixing * dielectric matrix)
  average eigenvalue GAMMA=   1.7649
  1.7649

 Free energy of the ion-electron system (eV)
  ---------------------------------------------------
  alpha Z        PSCENC =       759.26891756
  Ewald energy   TEWEN  =    -15880.22937473
  -Hartree energ DENC   =     -1189.87559054
  -exchange      EXHF   =         0.00000000
  -V(xc)+E(xc)   XCENC  =     -1185.48848324
  PAW double counting   =     26304.12946842   -24005.95249925
  entropy T*S    EENTRO =        -0.00307183
  eigenvalues    EBANDS =      -470.78150115
  atomic energy  EATOM  =     14980.50241411
  Solvation  Ediel_sol  =         0.00000000
  ---------------------------------------------------
  free energy    TOTEN  =      -688.42972066 eV

  energy without entropy =     -688.42664883  energy(sigma->0) =     -688.42818474


--------------------------------------------------------------------------------------------------------




--------------------------------------- Iteration      1(   7)  ---------------------------------------


    POTLOK:  cpu time      0.8433: real time      0.8519
    SETDIJ:  cpu time      4.3731: real time      4.3994
     EDDAV:  cpu time     69.4404: real time     70.0935
       DOS:  cpu time      0.0013: real time      0.0013
    CHARGE:  cpu time      3.1827: real time      3.2121
    MIXING:  cpu time      0.0212: real time      0.0214
    --------------------------------------------
      LOOP:  cpu time     77.8621: real time     78.5796

 eigenvalue-minimisations  :  6480
 total energy-change (2. order) : 0.6663884E+00  (-0.8188152E+00)
 number of electron     575.9999996 magnetization       1.0000000
 augmentation part      -63.2737840 magnetization      -0.0869682

 Broyden mixing:
  rms(total) = 0.40599E+00    rms(broyden)= 0.40599E+00
  rms(prec ) = 0.44257E+00
  weight for this iteration     100.00

 eigenvalues of (default mixing * dielectric matrix)
  average eigenvalue GAMMA=   1.2597
  1.8621  0.6574

 Free energy of the ion-electron system (eV)
  ---------------------------------------------------
  alpha Z        PSCENC =       759.26891756
  Ewald energy   TEWEN  =    -15880.22937473
  -Hartree energ DENC   =     -1289.82149395
  -exchange      EXHF   =         0.00000000
  -V(xc)+E(xc)   XCENC  =     -1166.68005113
  PAW double counting   =     42461.10464500   -40171.64706058
  entropy T*S    EENTRO =        -0.00216620
  eigenvalues    EBANDS =      -380.25916235
  atomic energy  EATOM  =     14980.50241411
  Solvation  Ediel_sol  =         0.00000000
  ---------------------------------------------------
  free energy    TOTEN  =      -687.76333228 eV

  energy without entropy =     -687.76116608  energy(sigma->0) =     -687.76224918


--------------------------------------------------------------------------------------------------------




--------------------------------------- Iteration      1(   8)  ---------------------------------------


    POTLOK:  cpu time      0.8438: real time      0.8525
    SETDIJ:  cpu time      4.3701: real time      4.3954
     EDDAV:  cpu time     69.4552: real time     70.1043
       DOS:  cpu time      0.0013: real time      0.0013
    CHARGE:  cpu time      3.1996: real time      3.2289
    MIXING:  cpu time      0.0220: real time      0.0222
    --------------------------------------------
      LOOP:  cpu time     77.8919: real time     78.6045

 eigenvalue-minimisations  :  6536
 total energy-change (2. order) : 0.3023520E-01  (-0.1416533E+00)
 number of electron     575.9999996 magnetization       1.0000000
 augmentation part      -63.0758282 magnetization      -0.0835809

 Broyden mixing:
  rms(total) = 0.14915E+00    rms(broyden)= 0.14915E+00
  rms(prec ) = 0.15609E+00
  weight for this iteration     100.00

 eigenvalues of (default mixing * dielectric matrix)
  average eigenvalue GAMMA=   1.2257
  1.8713  1.1193  0.6864

 Free energy of the ion-electron system (eV)
  ---------------------------------------------------
  alpha Z        PSCENC =       759.26891756
  Ewald energy   TEWEN  =    -15880.22937473
  -Hartree energ DENC   =     -1293.57513490
  -exchange      EXHF   =         0.00000000
  -V(xc)+E(xc)   XCENC  =     -1165.96679970
  PAW double counting   =     44999.59765387   -42710.60895077
  entropy T*S    EENTRO =        -0.00215064
  eigenvalues    EBANDS =      -376.71967189
  atomic energy  EATOM  =     14980.50241411
  Solvation  Ediel_sol  =         0.00000000
  ---------------------------------------------------
  free energy    TOTEN  =      -687.73309709 eV

  energy without entropy =     -687.73094645  energy(sigma->0) =     -687.73202177


--------------------------------------------------------------------------------------------------------




--------------------------------------- Iteration      1(   9)  ---------------------------------------


    POTLOK:  cpu time      0.8453: real time      0.8540
    SETDIJ:  cpu time      4.3741: real time      4.3989
     EDDAV:  cpu time     69.7269: real time     70.3497
       DOS:  cpu time      0.0036: real time      0.0037
    CHARGE:  cpu time      3.2014: real time      3.2257
    MIXING:  cpu time      0.0230: real time      0.0232
    --------------------------------------------
      LOOP:  cpu time     78.1744: real time     78.8551

 eigenvalue-minimisations  :  6520
 total energy-change (2. order) : 0.7862294E-02  (-0.2850986E-01)
 number of electron     575.9999996 magnetization       1.0000000
 augmentation part      -63.1090495 magnetization      -0.0897004

 Broyden mixing:
  rms(total) = 0.95946E-01    rms(broyden)= 0.95946E-01
  rms(prec ) = 0.10982E+00
  weight for this iteration     100.00

 eigenvalues of (default mixing * dielectric matrix)
  average eigenvalue GAMMA=   1.1618
  1.8310  1.4986  0.8042  0.5134

 Free energy of the ion-electron system (eV)
  ---------------------------------------------------
  alpha Z        PSCENC =       759.26891756
  Ewald energy   TEWEN  =    -15880.22937473
  -Hartree energ DENC   =     -1286.22567247
  -exchange      EXHF   =         0.00000000
  -V(xc)+E(xc)   XCENC  =     -1166.64712789
  PAW double counting   =     45726.21275214   -43437.00104023
  entropy T*S    EENTRO =        -0.00219073
  eigenvalues    EBANDS =      -383.60391255
  atomic energy  EATOM  =     14980.50241411
  Solvation  Ediel_sol  =         0.00000000
  ---------------------------------------------------
  free energy    TOTEN  =      -687.72523479 eV

  energy without entropy =     -687.72304407  energy(sigma->0) =     -687.72413943


--------------------------------------------------------------------------------------------------------




--------------------------------------- Iteration      1(  10)  ---------------------------------------


    POTLOK:  cpu time      0.8464: real time      0.8536
    SETDIJ:  cpu time      4.3688: real time      4.3902
     EDDAV:  cpu time     70.4498: real time     71.0186
       DOS:  cpu time      0.0022: real time      0.0022
    CHARGE:  cpu time      3.1949: real time      3.2202
    MIXING:  cpu time      0.0240: real time      0.0242
    --------------------------------------------
      LOOP:  cpu time     78.8861: real time     79.5091

 eigenvalue-minimisations  :  6616
 total energy-change (2. order) :-0.3684891E-02  (-0.1304224E-01)
 number of electron     575.9999996 magnetization       1.0000000
 augmentation part      -63.1114778 magnetization      -0.0873654

 Broyden mixing:
  rms(total) = 0.54010E-01    rms(broyden)= 0.54010E-01
  rms(prec ) = 0.70042E-01
  weight for this iteration     100.00

 eigenvalues of (default mixing * dielectric matrix)
  average eigenvalue GAMMA=   1.1133
  1.7764  1.7764  0.9857  0.5992  0.4289

 Free energy of the ion-electron system (eV)
  ---------------------------------------------------
  alpha Z        PSCENC =       759.26891756
  Ewald energy   TEWEN  =    -15880.22937473
  -Hartree energ DENC   =     -1283.30954439
  -exchange      EXHF   =         0.00000000
  -V(xc)+E(xc)   XCENC  =     -1166.93570526
  PAW double counting   =     45978.14415415   -43688.83054451
  entropy T*S    EENTRO =        -0.00176926
  eigenvalues    EBANDS =      -386.33746734
  atomic energy  EATOM  =     14980.50241411
  Solvation  Ediel_sol  =         0.00000000
  ---------------------------------------------------
  free energy    TOTEN  =      -687.72891968 eV

  energy without entropy =     -687.72715042  energy(sigma->0) =     -687.72803505


--------------------------------------------------------------------------------------------------------




--------------------------------------- Iteration      1(  11)  ---------------------------------------


    POTLOK:  cpu time      0.8449: real time      0.8534
[...]
   0.269E+01 0.269E+02 -.151E+02   -.191E+01 -.264E+02 0.148E+02   -.143E+00 -.814E+00 0.252E+00   0.102E-03 -.101E-04 0.481E-04
   0.753E-02 0.205E+01 0.196E+01   -.649E-01 -.208E+01 -.218E+01   0.246E+00 -.298E+00 0.134E+00   -.617E-04 0.214E-04 -.119E-03
   -.169E+01 0.212E+01 0.410E+00   0.154E+01 -.199E+01 -.361E+00   0.305E+00 -.402E+00 -.837E-01   -.578E-05 -.562E-05 -.175E-03
   -.170E+01 0.213E+01 -.400E+00   0.154E+01 -.199E+01 0.361E+00   0.314E+00 -.405E+00 0.759E-01   0.161E-04 -.837E-05 -.152E-03
   0.144E+00 0.182E+01 -.158E+01   -.649E-01 -.208E+01 0.218E+01   0.262E+00 -.329E+00 -.108E+00   0.482E-04 -.214E-04 -.128E-03
   0.268E+01 0.269E+02 0.151E+02   -.191E+01 -.264E+02 -.148E+02   -.164E+00 -.813E+00 -.258E+00   -.290E-04 -.702E-05 0.450E-04
   0.155E+02 0.311E+01 -.220E+02   -.150E+02 -.287E+01 0.218E+02   -.399E+00 -.792E+00 0.122E+01   -.292E-04 -.219E-04 0.423E-04
   0.923E+00 0.179E+00 0.736E+00   -.121E+01 0.256E+00 -.161E+01   -.221E+00 -.115E-01 0.462E+00   0.404E-04 0.196E-04 -.123E-03
   0.146E+01 -.225E+01 0.409E+00   -.143E+01 0.216E+01 -.429E+00   -.284E+00 0.333E+00 -.537E-01   0.235E-04 0.712E-05 -.181E-03
   0.146E+01 -.225E+01 -.415E+00   -.143E+01 0.216E+01 0.429E+00   -.301E+00 0.308E+00 0.649E-01   -.943E-05 0.921E-05 -.164E-03
   0.111E+01 -.836E-01 -.119E+01   -.121E+01 0.256E+00 0.161E+01   -.185E+00 0.162E-03 -.461E+00   -.265E-04 -.977E-05 -.122E-03
   0.155E+02 0.311E+01 0.220E+02   -.150E+02 -.287E+01 -.218E+02   -.411E+00 -.790E+00 -.121E+01   0.383E-04 -.153E-04 0.556E-04
   -.144E+02 -.205E+00 -.111E+02   0.141E+02 -.217E+00 0.105E+02   0.761E+00 0.293E-01 0.825E-01   -.103E-03 0.226E-04 0.743E-04
   0.984E+00 -.107E+01 0.423E+01   -.942E+00 0.679E+00 -.408E+01   -.270E+00 0.862E+00 -.442E+00   -.192E-04 -.234E-04 -.142E-03
   0.152E+01 -.223E+01 0.159E+00   -.145E+01 0.212E+01 -.165E+00   -.267E+00 0.524E+00 0.191E-01   -.949E-05 0.106E-04 -.191E-03
   0.151E+01 -.225E+01 -.141E+00   -.145E+01 0.212E+01 0.165E+00   -.260E+00 0.515E+00 -.343E-01   0.121E-05 0.175E-04 -.203E-03
   0.115E+01 -.126E+01 -.472E+01   -.942E+00 0.679E+00 0.408E+01   -.264E+00 0.790E+00 0.395E+00   0.153E-04 0.517E-06 -.163E-03
   -.144E+02 -.209E+00 0.111E+02   0.141E+02 -.217E+00 -.105E+02   0.790E+00 0.339E-01 -.906E-01   0.357E-04 0.464E-05 0.673E-04
   0.157E+02 -.178E+01 -.302E+01   -.151E+02 0.151E+01 0.292E+01   -.114E+01 0.778E+00 -.640E+00   -.262E-04 0.182E-04 -.362E-04
   0.275E+00 -.249E+01 0.277E+01   0.142E+00 0.210E+01 -.246E+01   -.603E+00 0.592E+00 -.321E+00   -.326E-04 0.867E-05 -.128E-03
   0.176E+01 -.216E+01 0.371E+00   -.155E+01 0.198E+01 -.344E+00   -.426E+00 0.498E+00 0.233E-01   -.648E-05 -.106E-04 -.159E-03
   0.176E+01 -.216E+01 -.348E+00   -.155E+01 0.198E+01 0.344E+00   -.433E+00 0.513E+00 -.214E-01   0.780E-05 -.123E-04 -.149E-03
   0.110E+00 -.226E+01 -.235E+01   0.142E+00 0.210E+01 0.246E+01   -.584E+00 0.571E+00 0.337E+00   0.255E-04 0.598E-06 -.133E-03
   0.157E+02 -.178E+01 0.303E+01   -.151E+02 0.151E+01 -.292E+01   -.112E+01 0.774E+00 0.631E+00   0.240E-04 0.647E-05 -.655E-04
   0.310E+01 -.229E+02 0.202E+01   -.291E+01 0.223E+02 -.201E+01   -.104E+01 0.334E+00 -.116E+01   0.942E-04 0.281E-04 -.518E-04
   0.112E+01 -.868E-01 0.120E+01   -.121E+01 0.256E+00 -.161E+01   -.214E+00 -.157E-01 0.450E+00   0.366E-04 -.125E-04 -.145E-03
   0.146E+01 -.224E+01 0.424E+00   -.143E+01 0.216E+01 -.429E+00   -.285E+00 0.328E+00 -.649E-01   0.133E-04 -.113E-04 -.157E-03
   0.147E+01 -.224E+01 -.411E+00   -.143E+01 0.216E+01 0.429E+00   -.304E+00 0.304E+00 0.697E-01   -.100E-04 0.504E-06 -.162E-03
   0.928E+00 0.175E+00 -.741E+00   -.121E+01 0.256E+00 0.161E+01   -.190E+00 0.415E-02 -.464E+00   -.198E-04 0.270E-05 -.136E-03
   0.311E+01 -.229E+02 -.202E+01   -.291E+01 0.223E+02 0.201E+01   -.105E+01 0.337E+00 0.117E+01   -.325E-04 0.113E-04 -.614E-04
   0.605E+01 -.209E+02 -.167E+02   -.556E+01 0.206E+02 0.181E+02   -.733E+00 0.187E+01 0.405E+00   -.234E-04 0.302E-06 -.523E-04
   0.114E+01 -.124E+01 0.474E+01   -.942E+00 0.679E+00 -.408E+01   -.239E+00 0.776E+00 -.439E+00   -.325E-04 0.381E-04 -.162E-03
   0.151E+01 -.225E+01 0.102E+00   -.145E+01 0.212E+01 -.165E+00   -.262E+00 0.499E+00 0.695E-01   -.281E-05 -.105E-04 -.206E-03
   0.151E+01 -.224E+01 -.909E-01   -.145E+01 0.212E+01 0.165E+00   -.266E+00 0.506E+00 -.667E-01   -.777E-06 -.156E-05 -.176E-03
   0.936E+00 -.102E+01 -.420E+01   -.942E+00 0.679E+00 0.408E+01   -.254E+00 0.800E+00 0.395E+00   0.203E-04 -.353E-04 -.167E-03
   0.604E+01 -.209E+02 0.167E+02   -.556E+01 0.206E+02 -.181E+02   -.710E+00 0.185E+01 -.371E+00   0.323E-04 0.407E-04 -.128E-03
   -.629E+01 -.185E+02 -.275E+02   0.571E+01 0.184E+02 0.267E+02   0.731E+00 0.133E+00 0.153E+01   0.782E-05 0.158E-04 0.605E-04
   0.107E+00 -.225E+01 0.236E+01   0.142E+00 0.210E+01 -.246E+01   -.583E+00 0.585E+00 -.336E+00   -.151E-04 -.616E-05 -.112E-03
   0.176E+01 -.216E+01 0.362E+00   -.155E+01 0.198E+01 -.344E+00   -.441E+00 0.499E+00 0.397E-01   -.207E-04 0.164E-04 -.163E-03
   0.176E+01 -.215E+01 -.376E+00   -.155E+01 0.198E+01 0.344E+00   -.443E+00 0.503E+00 -.156E-01   -.245E-05 0.670E-05 -.167E-03
   0.278E+00 -.250E+01 -.278E+01   0.142E+00 0.210E+01 0.246E+01   -.602E+00 0.582E+00 0.332E+00   0.160E-04 0.130E-04 -.124E-03
   -.626E+01 -.185E+02 0.275E+02   0.571E+01 0.184E+02 -.267E+02   0.699E+00 0.149E+00 -.152E+01   -.488E-04 0.240E-04 0.842E-04
 -----------------------------------------------------------------------------------------------
   0.320E+01 -.310E+01 0.455E-01   -.817E-13 0.355E-14 0.330E-12   -.326E+01 0.316E+01 -.815E-02   0.454E-06 0.319E-05 0.337E-03
 
 
 POSITION                                       TOTAL-FORCE (eV/Angst)
 -----------------------------------------------------------------------------------
      0.00000      0.00000      0.00000         0.938230      2.046490      0.966490
      0.00000     10.06740      1.93747        -0.402416     -0.442220      0.389658
      0.00000      6.71160      3.87495        -0.023980     -0.016814      0.020051
      0.00000      3.35580      5.81242        -0.028510     -0.013214     -0.036308
      3.56778     10.96733     11.88736        -0.711044     -0.100153     -1.339322
      0.00000     10.06740      9.68736         0.938136      2.049839     -0.972243
      7.52263     12.08593     21.89292        -0.762068      0.778107      0.343870
      3.16388      1.11860      1.93747        -0.001266     -0.268412      0.023316
      3.16388     11.18600      3.87495         0.003702     -0.103818     -0.064825
      3.16388      7.83020      5.81242         0.003991     -0.125650      0.053593
      3.16388      4.47440      7.74989         0.039100     -0.287687     -0.018264
      7.52263      8.73013     11.88736        -0.764238      0.771473     -0.345608
      4.35875      9.84873     21.89292        -0.700085      1.842316     -1.375237
      6.32776      5.59300      1.93747        -0.025713     -0.139202     -0.080205
      6.32776      2.23720      3.87495        -0.067359     -0.057169     -0.014452
      6.32776     12.30460      5.81242        -0.068163     -0.063394     -0.000750
      6.32776      8.94880      7.74989        -0.184889     -0.411954     -0.382258
      4.35875      6.49293     11.88736        -0.684093      1.851128      1.372091
      0.00000      6.71160      0.00000         0.384118      1.211778      0.939662
      3.56778      0.89993     21.89292        -0.693539     -0.107918      1.320312
      0.00000      0.00000      3.87495        -0.035899      0.005768      0.020432
      0.00000     10.06740      5.81242        -0.031952     -0.000221     -0.018051
      0.00000      6.71160      7.74989        -0.405156     -0.438627     -0.392579
      0.00000      3.35580      9.68736         0.385358      1.209967     -0.932972
      3.16388     11.18600      0.00000         0.774639     -0.425927     -0.733264
      3.16388      7.83020      1.93747         0.032242     -0.290245      0.011509
      0.40390      5.37433     21.89292         0.279408     -1.385046     -0.687131
      0.40390      2.01853     11.88736         0.283320     -1.392939      0.693739
      3.16388     11.18600      7.74989        -0.014676     -0.269564      0.012615
      3.16388      7.83020      9.68736         0.767000     -0.426075      0.741977
      6.32776      2.23720      0.00000         0.175332      0.236807     -0.146744
      6.32776     12.30460      1.93747        -0.186868     -0.413892      0.387141
      6.32776      8.94880      3.87495        -0.048640     -0.057630     -0.002087
      6.32776      5.59300      5.81242        -0.053865     -0.051804      0.000505
      6.32776      2.23720      7.74989        -0.026337     -0.140516      0.085166
      6.32776     12.30460      9.68736         0.180402      0.234053      0.152476
      0.79097      4.47440      0.00000         0.301203      0.692400     -1.085388
      0.79097      1.11860      1.93747         0.275731     -0.427311     -0.106182
      0.79097     11.18600      3.87495         0.082325      0.134860     -0.135766
      0.79097      7.83020      5.81242         0.080791      0.136332      0.130155
      0.79097      4.47440      7.74989         0.097640      0.106866      0.106283
      0.79097      1.11860      9.68736         0.296535      0.691329      1.086912
      3.95485      8.94880      0.00000        -0.670466     -0.834007      1.383764
      3.95485      5.59300      1.93747         0.593548      0.589894     -0.006574
      3.95485      2.23720      3.87495         0.423775     -0.237703     -0.477369
      3.95485     12.30460      5.81242         0.224213     -0.500581     -0.000896
      3.95485      8.94880      7.74989         0.245148      0.009085      0.041880
      3.95485      5.59300      9.68736        -0.683269     -0.835883     -1.390248
      1.19487      0.89993     21.89292         0.030284      0.020471      1.072240
      7.11873     10.06740      1.93747         0.299971      0.320742      0.418810
      7.11873      6.71160      3.87495         0.061302      0.048322     -0.024878
      7.11873      3.35580      5.81242         0.056366      0.049788      0.016837
      7.11873      0.00000      7.74989        -0.458931      0.042091      0.054172
      1.19487     10.96733     11.88736         0.034090      0.021091     -1.069043
      6.73166      3.13713     21.89292        -0.008005     -0.112029      0.559678
      0.79097      7.83020      1.93747         0.090928      0.100525     -0.103016
      0.79097      4.47440      3.87495        -0.274736      0.422847      0.312198
      0.79097      1.11860      5.81242        -0.271799      0.416858     -0.327350
      0.79097     11.18600      7.74989         0.270245     -0.434622      0.114779
      6.73166     13.20453     11.88736        -0.007190     -0.110914     -0.566233
      3.95485      2.23720      0.00000        -0.043783     -1.722761      1.475224
      3.95485     12.30460      1.93747         0.236269      0.015019     -0.008694
      3.95485      8.94880      3.87495         0.049638      0.015621     -0.029056
      3.95485      5.59300      5.81242         0.239567      0.283659      0.470901
      3.95485      2.23720      7.74989         0.596770      0.580227     -0.002116
      3.95485     12.30460      9.68736        -0.016328     -1.735316     -1.471218
      7.11873      6.71160      0.00000         0.504804     -0.837555     -0.585178
      7.11873      3.35580      1.93747        -0.458039      0.040387     -0.053414
      7.11873      0.00000      3.87495         0.060230      0.043420     -0.025359
      7.11873     10.06740      5.81242         0.064692      0.041803      0.017990
      7.11873      6.71160      7.74989         0.304083      0.319355     -0.420444
      7.11873      3.35580      9.68736         0.507517     -0.838601      0.582198
      3.16388      1.11860      5.81242        -0.029054     -0.098972      0.084344
      0.40390      5.37433     13.88848         0.009728     -0.344669      0.003293
      0.40390      8.73013     15.88959         0.242566     -0.359471     -0.013932
      0.40390     12.08593     17.89070         0.223094     -0.363321      0.019701
      0.40390      2.01853     19.89181         0.209779     -0.622443      0.425264
      3.16388      4.47440      3.87495        -0.026712     -0.099037     -0.089864
      0.00000      0.00000      7.74989        -0.246058     -0.199089     -0.030589
      3.56778      0.89993     13.88848         0.090180     -0.271747     -0.087202
      3.56778      4.25573     15.88959         0.159193     -0.232523     -0.110807
      3.56778      7.61153     17.89070         0.160489     -0.249607      0.121965
      3.56778     10.96733     19.89181         0.309937     -0.515040      0.539267
      0.00000      3.35580      1.93747        -0.243108     -0.200438      0.001695
      6.73166      6.49293     11.88736        -0.013306      0.544319      0.040771
      6.73166      9.84873     13.88848         0.357281     -0.574920     -0.514451
      6.73166     13.20453     15.88959         0.154965     -0.261520     -0.048290
      6.73166      3.13713     17.89070         0.156891     -0.262709      0.045307
      6.73166      6.49293     19.89181         0.172310     -0.341335      0.077996
      6.73166      9.84873     21.89292        -0.005746      0.539374     -0.005788
      0.40390      8.73013     11.88736        -0.106727     -0.950939      1.700632
      0.40390     12.08593     13.88848         0.205730     -0.610720     -0.433711
      0.40390      2.01853     15.88959         0.259969     -0.363086     -0.022282
      0.40390      5.37433     17.89070         0.229648     -0.347956      0.038224
      0.40390      8.73013     19.89181         0.012195     -0.360100      0.000757
      0.40390     12.08593     21.89292        -0.084893     -0.956876     -1.714604
      3.56778      4.25573     11.88736         0.268147      0.029405     -1.419668
      3.56778      7.61153     13.88848         0.272002     -0.529309     -0.551008
      3.56778     10.96733     15.88959         0.156116     -0.224754     -0.110352
      3.56778      0.89993     17.89070         0.165879     -0.247285      0.114703
      3.56778      4.25573     19.89181         0.106945     -0.256210      0.064069
      3.56778      7.61153     21.89292         0.273343      0.027803      1.441346
      0.79097      7.83020      9.68736         0.631362     -0.303553     -0.065622
      6.73166      3.13713     13.88848         0.188564     -0.321977     -0.089285
      6.73166      6.49293     15.88959         0.157410     -0.270506     -0.034989
      6.73166      9.84873     17.89070         0.161529     -0.265814      0.036337
      6.73166     13.20453     19.89181         0.341584     -0.588976      0.495076
      0.79097     11.18600      0.00000         0.605180     -0.296312      0.056426
      7.11873     10.06740      9.68736         0.053499     -0.549690      1.049432
      1.19487      0.89993     13.88848        -0.502493      0.422804     -0.414450
      1.19487      4.25573     15.88959        -0.245602      0.239503     -0.074250
      1.19487      7.61153     17.89070        -0.263706      0.212338      0.078382
      1.19487     10.96733     19.89181        -0.275062      0.172057     -0.042487
      7.11873      0.00000      0.00000         0.042685     -0.546540     -1.038542
      6.32776      5.59300      9.68736         0.421410     -0.392785     -0.426779
      4.35875      9.84873     13.88848        -0.227923      0.472573     -0.292771
      4.35875     13.20453     15.88959        -0.202238      0.410603      0.013318
      4.35875      3.13713     17.89070        -0.199991      0.383778     -0.010991
      4.35875      6.49293     19.89181        -0.056163      0.204969     -0.247230
      6.32776      8.94880      0.00000         0.446067     -0.392964      0.417284
      7.52263      2.01853     11.88736        -0.577546      0.508385     -0.742220
      7.52263      5.37433     13.88848        -0.185630      0.195918     -0.006389
      7.52263      8.73013     15.88959        -0.214020      0.324875      0.050271
      7.52263     12.08593     17.89070        -0.218136      0.331682     -0.025684
      7.52263      2.01853     19.89181        -0.331642      0.408476      0.445017
      7.52263      5.37433     21.89292        -0.565270      0.501907      0.739074
      1.19487      4.25573     11.88736        -0.847818     -0.195361     -1.147543
      1.19487      7.61153     13.88848        -0.299301      0.153024      0.039552
      1.19487     10.96733     15.88959        -0.245186      0.242050     -0.069930
      1.19487      0.89993     17.89070        -0.262403      0.221241      0.087338
      1.19487      4.25573     19.89181        -0.466363      0.435017      0.406724
      1.19487      7.61153     21.89292        -0.852676     -0.179387      1.156825
      4.35875     13.20453     11.88736        -0.242422      1.581376      1.842459
      4.35875      3.13713     13.88848        -0.038406      0.212666      0.225435
      4.35875      6.49293     15.88959        -0.206405      0.368449      0.006488
      4.35875      9.84873     17.89070        -0.210581      0.382312      0.006895
      4.35875     13.20453     19.89181        -0.259336      0.461194      0.271681
      4.35875      3.13713     21.89292        -0.226216      1.560843     -1.780219
      3.16388      1.11860      9.68736         0.156420      0.008082      0.699810
      7.52263     12.08593     13.88848        -0.334140      0.425332     -0.436433
      7.52263      2.01853     15.88959        -0.225540      0.322445      0.057833
      7.52263      5.37433     17.89070        -0.231844      0.335057     -0.048098
      7.52263      8.73013     19.89181        -0.182141      0.180990      0.005971
      3.16388      4.47440      0.00000         0.150366      0.003751     -0.708409
 -----------------------------------------------------------------------------------
    total drift:                               -0.051668      0.055286      0.037647


--------------------------------------------------------------------------------------------------------



  FREE ENERGIE OF THE ION-ELECTRON SYSTEM (eV)
  ---------------------------------------------------
  free  energy   TOTEN  =      -687.72790115 eV

  energy  without entropy=     -687.72549057  energy(sigma->0) =     -687.72669586
 


--------------------------------------------------------------------------------------------------------


    POTLOK:  cpu time      5.2150: real time      5.2481


--------------------------------------------------------------------------------------------------------


     LOOP+:  cpu time   1822.9327: real time   1839.2296
    4ORBIT:  cpu time      0.0000: real time      0.0000

 total amount of memory used by VASP MPI-rank0   511244. kBytes
=======================================================================

   base      :      30000. kBytes
   nonlr-proj:       7839. kBytes
   fftplans  :      69092. kBytes
   grid      :      42335. kBytes
   one-center:        146. kBytes
   wavefun   :     361832. kBytes
 
  
  
 General timing and accounting informations for this job:
 ========================================================
  
                  Total CPU time used (sec):     1892.375
                            User time (sec):     1816.150
                          System time (sec):       76.225
                         Elapsed time (sec):     1912.617
  
                   Maximum memory used (kb):      783908.
                   Average memory used (kb):          N/A
  
                          Minor page faults:       224987
                          Major page faults:           33
                 Voluntary context switches:         1436
