 228 228   0   0
  0.2310631E+02  0.1717433E-08  0.1717433E-08  0.1786100E-08  0.5000000E-15
  1.000000000000000E-004
  CAR 
 Si and Ge interface calculation         
      6.90622209     -8.88989949  301      4.12025677      1.00000000
     -8.890  0.0000E+00  0.0000E+00  0.0000E+00  0.0000E+00
     -8.837  0.0000E+00  0.0000E+00  0.0000E+00  0.0000E+00
     -8.785  0.0000E+00  0.0000E+00  0.0000E+00  0.0000E+00
     -8.732  0.0000E+00  0.0000E+00  0.0000E+00  0.0000E+00
     -8.679  0.0000E+00  0.0000E+00  0.0000E+00  0.0000E+00
     -8.627  0.0000E+00  0.0000E+00  0.0000E+00  0.0000E+00
     -8.574  0.0000E+00  0.0000E+00  0.0000E+00  0.0000E+00
     -8.521  0.0000E+00  0.0000E+00  0.0000E+00  0.0000E+00
     -8.469  0.0000E+00  0.0000E+00  0.0000E+00  0.0000E+00
     -8.416  0.0000E+00  0.0000E+00  0.0000E+00  0.0000E+00
     -8.363  0.0000E+00  0.0000E+00  0.0000E+00  0.0000E+00
     -8.311  0.0000E+00  0.0000E+00  0.0000E+00  0.0000E+00
     -8.258  0.0000E+00  0.0000E+00  0.0000E+00  0.0000E+00
     -8.205  0.5111E-05  0.9034E-06  0.2691E-06  0.4757E-07
     -8.153  0.9027E+01  0.8675E+01  0.4753E+00  0.4568E+00
     -8.100  0.4695E+00  0.8210E+00  0.5000E+00  0.5000E+00
     -8.047  0.3669E+02  0.3562E+02  0.2432E+01  0.2376E+01
     -7.995  0.6893E+01  0.7293E+01  0.2795E+01  0.2760E+01
     -7.942  0.1815E+02  0.1760E+02  0.3750E+01  0.3687E+01
     -7.889  0.1424E+02  0.1545E+02  0.4500E+01  0.4500E+01
     -7.837  0.1614E-04  0.3572E-05  0.4500E+01  0.4500E+01
     -7.784  0.1321E+02  0.1237E+02  0.5196E+01  0.5151E+01
     -7.732  0.1860E+02  0.1741E+02  0.6175E+01  0.6068E+01
     -7.679  0.4116E+02  0.3978E+02  0.8342E+01  0.8162E+01
     -7.626  0.7360E+02  0.7578E+02  0.1222E+02  0.1215E+02
     -7.574  0.2899E+02  0.2960E+02  0.1374E+02  0.1371E+02
     -7.521  0.1108E+02  0.1031E+02  0.1433E+02  0.1425E+02
     -7.468  0.1280E+02  0.1419E+02  0.1500E+02  0.1500E+02
     -7.416  0.1925E+02  0.1696E+02  0.1601E+02  0.1589E+02
     -7.363  0.1527E+02  0.1544E+02  0.1682E+02  0.1671E+02
     -7.310  0.5910E+02  0.5865E+02  0.1993E+02  0.1979E+02
     -7.258  0.5225E+02  0.4984E+02  0.2268E+02  0.2242E+02
     -7.205  0.7009E+02  0.7321E+02  0.2637E+02  0.2627E+02
     -7.152  0.5532E+02  0.5480E+02  0.2928E+02  0.2916E+02
     -7.100  0.5861E+02  0.5664E+02  0.3237E+02  0.3214E+02
     -7.047  0.2115E+02  0.2502E+02  0.3348E+02  0.3346E+02
     -6.994  0.1960E+02  0.1477E+02  0.3452E+02  0.3424E+02
     -6.942  0.7307E+02  0.7724E+02  0.3836E+02  0.3830E+02
     -6.889  0.7241E+02  0.7081E+02  0.4218E+02  0.4203E+02
     -6.836  0.5522E+02  0.5552E+02  0.4508E+02  0.4495E+02
     -6.784  0.5137E+02  0.4828E+02  0.4779E+02  0.4750E+02
     -6.731  0.8359E+02  0.8556E+02  0.5219E+02  0.5200E+02
     -6.678  0.2897E+02  0.2808E+02  0.5372E+02  0.5348E+02
     -6.626  0.6984E+02  0.6698E+02  0.5739E+02  0.5701E+02
     -6.573  0.4788E+02  0.5020E+02  0.5991E+02  0.5965E+02
     -6.520  0.1170E+03  0.1174E+03  0.6607E+02  0.6583E+02
     -6.468  0.8755E+02  0.8674E+02  0.7068E+02  0.7040E+02
     -6.415  0.7929E+02  0.7929E+02  0.7486E+02  0.7458E+02
     -6.363  0.8233E+02  0.8160E+02  0.7919E+02  0.7887E+02
     -6.310  0.9582E+02  0.9742E+02  0.8424E+02  0.8400E+02
     -6.257  0.8873E+02  0.8682E+02  0.8891E+02  0.8857E+02
     -6.205  0.5580E+02  0.5871E+02  0.9185E+02  0.9166E+02
     -6.152  0.5743E+02  0.5582E+02  0.9487E+02  0.9460E+02
     -6.099  0.7459E+02  0.7173E+02  0.9880E+02  0.9838E+02
     -6.047  0.7850E+02  0.8161E+02  0.1029E+03  0.1027E+03
     -5.994  0.6734E+02  0.6999E+02  0.1065E+03  0.1064E+03
     -5.941  0.6181E+02  0.5901E+02  0.1097E+03  0.1095E+03
     -5.889  0.7688E+02  0.7902E+02  0.1138E+03  0.1136E+03
     -5.836  0.7794E+02  0.7757E+02  0.1179E+03  0.1177E+03
     -5.783  0.9443E+02  0.8932E+02  0.1229E+03  0.1224E+03
     -5.731  0.6146E+02  0.6741E+02  0.1261E+03  0.1260E+03
     -5.678  0.6191E+02  0.5676E+02  0.1294E+03  0.1290E+03
     -5.625  0.1496E+03  0.1536E+03  0.1372E+03  0.1370E+03
     -5.573  0.6280E+02  0.6231E+02  0.1405E+03  0.1403E+03
     -5.520  0.5646E+02  0.6029E+02  0.1435E+03  0.1435E+03
     -5.467  0.6736E+02  0.6457E+02  0.1471E+03  0.1469E+03
     -5.415  0.7277E+02  0.6918E+02  0.1509E+03  0.1505E+03
     -5.362  0.9480E+02  0.9773E+02  0.1559E+03  0.1557E+03
     -5.309  0.8440E+02  0.8098E+02  0.1603E+03  0.1600E+03
     -5.257  0.7430E+02  0.7767E+02  0.1642E+03  0.1640E+03
     -5.204  0.7178E+02  0.7323E+02  0.1680E+03  0.1679E+03
     -5.151  0.6039E+02  0.5558E+02  0.1712E+03  0.1708E+03
     -5.099  0.5409E+02  0.5802E+02  0.1740E+03  0.1739E+03
     -5.046  0.8764E+02  0.8488E+02  0.1787E+03  0.1783E+03
     -4.994  0.7404E+02  0.7625E+02  0.1826E+03  0.1824E+03
     -4.941  0.4431E+02  0.4375E+02  0.1849E+03  0.1847E+03
     -4.888  0.6288E+02  0.6112E+02  0.1882E+03  0.1879E+03
     -4.836  0.5957E+02  0.5965E+02  0.1913E+03  0.1910E+03
     -4.783  0.6528E+02  0.6590E+02  0.1948E+03  0.1945E+03
     -4.730  0.4612E+02  0.4672E+02  0.1972E+03  0.1970E+03
     -4.678  0.6242E+02  0.6361E+02  0.2005E+03  0.2003E+03
     -4.625  0.5847E+02  0.5888E+02  0.2036E+03  0.2034E+03
     -4.572  0.6131E+02  0.6340E+02  0.2068E+03  0.2067E+03
     -4.520  0.5236E+02  0.4918E+02  0.2096E+03  0.2093E+03
     -4.467  0.6465E+02  0.6690E+02  0.2130E+03  0.2129E+03
     -4.414  0.3424E+02  0.3512E+02  0.2148E+03  0.2147E+03
     -4.362  0.3817E+02  0.3788E+02  0.2168E+03  0.2167E+03
     -4.309  0.4731E+02  0.4746E+02  0.2193E+03  0.2192E+03
     -4.256  0.4673E+02  0.4474E+02  0.2217E+03  0.2216E+03
     -4.204  0.2426E+02  0.2738E+02  0.2230E+03  0.2230E+03
     -4.151  0.3072E+02  0.2696E+02  0.2246E+03  0.2244E+03
     -4.098  0.6821E+02  0.6526E+02  0.2282E+03  0.2279E+03
     -4.046  0.4276E+02  0.4829E+02  0.2305E+03  0.2304E+03
     -3.993  0.3704E+02  0.3382E+02  0.2324E+03  0.2322E+03
     -3.940  0.1259E+02  0.1608E+02  0.2331E+03  0.2330E+03
     -3.888  0.6871E+02  0.6836E+02  0.2367E+03  0.2366E+03
     -3.835  0.2684E+02  0.2566E+02  0.2381E+03  0.2380E+03
     -3.782  0.2318E+02  0.2281E+02  0.2393E+03  0.2392E+03
     -3.730  0.4193E+02  0.4174E+02  0.2415E+03  0.2414E+03
     -3.677  0.2300E+02  0.2350E+02  0.2427E+03  0.2426E+03
     -3.625  0.5059E+02  0.4970E+02  0.2454E+03  0.2452E+03
     -3.572  0.1128E+03  0.1055E+03  0.2513E+03  0.2508E+03
     -3.519  0.9781E+02  0.1022E+03  0.2565E+03  0.2562E+03
     -3.467  0.6683E+02  0.6874E+02  0.2600E+03  0.2598E+03
     -3.414  0.8209E+02  0.7974E+02  0.2643E+03  0.2640E+03
     -3.361  0.6727E+02  0.6596E+02  0.2679E+03  0.2675E+03
     -3.309  0.8882E+02  0.9147E+02  0.2726E+03  0.2723E+03
     -3.256  0.8379E+02  0.8379E+02  0.2770E+03  0.2767E+03
     -3.203  0.8604E+02  0.8415E+02  0.2815E+03  0.2811E+03
     -3.151  0.8490E+02  0.8495E+02  0.2860E+03  0.2856E+03
     -3.098  0.5425E+02  0.5658E+02  0.2888E+03  0.2886E+03
     -3.045  0.8909E+02  0.8853E+02  0.2935E+03  0.2932E+03
     -2.993  0.6310E+02  0.6581E+02  0.2968E+03  0.2967E+03
     -2.940  0.5171E+02  0.5016E+02  0.2996E+03  0.2993E+03
     -2.887  0.8966E+02  0.8752E+02  0.3043E+03  0.3039E+03
     -2.835  0.9178E+02  0.9548E+02  0.3091E+03  0.3090E+03
     -2.782  0.6550E+02  0.6157E+02  0.3126E+03  0.3122E+03
     -2.729  0.6186E+02  0.6336E+02  0.3158E+03  0.3155E+03
     -2.677  0.4981E+02  0.4856E+02  0.3184E+03  0.3181E+03
     -2.624  0.8318E+02  0.8221E+02  0.3228E+03  0.3224E+03
     -2.571  0.5443E+02  0.5811E+02  0.3257E+03  0.3255E+03
     -2.519  0.7948E+02  0.7974E+02  0.3299E+03  0.3297E+03
     -2.466  0.8932E+02  0.8323E+02  0.3346E+03  0.3341E+03
     -2.413  0.8142E+02  0.8297E+02  0.3389E+03  0.3384E+03
     -2.361  0.1068E+03  0.1075E+03  0.3445E+03  0.3441E+03
     -2.308  0.7565E+02  0.8157E+02  0.3485E+03  0.3484E+03
     -2.256  0.3510E+02  0.3406E+02  0.3503E+03  0.3502E+03
     -2.203  0.8413E+02  0.8657E+02  0.3548E+03  0.3547E+03
     -2.150  0.3696E+02  0.3311E+02  0.3567E+03  0.3565E+03
     -2.098  0.7706E+02  0.7437E+02  0.3608E+03  0.3604E+03
     -2.045  0.8203E+02  0.8348E+02  0.3651E+03  0.3648E+03
     -1.992  0.5639E+02  0.5852E+02  0.3680E+03  0.3679E+03
     -1.940  0.3988E+02  0.3973E+02  0.3701E+03  0.3700E+03
     -1.887  0.3365E+02  0.3483E+02  0.3719E+03  0.3718E+03
     -1.834  0.5722E+02  0.5336E+02  0.3749E+03  0.3746E+03
     -1.782  0.5326E+02  0.5510E+02  0.3777E+03  0.3775E+03
     -1.729  0.5340E+02  0.5216E+02  0.3805E+03  0.3803E+03
     -1.676  0.5179E+02  0.5449E+02  0.3833E+03  0.3831E+03
     -1.624  0.2116E+02  0.2036E+02  0.3844E+03  0.3842E+03
     -1.571  0.4358E+02  0.4446E+02  0.3867E+03  0.3865E+03
     -1.518  0.3220E+02  0.3277E+02  0.3884E+03  0.3883E+03
     -1.466  0.3238E+02  0.3235E+02  0.3901E+03  0.3900E+03
     -1.413  0.3233E+02  0.2886E+02  0.3918E+03  0.3915E+03
     -1.360  0.8818E+02  0.8705E+02  0.3964E+03  0.3961E+03
     -1.308  0.4763E+02  0.5191E+02  0.3989E+03  0.3988E+03
     -1.255  0.6430E+02  0.6171E+02  0.4023E+03  0.4021E+03
     -1.202  0.3161E+02  0.3553E+02  0.4040E+03  0.4039E+03
     -1.150  0.2341E+02  0.2363E+02  0.4052E+03  0.4052E+03
     -1.097  0.4636E+02  0.4285E+02  0.4077E+03  0.4074E+03
     -1.044  0.4412E+02  0.4577E+02  0.4100E+03  0.4098E+03
     -0.992  0.3036E+02  0.2935E+02  0.4116E+03  0.4114E+03
     -0.939  0.3959E+02  0.4199E+02  0.4137E+03  0.4136E+03
     -0.887  0.1319E+02  0.1319E+02  0.4144E+03  0.4143E+03
     -0.834  0.5148E+02  0.4978E+02  0.4171E+03  0.4169E+03
     -0.781  0.2630E+02  0.2854E+02  0.4185E+03  0.4184E+03
     -0.729  0.1167E+02  0.9459E+01  0.4191E+03  0.4189E+03
     -0.676  0.2717E+02  0.2836E+02  0.4205E+03  0.4204E+03
     -0.623  0.2778E+02  0.2669E+02  0.4220E+03  0.4218E+03
     -0.571  0.3768E+02  0.3863E+02  0.4239E+03  0.4238E+03
     -0.518  0.2570E+02  0.2620E+02  0.4253E+03  0.4252E+03
     -0.465  0.3468E+02  0.3352E+02  0.4271E+03  0.4270E+03
     -0.413  0.4590E+02  0.4412E+02  0.4295E+03  0.4293E+03
     -0.360  0.4521E+02  0.4423E+02  0.4319E+03  0.4316E+03
     -0.307  0.2938E+02  0.3227E+02  0.4335E+03  0.4333E+03
     -0.255  0.4120E+02  0.4154E+02  0.4356E+03  0.4355E+03
     -0.202  0.3473E+02  0.3421E+02  0.4375E+03  0.4373E+03
     -0.149  0.9574E+02  0.9339E+02  0.4425E+03  0.4422E+03
     -0.097  0.2364E+02  0.2479E+02  0.4438E+03  0.4436E+03
     -0.044  0.1049E+03  0.9986E+02  0.4493E+03  0.4488E+03
      0.009  0.9838E+02  0.1020E+03  0.4545E+03  0.4542E+03
      0.061  0.7808E+02  0.7521E+02  0.4586E+03  0.4581E+03
      0.114  0.1284E+03  0.1279E+03  0.4653E+03  0.4649E+03
      0.167  0.1202E+03  0.1200E+03  0.4717E+03  0.4712E+03
      0.219  0.1266E+03  0.1267E+03  0.4783E+03  0.4779E+03
      0.272  0.1274E+03  0.1220E+03  0.4850E+03  0.4843E+03
      0.325  0.1066E+03  0.1184E+03  0.4906E+03  0.4905E+03
      0.377  0.8948E+02  0.8051E+02  0.4954E+03  0.4948E+03
      0.430  0.1646E+03  0.1661E+03  0.5040E+03  0.5035E+03
      0.482  0.1720E+03  0.1746E+03  0.5131E+03  0.5127E+03
      0.535  0.1306E+03  0.1268E+03  0.5200E+03  0.5194E+03
      0.588  0.1487E+03  0.1495E+03  0.5278E+03  0.5273E+03
      0.640  0.1152E+03  0.1170E+03  0.5339E+03  0.5334E+03
      0.693  0.1444E+03  0.1431E+03  0.5415E+03  0.5409E+03
      0.746  0.1446E+03  0.1467E+03  0.5491E+03  0.5487E+03
      0.798  0.1375E+03  0.1380E+03  0.5563E+03  0.5559E+03
      0.851  0.1175E+03  0.1191E+03  0.5625E+03  0.5622E+03
      0.904  0.1152E+03  0.1127E+03  0.5686E+03  0.5681E+03
      0.956  0.1306E+03  0.1322E+03  0.5754E+03  0.5751E+03
      1.009  0.1196E+03  0.1199E+03  0.5817E+03  0.5814E+03
      1.062  0.1647E+03  0.1566E+03  0.5904E+03  0.5897E+03
      1.114  0.1370E+03  0.1433E+03  0.5976E+03  0.5972E+03
      1.167  0.1994E+03  0.1972E+03  0.6081E+03  0.6076E+03
      1.220  0.1320E+03  0.1318E+03  0.6151E+03  0.6145E+03
      1.272  0.1445E+03  0.1470E+03  0.6227E+03  0.6223E+03
      1.325  0.1329E+03  0.1311E+03  0.6297E+03  0.6292E+03
      1.378  0.1528E+03  0.1559E+03  0.6377E+03  0.6374E+03
      1.430  0.1128E+03  0.1102E+03  0.6437E+03  0.6432E+03
      1.483  0.2038E+03  0.1999E+03  0.6544E+03  0.6537E+03
      1.536  0.1156E+03  0.1215E+03  0.6605E+03  0.6601E+03
      1.588  0.1071E+03  0.1080E+03  0.6661E+03  0.6658E+03
      1.641  0.1677E+03  0.1568E+03  0.6750E+03  0.6741E+03
      1.694  0.1290E+03  0.1393E+03  0.6818E+03  0.6814E+03
      1.746  0.1330E+03  0.1335E+03  0.6888E+03  0.6884E+03
      1.799  0.1404E+03  0.1387E+03  0.6962E+03  0.6957E+03
      1.851  0.1164E+03  0.1173E+03  0.7023E+03  0.7019E+03
      1.904  0.9209E+02  0.9303E+02  0.7071E+03  0.7068E+03
      1.957  0.1168E+03  0.1106E+03  0.7133E+03  0.7126E+03
      2.009  0.1858E+03  0.1860E+03  0.7231E+03  0.7224E+03
      2.062  0.1531E+03  0.1560E+03  0.7311E+03  0.7306E+03
      2.115  0.1304E+03  0.1296E+03  0.7380E+03  0.7375E+03
      2.167  0.9264E+02  0.9320E+02  0.7429E+03  0.7424E+03
      2.220  0.1616E+03  0.1614E+03  0.7514E+03  0.7509E+03
      2.273  0.1161E+03  0.1116E+03  0.7575E+03  0.7567E+03
      2.325  0.1367E+03  0.1392E+03  0.7647E+03  0.7641E+03
      2.378  0.1143E+03  0.1133E+03  0.7707E+03  0.7700E+03
      2.431  0.1225E+03  0.1251E+03  0.7771E+03  0.7766E+03
      2.483  0.1157E+03  0.1189E+03  0.7832E+03  0.7829E+03
      2.536  0.1148E+03  0.1102E+03  0.7893E+03  0.7887E+03
      2.589  0.1270E+03  0.1280E+03  0.7960E+03  0.7954E+03
      2.641  0.1711E+03  0.1693E+03  0.8050E+03  0.8043E+03
      2.694  0.1247E+03  0.1288E+03  0.8115E+03  0.8111E+03
      2.747  0.1047E+03  0.1028E+03  0.8171E+03  0.8165E+03
      2.799  0.1100E+03  0.1111E+03  0.8228E+03  0.8224E+03
      2.852  0.9848E+02  0.1020E+03  0.8280E+03  0.8278E+03
      2.905  0.8374E+02  0.8088E+02  0.8324E+03  0.8320E+03
      2.957  0.7606E+02  0.7800E+02  0.8364E+03  0.8361E+03
      3.010  0.7149E+02  0.6571E+02  0.8402E+03  0.8396E+03
      3.062  0.6991E+02  0.7836E+02  0.8439E+03  0.8437E+03
      3.115  0.7761E+02  0.6851E+02  0.8480E+03  0.8473E+03
      3.168  0.8721E+02  0.9005E+02  0.8526E+03  0.8521E+03
      3.220  0.1119E+03  0.1049E+03  0.8585E+03  0.8576E+03
      3.273  0.1070E+03  0.1114E+03  0.8641E+03  0.8634E+03
      3.326  0.6536E+02  0.7176E+02  0.8675E+03  0.8672E+03
      3.378  0.7772E+02  0.7660E+02  0.8716E+03  0.8713E+03
      3.431  0.8262E+02  0.8531E+02  0.8760E+03  0.8757E+03
      3.484  0.2728E+02  0.2932E+02  0.8774E+03  0.8773E+03
      3.536  0.5134E+02  0.4456E+02  0.8801E+03  0.8796E+03
      3.589  0.7090E+02  0.7556E+02  0.8839E+03  0.8836E+03
      3.642  0.7097E+02  0.6574E+02  0.8876E+03  0.8871E+03
      3.694  0.4504E+02  0.5306E+02  0.8900E+03  0.8899E+03
      3.747  0.3033E+02  0.2830E+02  0.8916E+03  0.8914E+03
      3.800  0.5864E+02  0.5215E+02  0.8947E+03  0.8941E+03
      3.852  0.6604E+02  0.6993E+02  0.8981E+03  0.8978E+03
      3.905  0.2832E+02  0.3186E+02  0.8996E+03  0.8995E+03
      3.958  0.3696E+02  0.3315E+02  0.9016E+03  0.9012E+03
      4.010  0.4258E+02  0.4129E+02  0.9038E+03  0.9034E+03
      4.063  0.7033E+02  0.6432E+02  0.9075E+03  0.9068E+03
      4.116  0.7148E+02  0.7631E+02  0.9113E+03  0.9108E+03
      4.168  0.6367E+02  0.6096E+02  0.9146E+03  0.9140E+03
      4.221  0.6913E+02  0.7772E+02  0.9183E+03  0.9181E+03
      4.274  0.6238E+02  0.5390E+02  0.9216E+03  0.9209E+03
      4.326  0.4685E+02  0.5570E+02  0.9240E+03  0.9239E+03
      4.379  0.6533E+02  0.4972E+02  0.9275E+03  0.9265E+03
      4.431  0.8098E+02  0.9563E+02  0.9317E+03  0.9315E+03
      4.484  0.7611E+02  0.6153E+02  0.9357E+03  0.9348E+03
      4.537  0.8162E+02  0.9020E+02  0.9400E+03  0.9395E+03
      4.589  0.5502E+02  0.4655E+02  0.9429E+03  0.9420E+03
      4.642  0.9326E+02  0.1034E+03  0.9478E+03  0.9474E+03
      4.695  0.8250E+02  0.8375E+02  0.9522E+03  0.9518E+03
      4.747  0.7013E+02  0.6070E+02  0.9559E+03  0.9550E+03
      4.800  0.1018E+03  0.1014E+03  0.9612E+03  0.9603E+03
      4.853  0.9466E+02  0.9707E+02  0.9662E+03  0.9655E+03
      4.905  0.9582E+02  0.9433E+02  0.9713E+03  0.9704E+03
      4.958  0.1068E+03  0.1104E+03  0.9769E+03  0.9762E+03
      5.011  0.9373E+02  0.9507E+02  0.9818E+03  0.9812E+03
      5.063  0.6126E+02  0.6778E+02  0.9850E+03  0.9848E+03
      5.116  0.8859E+02  0.7900E+02  0.9897E+03  0.9890E+03
      5.169  0.1028E+03  0.1035E+03  0.9951E+03  0.9944E+03
      5.221  0.1007E+03  0.1042E+03  0.1000E+04  0.9999E+03
      5.274  0.1069E+03  0.1030E+03  0.1006E+04  0.1005E+04
      5.327  0.1126E+03  0.1134E+03  0.1012E+04  0.1011E+04
      5.379  0.1027E+03  0.9704E+02  0.1017E+04  0.1016E+04
      5.432  0.1238E+03  0.1330E+03  0.1024E+04  0.1023E+04
      5.485  0.1073E+03  0.1090E+03  0.1030E+04  0.1029E+04
      5.537  0.9032E+02  0.8620E+02  0.1034E+04  0.1034E+04
      5.590  0.1011E+03  0.1035E+03  0.1040E+04  0.1039E+04
      5.643  0.9960E+02  0.9801E+02  0.1045E+04  0.1044E+04
      5.695  0.1343E+03  0.1315E+03  0.1052E+04  0.1051E+04
      5.748  0.1456E+03  0.1489E+03  0.1060E+04  0.1059E+04
      5.800  0.8963E+02  0.9168E+02  0.1064E+04  0.1064E+04
      5.853  0.9439E+02  0.8989E+02  0.1069E+04  0.1069E+04
      5.906  0.8690E+02  0.9369E+02  0.1074E+04  0.1074E+04
      5.958  0.1012E+03  0.9838E+02  0.1079E+04  0.1079E+04
      6.011  0.9881E+02  0.9309E+02  0.1084E+04  0.1084E+04
      6.064  0.1044E+03  0.1085E+03  0.1090E+04  0.1089E+04
      6.116  0.5894E+02  0.5894E+02  0.1093E+04  0.1092E+04
      6.169  0.4886E+02  0.5581E+02  0.1096E+04  0.1095E+04
      6.222  0.7839E+01  0.1115E+02  0.1096E+04  0.1096E+04
      6.274  0.0000E+00  0.0000E+00  0.1096E+04  0.1096E+04
      6.327  0.0000E+00  0.0000E+00  0.1096E+04  0.1096E+04
      6.380  0.0000E+00  0.0000E+00  0.1096E+04  0.1096E+04
      6.432  0.0000E+00  0.0000E+00  0.1096E+04  0.1096E+04
      6.485  0.0000E+00  0.0000E+00  0.1096E+04  0.1096E+04
      6.538  0.0000E+00  0.0000E+00  0.1096E+04  0.1096E+04
      6.590  0.0000E+00  0.0000E+00  0.1096E+04  0.1096E+04
      6.643  0.0000E+00  0.0000E+00  0.1096E+04  0.1096E+04
      6.696  0.0000E+00  0.0000E+00  0.1096E+04  0.1096E+04
      6.748  0.0000E+00  0.0000E+00  0.1096E+04  0.1096E+04
      6.801  0.0000E+00  0.0000E+00  0.1096E+04  0.1096E+04
      6.854  0.0000E+00  0.0000E+00  0.1096E+04  0.1096E+04
      6.906  0.0000E+00  0.0000E+00  0.1096E+04  0.1096E+04
