 168 168   0   0
  0.2780971E+02  0.1600268E-08  0.1959920E-08  0.2580094E-08  0.5000000E-15
  1.000000000000000E-004
  CAR 
 Si and Ge interface calculation         
      6.30758352     -9.85331752  301      3.34875780      1.00000000
     -9.853  0.0000E+00  0.0000E+00  0.0000E+00  0.0000E+00
     -9.799  0.0000E+00  0.0000E+00  0.0000E+00  0.0000E+00
     -9.746  0.0000E+00  0.0000E+00  0.0000E+00  0.0000E+00
     -9.692  0.0000E+00  0.0000E+00  0.0000E+00  0.0000E+00
     -9.638  0.0000E+00  0.0000E+00  0.0000E+00  0.0000E+00
     -9.584  0.0000E+00  0.0000E+00  0.0000E+00  0.0000E+00
     -9.530  0.0000E+00  0.0000E+00  0.0000E+00  0.0000E+00
     -9.476  0.0000E+00  0.0000E+00  0.0000E+00  0.0000E+00
     -9.422  0.0000E+00  0.0000E+00  0.0000E+00  0.0000E+00
     -9.368  0.0000E+00  0.0000E+00  0.0000E+00  0.0000E+00
     -9.315  0.0000E+00  0.0000E+00  0.0000E+00  0.0000E+00
     -9.261  0.0000E+00  0.0000E+00  0.0000E+00  0.0000E+00
     -9.207  0.0000E+00  0.0000E+00  0.0000E+00  0.0000E+00
     -9.153  0.2572E-05  0.4136E-07  0.1386E-06  0.2228E-08
     -9.099  0.4114E+01  0.4033E+01  0.2216E+00  0.2172E+00
     -9.045  0.8214E+01  0.8016E+01  0.6641E+00  0.6491E+00
     -8.991  0.8296E+01  0.8541E+01  0.1111E+01  0.1109E+01
     -8.938  0.1649E+02  0.1642E+02  0.1999E+01  0.1994E+01
     -8.884  0.8109E+01  0.7596E+01  0.2436E+01  0.2403E+01
     -8.830  0.4935E+00  0.8121E+00  0.2463E+01  0.2447E+01
     -8.776  0.2213E+02  0.2072E+02  0.3655E+01  0.3563E+01
     -8.722  0.1827E+02  0.1705E+02  0.4640E+01  0.4482E+01
     -8.668  0.1904E+02  0.1982E+02  0.5665E+01  0.5549E+01
     -8.614  0.3085E+02  0.2673E+02  0.7327E+01  0.6989E+01
     -8.560  0.2700E+02  0.2887E+02  0.8782E+01  0.8544E+01
     -8.507  0.1600E+02  0.1757E+02  0.9643E+01  0.9491E+01
     -8.453  0.3368E+02  0.3379E+02  0.1146E+02  0.1131E+02
     -8.399  0.2104E+02  0.2159E+02  0.1259E+02  0.1247E+02
     -8.345  0.3309E+02  0.3297E+02  0.1437E+02  0.1425E+02
     -8.291  0.2789E+02  0.2728E+02  0.1588E+02  0.1572E+02
     -8.237  0.3318E+02  0.3313E+02  0.1766E+02  0.1750E+02
     -8.183  0.2236E+02  0.2382E+02  0.1887E+02  0.1879E+02
     -8.129  0.2506E+02  0.2191E+02  0.2022E+02  0.1997E+02
     -8.076  0.4285E+02  0.4453E+02  0.2253E+02  0.2237E+02
     -8.022  0.2635E+02  0.2701E+02  0.2395E+02  0.2382E+02
     -7.968  0.7460E+01  0.8643E+01  0.2435E+02  0.2429E+02
     -7.914  0.1535E+02  0.1502E+02  0.2517E+02  0.2510E+02
     -7.860  0.2336E+02  0.2408E+02  0.2643E+02  0.2639E+02
     -7.806  0.2327E+02  0.2175E+02  0.2769E+02  0.2757E+02
     -7.752  0.2335E+02  0.2474E+02  0.2894E+02  0.2890E+02
     -7.699  0.1553E+02  0.1415E+02  0.2978E+02  0.2966E+02
     -7.645  0.3481E+02  0.3258E+02  0.3166E+02  0.3142E+02
     -7.591  0.4590E+02  0.4493E+02  0.3413E+02  0.3384E+02
     -7.537  0.3389E+02  0.3719E+02  0.3595E+02  0.3584E+02
     -7.483  0.3967E+02  0.3857E+02  0.3809E+02  0.3792E+02
     -7.429  0.3033E+02  0.3147E+02  0.3973E+02  0.3961E+02
     -7.375  0.3512E+02  0.3228E+02  0.4162E+02  0.4135E+02
     -7.321  0.4370E+01  0.8168E+01  0.4185E+02  0.4179E+02
     -7.268  0.4137E+02  0.3647E+02  0.4408E+02  0.4376E+02
     -7.214  0.4025E+02  0.4118E+02  0.4625E+02  0.4597E+02
     -7.160  0.5052E+02  0.4987E+02  0.4897E+02  0.4866E+02
     -7.106  0.4845E+02  0.4700E+02  0.5158E+02  0.5119E+02
     -7.052  0.5938E+02  0.6175E+02  0.5478E+02  0.5452E+02
     -6.998  0.3685E+02  0.3953E+02  0.5677E+02  0.5665E+02
     -6.944  0.1636E+02  0.1686E+02  0.5765E+02  0.5756E+02
     -6.890  0.4690E+02  0.4526E+02  0.6017E+02  0.6000E+02
     -6.837  0.3830E+02  0.3731E+02  0.6224E+02  0.6200E+02
     -6.783  0.5844E+02  0.5584E+02  0.6538E+02  0.6501E+02
     -6.729  0.3273E+02  0.3879E+02  0.6715E+02  0.6710E+02
     -6.675  0.3387E+02  0.2715E+02  0.6897E+02  0.6857E+02
     -6.621  0.7358E+02  0.7738E+02  0.7294E+02  0.7273E+02
     -6.567  0.4364E+02  0.4337E+02  0.7529E+02  0.7507E+02
     -6.513  0.3305E+02  0.3275E+02  0.7707E+02  0.7683E+02
     -6.460  0.3771E+02  0.3868E+02  0.7910E+02  0.7892E+02
     -6.406  0.4605E+02  0.4133E+02  0.8158E+02  0.8114E+02
     -6.352  0.5251E+02  0.5510E+02  0.8441E+02  0.8411E+02
     -6.298  0.1957E+02  0.2320E+02  0.8546E+02  0.8536E+02
     -6.244  0.7732E+02  0.7371E+02  0.8963E+02  0.8933E+02
     -6.190  0.5891E+02  0.5707E+02  0.9280E+02  0.9241E+02
     -6.136  0.4546E+02  0.4759E+02  0.9525E+02  0.9497E+02
     -6.082  0.4092E+02  0.4226E+02  0.9745E+02  0.9725E+02
     -6.029  0.3500E+02  0.3856E+02  0.9934E+02  0.9932E+02
     -5.975  0.5859E+02  0.5566E+02  0.1025E+03  0.1023E+03
     -5.921  0.4107E+02  0.4059E+02  0.1047E+03  0.1045E+03
     -5.867  0.3858E+02  0.4052E+02  0.1068E+03  0.1067E+03
     -5.813  0.3551E+02  0.3569E+02  0.1087E+03  0.1086E+03
     -5.759  0.1404E+02  0.1284E+02  0.1095E+03  0.1093E+03
     -5.705  0.4162E+02  0.3981E+02  0.1117E+03  0.1115E+03
     -5.651  0.1458E+02  0.1862E+02  0.1125E+03  0.1125E+03
     -5.598  0.4202E+02  0.4016E+02  0.1147E+03  0.1146E+03
     -5.544  0.5032E+02  0.4958E+02  0.1175E+03  0.1173E+03
     -5.490  0.6890E+02  0.6766E+02  0.1212E+03  0.1209E+03
     -5.436  0.3678E+02  0.3922E+02  0.1232E+03  0.1230E+03
     -5.382  0.7587E+02  0.7172E+02  0.1272E+03  0.1269E+03
     -5.328  0.5839E+02  0.6051E+02  0.1304E+03  0.1302E+03
     -5.274  0.4600E+02  0.4565E+02  0.1329E+03  0.1326E+03
     -5.221  0.6204E+02  0.6165E+02  0.1362E+03  0.1360E+03
     -5.167  0.6092E+02  0.5860E+02  0.1395E+03  0.1391E+03
     -5.113  0.6020E+02  0.6457E+02  0.1427E+03  0.1426E+03
     -5.059  0.4714E+02  0.4675E+02  0.1453E+03  0.1451E+03
     -5.005  0.3699E+02  0.3669E+02  0.1473E+03  0.1471E+03
     -4.951  0.3913E+02  0.3821E+02  0.1494E+03  0.1491E+03
     -4.897  0.6347E+02  0.6146E+02  0.1528E+03  0.1524E+03
     -4.843  0.5838E+02  0.5879E+02  0.1559E+03  0.1556E+03
     -4.790  0.6265E+02  0.6158E+02  0.1593E+03  0.1589E+03
     -4.736  0.5060E+02  0.5449E+02  0.1620E+03  0.1619E+03
     -4.682  0.4114E+02  0.3836E+02  0.1642E+03  0.1639E+03
     -4.628  0.4337E+02  0.4618E+02  0.1666E+03  0.1664E+03
     -4.574  0.6187E+02  0.5973E+02  0.1699E+03  0.1696E+03
     -4.520  0.5107E+02  0.5308E+02  0.1727E+03  0.1725E+03
     -4.466  0.5189E+02  0.5111E+02  0.1755E+03  0.1753E+03
     -4.412  0.5812E+02  0.5620E+02  0.1786E+03  0.1783E+03
     -4.359  0.5464E+02  0.5694E+02  0.1815E+03  0.1813E+03
     -4.305  0.4354E+02  0.4262E+02  0.1839E+03  0.1836E+03
     -4.251  0.1818E+02  0.1712E+02  0.1849E+03  0.1846E+03
     -4.197  0.5325E+02  0.4814E+02  0.1877E+03  0.1872E+03
     -4.143  0.5431E+02  0.5681E+02  0.1907E+03  0.1902E+03
     -4.089  0.6319E+02  0.6531E+02  0.1941E+03  0.1937E+03
     -4.035  0.6352E+02  0.6277E+02  0.1975E+03  0.1971E+03
     -3.982  0.4416E+02  0.4582E+02  0.1999E+03  0.1996E+03
     -3.928  0.4894E+02  0.4679E+02  0.2025E+03  0.2021E+03
     -3.874  0.7377E+02  0.7185E+02  0.2065E+03  0.2060E+03
     -3.820  0.3804E+02  0.4595E+02  0.2085E+03  0.2085E+03
     -3.766  0.4836E+02  0.4656E+02  0.2111E+03  0.2110E+03
     -3.712  0.5508E+02  0.5447E+02  0.2141E+03  0.2139E+03
     -3.658  0.4815E+02  0.4601E+02  0.2167E+03  0.2164E+03
     -3.604  0.5768E+02  0.5769E+02  0.2198E+03  0.2195E+03
     -3.551  0.4300E+02  0.4743E+02  0.2221E+03  0.2220E+03
     -3.497  0.5165E+02  0.4922E+02  0.2249E+03  0.2247E+03
     -3.443  0.3703E+02  0.3458E+02  0.2269E+03  0.2266E+03
     -3.389  0.4722E+02  0.5073E+02  0.2294E+03  0.2293E+03
     -3.335  0.5172E+02  0.5050E+02  0.2322E+03  0.2320E+03
     -3.281  0.6745E+02  0.6167E+02  0.2359E+03  0.2353E+03
     -3.227  0.4409E+02  0.5323E+02  0.2382E+03  0.2382E+03
     -3.173  0.3652E+02  0.3291E+02  0.2402E+03  0.2400E+03
     -3.120  0.3035E+02  0.3278E+02  0.2418E+03  0.2417E+03
     -3.066  0.4184E+02  0.4087E+02  0.2441E+03  0.2439E+03
     -3.012  0.4202E+02  0.4153E+02  0.2463E+03  0.2462E+03
     -2.958  0.3398E+02  0.3400E+02  0.2482E+03  0.2480E+03
     -2.904  0.4119E+02  0.4238E+02  0.2504E+03  0.2503E+03
     -2.850  0.5593E+02  0.5526E+02  0.2534E+03  0.2533E+03
     -2.796  0.3346E+02  0.3197E+02  0.2552E+03  0.2550E+03
     -2.743  0.7636E+02  0.7500E+02  0.2593E+03  0.2590E+03
     -2.689  0.7095E+02  0.7250E+02  0.2631E+03  0.2629E+03
     -2.635  0.4578E+02  0.4551E+02  0.2656E+03  0.2654E+03
     -2.581  0.6799E+02  0.6979E+02  0.2693E+03  0.2691E+03
     -2.527  0.3719E+02  0.3592E+02  0.2713E+03  0.2711E+03
     -2.473  0.5268E+02  0.5495E+02  0.2741E+03  0.2740E+03
     -2.419  0.5497E+02  0.4911E+02  0.2771E+03  0.2767E+03
     -2.365  0.5779E+02  0.6239E+02  0.2802E+03  0.2800E+03
     -2.312  0.4221E+02  0.4058E+02  0.2825E+03  0.2822E+03
     -2.258  0.3603E+02  0.3759E+02  0.2844E+03  0.2843E+03
     -2.204  0.2430E+02  0.2534E+02  0.2857E+03  0.2856E+03
     -2.150  0.2088E+02  0.2104E+02  0.2868E+03  0.2868E+03
     -2.096  0.2216E+02  0.2182E+02  0.2880E+03  0.2879E+03
     -2.042  0.4558E+02  0.4160E+02  0.2905E+03  0.2902E+03
     -1.988  0.3717E+02  0.3500E+02  0.2925E+03  0.2921E+03
     -1.934  0.5190E+02  0.5738E+02  0.2953E+03  0.2951E+03
     -1.881  0.1739E+02  0.1993E+02  0.2962E+03  0.2962E+03
     -1.827  0.2440E+02  0.2159E+02  0.2975E+03  0.2974E+03
     -1.773  0.2354E+02  0.2010E+02  0.2988E+03  0.2985E+03
     -1.719  0.6949E+02  0.6941E+02  0.3025E+03  0.3022E+03
     -1.665  0.3629E+02  0.3890E+02  0.3045E+03  0.3043E+03
     -1.611  0.2208E+02  0.2370E+02  0.3057E+03  0.3056E+03
     -1.557  0.1976E+02  0.2078E+02  0.3068E+03  0.3067E+03
     -1.504  0.2882E+02  0.2314E+02  0.3083E+03  0.3079E+03
     -1.450  0.4905E+02  0.5159E+02  0.3110E+03  0.3107E+03
     -1.396  0.1448E+02  0.1755E+02  0.3117E+03  0.3117E+03
     -1.342  0.2219E+02  0.2049E+02  0.3129E+03  0.3128E+03
     -1.288  0.2322E+02  0.2043E+02  0.3142E+03  0.3139E+03
     -1.234  0.1735E+02  0.2293E+02  0.3151E+03  0.3151E+03
     -1.180  0.1715E+02  0.1383E+02  0.3160E+03  0.3159E+03
     -1.126  0.7543E+01  0.1094E+02  0.3164E+03  0.3164E+03
     -1.073  0.2569E+02  0.2108E+02  0.3178E+03  0.3176E+03
     -1.019  0.2537E+02  0.2881E+02  0.3192E+03  0.3191E+03
     -0.965  0.1501E+02  0.1611E+02  0.3200E+03  0.3200E+03
     -0.911  0.1643E+02  0.1650E+02  0.3209E+03  0.3209E+03
     -0.857  0.2310E+01  0.5402E+00  0.3210E+03  0.3209E+03
     -0.803  0.4785E+02  0.4904E+02  0.3236E+03  0.3236E+03
     -0.749  0.2027E+02  0.2019E+02  0.3247E+03  0.3246E+03
     -0.695  0.4127E+02  0.3677E+02  0.3269E+03  0.3266E+03
     -0.642  0.3063E+02  0.3160E+02  0.3286E+03  0.3283E+03
     -0.588  0.8525E+02  0.8594E+02  0.3331E+03  0.3330E+03
     -0.534  0.4700E+02  0.3877E+02  0.3357E+03  0.3350E+03
     -0.480  0.5941E+02  0.6547E+02  0.3389E+03  0.3386E+03
     -0.426  0.7581E+02  0.7248E+02  0.3430E+03  0.3425E+03
     -0.372  0.6046E+02  0.6010E+02  0.3462E+03  0.3457E+03
     -0.318  0.7626E+02  0.7974E+02  0.3503E+03  0.3500E+03
     -0.265  0.8697E+02  0.8016E+02  0.3550E+03  0.3543E+03
     -0.211  0.6918E+02  0.7806E+02  0.3587E+03  0.3585E+03
     -0.157  0.7022E+02  0.6714E+02  0.3625E+03  0.3622E+03
     -0.103  0.6396E+02  0.6221E+02  0.3660E+03  0.3655E+03
     -0.049  0.8085E+02  0.8134E+02  0.3703E+03  0.3699E+03
      0.005  0.7334E+02  0.7537E+02  0.3743E+03  0.3739E+03
      0.059  0.4790E+02  0.4988E+02  0.3769E+03  0.3766E+03
      0.113  0.9679E+02  0.8927E+02  0.3821E+03  0.3814E+03
      0.166  0.7872E+02  0.8343E+02  0.3863E+03  0.3859E+03
      0.220  0.7908E+02  0.7854E+02  0.3906E+03  0.3902E+03
      0.274  0.9478E+02  0.9222E+02  0.3957E+03  0.3951E+03
      0.328  0.1139E+03  0.1080E+03  0.4018E+03  0.4010E+03
      0.382  0.1258E+03  0.1318E+03  0.4086E+03  0.4081E+03
      0.436  0.9809E+02  0.9843E+02  0.4139E+03  0.4134E+03
      0.490  0.1026E+03  0.9804E+02  0.4194E+03  0.4186E+03
      0.544  0.1315E+03  0.1351E+03  0.4265E+03  0.4259E+03
      0.597  0.1181E+03  0.1171E+03  0.4328E+03  0.4322E+03
      0.651  0.1418E+03  0.1394E+03  0.4405E+03  0.4397E+03
      0.705  0.1180E+03  0.1212E+03  0.4468E+03  0.4463E+03
      0.759  0.1101E+03  0.1083E+03  0.4528E+03  0.4521E+03
      0.813  0.1194E+03  0.1240E+03  0.4592E+03  0.4588E+03
      0.867  0.9078E+02  0.9411E+02  0.4641E+03  0.4639E+03
      0.921  0.8932E+02  0.8477E+02  0.4689E+03  0.4684E+03
      0.974  0.1036E+03  0.1041E+03  0.4745E+03  0.4740E+03
      1.028  0.7697E+02  0.7664E+02  0.4786E+03  0.4782E+03
      1.082  0.1266E+03  0.1293E+03  0.4855E+03  0.4851E+03
      1.136  0.1158E+03  0.1121E+03  0.4917E+03  0.4912E+03
      1.190  0.1084E+03  0.1083E+03  0.4975E+03  0.4970E+03
      1.244  0.1308E+03  0.1350E+03  0.5046E+03  0.5043E+03
      1.298  0.1368E+03  0.1320E+03  0.5119E+03  0.5114E+03
      1.352  0.1036E+03  0.1020E+03  0.5175E+03  0.5169E+03
      1.405  0.1084E+03  0.1061E+03  0.5234E+03  0.5226E+03
      1.459  0.1229E+03  0.1223E+03  0.5300E+03  0.5292E+03
      1.513  0.1085E+03  0.1142E+03  0.5358E+03  0.5353E+03
      1.567  0.9967E+02  0.9862E+02  0.5412E+03  0.5406E+03
      1.621  0.1165E+03  0.1176E+03  0.5475E+03  0.5470E+03
      1.675  0.1046E+03  0.1055E+03  0.5531E+03  0.5527E+03
      1.729  0.1295E+03  0.1260E+03  0.5601E+03  0.5595E+03
      1.783  0.1154E+03  0.1181E+03  0.5663E+03  0.5658E+03
      1.836  0.9542E+02  0.9487E+02  0.5714E+03  0.5709E+03
      1.890  0.9007E+02  0.8906E+02  0.5763E+03  0.5757E+03
      1.944  0.8600E+02  0.9053E+02  0.5809E+03  0.5806E+03
      1.998  0.9197E+02  0.9078E+02  0.5859E+03  0.5855E+03
      2.052  0.9509E+02  0.9278E+02  0.5910E+03  0.5905E+03
      2.106  0.8368E+02  0.8278E+02  0.5955E+03  0.5949E+03
      2.160  0.9251E+02  0.9442E+02  0.6005E+03  0.6000E+03
      2.213  0.5739E+02  0.6073E+02  0.6036E+03  0.6033E+03
      2.267  0.7860E+02  0.7685E+02  0.6078E+03  0.6074E+03
      2.321  0.8781E+02  0.8551E+02  0.6126E+03  0.6121E+03
      2.375  0.7521E+02  0.7824E+02  0.6166E+03  0.6163E+03
      2.429  0.7761E+02  0.7585E+02  0.6208E+03  0.6204E+03
      2.483  0.8188E+02  0.8102E+02  0.6252E+03  0.6247E+03
      2.537  0.7684E+02  0.7540E+02  0.6293E+03  0.6288E+03
      2.591  0.6020E+02  0.6421E+02  0.6326E+03  0.6322E+03
      2.644  0.6956E+02  0.7234E+02  0.6363E+03  0.6361E+03
      2.698  0.7506E+02  0.6626E+02  0.6404E+03  0.6397E+03
      2.752  0.6100E+02  0.6772E+02  0.6437E+03  0.6434E+03
      2.806  0.7142E+02  0.6922E+02  0.6475E+03  0.6471E+03
      2.860  0.4415E+02  0.4690E+02  0.6499E+03  0.6496E+03
      2.914  0.5822E+02  0.5222E+02  0.6530E+03  0.6524E+03
      2.968  0.2513E+02  0.3078E+02  0.6544E+03  0.6541E+03
      3.022  0.5512E+02  0.5615E+02  0.6573E+03  0.6571E+03
      3.075  0.3611E+02  0.3068E+02  0.6593E+03  0.6588E+03
      3.129  0.3146E+02  0.3212E+02  0.6610E+03  0.6605E+03
      3.183  0.6367E+02  0.6019E+02  0.6644E+03  0.6637E+03
      3.237  0.4464E+02  0.4341E+02  0.6668E+03  0.6661E+03
      3.291  0.4630E+02  0.5330E+02  0.6693E+03  0.6689E+03
      3.345  0.3963E+02  0.3218E+02  0.6714E+03  0.6707E+03
      3.399  0.1777E+02  0.2888E+02  0.6724E+03  0.6722E+03
      3.452  0.2229E+02  0.2222E+02  0.6736E+03  0.6734E+03
      3.506  0.2839E+02  0.2697E+02  0.6751E+03  0.6749E+03
      3.560  0.4722E+02  0.4883E+02  0.6777E+03  0.6775E+03
      3.614  0.3429E+02  0.2730E+02  0.6795E+03  0.6790E+03
      3.668  0.3920E+02  0.3895E+02  0.6816E+03  0.6811E+03
      3.722  0.1849E+02  0.2636E+02  0.6826E+03  0.6825E+03
      3.776  0.2708E+02  0.2536E+02  0.6841E+03  0.6839E+03
      3.830  0.1539E+02  0.1909E+02  0.6849E+03  0.6849E+03
      3.883  0.2363E+02  0.2106E+02  0.6862E+03  0.6860E+03
      3.937  0.1455E+02  0.1391E+02  0.6870E+03  0.6868E+03
      3.991  0.7947E+01  0.7957E+01  0.6874E+03  0.6872E+03
      4.045  0.3098E+02  0.3068E+02  0.6891E+03  0.6889E+03
      4.099  0.4891E+02  0.4468E+02  0.6917E+03  0.6913E+03
      4.153  0.3018E+02  0.3829E+02  0.6933E+03  0.6933E+03
      4.207  0.3670E+02  0.3207E+02  0.6953E+03  0.6951E+03
      4.261  0.3284E+02  0.3144E+02  0.6971E+03  0.6967E+03
      4.314  0.5679E+02  0.5602E+02  0.7001E+03  0.6998E+03
      4.368  0.4705E+02  0.5098E+02  0.7027E+03  0.7025E+03
      4.422  0.3741E+02  0.3920E+02  0.7047E+03  0.7046E+03
      4.476  0.8423E+02  0.8172E+02  0.7092E+03  0.7090E+03
      4.530  0.4970E+02  0.4857E+02  0.7119E+03  0.7116E+03
      4.584  0.6730E+02  0.6538E+02  0.7155E+03  0.7152E+03
      4.638  0.7629E+02  0.7804E+02  0.7196E+03  0.7194E+03
      4.691  0.8042E+02  0.7568E+02  0.7240E+03  0.7234E+03
      4.745  0.7251E+02  0.7505E+02  0.7279E+03  0.7275E+03
      4.799  0.8235E+02  0.8213E+02  0.7323E+03  0.7319E+03
      4.853  0.9395E+02  0.9585E+02  0.7374E+03  0.7371E+03
      4.907  0.9450E+02  0.9253E+02  0.7425E+03  0.7421E+03
      4.961  0.9329E+02  0.9669E+02  0.7475E+03  0.7473E+03
      5.015  0.1145E+03  0.1032E+03  0.7537E+03  0.7528E+03
      5.069  0.1112E+03  0.1170E+03  0.7596E+03  0.7591E+03
      5.122  0.1074E+03  0.1115E+03  0.7654E+03  0.7651E+03
      5.176  0.9663E+02  0.9554E+02  0.7706E+03  0.7703E+03
      5.230  0.1023E+03  0.1019E+03  0.7762E+03  0.7758E+03
      5.284  0.1135E+03  0.1149E+03  0.7823E+03  0.7820E+03
      5.338  0.1142E+03  0.1137E+03  0.7884E+03  0.7881E+03
      5.392  0.1043E+03  0.1006E+03  0.7940E+03  0.7935E+03
      5.446  0.1006E+03  0.1012E+03  0.7995E+03  0.7990E+03
      5.500  0.8758E+02  0.9025E+02  0.8042E+03  0.8038E+03
      5.553  0.5435E+02  0.5498E+02  0.8071E+03  0.8068E+03
      5.607  0.1671E+02  0.2260E+02  0.8080E+03  0.8080E+03
      5.661  0.0000E+00  0.0000E+00  0.8080E+03  0.8080E+03
      5.715  0.0000E+00  0.0000E+00  0.8080E+03  0.8080E+03
      5.769  0.0000E+00  0.0000E+00  0.8080E+03  0.8080E+03
      5.823  0.0000E+00  0.0000E+00  0.8080E+03  0.8080E+03
      5.877  0.0000E+00  0.0000E+00  0.8080E+03  0.8080E+03
      5.930  0.0000E+00  0.0000E+00  0.8080E+03  0.8080E+03
      5.984  0.0000E+00  0.0000E+00  0.8080E+03  0.8080E+03
      6.038  0.0000E+00  0.0000E+00  0.8080E+03  0.8080E+03
      6.092  0.0000E+00  0.0000E+00  0.8080E+03  0.8080E+03
      6.146  0.0000E+00  0.0000E+00  0.8080E+03  0.8080E+03
      6.200  0.0000E+00  0.0000E+00  0.8080E+03  0.8080E+03
      6.254  0.0000E+00  0.0000E+00  0.8080E+03  0.8080E+03
      6.308  0.0000E+00  0.0000E+00  0.8080E+03  0.8080E+03
