       N       E                     dE             d eps       ncg     rms          rms(c)
DAV:   1     0.290044829516E+04    0.29004E+04   -0.16679E+05  9280   0.170E+03
DAV:   2     0.647191272824E+03   -0.22533E+04   -0.21832E+04 11000   0.209E+02
DAV:   3     0.401702885834E+03   -0.24549E+03   -0.23562E+03 11832   0.669E+01
DAV:   4     0.389951145248E+03   -0.11752E+02   -0.11285E+02 11400   0.141E+01
DAV:   5     0.389369655451E+03   -0.58149E+00   -0.57061E+00 12152   0.273E+00    0.599E+01
DAV:   6     0.423827039338E+03    0.34457E+02   -0.56107E+01 11656   0.113E+01    0.384E+01
DAV:   7     0.418709018468E+03   -0.51180E+01   -0.98214E+01 11480   0.182E+01    0.119E+01
DAV:   8     0.432312876870E+03    0.13604E+02   -0.28046E+01 12280   0.128E+01    0.335E+00
DAV:   9     0.432366993436E+03    0.54117E-01   -0.88106E+00 10984   0.474E+00    0.364E+00
DAV:  10     0.432368725360E+03    0.17319E-02   -0.14177E+00 11072   0.196E+00    0.247E+00
DAV:  11     0.432390889301E+03    0.22164E-01   -0.22132E-01 11144   0.732E-01    0.951E-01
DAV:  12     0.432392805413E+03    0.19161E-02   -0.58612E-02 12032   0.448E-01    0.325E-01
DAV:  13     0.432395316817E+03    0.25114E-02   -0.29958E-02 12480   0.401E-01    0.188E-01
DAV:  14     0.432397294213E+03    0.19774E-02   -0.63581E-03 11720   0.188E-01    0.107E-01
DAV:  15     0.432397251951E+03   -0.42262E-04   -0.17233E-03 11032   0.717E-02    0.688E-02
DAV:  16     0.432397272782E+03    0.20831E-04   -0.32974E-04 10928   0.359E-02    0.329E-02
DAV:  17     0.432397285104E+03    0.12322E-04   -0.11652E-04 11072   0.221E-02    0.143E-02
DAV:  18     0.432397292260E+03    0.71557E-05   -0.34579E-05 11280   0.132E-02    0.596E-03
DAV:  19     0.432397291096E+03   -0.11634E-05   -0.10215E-05 11400   0.611E-03    0.567E-03
DAV:  20     0.432397290686E+03   -0.41055E-06   -0.24627E-06 10736   0.292E-03    0.337E-03
DAV:  21     0.432397290411E+03   -0.27513E-06   -0.60280E-07 10400   0.131E-03    0.106E-03
DAV:  22     0.432397290122E+03   -0.28873E-06   -0.14136E-07  5824   0.748E-04    0.527E-04
DAV:  23     0.432397289975E+03   -0.14701E-06   -0.54557E-08  5600   0.425E-04    0.302E-04
DAV:  24     0.432397289890E+03   -0.85121E-07   -0.15956E-08  5600   0.237E-04
   1 F= 0.43239729E+03 E0= 0.43239812E+03  d E =-.166971E-02  mag=     1.0000
