       N       E                     dE             d eps       ncg     rms          rms(c)
DAV:   1     0.975567702611E+03    0.97557E+03   -0.74657E+04  4640   0.160E+03
DAV:   2    -0.371721613933E+02   -0.10127E+04   -0.98404E+03  5496   0.182E+02
DAV:   3    -0.154061618906E+03   -0.11689E+03   -0.11235E+03  5768   0.627E+01
DAV:   4    -0.159703457977E+03   -0.56418E+01   -0.54014E+01  5816   0.133E+01
DAV:   5    -0.159964443632E+03   -0.26099E+00   -0.25755E+00  6168   0.255E+00    0.132E+01
DAV:   6    -0.156976479768E+03    0.29880E+01   -0.95414E+00  6064   0.633E+00    0.632E+00
DAV:   7    -0.156668623553E+03    0.30786E+00   -0.40708E+00  6024   0.474E+00    0.280E+00
DAV:   8    -0.156536188067E+03    0.13244E+00   -0.72662E-01  5496   0.216E+00    0.782E-01
DAV:   9    -0.156535143165E+03    0.10449E-02   -0.16267E-01  5792   0.891E-01    0.375E-01
DAV:  10    -0.156535939856E+03   -0.79669E-03   -0.32006E-02  5392   0.406E-01    0.194E-01
DAV:  11    -0.156536608833E+03   -0.66898E-03   -0.65994E-03  5368   0.183E-01    0.959E-02
DAV:  12    -0.156536832004E+03   -0.22317E-03   -0.13329E-03  5480   0.906E-02    0.511E-02
DAV:  13    -0.156536926084E+03   -0.94079E-04   -0.34822E-04  5560   0.429E-02    0.225E-02
DAV:  14    -0.156536963616E+03   -0.37532E-04   -0.79430E-05  5536   0.222E-02    0.120E-02
DAV:  15    -0.156536976780E+03   -0.13164E-04   -0.23162E-05  5376   0.123E-02    0.648E-03
DAV:  16    -0.156536981937E+03   -0.51564E-05   -0.77254E-06  5448   0.657E-03    0.381E-03
DAV:  17    -0.156536983550E+03   -0.16137E-05   -0.21078E-06  5584   0.375E-03    0.243E-03
DAV:  18    -0.156536984161E+03   -0.61037E-06   -0.10410E-06  5064   0.232E-03    0.136E-03
DAV:  19    -0.156536984181E+03   -0.20721E-07   -0.31869E-07  3912   0.135E-03
   1 F= -.15653698E+03 E0= -.15653610E+03  d E =-.176032E-02  mag=     1.0000
