 vasp.6.4.3 19Mar24 (build Oct 22 2024 11:23:12) complex                        
  
 executed on             LinuxIFC date 2025.06.10  06:46:42
 running   64 mpi-ranks, on    4 nodes
 distrk:  each k-point on   64 cores,    1 groups
 distr:  one band on NCORE=  16 cores,    4 groups


--------------------------------------------------------------------------------------------------------


 INCAR:
   SYSTEM = Si and Ge interface calculation
   ISTART = 0
   ICHARG = 2
   LWAVE = .FALSE.
   LREAL = AUTO
   ENCUT = 700
   ENAUG = 900
   ADDGRID = .TRUE.
   LMAXMIX = 6
   LASPH = .TRUE.
   LMIXTAU = .TRUE.
   NCORE = 16
   NELM = 100
   NBANDS = 634
   EDIFF = 1d-7
   AMIX = 0.6
   ISMEAR = 0
   SIGMA = 0.01
   NELECT = 1056
   ISPIN = 2
   NUPDOWN = 1
   LVTOT = .FALSE.
   LVHAR = .TRUE.

 POTCAR:    PAW_PBE Si 05Jan2001                  
 POTCAR:    PAW_PBE Sn 08Apr2002                  
 -----------------------------------------------------------------------------
|                                                                             |
|           W    W    AA    RRRRR   N    N  II  N    N   GGGG   !!!           |
|           W    W   A  A   R    R  NN   N  II  NN   N  G    G  !!!           |
|           W    W  A    A  R    R  N N  N  II  N N  N  G       !!!           |
|           W WW W  AAAAAA  RRRRR   N  N N  II  N  N N  G  GGG   !            |
|           WW  WW  A    A  R   R   N   NN  II  N   NN  G    G                |
|           W    W  A    A  R    R  N    N  II  N    N   GGGG   !!!           |
|                                                                             |
|     You use a magnetic or noncollinear calculation, but did not specify     |
|     the initial magnetic moment with the MAGMOM tag. Note that a            |
|     default of 3.788e-3 will be used for all atoms. This ferromagnetic      |
|     setup may break the symmetry of the crystal, in particular it may       |
|     rule out finding an antiferromagnetic solution. Thence, we              |
|     recommend setting the initial magnetic moment manually or verifying     |
|     carefully that this magnetic setup is desired.                          |
|                                                                             |
 -----------------------------------------------------------------------------

 POTCAR:    PAW_PBE Si 05Jan2001                  
   VRHFIN =Si: s2p2                                                                                 
   LEXCH  = PE                                                                                      
   EATOM  =   103.0669 eV,    7.5752 Ry                                                             
                                                                                                    
   TITEL  = PAW_PBE Si 05Jan2001                                                                    
   LULTRA =        F    use ultrasoft PP ?                                                          
   IUNSCR =        1    unscreen: 0-lin 1-nonlin 2-no                                               
   RPACOR =    1.500    partial core radius                                                         
   POMASS =   28.085; ZVAL   =    4.000    mass and valenz                                          
   RCORE  =    1.900    outmost cutoff radius                                                       
   RWIGS  =    2.480; RWIGS  =    1.312    wigner-seitz radius (au A)                               
   ENMAX  =  245.345; ENMIN  =  184.009 eV                                                          
   ICORE  =        2    local potential                                                             
   LCOR   =        T    correct aug charges                                                         
   LPAW   =        T    paw PP                                                                      
   EAUG   =  322.069                                                                                
   DEXC   =    0.000                                                                                
   RMAX   =    1.950    core radius for proj-oper                                                   
   RAUG   =    1.300    factor for augmentation sphere                                              
   RDEP   =    1.993    radius for radial grids                                                     
   RDEPT  =    1.837    core radius for aug-charge                                                  
                                                                                                    
   Atomic configuration                                                                             
    6 entries                                                                                       
     n  l   j            E        occ.                                                              
     1  0  0.50     -1785.8828   2.0000                                                             
     2  0  0.50      -139.4969   2.0000                                                             
     2  1  1.50       -95.5546   6.0000                                                             
     3  0  0.50       -10.8127   2.0000                                                             
     3  1  0.50        -4.0811   2.0000                                                             
     3  2  1.50        -4.0817   0.0000                                                             
   Description                                                                                      
     l       E           TYP  RCUT    TYP  RCUT                                                     
     0    -10.8127223     23  1.900                                                                 
     0     -7.6451159     23  1.900                                                                 
     1     -4.0811372     23  1.900                                                                 
     1      2.4879257     23  1.900                                                                 
     2     -4.0817478      7  1.900                                                                 
  local pseudopotential read in
  partial core-charges read in
  partial kinetic energy density read in
  atomic valenz-charges read in
  non local Contribution for L=           0  read in
    real space projection operators read in
  non local Contribution for L=           0  read in
    real space projection operators read in
  non local Contribution for L=           1  read in
    real space projection operators read in
  non local Contribution for L=           1  read in
    real space projection operators read in
    PAW grid and wavefunctions read in
 
   number of l-projection  operators is LMAX  =           4
   number of lm-projection operators is LMMAX =           8
 
 POTCAR:    PAW_PBE Sn 08Apr2002                  
   VRHFIN =Sn: s2p2                                                                                 
   LEXCH  = PE                                                                                      
   EATOM  =    94.0860 eV,    6.9151 Ry                                                             
                                                                                                    
   TITEL  = PAW_PBE Sn 08Apr2002                                                                    
   LULTRA =        F    use ultrasoft PP ?                                                          
   IUNSCR =        1    unscreen: 0-lin 1-nonlin 2-no                                               
   RPACOR =    2.000    partial core radius                                                         
   POMASS =  118.710; ZVAL   =    4.000    mass and valenz                                          
   RCORE  =    3.000    outmost cutoff radius                                                       
   RWIGS  =    2.960; RWIGS  =    1.566    wigner-seitz radius (au A)                               
   ENMAX  =  103.236; ENMIN  =   77.427 eV                                                          
   ICORE  =        3    local potential                                                             
   LCOR   =        T    correct aug charges                                                         
   LPAW   =        T    paw PP                                                                      
   EAUG   =  263.585                                                                                
   DEXC   =    0.000                                                                                
   RMAX   =    3.078    core radius for proj-oper                                                   
   RAUG   =    1.300    factor for augmentation sphere                                              
   RDEP   =    3.022    radius for radial grids                                                     
   RDEPT  =    2.655    core radius for aug-charge                                                  
                                                                                                    
   Atomic configuration                                                                             
   13 entries                                                                                       
     n  l   j            E        occ.                                                              
     1  0  0.50    -29007.2859   2.0000                                                             
     2  0  0.50     -4378.8056   2.0000                                                             
     2  1  1.50     -3930.4293   6.0000                                                             
     3  0  0.50      -845.0264   2.0000                                                             
     3  1  1.50      -698.5725   6.0000                                                             
     3  2  2.50      -473.2839  10.0000                                                             
     4  0  0.50      -133.9036   2.0000                                                             
     4  1  1.50       -89.6752   6.0000                                                             
     4  2  2.50       -25.8375  10.0000                                                             
     5  0  0.50       -10.5484   2.0000                                                             
     5  1  0.50        -3.6940   2.0000                                                             
     5  2  1.50        -1.3606   0.0000                                                             
     4  3  2.50        -4.0817   0.0000                                                             
   Description                                                                                      
     l       E           TYP  RCUT    TYP  RCUT                                                     
     0    -10.5483727     23  3.000                                                                 
     0     27.2116520     23  3.000                                                                 
     1     -3.6939829     23  3.000                                                                 
     1      1.9821976     23  3.000                                                                 
     2     -1.3605826     23  3.000                                                                 
     3     -2.7211652     23  3.000                                                                 
  local pseudopotential read in
  partial core-charges read in
  partial kinetic energy density read in
  atomic valenz-charges read in
  non local Contribution for L=           0  read in
    real space projection operators read in
  non local Contribution for L=           0  read in
    real space projection operators read in
  non local Contribution for L=           1  read in
    real space projection operators read in
  non local Contribution for L=           1  read in
    real space projection operators read in
  non local Contribution for L=           2  read in
    real space projection operators read in
    PAW grid and wavefunctions read in
 
   number of l-projection  operators is LMAX  =           5
   number of lm-projection operators is LMMAX =          13
 
 Optimization of the real space projectors (new method)

 maximal supplied QI-value         = 19.84
 optimisation between [QCUT,QGAM] = [ 13.49, 26.99] = [ 50.98,203.92] Ry 
 Optimized for a Real-space Cutoff    1.07 Angstroem

   l    n(q)    QCUT    max X(q) W(low)/X(q) W(high)/X(q)  e(spline) 
   0      9    13.493   159.560    0.22E-03    0.15E-03    0.72E-07
   0      9    13.493   115.863    0.21E-03    0.15E-03    0.71E-07
   1      8    13.493    88.339    0.15E-03    0.11E-03    0.13E-06
   1      8    13.493    48.592    0.15E-03    0.10E-03    0.13E-06
 Optimization of the real space projectors (new method)

 maximal supplied QI-value         = 12.47
 optimisation between [QCUT,QGAM] = [ 12.47, 27.06] = [ 43.56,205.12] Ry 
 Optimized for a Real-space Cutoff    1.58 Angstroem

   l    n(q)    QCUT    max X(q) W(low)/X(q) W(high)/X(q)  e(spline) 
   0     13    12.472    14.688    0.45E-04    0.45E-04    0.25E-05
   0     13    12.472     7.308    0.94E-04    0.11E-03    0.61E-05
   1     12    12.472    45.102    0.34E-03    0.14E-03    0.21E-05
   1     12    12.472    30.691    0.31E-03    0.13E-03    0.20E-05
   2     12    12.472     7.156    0.86E-04    0.11E-03    0.17E-05
 WARNING: PSMAXN for non-local potential too small
          PSMAXN should be >   13.5545592237991       NTYP=           2
  PAW_PBE Si 05Jan2001                  :
 energy of atom  1       EATOM= -103.0669
 kinetic energy error for atom=    0.0003 (will be added to EATOM!!)
  PAW_PBE Sn 08Apr2002                  :
 energy of atom  2       EATOM=  -94.0860
 kinetic energy error for atom=    0.0000 (will be added to EATOM!!)
 
 
 POSCAR: Si+Sn
  positions in direct lattice
  No initial velocities read in


 exchange-correlation table for PE
   RHO(1)=    0.500       N(1)  =     2000
   RHO(2)=  100.500       N(2)  =     4000
 


--------------------------------------------------------------------------------------------------------


 ion  position               nearest neighbor table
   1  0.996  0.997  0.000-   7 2.26 145 2.35  49 2.35
   2  0.881  0.920  0.142-  76 2.35 146 2.35  50 2.35 145 2.35
   3  0.765  0.843  0.284-  77 2.35  51 2.35 217 2.35 146 2.35
   4  0.073  0.382  0.000- 264 2.35 159 2.35 118 2.87
   5  0.957  0.305  0.142-  73 2.35  44 2.35 155 2.35 159 2.35
   6  0.842  0.228  0.284-  74 2.35  45 2.35 155 2.35 156 2.35
   7  0.022  0.963  0.890-   1 2.26 165 2.82 213 2.82
   8  0.111  0.074  0.142-  49 2.35  47 2.35 192 2.35 187 2.35
   9  0.996  0.997  0.284-  50 2.35 178 2.35 120 2.35 187 2.35
  10  0.150  0.766  0.000-  79 2.31  52 2.35 177 2.35
  11  0.034  0.690  0.142-  40 2.35 122 2.35 177 2.35  53 2.35
  12  0.605  0.379  0.465- 199 2.82 241 2.82 153 2.86 232 2.97
  13  0.304  0.536  0.000-  55 2.35 174 2.35  85 2.97 243 3.39
  14  0.188  0.459  0.142- 264 2.35 125 2.35  56 2.35 174 2.35
  15  0.073  0.382  0.284-  44 2.35  57 2.35 226 2.35 125 2.35
  16  0.772  0.546  0.805- 261 2.82 251 2.82 206 2.82  25 2.82
  17  0.342  0.228  0.142-  46 2.35 128 2.35  59 2.35 127 2.35
  18  0.227  0.151  0.284-  47 2.35  60 2.35 163 2.35 128 2.35
  19  0.611  0.074  0.000- 130 2.35  61 2.35 100 2.94
  20  0.496  0.997  0.142-  64 2.35 131 2.35 130 2.35  62 2.35
  21  0.381  0.920  0.284-  65 2.35  63 2.35 211 2.35 131 2.35
  22  0.522  0.796  0.890- 222 2.82 121 2.82 106 2.87 207 2.97
  23  0.605  0.379  0.805- 210 2.82 252 2.82 200 2.82 251 2.82
  24  0.150  0.766  0.284-  53 2.35  66 2.35 135 2.35 134 2.35
  25  0.689  0.629  0.890- 109 2.27 121 2.82  16 2.82
  26  0.419  0.613  0.142-  55 2.35 202 2.35  68 2.35 258 2.35
  27  0.304  0.536  0.284-  56 2.35 238 2.35 160 2.35 202 2.35
  28  0.688  0.459  0.000- 139 2.35  70 2.35
  29  0.272  0.713  0.805-  85 2.82 188 2.82 239 2.82  79 2.82
  30  0.457  0.305  0.284- 141 2.35  59 2.35 232 2.35 140 2.35
  31  0.842  0.228  0.000- 142 2.35  73 2.35  43 2.86
  32  0.727  0.151  0.142-  61 2.35  74 2.35 143 2.35 142 2.35
  33  0.611  0.074  0.284-  62 2.35 144 2.35  75 2.35 143 2.35
  34  0.765  0.843  0.000- 148 2.35  76 2.35 136 2.90
  35  0.650  0.766  0.142-  67 2.35 149 2.35  77 2.35 148 2.35
  36  0.534  0.690  0.284-  68 2.35  78 2.35 150 2.35 149 2.35
  37  0.689  0.963  0.890- 151 2.82 231 2.82 201 3.39
  38  0.804  0.536  0.142-  70 2.35  41 2.35 152 2.35 183 2.35
  39  0.688  0.459  0.284- 181 2.35  71 2.35 153 2.35 152 2.35
  40  0.015  0.593  0.071- 204 2.35  11 2.35  82 2.35  83 2.35
  41  0.900  0.516  0.213-  83 2.35  38 2.35 169 2.35 223 2.35
  42  0.939  0.046  0.465- 120 2.31 253 2.82 137 2.82
  43  0.855  0.129  0.890- 237 2.82 165 2.82  31 2.86 201 2.97
  44  0.054  0.286  0.213-  15 2.35   5 2.35  87 2.35  86 2.35
  45  0.938  0.209  0.355-   6 2.35  87 2.35
  46  0.323  0.132  0.071-  17 2.35 186 2.35  88 2.35  89 2.35
  47  0.207  0.055  0.213-  18 2.35   8 2.35  89 2.35 172 2.35
  48  0.939  0.379  0.465- 226 2.27 250 2.82  93 2.82
  49  0.092  0.978  0.071-   8 2.35   1 2.35  91 2.35  92 2.35
  50  0.977  0.901  0.213-   9 2.35   2 2.35  92 2.35 208 2.35
  51  0.861  0.824  0.355-   3 2.35 208 2.35 220 2.94 175 3.39
  52  0.246  0.747  0.071- 180 2.35  10 2.35 246 2.35  95 2.35
  53  0.131  0.670  0.213-  24 2.35  95 2.35  11 2.35  96 2.35
  54  0.105  0.879  0.465- 256 2.82 137 2.82 178 2.86 135 2.97
  55  0.400  0.516  0.071-  26 2.35  97 2.35  13 2.35  98 2.35
  56  0.284  0.440  0.213-  27 2.35  98 2.35  14 2.35  99 2.35
  57  0.169  0.363  0.355-  99 2.35  15 2.35  69 2.93
  58  0.554  0.286  0.071- 168 2.35 101 2.35 255 2.35 234 2.35
  59  0.438  0.209  0.213-  30 2.35 102 2.35  17 2.35 101 2.35
  60  0.323  0.132  0.355-  18 2.35 102 2.35 129 2.87
  61  0.707  0.055  0.071-  32 2.35 104 2.35 201 2.35  19 2.35
  62  0.592  0.978  0.213-  33 2.35 190 2.35 104 2.35  20 2.35
  63  0.477  0.901  0.355- 132 2.27  21 2.35 190 2.35
  64  0.477  0.901  0.071-  20 2.35 106 2.35 249 2.35 107 2.35
  65  0.361  0.824  0.213-  21 2.35 107 2.35 180 2.35 108 2.35
  66  0.246  0.747  0.355- 157 2.26 108 2.35  24 2.35
  67  0.631  0.670  0.071-  35 2.35 109 2.35 207 2.35 110 2.35
  68  0.515  0.593  0.213-  36 2.35 110 2.35  26 2.35 111 2.35
  69  0.272  0.379  0.465- 105 2.82 259 2.82  57 2.93 141 2.94
  70  0.784  0.440  0.071-  38 2.35 112 2.35 113 2.35  28 2.35
  71  0.669  0.363  0.213-  39 2.35 114 2.35 113 2.35 168 2.35
  72  0.105  0.546  0.465- 259 2.82 205 2.82 229 2.90 238 2.91
  73  0.938  0.209  0.071-   5 2.35 240 2.35  80 2.35  31 2.35
  74  0.823  0.132  0.213-   6 2.35  80 2.35  32 2.35 184 2.35
  75  0.707  0.055  0.355- 184 2.35  33 2.35  90 2.91
  76  0.861  0.824  0.071-   2 2.35 115 2.35  34 2.35 116 2.35
  77  0.746  0.747  0.213-   3 2.35 116 2.35  35 2.35 193 2.35
  78  0.631  0.670  0.355- 166 2.31 193 2.35  36 2.35
  79  0.189  0.796  0.890-  10 2.31 213 2.82  29 2.82
  80  0.919  0.113  0.142- 145 2.35  74 2.35 187 2.35  73 2.35
  81  0.355  0.963  0.550- 129 2.82 173 2.82 132 2.82 212 2.82
  82  0.111  0.574  0.000-  40 2.35 174 2.35 189 2.94 243 3.39
  83  0.996  0.497  0.142- 159 2.35  41 2.35  40 2.35 125 2.35
  84  0.772  0.546  0.465- 250 2.82 196 2.82 123 2.87 181 2.97
  85  0.355  0.629  0.890-  29 2.82 225 2.82 246 2.86  13 2.97
  86  0.150  0.266  0.142- 192 2.35 264 2.35 128 2.35  44 2.35
  87  0.034  0.190  0.284- 187 2.35 163 2.35  44 2.35  45 2.35
  88  0.419  0.113  0.000- 130 2.35  46 2.35 100 2.93
  89  0.304  0.036  0.142- 133 2.35  46 2.35  47 2.35 131 2.35
  90  0.605  0.046  0.465- 117 2.82 244 2.82 144 2.90  75 2.91
  91  0.188  0.959  0.000- 133 2.35  49 2.35
  92  0.073  0.882  0.142- 177 2.35  50 2.35 134 2.35  49 2.35
  93  0.022  0.296  0.550- 236 2.82 161 2.82 235 2.82  48 2.82
  94  0.189  0.129  0.890- 186 2.27 219 2.82 124 2.82
  95  0.227  0.651  0.142- 174 2.35  53 2.35 202 2.35  52 2.35
  96  0.111  0.574  0.284- 125 2.35 238 2.35 229 2.35  53 2.35
  97  0.496  0.497  0.000- 252 2.26  55 2.35 139 2.35
  98  0.381  0.420  0.142- 127 2.35  56 2.35 140 2.35  55 2.35
  99  0.265  0.343  0.284- 128 2.35  57 2.35 141 2.35  56 2.35
 100  0.522  0.129  0.890- 151 2.82 228 2.82  88 2.93  19 2.94
 101  0.534  0.190  0.142- 130 2.35 143 2.35  58 2.35  59 2.35
 102  0.419  0.113  0.284- 131 2.35 144 2.35  59 2.35  60 2.35
 103  0.355  0.296  0.890- 171 2.82 228 2.82 198 2.90 234 2.91
 104  0.688  0.959  0.142- 148 2.35  61 2.35  62 2.35 146 2.35
 105  0.355  0.296  0.550-  69 2.82 147 2.82 170 2.82 218 2.82
 106  0.573  0.882  0.000-  64 2.35 148 2.35  22 2.87
 107  0.457  0.805  0.142- 258 2.35  65 2.35  64 2.35 149 2.35
 108  0.342  0.728  0.284- 202 2.35  66 2.35 150 2.35  65 2.35
 109  0.727  0.651  0.000-  25 2.27  67 2.35 183 2.35
 110  0.611  0.574  0.142- 139 2.35  68 2.35 152 2.35  67 2.35
 111  0.496  0.497  0.284- 140 2.35 160 2.35 153 2.35  68 2.35
 112  0.881  0.420  0.000- 261 2.31  70 2.35 159 2.35
 113  0.765  0.343  0.142- 155 2.35 142 2.35  70 2.35  71 2.35
 114  0.650  0.266  0.284- 156 2.35  71 2.35 143 2.35 232 2.35
 115  0.957  0.805  0.000- 177 2.35  76 2.35 136 2.91
 116  0.842  0.728  0.142- 183 2.35  77 2.35 122 2.35  76 2.35
 117  0.689  0.963  0.550-  90 2.82 182 2.82 220 2.82 221 2.82
 118  0.022  0.296  0.890- 162 2.82 219 2.82   4 2.87 240 2.97
 119  0.355  0.629  0.550- 157 2.82 167 2.82 214 2.82 215 2.82
 120  0.900  0.016  0.355-  42 2.31   9 2.35 184 2.35
 121  0.605  0.713  0.805-  25 2.82 197 2.82  22 2.82 248 2.82
 122  0.938  0.709  0.213- 208 2.35 116 2.35  11 2.35 169 2.35
 123  0.823  0.632  0.355- 193 2.35 169 2.35  84 2.87
 124  0.272  0.046  0.805- 195 2.82 245 2.82 185 2.82  94 2.82
 125  0.092  0.478  0.213-  96 2.35  14 2.35  83 2.35  15 2.35
 126  0.772  0.213  0.465- 156 2.26 253 2.82 199 2.82
 127  0.361  0.324  0.071-  98 2.35 198 2.35 234 2.35  17 2.35
 128  0.246  0.247  0.213-  99 2.35  17 2.35  86 2.35  18 2.35
 129  0.272  0.046  0.465-  81 2.82 262 2.82  60 2.87 211 2.97
 130  0.515  0.093  0.071- 101 2.35  19 2.35  88 2.35  20 2.35
 131  0.400  0.016  0.213- 102 2.35  20 2.35  89 2.35  21 2.35
 132  0.439  0.879  0.465-  63 2.27 138 2.82  81 2.82
 133  0.284  0.940  0.071-  89 2.35 249 2.35  91 2.35 180 2.35
 134  0.169  0.863  0.213- 172 2.35 180 2.35  24 2.35  92 2.35
 135  0.054  0.786  0.355-  24 2.35 208 2.35  54 2.97 175 3.39
 136  0.855  0.796  0.890- 231 2.82 154 2.82  34 2.90 115 2.91
 137  0.022  0.963  0.550- 164 2.82  42 2.82 230 2.82  54 2.82
 138  0.522  0.796  0.550- 132 2.82 221 2.82 166 2.82 167 2.82
 139  0.592  0.478  0.071- 110 2.35  28 2.35  97 2.35 168 2.35
 140  0.477  0.401  0.213- 111 2.35 168 2.35  98 2.35  30 2.35
 141  0.361  0.324  0.355-  30 2.35  99 2.35  69 2.94
 142  0.746  0.247  0.071-  31 2.35 113 2.35 255 2.35  32 2.35
 143  0.631  0.170  0.213- 101 2.35 114 2.35  32 2.35  33 2.35
 144  0.515  0.093  0.355-  33 2.35 102 2.35  90 2.90
 145  0.900  0.016  0.071-   1 2.35  80 2.35 201 2.35   2 2.35
 146  0.784  0.940  0.213- 184 2.35   2 2.35 104 2.35   3 2.35
 147  0.439  0.213  0.465- 244 2.82 105 2.82 232 3.39
 148  0.669  0.863  0.071- 104 2.35  34 2.35 106 2.35  35 2.35
 149  0.554  0.786  0.213- 190 2.35  35 2.35 107 2.35  36 2.35
 150  0.438  0.709  0.355- 108 2.35  36 2.35
 151  0.605  0.046  0.805-  37 2.82 194 2.82 100 2.82 254 2.82
 152  0.707  0.555  0.213- 193 2.35  38 2.35  39 2.35 110 2.35
 153  0.592  0.478  0.355- 111 2.35  39 2.35  12 2.86
 154  0.939  0.713  0.805- 189 2.82 206 2.82 257 2.82 136 2.82
 155  0.861  0.324  0.213- 223 2.35 113 2.35   5 2.35   6 2.35
 156  0.746  0.247  0.355- 126 2.26 114 2.35   6 2.35
 157  0.272  0.713  0.465-  66 2.26 119 2.82 256 2.82
 158  0.105  0.713  0.635- 205 2.82 188 2.82 257 2.82 256 2.82
 159  0.977  0.401  0.071-  83 2.35 112 2.35   4 2.35   5 2.35
 160  0.400  0.516  0.355- 214 2.31 111 2.35  27 2.35
 161  0.105  0.379  0.635-  93 2.82 191 2.82 260 2.82 259 2.82
 162  0.939  0.379  0.805- 118 2.82 209 2.82 260 2.82 261 2.82
 163  0.131  0.170  0.355- 235 2.31  87 2.35  18 2.35
 164  0.105  0.046  0.635- 137 2.82 185 2.82 263 2.82 262 2.82
 165  0.939  0.046  0.805-   7 2.82 203 2.82 263 2.82  43 2.82
 166  0.605  0.713  0.465-  78 2.31 196 2.82 138 2.82
 167  0.439  0.713  0.635- 197 2.82 119 2.82 239 2.82 138 2.82
 168  0.573  0.382  0.142-  58 2.35 140 2.35 139 2.35  71 2.35
 169  0.919  0.613  0.284-  41 2.35 123 2.35 229 2.35 122 2.35
 170  0.439  0.379  0.635- 242 2.82 200 2.82 105 2.82 241 2.82
 171  0.272  0.379  0.805- 103 2.82 242 2.82 191 2.82 243 2.82
 172  0.188  0.959  0.284- 134 2.35 211 2.35 178 2.35  47 2.35
 173  0.439  0.046  0.635- 194 2.82  81 2.82 245 2.82 244 2.82
 174  0.207  0.555  0.071-  95 2.35  82 2.35  13 2.35  14 2.35
 175  0.939  0.713  0.465- 247 2.82 205 2.82  51 3.39 135 3.39 229 3.48
 176  0.772  0.713  0.635- 248 2.82 206 2.82 196 2.82 247 2.82
 177  0.054  0.786  0.071-  92 2.35 115 2.35  10 2.35  11 2.35
 178  0.092  0.978  0.355-   9 2.35 172 2.35  54 2.86
 179  0.772  0.379  0.635- 251 2.82 209 2.82 199 2.82 250 2.82
 180  0.265  0.843  0.142-  52 2.35 134 2.35 133 2.35  65 2.35
 181  0.784  0.440  0.355-  39 2.35 223 2.35  84 2.97
 182  0.772  0.046  0.635- 254 2.82 203 2.82 117 2.82 253 2.82
 183  0.823  0.632  0.071- 116 2.35 204 2.35  38 2.35 109 2.35
 184  0.804  0.036  0.284-  75 2.35 146 2.35 120 2.35  74 2.35
 185  0.189  0.963  0.720- 164 2.82 212 2.82 124 2.82 213 2.82
 186  0.227  0.151  0.000-  94 2.27 192 2.35  46 2.35
 187  0.015  0.093  0.213-  87 2.35  80 2.35   8 2.35   9 2.35
 188  0.189  0.629  0.720- 158 2.82  29 2.82 215 2.82 216 2.82
 189  0.022  0.629  0.890- 154 2.82 216 2.82 204 2.93  82 2.94
 190  0.573  0.882  0.284- 149 2.35  62 2.35 217 2.35  63 2.35
 191  0.189  0.296  0.720- 218 2.82 161 2.82 219 2.82 171 2.82
 192  0.131  0.170  0.071-  86 2.35 186 2.35 240 2.35   8 2.35
 193  0.727  0.651  0.284- 152 2.35 123 2.35  78 2.35  77 2.35
 194  0.522  0.963  0.720- 173 2.82 151 2.82 221 2.82 222 2.82
 195  0.355  0.963  0.890- 249 2.31 124 2.82 222 2.82
 196  0.689  0.629  0.550- 166 2.82 176 2.82  84 2.82 224 2.82
 197  0.522  0.629  0.720- 167 2.82 121 2.82 224 2.82 225 2.82
 198  0.265  0.343  0.000- 127 2.35 264 2.35 103 2.90 243 3.48
 199  0.689  0.296  0.550-  12 2.82 126 2.82 227 2.82 179 2.82
 200  0.522  0.296  0.720- 227 2.82 170 2.82 228 2.82  23 2.82
 201  0.804  0.036  0.000-  61 2.35 145 2.35  43 2.97  37 3.39
 202  0.323  0.632  0.213- 108 2.35  95 2.35  26 2.35  27 2.35
 203  0.855  0.963  0.720- 165 2.82 182 2.82 231 2.82 230 2.82
 204  0.919  0.613  0.000-  40 2.35 183 2.35 189 2.93
 205  0.022  0.629  0.550- 158 2.82 175 2.82 233 2.82  72 2.82
 206  0.855  0.629  0.720- 154 2.82 176 2.82  16 2.82 233 2.82
 207  0.534  0.690  0.000- 258 2.35  67 2.35  22 2.97
 208  0.957  0.805  0.284- 122 2.35  51 2.35 135 2.35  50 2.35
 209  0.855  0.296  0.720- 162 2.82 237 2.82 236 2.82 179 2.82
 210  0.689  0.296  0.890- 255 2.31  23 2.82 237 2.82
 211  0.284  0.940  0.355-  21 2.35 172 2.35 129 2.97
 212  0.272  0.879  0.635- 256 2.82 239 2.82 185 2.82  81 2.82
 213  0.105  0.879  0.805- 257 2.82  79 2.82 185 2.82   7 2.82
 214  0.439  0.546  0.465- 160 2.31 241 2.82 119 2.82
 215  0.272  0.546  0.635- 259 2.82 242 2.82 188 2.82 119 2.82
 216  0.105  0.546  0.805- 260 2.82 243 2.82 188 2.82 189 2.82
 217  0.669  0.863  0.355-   3 2.35 190 2.35 220 2.93
 218  0.272  0.213  0.635- 191 2.82 262 2.82 245 2.82 105 2.82
 219  0.105  0.213  0.805- 263 2.82  94 2.82 191 2.82 118 2.82
 220  0.772  0.879  0.465- 247 2.82 117 2.82 217 2.93  51 2.94
 221  0.605  0.879  0.635- 138 2.82 248 2.82 194 2.82 117 2.82
 222  0.439  0.879  0.805- 239 2.82  22 2.82 194 2.82 195 2.82
 223  0.881  0.420  0.284- 155 2.35 181 2.35 226 2.35  41 2.35
 224  0.605  0.546  0.635- 241 2.82 197 2.82 251 2.82 196 2.82
 225  0.439  0.546  0.805- 242 2.82 252 2.82 197 2.82  85 2.82
 226  0.977  0.401  0.355-  48 2.27 223 2.35  15 2.35
 227  0.605  0.213  0.635- 200 2.82 244 2.82 199 2.82 254 2.82
 228  0.439  0.213  0.805- 200 2.82 245 2.82 100 2.82 103 2.82
 229  0.015  0.593  0.355- 169 2.35  96 2.35  72 2.90 175 3.48
 230  0.939  0.879  0.635- 257 2.82 247 2.82 137 2.82 203 2.82
 231  0.772  0.879  0.805- 136 2.82 248 2.82 203 2.82  37 2.82
 232  0.554  0.286  0.355- 114 2.35  30 2.35  12 2.97 147 3.39
 233  0.939  0.546  0.635- 260 2.82 250 2.82 205 2.82 206 2.82
 234  0.457  0.305  0.000- 127 2.35  58 2.35 103 2.91
 235  0.105  0.213  0.465- 163 2.31 262 2.82  93 2.82
 236  0.939  0.213  0.635- 263 2.82  93 2.82 209 2.82 253 2.82
 237  0.772  0.213  0.805-  43 2.82 209 2.82 254 2.82 210 2.82
 238  0.207  0.555  0.355-  96 2.35  27 2.35  72 2.91
 239  0.355  0.796  0.720- 222 2.82 212 2.82 167 2.82  29 2.82
 240  0.034  0.190  0.000-  73 2.35 192 2.35 118 2.97
 241  0.522  0.463  0.550- 214 2.82 224 2.82  12 2.82 170 2.82
 242  0.355  0.463  0.720- 225 2.82 170 2.82 215 2.82 171 2.82
 243  0.189  0.463  0.890- 216 2.82 171 2.82  82 3.39  13 3.39 198 3.48
 244  0.522  0.129  0.550- 147 2.82 227 2.82  90 2.82 173 2.82
 245  0.355  0.129  0.720- 173 2.82 124 2.82 228 2.82 218 2.82
 246  0.342  0.728  0.000- 258 2.35  52 2.35  85 2.86
 247  0.855  0.796  0.550- 175 2.82 220 2.82 230 2.82 176 2.82
 248  0.689  0.796  0.720- 231 2.82 176 2.82 221 2.82 121 2.82
 249  0.381  0.920  0.000- 195 2.31 133 2.35  64 2.35
 250  0.855  0.463  0.550-  48 2.82  84 2.82 233 2.82 179 2.82
 251  0.689  0.463  0.720- 179 2.82  16 2.82 224 2.82  23 2.82
 252  0.522  0.463  0.890-  97 2.26 225 2.82  23 2.82
 253  0.855  0.129  0.550-  42 2.82 126 2.82 236 2.82 182 2.82
 254  0.689  0.129  0.720- 182 2.82 237 2.82 227 2.82 151 2.82
 255  0.650  0.266  0.000- 210 2.31  58 2.35 142 2.35
 256  0.189  0.796  0.550-  54 2.82 212 2.82 157 2.82 158 2.82
 257  0.022  0.796  0.720- 230 2.82 154 2.82 213 2.82 158 2.82
 258  0.438  0.709  0.071- 107 2.35 246 2.35 207 2.35  26 2.35
 259  0.189  0.463  0.550-  72 2.82 215 2.82  69 2.82 161 2.82
 260  0.022  0.463  0.720- 233 2.82 162 2.82 216 2.82 161 2.82
 261  0.855  0.463  0.890- 112 2.31  16 2.82 162 2.82
 262  0.189  0.129  0.550- 235 2.82 218 2.82 129 2.82 164 2.82
 263  0.022  0.129  0.720- 236 2.82 165 2.82 164 2.82 219 2.82
 264  0.169  0.363  0.071-  14 2.35   4 2.35  86 2.35 198 2.35
 
  LATTYP: Found a simple tetragonal cell.
 ALAT       =    19.5817508700
 C/A-ratio  =     0.9754107470
  
  Lattice vectors:
  
 A1 = (  19.5817508700,   0.0000000000,   0.0000000000)
 A2 = (   0.0000000000,  19.5817489620,   0.0000000000)
 A3 = (   0.0000000000,   0.0000000000,  19.1002502440)


Analysis of symmetry for initial positions (statically):
=====================================================================
 Subroutine PRICEL returns:
 Original cell was already a primitive cell.
 

 Routine SETGRP: Setting up the symmetry group for a 
 simple tetragonal supercell.


 Subroutine GETGRP returns: Found  1 space group operations
 (whereof  1 operations were pure point group operations)
 out of a pool of 16 trial point group operations.


The static configuration has the point symmetry C_1 .


Analysis of symmetry for dynamics (positions and initial velocities):
=====================================================================
 Subroutine PRICEL returns:
 Original cell was already a primitive cell.
 

 Routine SETGRP: Setting up the symmetry group for a 
 simple tetragonal supercell.


 Subroutine GETGRP returns: Found  1 space group operations
 (whereof  1 operations were pure point group operations)
 out of a pool of 16 trial point group operations.


The dynamic configuration has the point symmetry C_1 .


Analysis of structural, dynamic, and magnetic symmetry:
=====================================================================
 Subroutine PRICEL returns:
 Original cell was already a primitive cell.
 

 Routine SETGRP: Setting up the symmetry group for a 
 simple tetragonal supercell.


 Subroutine GETGRP returns: Found  1 space group operations
 (whereof  1 operations were pure point group operations)
 out of a pool of 16 trial point group operations.


The overall configuration has the point symmetry C_1 .


 Subroutine INISYM returns: Found  1 space group operations
 (whereof  1 operations are pure point group operations),
 and found     1 'primitive' translations


----------------------------------------------------------------------------------------

                                     Primitive cell                                     

  volume of cell :    7323.8941

  direct lattice vectors                    reciprocal lattice vectors
    19.581750870  0.000000000  0.000000000     0.051067956  0.000000000  0.000000000
     0.000000000 19.581748962  0.000000000     0.000000000  0.051067961  0.000000000
     0.000000000  0.000000000 19.100250244     0.000000000  0.000000000  0.052355335

  length of vectors
    19.581750870 19.581748962 19.100250244     0.051067956  0.051067961  0.052355335

  position of ions in fractional coordinates (direct lattice)
     0.995893002  0.997262001  0.000000000
     0.880508363  0.920338869  0.142170906
     0.765123725  0.843415737  0.284341902
     0.072816126  0.381877452  0.000000000
     0.957431436  0.304954290  0.142170906
     0.842046797  0.228031158  0.284341902
     0.021958113  0.962820590  0.890053868
     0.111277618  0.074185051  0.142170906
     0.995892942  0.997261941  0.284341902
     0.149739221  0.766492844  0.000000000
     0.034354534  0.689569712  0.142170906
     0.605291545  0.379487187  0.465373576
     0.303585410  0.535723567  0.000000000
     0.188200727  0.458800435  0.142170906
     0.072816066  0.381877303  0.284341902
     0.771958292  0.546153843  0.805117786
     0.342046857  0.228031203  0.142170906
     0.226662204  0.151108071  0.284341902
     0.611277699  0.074185103  0.000000000
     0.495893002  0.997261941  0.142170906
     0.380508363  0.920338809  0.284341902
     0.521958232  0.796153903  0.890053868
     0.605291545  0.379487187  0.805117786
     0.149739176  0.766492724  0.284341902
     0.688624859  0.629487276  0.890053868
     0.418969929  0.612646580  0.142170906
     0.303585261  0.535723448  0.284341902
     0.688200712  0.458800495  0.000000000
     0.271958232  0.712820530  0.805117786
     0.457431376  0.304954231  0.284341902
     0.842046916  0.228031188  0.000000000
     0.726662278  0.151108041  0.142170906
     0.611277580  0.074184909  0.284341902
     0.765123904  0.843415856  0.000000000
     0.649739265  0.766492724  0.142170906
     0.534354568  0.689569592  0.284341902
     0.688624859  0.962820590  0.890053868
     0.803585410  0.535723507  0.142170906
     0.688200712  0.458800375  0.284341902
     0.015123837  0.593415856  0.071085475
     0.899739206  0.516492724  0.213256419
     0.938624859  0.046153847  0.465373576
     0.855291486  0.129487187  0.890053868
     0.053585295  0.285723537  0.213256419
     0.938200593  0.208800375  0.355427384
     0.322816133  0.131877407  0.071085475
     0.207431450  0.054954268  0.213256419
     0.938624859  0.379487187  0.465373576
     0.092046887  0.978031278  0.071085475
     0.976662219  0.901108146  0.213256419
     0.861277521  0.824185014  0.355427384
     0.245893061  0.747262061  0.071085475
     0.130508408  0.670338929  0.213256419
     0.105291605  0.879487157  0.465373576
     0.399739265  0.516492844  0.071085475
     0.284354597  0.439569682  0.213256419
     0.168969929  0.362646550  0.355427384
     0.553585410  0.285723537  0.071085475
     0.438200712  0.208800390  0.213256419
     0.322816044  0.131877258  0.355427384
     0.707431555  0.054954302  0.071085475
     0.592046857  0.978031158  0.213256419
     0.476662189  0.901108027  0.355427384
     0.476662397  0.901108205  0.071085475
     0.361277699  0.824185073  0.213256419
     0.245893002  0.747261941  0.355427384
     0.630508542  0.670338988  0.071085475
     0.515123844  0.593415797  0.213256419
     0.271958232  0.379487187  0.465373576
     0.784354687  0.439569712  0.071085475
     0.668969989  0.362646550  0.213256419
     0.105291605  0.546153843  0.465373576
     0.938200831  0.208800495  0.071085475
     0.822816133  0.131877348  0.213256419
     0.707431436  0.054954205  0.355427384
     0.861277878  0.824185133  0.071085475
     0.745893180  0.747262001  0.213256419
     0.630508423  0.670338809  0.355427384
     0.188624859  0.796153903  0.890053868
     0.918969929  0.112646602  0.142170906
     0.355291516  0.962820590  0.550309598
     0.111277662  0.574185073  0.000000000
     0.995893002  0.497262001  0.142170906
     0.771958232  0.546153843  0.465373576
     0.355291486  0.629487276  0.890053868
     0.149739191  0.266492784  0.142170906
     0.034354493  0.189569652  0.284341902
     0.418969989  0.112646602  0.000000000
     0.303585321  0.035723474  0.142170906
     0.605291545  0.046153847  0.465373576
     0.188200757  0.958800435  0.000000000
     0.072816059  0.881877303  0.142170906
     0.021958232  0.296153843  0.550309598
     0.188624859  0.129487187  0.890053868
     0.226662233  0.651108146  0.142170906
     0.111277573  0.574185014  0.284341902
     0.495893091  0.497262001  0.000000000
     0.380508423  0.420338869  0.142170906
     0.265123725  0.343415737  0.284341902
     0.521958232  0.129487187  0.890053868
     0.534354627  0.189569652  0.142170906
     0.418969929  0.112646520  0.284341902
     0.355291486  0.296153843  0.890053868
     0.688200712  0.958800435  0.142170906
     0.355291516  0.296153843  0.550309598
     0.572816133  0.881877363  0.000000000
     0.457431436  0.804954290  0.142170906
     0.342046797  0.728031099  0.284341902
     0.726662338  0.651108146  0.000000000
     0.611277640  0.574185014  0.142170906
     0.495892942  0.497261852  0.284341902
     0.880508482  0.420338988  0.000000000
     0.765123844  0.343415856  0.142170906
     0.649739146  0.266492724  0.284341902
     0.957431614  0.804954290  0.000000000
     0.842046916  0.728031158  0.142170906
     0.688624859  0.962820590  0.550309598
     0.021958113  0.296153843  0.890053868
     0.355291516  0.629487276  0.550309598
     0.899739087  0.016492693  0.355427384
     0.605291545  0.712820530  0.805117786
     0.938200712  0.708800435  0.213256419
     0.822816014  0.631877303  0.355427384
     0.271958232  0.046153847  0.805117786
     0.092046872  0.478031248  0.213256419
     0.771958232  0.212820515  0.465373576
     0.361277699  0.324185133  0.071085475
     0.245893031  0.247262001  0.213256419
     0.271958232  0.046153847  0.465373576
     0.515123844  0.093415849  0.071085475
     0.399739206  0.016492724  0.213256419
     0.438624859  0.879487157  0.465373576
     0.284354657  0.939569831  0.071085475
     0.168969989  0.862646639  0.213256419
     0.053585291  0.785723507  0.355427384
     0.855291486  0.796153903  0.890053868
     0.021958232  0.962820590  0.550309598
     0.521958172  0.796153903  0.550309598
     0.592046976  0.478031278  0.071085475
     0.476662278  0.401108146  0.213256419
     0.361277610  0.324185014  0.355427384
     0.745893121  0.247262001  0.071085475
     0.630508423  0.170338869  0.213256419
     0.515123785  0.093415722  0.355427384
     0.899739265  0.016492788  0.071085475
     0.784354568  0.939569652  0.213256419
     0.438624859  0.212820515  0.465373576
     0.668970108  0.862646759  0.071085475
     0.553585410  0.785723627  0.213256419
     0.438200712  0.708800495  0.355427384
     0.605291545  0.046153847  0.805117786
     0.707431555  0.554954290  0.213256419
     0.592046797  0.478031129  0.355427384
     0.938624859  0.712820530  0.805117786
     0.861277580  0.324185073  0.213256419
     0.745892882  0.247261927  0.355427384
     0.271958232  0.712820530  0.465373576
     0.105291486  0.712820530  0.635245681
     0.976662278  0.401108235  0.071085475
     0.399739146  0.516492665  0.355427384
     0.105291486  0.379487187  0.635245681
     0.938624859  0.379487187  0.805117786
     0.130508333  0.170338854  0.355427384
     0.105291486  0.046153847  0.635245681
     0.938624859  0.046153847  0.805117786
     0.605291545  0.712820530  0.465373576
     0.438624829  0.712820530  0.635245681
     0.572816074  0.381877363  0.142170906
     0.918969870  0.612646580  0.284341902
     0.438624829  0.379487187  0.635245681
     0.271958232  0.379487187  0.805117786
     0.188200638  0.958800316  0.284341902
     0.438624829  0.046153847  0.635245681
     0.207431525  0.554954410  0.071085475
     0.938624859  0.712820530  0.465373576
     0.771958232  0.712820530  0.635245681
     0.053585343  0.785723627  0.071085475
     0.092046767  0.978031158  0.355427384
     0.771958232  0.379487187  0.635245681
     0.265123844  0.843415916  0.142170906
     0.784354508  0.439569622  0.355427384
     0.771958232  0.046153847  0.635245681
     0.822816253  0.631877422  0.071085475
     0.803585231  0.035723470  0.284341902
     0.188624859  0.962820590  0.720181704
     0.226662278  0.151108176  0.000000000
     0.015123768  0.093415834  0.213256419
     0.188624859  0.629487276  0.720181704
     0.021958113  0.629487276  0.890053868
     0.572816074  0.881877303  0.284341902
     0.188624859  0.296153843  0.720181704
     0.130508438  0.170338959  0.071085475
     0.726662278  0.651108027  0.284341902
     0.521958172  0.962820590  0.720181704
     0.355291486  0.962820590  0.890053868
     0.688624859  0.629487276  0.550309598
     0.521958172  0.629487276  0.720181704
     0.265123844  0.343415916  0.000000000
     0.688624859  0.296153843  0.550309598
     0.521958172  0.296153843  0.720181704
     0.803585410  0.035723574  0.000000000
     0.322816074  0.631877422  0.213256419
     0.855291605  0.962820590  0.720181704
     0.918970048  0.612646639  0.000000000
     0.021958232  0.629487276  0.550309598
     0.855291605  0.629487276  0.720181704
     0.534354627  0.689569712  0.000000000
     0.957431376  0.804954231  0.284341902
     0.855291605  0.296153843  0.720181704
     0.688624859  0.296153843  0.890053868
     0.284354508  0.939569533  0.355427384
     0.271958113  0.879487157  0.635245681
     0.105291486  0.879487157  0.805117786
     0.438624859  0.546153843  0.465373576
     0.271958113  0.546153843  0.635245681
     0.105291486  0.546153843  0.805117786
     0.668969929  0.862646520  0.355427384
     0.271958113  0.212820515  0.635245681
     0.105291486  0.212820515  0.805117786
     0.771958232  0.879487157  0.465373576
     0.605291486  0.879487157  0.635245681
     0.438624859  0.879487157  0.805117786
     0.880508304  0.420338839  0.284341902
     0.605291486  0.546153843  0.635245681
     0.438624859  0.546153843  0.805117786
     0.976662159  0.401108086  0.355427384
     0.605291486  0.212820515  0.635245681
     0.438624859  0.212820515  0.805117786
     0.015123715  0.593415797  0.355427384
     0.938624978  0.879487157  0.635245681
     0.771958292  0.879487157  0.805117786
     0.553585291  0.285723418  0.355427384
     0.938624978  0.546153843  0.635245681
     0.457431555  0.304954350  0.000000000
     0.105291605  0.212820515  0.465373576
     0.938624978  0.212820515  0.635245681
     0.771958292  0.212820515  0.805117786
     0.207431406  0.554954290  0.355427384
     0.355291516  0.796153903  0.720181704
     0.034354586  0.189569741  0.000000000
     0.521958172  0.462820560  0.550309598
     0.355291516  0.462820560  0.720181704
     0.188624859  0.462820560  0.890053868
     0.521958172  0.129487187  0.550309598
     0.355291516  0.129487187  0.720181704
     0.342046916  0.728031278  0.000000000
     0.855291605  0.796153903  0.550309598
     0.688624978  0.796153903  0.720181704
     0.380508512  0.920339048  0.000000000
     0.855291605  0.462820560  0.550309598
     0.688624978  0.462820560  0.720181704
     0.521958232  0.462820560  0.890053868
     0.855291605  0.129487187  0.550309598
     0.688624978  0.129487187  0.720181704
     0.649739265  0.266492784  0.000000000
     0.188624859  0.796153903  0.550309598
     0.021958113  0.796153903  0.720181704
     0.438200772  0.708800614  0.071085475
     0.188624859  0.462820560  0.550309598
     0.021958113  0.462820560  0.720181704
     0.855291486  0.462820560  0.890053868
     0.188624859  0.129487187  0.550309598
     0.021958113  0.129487187  0.720181704
     0.168969959  0.362646669  0.071085475

  ion indices of the primitive-cell ions
   primitive index   ion index
                 1           1
                 2           2
                 3           3
                 4           4
                 5           5
                 6           6
                 7           7
                 8           8
                 9           9
                10          10
                11          11
                12          12
                13          13
                14          14
                15          15
                16          16
                17          17
                18          18
                19          19
                20          20
                21          21
                22          22
                23          23
                24          24
                25          25
                26          26
                27          27
                28          28
                29          29
                30          30
                31          31
                32          32
                33          33
                34          34
                35          35
                36          36
                37          37
                38          38
                39          39
                40          40
                41          41
                42          42
                43          43
                44          44
                45          45
                46          46
                47          47
                48          48
                49          49
                50          50
                51          51
                52          52
                53          53
                54          54
                55          55
                56          56
                57          57
                58          58
                59          59
                60          60
                61          61
                62          62
                63          63
                64          64
                65          65
                66          66
                67          67
                68          68
                69          69
                70          70
                71          71
                72          72
                73          73
                74          74
                75          75
                76          76
                77          77
                78          78
                79          79
                80          80
                81          81
                82          82
                83          83
                84          84
                85          85
                86          86
                87          87
                88          88
                89          89
                90          90
                91          91
                92          92
                93          93
                94          94
                95          95
                96          96
                97          97
                98          98
                99          99
               100         100
               101         101
               102         102
               103         103
               104         104
               105         105
               106         106
               107         107
               108         108
               109         109
               110         110
               111         111
               112         112
               113         113
               114         114
               115         115
               116         116
               117         117
               118         118
               119         119
               120         120
               121         121
               122         122
               123         123
               124         124
               125         125
               126         126
               127         127
               128         128
               129         129
               130         130
               131         131
               132         132
               133         133
               134         134
               135         135
               136         136
               137         137
               138         138
               139         139
               140         140
               141         141
               142         142
               143         143
               144         144
               145         145
               146         146
               147         147
               148         148
               149         149
               150         150
               151         151
               152         152
               153         153
               154         154
               155         155
               156         156
               157         157
               158         158
               159         159
               160         160
               161         161
               162         162
               163         163
               164         164
               165         165
               166         166
               167         167
               168         168
               169         169
               170         170
               171         171
               172         172
               173         173
               174         174
               175         175
               176         176
               177         177
               178         178
               179         179
               180         180
               181         181
               182         182
               183         183
               184         184
               185         185
               186         186
               187         187
               188         188
               189         189
               190         190
               191         191
               192         192
               193         193
               194         194
               195         195
               196         196
               197         197
               198         198
               199         199
               200         200
               201         201
               202         202
               203         203
               204         204
               205         205
               206         206
               207         207
               208         208
               209         209
               210         210
               211         211
               212         212
               213         213
               214         214
               215         215
               216         216
               217         217
               218         218
               219         219
               220         220
               221         221
               222         222
               223         223
               224         224
               225         225
               226         226
               227         227
               228         228
               229         229
               230         230
               231         231
               232         232
               233         233
               234         234
               235         235
               236         236
               237         237
               238         238
               239         239
               240         240
               241         241
               242         242
               243         243
               244         244
               245         245
               246         246
               247         247
               248         248
               249         249
               250         250
               251         251
               252         252
               253         253
               254         254
               255         255
               256         256
               257         257
               258         258
               259         259
               260         260
               261         261
               262         262
               263         263
               264         264

----------------------------------------------------------------------------------------

 
 
 KPOINTS: Automatic KPOINTS generated             

Automatic generation of k-mesh.
 Grid dimensions read from file:
 generate k-points for:    2    2    2

 Generating k-lattice:

  Cartesian coordinates                     Fractional coordinates (reciprocal lattice)
     0.025533978  0.000000000  0.000000000     0.500000000  0.000000000  0.000000000
     0.000000000  0.025533981  0.000000000     0.000000000  0.500000000  0.000000000
     0.000000000  0.000000000  0.026177667     0.000000000  0.000000000  0.500000000

  Length of vectors
     0.025533978  0.025533981  0.026177667

  Shift w.r.t. Gamma in fractional coordinates (k-lattice)
     0.000000000  0.000000000  0.000000000

 
 Subroutine IBZKPT returns following result:
 ===========================================
 
 Found      8 irreducible k-points:
 
 Following reciprocal coordinates:
            Coordinates               Weight
  0.000000  0.000000  0.000000      1.000000
  0.500000  0.000000  0.000000      1.000000
  0.000000  0.500000  0.000000      1.000000
  0.500000  0.500000  0.000000      1.000000
  0.000000  0.000000  0.500000      1.000000
  0.500000  0.000000  0.500000      1.000000
  0.000000  0.500000  0.500000      1.000000
  0.500000  0.500000  0.500000      1.000000
 
 Following cartesian coordinates:
            Coordinates               Weight
  0.000000  0.000000  0.000000      1.000000
  0.025534  0.000000  0.000000      1.000000
  0.000000  0.025534  0.000000      1.000000
  0.025534  0.025534  0.000000      1.000000
  0.000000  0.000000  0.026178      1.000000
  0.025534  0.000000  0.026178      1.000000
  0.000000  0.025534  0.026178      1.000000
  0.025534  0.025534  0.026178      1.000000
 
 -----------------------------------------------------------------------------
|                                                                             |
|           W    W    AA    RRRRR   N    N  II  N    N   GGGG   !!!           |
|           W    W   A  A   R    R  NN   N  II  NN   N  G    G  !!!           |
|           W    W  A    A  R    R  N N  N  II  N N  N  G       !!!           |
|           W WW W  AAAAAA  RRRRR   N  N N  II  N  N N  G  GGG   !            |
|           WW  WW  A    A  R   R   N   NN  II  N   NN  G    G                |
|           W    W  A    A  R    R  N    N  II  N    N   GGGG   !!!           |
|                                                                             |
|     The number of bands has been changed from the values supplied in        |
|     the INCAR file. This is a result of running the parallel version.       |
|     The orbitals not found in the WAVECAR file will be initialized with     |
|     random numbers, which is usually adequate. For correlated               |
|     calculations, however, you should redo the groundstate calculation.     |
|     I found NBANDS = 634. Now, NBANDS = 636.                                |
|                                                                             |
 -----------------------------------------------------------------------------



--------------------------------------------------------------------------------------------------------




 Dimension of arrays:
   k-points           NKPTS =      8   k-points in BZ     NKDIM =      8   number of bands    NBANDS=    636
   number of dos      NEDOS =    301   number of ions     NIONS =    264
   non local maximal  LDIM  =      5   non local SUM 2l+1 LMDIM =     13
   total plane-waves  NPLWV = ******
   max r-space proj   IRMAX =   4693   max aug-charges    IRDMAX= 217232
   dimension x,y,z NGX =   128 NGY =  128 NGZ =  126
   dimension x,y,z NGXF=   256 NGYF=  256 NGZF=  252
   support grid    NGXF=   512 NGYF=  512 NGZF=  504
   ions per type =             156 108
   NGX,Y,Z   is equivalent  to a cutoff of  10.87, 10.87, 10.97 a.u.
   NGXF,Y,Z  is equivalent  to a cutoff of  21.73, 21.73, 21.93 a.u.

 SYSTEM =  Si and Ge interface calculation         
 POSCAR =  Si+Sn                                   

 Startparameter for this run:
   NWRITE =      2    write-flag & timer
   PREC   = normal    normal or accurate (medium, high low for compatibility)
   ISTART =      0    job   : 0-new  1-cont  2-samecut
   ICHARG =      2    charge: 1-file 2-atom 10-const
   ISPIN  =      2    spin polarized calculation?
   LNONCOLLINEAR =      F non collinear calculations
   LSORBIT =      F    spin-orbit coupling
   INIWAV =      1    electr: 0-lowe 1-rand  2-diag
   LASPH  =      T    aspherical Exc in radial PAW
 Electronic Relaxation 1
   ENCUT  =  700.0 eV  51.45 Ry    7.17 a.u.  42.24 42.24 41.20*2*pi/ulx,y,z
   ENINI  =  700.0     initial cutoff
   ENAUG  =  900.0 eV  augmentation charge cutoff
   NELM   =    100;   NELMIN=  2; NELMDL= -5     # of ELM steps 
   EDIFF  = 0.1E-06   stopping-criterion for ELM
   LREAL  =      T    real-space projection
   NLSPLINE    = F    spline interpolate recip. space projectors
   LCOMPAT=      F    compatible to vasp.4.4
   GGA_COMPAT  = T    GGA compatible to vasp.4.4-vasp.4.6
   LMAXPAW     = -100 max onsite density
   LMAXMIX     =    6 max onsite mixed and CHGCAR
   VOSKOWN=      0    Vosko Wilk Nusair interpolation
   ROPT   =   -0.00050  -0.00050
 Ionic relaxation
   EDIFFG = 0.1E-05   stopping-criterion for IOM
   NSW    =      0    number of steps for IOM
   NBLOCK =      1;   KBLOCK =      1    inner block; outer block 
   IBRION =     -1    ionic relax: 0-MD 1-quasi-New 2-CG
   NFREE  =      0    steps in history (QN), initial steepest desc. (CG)
   ISIF   =      2    stress and relaxation
   IWAVPR =     10    prediction:  0-non 1-charg 2-wave 3-comb
   ISYM   =      2    0-nonsym 1-usesym 2-fastsym
   LCORR  =      T    Harris-Foulkes like correction to forces

   POTIM  = 0.5000    time-step for ionic-motion
   TEIN   =    0.0    initial temperature
   TEBEG  =    0.0;   TEEND  =   0.0 temperature during run
   SMASS  =  -3.00    Nose mass-parameter (am)
   estimated Nose-frequenzy (Omega)   =  0.10E-29 period in steps = 0.13E+47 mass=  -0.876E-26a.u.
   SCALEE = 1.0000    scale energy and forces
   NPACO  =    256;   APACO  = 10.0  distance and # of slots for P.C.
   PSTRESS=    0.0 pullay stress

  Mass of Ions in am
   POMASS =  28.09118.71
  Ionic Valenz
   ZVAL   =   4.00  4.00
  Atomic Wigner-Seitz radii
   RWIGS  =  -1.00 -1.00
  virtual crystal weights 
   VCA    =   1.00  1.00
   NELECT =    1056.0000    total number of electrons
   NUPDOWN=       1.0000    fix difference up-down

 DOS related values:
   EMIN   =  10.00;   EMAX   =-10.00  energy-range for DOS
   EFERMI =   0.00;   METHOD = LEGACY      
   ISMEAR =     0;   SIGMA  =   0.01  broadening in eV -4-tet -1-fermi 0-gaus

 Electronic relaxation 2 (details)
   IALGO  =     38    algorithm
   LDIAG  =      T    sub-space diagonalisation (order eigenvalues)
   LSUBROT=      F    optimize rotation matrix (better conditioning)
   TURBO    =      0    0=normal 1=particle mesh
   IRESTART =      0    0=no restart 2=restart with 2 vectors
   NREBOOT  =      0    no. of reboots
   NMIN     =      0    reboot dimension
   EREF     =   0.00    reference energy to select bands
   IMIX   =      4    mixing-type and parameters
     AMIX     =   0.60;   BMIX     =  1.00
     AMIX_MAG =   2.40;   BMIX_MAG =  1.00
     AMIN     =   0.10
     WC   =   100.;   INIMIX=   1;  MIXPRE=   1;  MAXMIX= -45

 Intra band minimization:
   WEIMIN = 0.0000     energy-eigenvalue tresh-hold
   EBREAK =  0.39E-10  absolut break condition
   DEPER  =   0.30     relativ break condition  

   TIME   =   0.40     timestep for ELM

  volume/ion in A,a.u.               =      27.74       187.21
  Fermi-wavevector in a.u.,A,eV,Ry     =   0.858451  1.622237 10.026649  0.736938
  Thomas-Fermi vector in A             =   1.975657
 
 Write flags
   LWAVE        =      F    write WAVECAR
   LDOWNSAMPLE  =      F    k-point downsampling of WAVECAR
   LCHARG       =      T    write CHGCAR
   LVTOT        =      F    write LOCPOT, total local potential
   LVHAR        =      T    write LOCPOT, Hartree potential only
   WRT_POTENTIAL=  hartree ionic  ! write potential to hdf5 file
   LELF         =      F    write electronic localiz. function (ELF)
   LORBIT       =      0    0 simple, 1 ext, 2 COOP (PROOUT), +10 PAW based schemes


 Dipole corrections
   LMONO      =      F    monopole corrections only (constant potential shift)
   LDIPOL     =      F    correct potential (dipole corrections)
   IDIPOL     =      0    1-x, 2-y, 3-z, 4-all directions 
   EPSILON    =  1.0000000 bulk dielectric constant
   LVACPOTAV  =      F  vacuum potentials using an averaging scheme for the charge density
   VACPOTFLAT =  0.1000000 required flatness to determine vacuum potential
 Exchange correlation treatment:
   GGA     = PE    functional components
   XC_C    = 1    coefficients multiplying the functional components
   LIBXC   =     F    Libxc                    
   VOSKOWN =     0    Vosko Wilk Nusair interpolation
   LHFCALC =     F    Hartree Fock is set to
   LHFONE  =     F    Hartree Fock one center treatment
   AEXX    =    0.0000 exact exchange contribution

 Parameters of functionals:
   PE:
     No parameter
 
 Van der Waals corrections
   IVDW    =     0    specifies the selected vdW correction

 Linear response parameters
   LEPSILON=     F    determine dielectric tensor
   LRPA    =     F    only Hartree local field effects (RPA)
   LNABLA  =     F    use nabla operator in PAW spheres
   LVEL    =     F    velocity operator in full k-point grid
   CSHIFT  =0.1000    complex shift for real part using Kramers Kronig
   OMEGAMAX=  -1.0    maximum frequency
   DEG_THRESHOLD= 0.2000000E-02 threshold for treating states as degnerate
   RTIME   =   -0.100 relaxation time in fs
  (WPLASMAI=    0.000 imaginary part of plasma frequency in eV, 0.658/RTIME)
   DFIELD  = 0.0000000 0.0000000 0.0000000 field for delta impulse in time
 
  Optional k-point grid parameters
   LKPOINTS_OPT  =     F    use optional k-point grid
   KPOINTS_OPT_MODE=     1    mode for optional k-point grid
 
 Orbital magnetization related:
   ORBITALMAG=     F  switch on orbital magnetization
   LCHIMAG   =     F  perturbation theory with respect to B field
   DQ        =  0.001000  dq finite difference perturbation B field
   LLRAUG    =     F  two centre corrections for induced B field
   LBONE     =     F  B-component reconstruction in AE one-centre
   LVGVCALC  =     T  calculate vGv susceptibility
   LVGVAPPL  =     F  apply vGv susceptibility instead of pGv for G=0

 Random number generation:
   RANDOM_GENERATOR = DEFAULT
   PCG_SEED         = not used


--------------------------------------------------------------------------------------------------------


 Static calculation
 charge density and potential will be updated during run
 spin polarized calculation
 Variant of blocked Davidson
 Davidson routine will perform the subspace rotation
 perform sub-space diagonalisation
    after iterative eigenvector-optimisation
 modified Broyden-mixing scheme, WC =      100.0
 initial mixing is a Kerker type mixing with AMIX =  0.6000 and BMIX =      1.0000
 Hartree-type preconditioning will be used
 using additional bands          108
 real space projection scheme for non local part
 use partial core corrections
 calculate Harris-corrections to forces 
   (improved forces if not selfconsistent)
 use gradient corrections 
 use of overlap-Matrix (Vanderbilt PP)
 Gauss-broadening in eV      SIGMA  =   0.01


--------------------------------------------------------------------------------------------------------


  energy-cutoff  :      700.00
  volume of cell :     7323.89
      direct lattice vectors                 reciprocal lattice vectors
    19.581750870  0.000000000  0.000000000     0.051067956  0.000000000  0.000000000
     0.000000000 19.581748962  0.000000000     0.000000000  0.051067961  0.000000000
     0.000000000  0.000000000 19.100250244     0.000000000  0.000000000  0.052355335

  length of vectors
    19.581750870 19.581748962 19.100250244     0.051067956  0.051067961  0.052355335


 
 k-points in units of 2pi/SCALE and weight: Automatic KPOINTS generated             
   0.00000000  0.00000000  0.00000000       0.125
   0.02553398  0.00000000  0.00000000       0.125
   0.00000000  0.02553398  0.00000000       0.125
   0.02553398  0.02553398  0.00000000       0.125
   0.00000000  0.00000000  0.02617767       0.125
   0.02553398  0.00000000  0.02617767       0.125
   0.00000000  0.02553398  0.02617767       0.125
   0.02553398  0.02553398  0.02617767       0.125
 
 k-points in reciprocal lattice and weights: Automatic KPOINTS generated             
   0.00000000  0.00000000  0.00000000       0.125
   0.50000000  0.00000000  0.00000000       0.125
   0.00000000  0.50000000  0.00000000       0.125
   0.50000000  0.50000000  0.00000000       0.125
   0.00000000  0.00000000  0.50000000       0.125
   0.50000000  0.00000000  0.50000000       0.125
   0.00000000  0.50000000  0.50000000       0.125
   0.50000000  0.50000000  0.50000000       0.125
 
 position of ions in fractional coordinates (direct lattice) 
   0.99589300  0.99726200  0.00000000
   0.88050836  0.92033887  0.14217091
   0.76512373  0.84341574  0.28434190
   0.07281613  0.38187745  0.00000000
   0.95743144  0.30495429  0.14217091
   0.84204680  0.22803116  0.28434190
   0.02195811  0.96282059  0.89005387
   0.11127762  0.07418505  0.14217091
   0.99589294  0.99726194  0.28434190
   0.14973922  0.76649284  0.00000000
   0.03435453  0.68956971  0.14217091
   0.60529155  0.37948719  0.46537358
   0.30358541  0.53572357  0.00000000
   0.18820073  0.45880044  0.14217091
   0.07281607  0.38187730  0.28434190
   0.77195829  0.54615384  0.80511779
   0.34204686  0.22803120  0.14217091
   0.22666220  0.15110807  0.28434190
   0.61127770  0.07418510  0.00000000
   0.49589300  0.99726194  0.14217091
   0.38050836  0.92033881  0.28434190
   0.52195823  0.79615390  0.89005387
   0.60529155  0.37948719  0.80511779
   0.14973918  0.76649272  0.28434190
   0.68862486  0.62948728  0.89005387
   0.41896993  0.61264658  0.14217091
   0.30358526  0.53572345  0.28434190
   0.68820071  0.45880049  0.00000000
   0.27195823  0.71282053  0.80511779
   0.45743138  0.30495423  0.28434190
   0.84204692  0.22803119  0.00000000
   0.72666228  0.15110804  0.14217091
   0.61127758  0.07418491  0.28434190
   0.76512390  0.84341586  0.00000000
   0.64973927  0.76649272  0.14217091
   0.53435457  0.68956959  0.28434190
   0.68862486  0.96282059  0.89005387
   0.80358541  0.53572351  0.14217091
   0.68820071  0.45880038  0.28434190
   0.01512384  0.59341586  0.07108547
   0.89973921  0.51649272  0.21325642
   0.93862486  0.04615385  0.46537358
   0.85529149  0.12948719  0.89005387
   0.05358529  0.28572354  0.21325642
   0.93820059  0.20880038  0.35542738
   0.32281613  0.13187741  0.07108547
   0.20743145  0.05495427  0.21325642
   0.93862486  0.37948719  0.46537358
   0.09204689  0.97803128  0.07108547
   0.97666222  0.90110815  0.21325642
   0.86127752  0.82418501  0.35542738
   0.24589306  0.74726206  0.07108547
   0.13050841  0.67033893  0.21325642
   0.10529160  0.87948716  0.46537358
   0.39973927  0.51649284  0.07108547
   0.28435460  0.43956968  0.21325642
   0.16896993  0.36264655  0.35542738
   0.55358541  0.28572354  0.07108547
   0.43820071  0.20880039  0.21325642
   0.32281604  0.13187726  0.35542738
   0.70743155  0.05495430  0.07108547
   0.59204686  0.97803116  0.21325642
   0.47666219  0.90110803  0.35542738
   0.47666240  0.90110820  0.07108547
   0.36127770  0.82418507  0.21325642
   0.24589300  0.74726194  0.35542738
   0.63050854  0.67033899  0.07108547
   0.51512384  0.59341580  0.21325642
   0.27195823  0.37948719  0.46537358
   0.78435469  0.43956971  0.07108547
   0.66896999  0.36264655  0.21325642
   0.10529160  0.54615384  0.46537358
   0.93820083  0.20880049  0.07108547
   0.82281613  0.13187735  0.21325642
   0.70743144  0.05495421  0.35542738
   0.86127788  0.82418513  0.07108547
   0.74589318  0.74726200  0.21325642
   0.63050842  0.67033881  0.35542738
   0.18862486  0.79615390  0.89005387
   0.91896993  0.11264660  0.14217091
   0.35529152  0.96282059  0.55030960
   0.11127766  0.57418507  0.00000000
   0.99589300  0.49726200  0.14217091
   0.77195823  0.54615384  0.46537358
   0.35529149  0.62948728  0.89005387
   0.14973919  0.26649278  0.14217091
   0.03435449  0.18956965  0.28434190
   0.41896999  0.11264660  0.00000000
   0.30358532  0.03572347  0.14217091
   0.60529155  0.04615385  0.46537358
   0.18820076  0.95880044  0.00000000
   0.07281606  0.88187730  0.14217091
   0.02195823  0.29615384  0.55030960
   0.18862486  0.12948719  0.89005387
   0.22666223  0.65110815  0.14217091
   0.11127757  0.57418501  0.28434190
   0.49589309  0.49726200  0.00000000
   0.38050842  0.42033887  0.14217091
   0.26512373  0.34341574  0.28434190
   0.52195823  0.12948719  0.89005387
   0.53435463  0.18956965  0.14217091
   0.41896993  0.11264652  0.28434190
   0.35529149  0.29615384  0.89005387
   0.68820071  0.95880044  0.14217091
   0.35529152  0.29615384  0.55030960
   0.57281613  0.88187736  0.00000000
   0.45743144  0.80495429  0.14217091
   0.34204680  0.72803110  0.28434190
   0.72666234  0.65110815  0.00000000
   0.61127764  0.57418501  0.14217091
   0.49589294  0.49726185  0.28434190
   0.88050848  0.42033899  0.00000000
   0.76512384  0.34341586  0.14217091
   0.64973915  0.26649272  0.28434190
   0.95743161  0.80495429  0.00000000
   0.84204692  0.72803116  0.14217091
   0.68862486  0.96282059  0.55030960
   0.02195811  0.29615384  0.89005387
   0.35529152  0.62948728  0.55030960
   0.89973909  0.01649269  0.35542738
   0.60529155  0.71282053  0.80511779
   0.93820071  0.70880044  0.21325642
   0.82281601  0.63187730  0.35542738
   0.27195823  0.04615385  0.80511779
   0.09204687  0.47803125  0.21325642
   0.77195823  0.21282051  0.46537358
   0.36127770  0.32418513  0.07108547
   0.24589303  0.24726200  0.21325642
   0.27195823  0.04615385  0.46537358
   0.51512384  0.09341585  0.07108547
   0.39973921  0.01649272  0.21325642
   0.43862486  0.87948716  0.46537358
   0.28435466  0.93956983  0.07108547
   0.16896999  0.86264664  0.21325642
   0.05358529  0.78572351  0.35542738
   0.85529149  0.79615390  0.89005387
   0.02195823  0.96282059  0.55030960
   0.52195817  0.79615390  0.55030960
   0.59204698  0.47803128  0.07108547
   0.47666228  0.40110815  0.21325642
   0.36127761  0.32418501  0.35542738
   0.74589312  0.24726200  0.07108547
   0.63050842  0.17033887  0.21325642
   0.51512379  0.09341572  0.35542738
   0.89973927  0.01649279  0.07108547
   0.78435457  0.93956965  0.21325642
   0.43862486  0.21282051  0.46537358
   0.66897011  0.86264676  0.07108547
   0.55358541  0.78572363  0.21325642
   0.43820071  0.70880049  0.35542738
   0.60529155  0.04615385  0.80511779
   0.70743155  0.55495429  0.21325642
   0.59204680  0.47803113  0.35542738
   0.93862486  0.71282053  0.80511779
   0.86127758  0.32418507  0.21325642
   0.74589288  0.24726193  0.35542738
   0.27195823  0.71282053  0.46537358
   0.10529149  0.71282053  0.63524568
   0.97666228  0.40110824  0.07108547
   0.39973915  0.51649267  0.35542738
   0.10529149  0.37948719  0.63524568
   0.93862486  0.37948719  0.80511779
   0.13050833  0.17033885  0.35542738
   0.10529149  0.04615385  0.63524568
   0.93862486  0.04615385  0.80511779
   0.60529155  0.71282053  0.46537358
   0.43862483  0.71282053  0.63524568
   0.57281607  0.38187736  0.14217091
   0.91896987  0.61264658  0.28434190
   0.43862483  0.37948719  0.63524568
   0.27195823  0.37948719  0.80511779
   0.18820064  0.95880032  0.28434190
   0.43862483  0.04615385  0.63524568
   0.20743152  0.55495441  0.07108547
   0.93862486  0.71282053  0.46537358
   0.77195823  0.71282053  0.63524568
   0.05358534  0.78572363  0.07108547
   0.09204677  0.97803116  0.35542738
   0.77195823  0.37948719  0.63524568
   0.26512384  0.84341592  0.14217091
   0.78435451  0.43956962  0.35542738
   0.77195823  0.04615385  0.63524568
   0.82281625  0.63187742  0.07108547
   0.80358523  0.03572347  0.28434190
   0.18862486  0.96282059  0.72018170
   0.22666228  0.15110818  0.00000000
   0.01512377  0.09341583  0.21325642
   0.18862486  0.62948728  0.72018170
   0.02195811  0.62948728  0.89005387
   0.57281607  0.88187730  0.28434190
   0.18862486  0.29615384  0.72018170
   0.13050844  0.17033896  0.07108547
   0.72666228  0.65110803  0.28434190
   0.52195817  0.96282059  0.72018170
   0.35529149  0.96282059  0.89005387
   0.68862486  0.62948728  0.55030960
   0.52195817  0.62948728  0.72018170
   0.26512384  0.34341592  0.00000000
   0.68862486  0.29615384  0.55030960
   0.52195817  0.29615384  0.72018170
   0.80358541  0.03572357  0.00000000
   0.32281607  0.63187742  0.21325642
   0.85529160  0.96282059  0.72018170
   0.91897005  0.61264664  0.00000000
   0.02195823  0.62948728  0.55030960
   0.85529160  0.62948728  0.72018170
   0.53435463  0.68956971  0.00000000
   0.95743138  0.80495423  0.28434190
   0.85529160  0.29615384  0.72018170
   0.68862486  0.29615384  0.89005387
   0.28435451  0.93956953  0.35542738
   0.27195811  0.87948716  0.63524568
   0.10529149  0.87948716  0.80511779
   0.43862486  0.54615384  0.46537358
   0.27195811  0.54615384  0.63524568
   0.10529149  0.54615384  0.80511779
   0.66896993  0.86264652  0.35542738
   0.27195811  0.21282051  0.63524568
   0.10529149  0.21282051  0.80511779
   0.77195823  0.87948716  0.46537358
   0.60529149  0.87948716  0.63524568
   0.43862486  0.87948716  0.80511779
   0.88050830  0.42033884  0.28434190
   0.60529149  0.54615384  0.63524568
   0.43862486  0.54615384  0.80511779
   0.97666216  0.40110809  0.35542738
   0.60529149  0.21282051  0.63524568
   0.43862486  0.21282051  0.80511779
   0.01512372  0.59341580  0.35542738
   0.93862498  0.87948716  0.63524568
   0.77195829  0.87948716  0.80511779
   0.55358529  0.28572342  0.35542738
   0.93862498  0.54615384  0.63524568
   0.45743155  0.30495435  0.00000000
   0.10529160  0.21282051  0.46537358
   0.93862498  0.21282051  0.63524568
   0.77195829  0.21282051  0.80511779
   0.20743141  0.55495429  0.35542738
   0.35529152  0.79615390  0.72018170
   0.03435459  0.18956974  0.00000000
   0.52195817  0.46282056  0.55030960
   0.35529152  0.46282056  0.72018170
   0.18862486  0.46282056  0.89005387
   0.52195817  0.12948719  0.55030960
   0.35529152  0.12948719  0.72018170
   0.34204692  0.72803128  0.00000000
   0.85529160  0.79615390  0.55030960
   0.68862498  0.79615390  0.72018170
   0.38050851  0.92033905  0.00000000
   0.85529160  0.46282056  0.55030960
   0.68862498  0.46282056  0.72018170
   0.52195823  0.46282056  0.89005387
   0.85529160  0.12948719  0.55030960
   0.68862498  0.12948719  0.72018170
   0.64973927  0.26649278  0.00000000
   0.18862486  0.79615390  0.55030960
   0.02195811  0.79615390  0.72018170
   0.43820077  0.70880061  0.07108547
   0.18862486  0.46282056  0.55030960
   0.02195811  0.46282056  0.72018170
   0.85529149  0.46282056  0.89005387
   0.18862486  0.12948719  0.55030960
   0.02195811  0.12948719  0.72018170
   0.16896996  0.36264667  0.07108547
 
 position of ions in cartesian coordinates  (Angst):
  19.50132866 19.52813415  0.00000000
  17.24189540 18.02184469  2.71549988
  14.98246217 16.51555523  5.43100148
   1.42586724  7.47782840  0.00000000
  18.74818385  5.97153835  2.71549988
  16.48875060  4.46524889  5.43100148
   0.42997830 18.85371109 17.00025161
   2.17901059  1.45267305  2.71549988
  19.50132748 19.52813298  5.43100148
   2.93215612 15.00927045  0.00000000
   0.67272193 13.50298099  2.71549988
  11.85266824  7.43102283  8.88875176
   5.94473387 10.49040440  0.00000000
   3.68529975  8.98411494  2.71549988
   1.42586606  7.47782548  5.43100148
  15.11629496 10.69464745 15.37795119
   6.69787634  4.46524977  2.71549988
   4.43844281  2.95896031  5.43100148
  11.96988761  1.45267406  0.00000000
   9.71045322 19.52813298  2.71549988
   7.45101997 18.02184352  5.43100148
  10.22085606 15.59008586 17.00025161
  11.85266824  7.43102283 15.37795119
   2.93215524 15.00926810  5.43100148
  13.48448043 12.32646181 17.00025161
   8.20416477 11.99669153  2.71549988
   5.94473095 10.49040207  5.43100148
  13.47617489  8.98411612  0.00000000
   5.32541835 13.95827267 15.37795119
   8.95730724  5.97153720  5.43100148
  16.48875293  4.46524948  0.00000000
  14.22931969  2.95895973  2.71549988
  11.96988528  1.45267026  5.43100148
  14.98246567 16.51555756  0.00000000
  12.72303242 15.00926810  2.71549988
  10.46359803 13.50297864  5.43100148
  13.48448043 18.85371109 17.00025161
  15.73560930 10.49040323  2.71549988
  13.47617489  8.98411377  5.43100148
   0.29615121 11.62012032  1.35775036
  17.61846898 10.11383086  4.07325097
  18.37991815  0.90377305  8.88875176
  16.74810480  2.53558559 17.00025161
   1.04929390  5.59496657  4.07325097
  18.37161028  4.08867653  6.78875198
   6.32130509  2.58239028  1.35775036
   4.06187098  1.07610068  4.07325097
  18.37991815  7.43102283  8.88875176
   1.80243921 19.15156296  1.35775036
  19.12475626 17.64527350  4.07325097
  16.86532185 16.13898404  6.78875198
   4.81501666 14.63269809  1.35775036
   2.55558313 13.12640863  4.07325097
   2.06179398 17.22189672  8.88875176
   7.82759470 10.11383321  1.35775036
   5.56816088  8.60754316  4.07325097
   3.30872705  7.10125370  6.78875198
  10.84017158  5.59496657  1.35775036
   8.58073717  4.08867682  4.07325097
   6.32130335  2.58238736  6.78875198
  13.85274847  1.07610135  1.35775036
  11.59331406 19.15156061  4.07325097
   9.33388023 17.64527117  6.78875198
   9.33388431 17.64527466  1.35775036
   7.07444990 16.13898520  4.07325097
   4.81501551 14.63269574  6.78875198
  12.34646119 13.12640978  1.35775036
  10.08702678 11.62011917  4.07325097
   5.32541835  7.43102283  8.88875176
  15.35903807  8.60754375  1.35775036
  13.09960366  7.10125370  4.07325097
   2.06179398 10.69464745  8.88875176
  18.37161494  4.08867888  1.35775036
  16.11218053  2.58238912  4.07325097
  13.85274614  1.07609945  6.78875198
  16.86532884 16.13898637  1.35775036
  14.60589443 14.63269691  4.07325097
  12.34645886 13.12640628  6.78875198
   3.69360500 15.59008586 17.00025161
  17.99504021  2.20581748  2.71549988
   6.95722995 18.85371109 10.51105103
   2.17901145 11.24354796  0.00000000
  19.50132866  9.73725967  2.71549988
  15.11629378 10.69464745  8.88875176
   6.95722937 12.32646181 17.00025161
   2.93215553  5.21839480  2.71549988
   0.67272112  3.71210534  5.43100148
   8.20416595  2.20581748  0.00000000
   5.94473212  0.69952810  2.71549988
  11.85266824  0.90377305  8.88875176
   3.68530034 18.77498942  0.00000000
   1.42586593 17.26869996  2.71549988
   0.42998063  5.79921021 10.51105103
   3.69360500  2.53558559 17.00025161
   4.43844338 12.74983626  2.71549988
   2.17900971 11.24354680  5.43100148
   9.71045497  9.73725967  0.00000000
   7.45102114  8.23097021  2.71549988
   5.19158673  6.72468075  5.43100148
  10.22085606  2.53558559 17.00025161
  10.46359918  3.71210534  2.71549988
   8.20416477  2.20581588  5.43100148
[...]
      2.55558     13.12641      4.07325         0.022939     -0.061811     -0.080803
      2.06179     17.22190      8.88875        -1.188838      0.437001     -0.345947
      7.82759     10.11383      1.35775        -0.142562     -0.093769     -0.566780
      5.56816      8.60754      4.07325         0.020499     -0.140642      0.016739
      3.30873      7.10125      6.78875         1.206641      0.160278      0.894510
     10.84017      5.59497      1.35775        -0.243071     -2.061287      0.785026
      8.58074      4.08868      4.07325        -0.025521      0.021693      0.036322
      6.32130      2.58239      6.78875         0.116116     -0.274368      1.381670
     13.85275      1.07610      1.35775        -2.121638      0.897162      1.338150
     11.59331     19.15156      4.07325         0.342819      2.342545     -1.673731
      9.33388     17.64527      6.78875        -2.556934      0.695231      1.321040
      9.33388     17.64527      1.35775         2.237343     -0.362865      1.005062
      7.07445     16.13899      4.07325         2.225178     -0.435172      1.733239
      4.81502     14.63270      6.78875        -0.112297      1.235888     -3.657751
     12.34646     13.12641      1.35775         2.398117     -0.151397      0.954432
     10.08703     11.62012      4.07325         0.165859     -0.024136      0.015700
      5.32542      7.43102      8.88875         0.219971     -0.590431     -0.309319
     15.35904      8.60754      1.35775        -0.070797      0.105258     -0.126197
     13.09960      7.10125      4.07325         2.319942     -0.450015      1.573292
      2.06179     10.69465      8.88875         0.154664      0.069425     -0.075513
     18.37161      4.08868      1.35775        -2.377329      0.417172      1.253752
     16.11218      2.58239      4.07325         0.340247      2.306963     -1.732379
     13.85275      1.07610      6.78875        -3.570081      0.405707      2.533105
     16.86533     16.13899      1.35775         0.067402      0.157284     -0.081885
     14.60589     14.63270      4.07325         0.444336      2.362886     -1.635965
     12.34646     13.12641      6.78875        -2.404204     -0.724343     -1.174267
      3.69360     15.59009     17.00025         0.206206      0.085242     -0.734455
     17.99504      2.20582      2.71550        -2.221800      0.497761     -1.575887
      6.95723     18.85371     10.51105         0.047321      0.397555     -0.805439
      2.17901     11.24355      0.00000        -2.660197      0.481217     -1.946180
     19.50133      9.73726      2.71550         0.421469      2.347393      1.613797
     15.11629     10.69465      8.88875         0.834148     -0.130098     -0.956506
      6.95723     12.32646     17.00025        -1.195398      0.439003      0.344750
      2.93216      5.21839      2.71550        -0.021375     -0.026526      3.414464
      0.67272      3.71211      5.43100        -1.846533      2.836270      0.022242
      8.20417      2.20582      0.00000         1.219207      0.147556     -0.903352
      5.94473      0.69953      2.71550         0.044756     -0.000919      0.088567
     11.85267      0.90377      8.88875         0.609328     -0.267471     -0.376568
      3.68530     18.77499      0.00000         0.007893     -0.069502     -0.823440
      1.42587     17.26870      2.71550         0.356356      2.331212      1.679060
      0.42998      5.79921     10.51105        -0.460237      0.537739     -0.580954
      3.69360      2.53559     17.00025        -0.444831     -1.510387     -4.270648
      4.43844     12.74984      2.71550        -1.877309      2.702487      0.048621
      2.17901     11.24355      5.43100         0.083923      0.214272     -3.077306
      9.71045      9.73726      0.00000        -0.114703      1.215464      3.651244
      7.45102      8.23097      2.71550         0.030652     -0.062186      0.147436
      5.19159      6.72468      5.43100        -0.058925     -0.223306      0.064822
     10.22086      2.53559     17.00025         0.199552     -0.577601      0.310418
     10.46360      3.71211      2.71550         0.025488     -0.133017      0.038809
      8.20416      2.20582      5.43100        -0.121226     -0.508466      0.300876
      6.95723      5.79921     17.00025         0.151316      0.064489      0.089677
     13.47617     18.77499      2.71550        -0.040102      0.003625     -0.076226
      6.95723      5.79921     10.51105        -0.067571     -0.152535     -0.548513
     11.21674     17.26870      0.00000         0.114714     -0.291503     -1.367473
      8.95731     15.76241      2.71550         0.497191      2.194177      1.728487
      6.69788     14.25612      5.43100         0.551344      2.080042      1.772835
     14.22932     12.74984      0.00000        -2.558509      0.691840     -1.308260
     11.96989     11.24355      2.71550        -0.063698     -0.064684     -0.098008
      9.71045      9.73726      5.43100         2.124939     -0.892415     -1.264848
     17.24190      8.23097      0.00000        -2.410449     -0.724284      1.191024
     14.98246      6.72468      2.71550         0.171991     -0.016282      0.005476
     12.72303      5.21839      5.43100         2.164103     -0.526270     -1.004569
     18.74819     15.76241      0.00000        -3.573808      0.399989     -2.526455
     16.48875     14.25612      2.71550         0.333841      2.374797      1.583647
     13.48448     18.85371     10.51105        -0.343846      0.424601     -0.166152
      0.42998      5.79921     17.00025         0.825218     -0.131846      0.964420
      6.95723     12.32646     10.51105         0.113899     -0.176569     -0.160800
     17.61847      0.32296      6.78875         2.534763     -0.642044      1.707106
     11.85267     13.95827     15.37795         0.033934      0.396009      0.799211
     18.37161     13.87955      4.07325        -0.021148      0.012002     -3.119627
     16.11218     12.37326      6.78875         0.008744     -0.325918      4.599463
      5.32542      0.90377     15.37795        -0.470173      0.556512      0.567713
      1.80244      9.36069      4.07325        -0.093772      0.067667     -0.016581
     15.11629      4.16740      8.88875        -0.446291      0.195049      0.821357
      7.07445      6.34811      1.35775         0.046864      0.215943      3.097590
      4.81502      4.84182      4.07325        -0.006802      0.100274     -0.008221
      5.32542      0.90377      8.88875         1.222978     -0.531046     -0.543796
     10.08703      1.82925      1.35775        -0.084162     -0.245681     -0.053830
      7.82759      0.32296      4.07325         0.019178      0.031570     -0.121319
      8.58904     17.22190      8.88875         0.124812     -0.512418      1.459033
      5.56816     18.39842      1.35775        -1.886359      2.840353     -0.001140
      3.30873     16.89213      4.07325        -2.676754     -1.768914     -0.069487
      1.04929     15.38584      6.78875         2.102898     -0.161898      2.971523
     16.74810     15.59009     17.00025         0.614887     -0.278353      0.372052
      0.42998     18.85371     10.51105        -0.042302     -0.403209     -0.822796
     10.22085     15.59009     10.51105        -0.459717      0.574753     -0.600261
     11.59332      9.36069      1.35775         0.488501      2.105400     -1.748355
      9.33388      7.85440      4.07325        -2.296513      0.473354      1.494767
      7.07445      6.34811      6.78875        -0.667874     -0.011178      0.785502
     14.60589      4.84182      1.35775         2.138596     -0.883872      1.288833
     12.34646      3.33553      4.07325         0.112409     -0.098768     -0.072919
     10.08703      1.82924      6.78875         0.777544      0.020089      0.752968
     17.61847      0.32296      1.35775         2.074162     -0.531605      0.988195
     15.35904     18.39842      4.07325        -0.360575     -2.304763     -1.637529
      8.58904      4.16740      8.88875        -0.393370      0.534045     -0.152212
     13.09961     16.89213      1.35775        -0.130675     -0.514933     -0.305262
     10.84017     15.38584      4.07325        -0.424483     -2.297215     -1.676376
      8.58074     13.87955      6.78875         0.014682      0.044458      0.818489
     11.85267      0.90377     15.37795        -0.074997     -0.133884      0.551666
     13.85275     10.86698      4.07325        -0.527143     -2.310847     -1.622691
     11.59331      9.36069      6.78875         0.697071     -0.323608      0.869506
     18.37992     13.95827     15.37795        -0.373664      0.441414      0.180351
     16.86532      6.34811      4.07325        -0.560741     -2.318421     -1.572057
     14.60589      4.84182      6.78875         0.708782      0.110935     -0.363396
      5.32542     13.95827      8.88875         1.107651     -1.560192      3.523668
      2.06179     13.95827     12.13335        -0.097955      0.119327      0.155364
     19.12476      7.85440      1.35775         0.089838      0.087990     -0.595760
      7.82759     10.11383      6.78875        -2.201412     -1.928917     -3.336265
      2.06179      7.43102     12.13335        -0.527792     -0.623796     -0.493513
     18.37992      7.43102     15.37795         0.472301     -0.374052      0.507192
      2.55558      3.33553      6.78875         1.038321     -2.514580     -3.424899
      2.06179      0.90377     12.13335        -0.542616     -0.569032     -0.624784
     18.37992      0.90377     15.37795         0.172321     -0.209675      1.224150
     11.85267     13.95827      8.88875        -0.890444      1.545153      2.606858
      8.58904     13.95827     12.13335        -0.042018      0.005312     -1.206490
     11.21674      7.47783      2.71550        -0.073661      0.097834      0.161306
     17.99504     11.99669      5.43100        -3.122540      0.154299     -1.721978
      8.58904      7.43102     12.13335        -0.694581     -0.521861     -0.490380
      5.32542      7.43102     15.37795         0.725197     -0.490113      0.238424
      3.68530     18.77499      5.43100        -0.038742      0.005187     -3.984346
      8.58904      0.90377     12.13335        -0.494096     -0.748438     -0.487562
      4.06187     10.86698      1.35775         0.061106      0.547947     -0.223558
     18.37992     13.95827      8.88875        -0.071515      0.058580     -1.433967
     15.11629     13.95827     12.13335         0.077711     -0.087706      0.158710
      1.04929     15.38584      1.35775        -0.015626      0.268820     -0.625500
      1.80244     19.15156      6.78875        -2.629325      0.511507      5.846417
     15.11629      7.43102     12.13335         0.005384     -0.056496     -0.015285
      5.19159     16.51556      2.71550        -0.008812      0.034929     -0.047713
     15.35903      8.60754      6.78875        -3.797529      0.876864      5.906117
     15.11629      0.90377     12.13335        -0.779316     -0.619711     -0.499466
     16.11218     12.37327      1.35775        -2.949046      0.428456      1.348299
     15.73561      0.69953      5.43100        -0.015115      0.268557      0.584953
      3.69360     18.85371     13.75565         0.639218      0.641684      0.601722
      4.43844      2.95896      0.00000         4.194208      0.079476     -2.113563
      0.29615      1.82925      4.07325        -0.035641      0.021001      0.035232
      3.69360     12.32646     13.75565         0.516545      0.732068      0.479122
      0.42998     12.32646     17.00025        -0.357099      0.645352      0.187552
     11.21674     17.26870      5.43100        -2.922894      0.415203     -1.366908
      3.69360      5.79921     13.75565         0.094079     -0.155859     -0.110779
      2.55558      3.33553      1.35775         0.079815      0.246916      3.872222
     14.22932     12.74983      5.43100         0.066917      0.114193      0.592256
     10.22085     18.85371     13.75565         0.699098      0.564749      0.461619
      6.95723     18.85371     17.00025        -1.773311      3.051201     -6.467176
     13.48448     12.32646     10.51105         0.497132     -0.377284     -0.515994
     10.22085     12.32646     13.75565         0.585470      0.569103      0.616163
      5.19159      6.72468      0.00000         3.576158     -0.743731     -5.527671
     13.48448      5.79921     10.51105         0.174643     -0.221760     -1.225429
     10.22085      5.79921     13.75565         0.494253      0.669874      0.484663
     15.73561      0.69953      0.00000        -0.362485      0.105343     -4.247735
      6.32130     12.37327      4.07325        -0.049955      0.085128     -0.051078
     16.74811     18.85371     13.75565        -0.097248      0.070630     -0.113505
     17.99504     11.99669      0.00000         3.403151     -0.591925     -5.455129
      0.42998     12.32646     10.51105         0.747143     -0.495993     -0.254586
     16.74811     12.32646     13.75565         0.131540      0.001829      1.096067
     10.46360     13.50298      0.00000         2.654092     -0.383311     -5.910621
     18.74818     15.76241      5.43100         0.141888      0.583078      0.170529
     16.74811      5.79921     13.75565         0.044460     -0.002250      0.009662
     13.48448      5.79921     17.00025         1.527544      2.688197     -6.463983
      5.56816     18.39841      6.78875         2.668448     -0.400253      5.920170
      5.32542     17.22190     12.13335         0.565604      0.578176     -0.610353
      2.06179     17.22190     15.37795         0.151378     -0.285833      1.415463
      8.58904     10.69465      8.88875         1.522460      2.707669      6.479792
      5.32542     10.69465     12.13335         0.521484      0.654038     -0.498115
      2.06179     10.69465     15.37795        -0.086851     -0.101913     -0.297408
     13.09960     16.89213      6.78875         3.408086     -0.593167      5.472263
      5.32542      4.16740     12.13335         0.700115      0.548530     -0.482071
      2.06179      4.16740     15.37795         0.085955      0.319023      1.208035
     15.11629     17.22190      8.88875        -0.376595      0.657229     -0.188568
     11.85267     17.22190     12.13335         0.109568      0.020056     -1.073144
      8.58904     17.22190     15.37795         0.479775     -0.338724      0.414285
     17.24189      8.23097      5.43100         0.032036      0.236760     -3.916154
     11.85267     10.69465     12.13335         0.044308     -0.005470     -0.009338
      8.58904     10.69465     15.37795        -0.487059      0.383145      0.507704
     19.12476      7.85440      6.78875         4.202481      0.078650      2.111444
     11.85267      4.16740     12.13335        -0.100512      0.044004      0.122504
      8.58904      4.16740     15.37795        -0.064888     -0.078303      0.971792
      0.29615     11.62012      6.78875         3.547637     -0.737125      5.519174
     18.37992     17.22190     12.13335         0.511082      0.719692     -0.469431
     15.11629     17.22190     15.37795         0.063017      0.122351      0.959950
     10.84017      5.59496      6.78875        -0.336771      0.114467      4.240220
     18.37992     10.69465     12.13335         0.109531     -0.136324      0.105916
      8.95731      5.97154      0.00000        -0.792176     -0.124715     -3.679883
      2.06179      4.16740      8.88875        -1.761118      3.043071      6.490960
     18.37992      4.16740     12.13335         0.629453      0.644192     -0.634584
     15.11629      4.16740     15.37795         0.533341     -0.775442      0.661523
      4.06187     10.86698      6.78875        -0.813631     -0.139593      3.680497
      6.95723     15.59009     13.75565        -0.545425     -0.586178      0.601139
      0.67272      3.71211      0.00000        -3.803830      0.882643     -5.904859
     10.22085      9.06284     10.51105         0.532616     -0.767291     -0.672014
      6.95723      9.06284     13.75565        -0.084112      0.095850     -0.158669
      3.69360      9.06284     17.00025        -0.095602      0.069206      1.423270
     10.22085      2.53559     10.51105         0.060631      0.129644     -0.961446
      6.95723      2.53559     13.75565        -0.513383     -0.614593      0.462752
      6.69788     14.25613      0.00000        -2.641337      0.503314     -5.859917
     16.74811     15.59009     10.51105        -0.069793     -0.070825      0.287697
     13.48448     15.59009     13.75565        -0.512937     -0.754367      0.483520
      7.45102     18.02185      0.00000         1.039748     -2.521498      3.411641
     16.74811      9.06284     10.51105         0.077706      0.322378     -1.203195
     13.48448      9.06284     13.75565        -0.008242      0.023071      1.212236
     10.22086      9.06284     17.00025         1.092028     -1.570683     -3.521751
     16.74811      2.53559     10.51105         0.131961     -0.259624     -1.390871
     13.48448      2.53559     13.75565        -0.696252     -0.540962      0.496000
     12.72303      5.21839      0.00000        -2.202693     -1.937503      3.328067
      3.69360     15.59009     10.51105        -0.480060      0.372672     -0.508636
      0.42998     15.59009     13.75565        -0.746924     -0.614908      0.508120
      8.58074     13.87956      1.35775         0.046809     -0.016652      3.968718
      3.69360      9.06284     10.51105        -0.085753     -0.073657     -0.969411
      0.42998      9.06284     13.75565         0.117873     -0.083967     -0.142513
     16.74810      9.06284     17.00025        -0.881064      1.549811     -2.627232
      3.69360      2.53559     10.51105         0.470456     -0.322683     -0.430465
      0.42998      2.53559     13.75565        -0.026935     -0.053937      0.019045
      3.30873      7.10126      1.35775        -3.122519      0.176157      1.743057
 -----------------------------------------------------------------------------------
    total drift:                                0.133270      0.059343     -0.145418


--------------------------------------------------------------------------------------------------------



  FREE ENERGIE OF THE ION-ELECTRON SYSTEM (eV)
  ---------------------------------------------------
  free  energy   TOTEN  =     -1096.98458489 eV

  energy  without entropy=    -1096.97859977  energy(sigma->0) =    -1096.98159233
 


--------------------------------------------------------------------------------------------------------


    POTLOK:  cpu time      3.0124: real time      3.0337


--------------------------------------------------------------------------------------------------------


     LOOP+:  cpu time   6401.4461: real time   6465.9003
    4ORBIT:  cpu time      0.0000: real time      0.0000

 total amount of memory used by VASP MPI-rank0   919285. kBytes
=======================================================================

   base      :      30000. kBytes
   nonlr-proj:      26035. kBytes
   fftplans  :      41700. kBytes
   grid      :      31129. kBytes
   one-center:        275. kBytes
   wavefun   :     790146. kBytes
 
  
  
 General timing and accounting informations for this job:
 ========================================================
  
                  Total CPU time used (sec):     6737.069
                            User time (sec):     6469.829
                          System time (sec):      267.240
                         Elapsed time (sec):     6808.345
  
                   Maximum memory used (kb):     1234196.
                   Average memory used (kb):          N/A
  
                          Minor page faults:       538156
                          Major page faults:         1167
                 Voluntary context switches:         3960
