 vasp.6.4.3 19Mar24 (build Oct 22 2024 11:23:12) complex                        
  
 executed on             LinuxIFC date 2025.06.09  08:13:16
 running   64 mpi-ranks, on    4 nodes
 distrk:  each k-point on   64 cores,    1 groups
 distr:  one band on NCORE=  16 cores,    4 groups


--------------------------------------------------------------------------------------------------------


 INCAR:
   SYSTEM = Si and Ge interface calculation
   ISTART = 0
   ICHARG = 2
   LWAVE = .FALSE.
   LREAL = AUTO
   ENCUT = 700
   ENAUG = 900
   ADDGRID = .TRUE.
   LMAXMIX = 6
   LASPH = .TRUE.
   LMIXTAU = .TRUE.
   NCORE = 16
   NELM = 100
   NBANDS = 432
   EDIFF = 1d-7
   AMIX = 0.6
   ISMEAR = 0
   SIGMA = 0.01
   NELECT = 720
   ISPIN = 2
   NUPDOWN = 1
   LVTOT = .FALSE.
   LVHAR = .TRUE.

 POTCAR:    PAW_PBE Sn 08Apr2002                  
 POTCAR:    PAW_PBE Ge 05Jan2001                  
 -----------------------------------------------------------------------------
|                                                                             |
|           W    W    AA    RRRRR   N    N  II  N    N   GGGG   !!!           |
|           W    W   A  A   R    R  NN   N  II  NN   N  G    G  !!!           |
|           W    W  A    A  R    R  N N  N  II  N N  N  G       !!!           |
|           W WW W  AAAAAA  RRRRR   N  N N  II  N  N N  G  GGG   !            |
|           WW  WW  A    A  R   R   N   NN  II  N   NN  G    G                |
|           W    W  A    A  R    R  N    N  II  N    N   GGGG   !!!           |
|                                                                             |
|     You use a magnetic or noncollinear calculation, but did not specify     |
|     the initial magnetic moment with the MAGMOM tag. Note that a            |
|     default of 5.556e-3 will be used for all atoms. This ferromagnetic      |
|     setup may break the symmetry of the crystal, in particular it may       |
|     rule out finding an antiferromagnetic solution. Thence, we              |
|     recommend setting the initial magnetic moment manually or verifying     |
|     carefully that this magnetic setup is desired.                          |
|                                                                             |
 -----------------------------------------------------------------------------

 POTCAR:    PAW_PBE Sn 08Apr2002                  
   VRHFIN =Sn: s2p2                                                                                 
   LEXCH  = PE                                                                                      
   EATOM  =    94.0860 eV,    6.9151 Ry                                                             
                                                                                                    
   TITEL  = PAW_PBE Sn 08Apr2002                                                                    
   LULTRA =        F    use ultrasoft PP ?                                                          
   IUNSCR =        1    unscreen: 0-lin 1-nonlin 2-no                                               
   RPACOR =    2.000    partial core radius                                                         
   POMASS =  118.710; ZVAL   =    4.000    mass and valenz                                          
   RCORE  =    3.000    outmost cutoff radius                                                       
   RWIGS  =    2.960; RWIGS  =    1.566    wigner-seitz radius (au A)                               
   ENMAX  =  103.236; ENMIN  =   77.427 eV                                                          
   ICORE  =        3    local potential                                                             
   LCOR   =        T    correct aug charges                                                         
   LPAW   =        T    paw PP                                                                      
   EAUG   =  263.585                                                                                
   DEXC   =    0.000                                                                                
   RMAX   =    3.078    core radius for proj-oper                                                   
   RAUG   =    1.300    factor for augmentation sphere                                              
   RDEP   =    3.022    radius for radial grids                                                     
   RDEPT  =    2.655    core radius for aug-charge                                                  
                                                                                                    
   Atomic configuration                                                                             
   13 entries                                                                                       
     n  l   j            E        occ.                                                              
     1  0  0.50    -29007.2859   2.0000                                                             
     2  0  0.50     -4378.8056   2.0000                                                             
     2  1  1.50     -3930.4293   6.0000                                                             
     3  0  0.50      -845.0264   2.0000                                                             
     3  1  1.50      -698.5725   6.0000                                                             
     3  2  2.50      -473.2839  10.0000                                                             
     4  0  0.50      -133.9036   2.0000                                                             
     4  1  1.50       -89.6752   6.0000                                                             
     4  2  2.50       -25.8375  10.0000                                                             
     5  0  0.50       -10.5484   2.0000                                                             
     5  1  0.50        -3.6940   2.0000                                                             
     5  2  1.50        -1.3606   0.0000                                                             
     4  3  2.50        -4.0817   0.0000                                                             
   Description                                                                                      
     l       E           TYP  RCUT    TYP  RCUT                                                     
     0    -10.5483727     23  3.000                                                                 
     0     27.2116520     23  3.000                                                                 
     1     -3.6939829     23  3.000                                                                 
     1      1.9821976     23  3.000                                                                 
     2     -1.3605826     23  3.000                                                                 
     3     -2.7211652     23  3.000                                                                 
  local pseudopotential read in
  partial core-charges read in
  partial kinetic energy density read in
  atomic valenz-charges read in
  non local Contribution for L=           0  read in
    real space projection operators read in
  non local Contribution for L=           0  read in
    real space projection operators read in
  non local Contribution for L=           1  read in
    real space projection operators read in
  non local Contribution for L=           1  read in
    real space projection operators read in
  non local Contribution for L=           2  read in
    real space projection operators read in
    PAW grid and wavefunctions read in
 
   number of l-projection  operators is LMAX  =           5
   number of lm-projection operators is LMMAX =          13
 
 POTCAR:    PAW_PBE Ge 05Jan2001                  
   VRHFIN =Ge: s2p2                                                                                 
   LEXCH  = PE                                                                                      
   EATOM  =   104.9960 eV,    7.7170 Ry                                                             
                                                                                                    
   TITEL  = PAW_PBE Ge 05Jan2001                                                                    
   LULTRA =        F    use ultrasoft PP ?                                                          
   IUNSCR =        1    unscreen: 0-lin 1-nonlin 2-no                                               
   RPACOR =    2.170    partial core radius                                                         
   POMASS =   72.610; ZVAL   =    4.000    mass and valenz                                          
   RCORE  =    2.300    outmost cutoff radius                                                       
   RWIGS  =    2.300; RWIGS  =    1.217    wigner-seitz radius (au A)                               
   ENMAX  =  173.807; ENMIN  =  130.355 eV                                                          
   ICORE  =        3    local potential                                                             
   LCOR   =        T    correct aug charges                                                         
   LPAW   =        T    paw PP                                                                      
   EAUG   =  385.843                                                                                
   DEXC   =    0.000                                                                                
   RMAX   =    2.342    core radius for proj-oper                                                   
   RAUG   =    1.300    factor for augmentation sphere                                              
   RDEP   =    2.318    radius for radial grids                                                     
   RDEPT  =    2.103    core radius for aug-charge                                                  
                                                                                                    
   Atomic configuration                                                                             
   10 entries                                                                                       
     n  l   j            E        occ.                                                              
     1  0  0.50    -10959.8463   2.0000                                                             
     2  0  0.50     -1371.6056   2.0000                                                             
     2  1  1.50     -1198.4791   6.0000                                                             
     3  0  0.50      -168.4733   2.0000                                                             
     3  1  1.50      -115.6019   6.0000                                                             
     3  2  2.50       -29.3106  10.0000                                                             
     4  0  0.50       -11.7309   2.0000                                                             
     4  1  0.50        -3.8952   2.0000                                                             
     4  2  1.50        -4.0817   0.0000                                                             
     4  3  2.50        -4.0817   0.0000                                                             
   Description                                                                                      
     l       E           TYP  RCUT    TYP  RCUT                                                     
     0    -11.7309493     23  2.300                                                                 
     0     -7.4578696     23  2.300                                                                 
     1     -3.8952261     23  2.300                                                                 
     1      6.1178114     23  2.300                                                                 
     2     -4.0817478     23  2.300                                                                 
     3     -1.3605826      7  2.300                                                                 
  local pseudopotential read in
  partial core-charges read in
  partial kinetic energy density read in
  atomic valenz-charges read in
  non local Contribution for L=           0  read in
    real space projection operators read in
  non local Contribution for L=           0  read in
    real space projection operators read in
  non local Contribution for L=           1  read in
    real space projection operators read in
  non local Contribution for L=           1  read in
    real space projection operators read in
  non local Contribution for L=           2  read in
    real space projection operators read in
    PAW grid and wavefunctions read in
 
   number of l-projection  operators is LMAX  =           5
   number of lm-projection operators is LMMAX =          13
 
 Optimization of the real space projectors (new method)

 maximal supplied QI-value         = 12.47
 optimisation between [QCUT,QGAM] = [ 12.47, 27.06] = [ 43.56,205.12] Ry 
 Optimized for a Real-space Cutoff    1.58 Angstroem

   l    n(q)    QCUT    max X(q) W(low)/X(q) W(high)/X(q)  e(spline) 
   0     13    12.472    14.688    0.45E-04    0.45E-04    0.25E-05
   0     13    12.472     7.308    0.94E-04    0.11E-03    0.61E-05
   1     12    12.472    45.102    0.34E-03    0.14E-03    0.21E-05
   1     12    12.472    30.691    0.31E-03    0.13E-03    0.20E-05
   2     12    12.472     7.156    0.86E-04    0.11E-03    0.17E-05
 WARNING: PSMAXN for non-local potential too small
          PSMAXN should be >   13.5545592237991       NTYP=           1
 Optimization of the real space projectors (new method)

 maximal supplied QI-value         = 16.25
 optimisation between [QCUT,QGAM] = [ 13.49, 26.98] = [ 50.95,203.80] Ry 
 Optimized for a Real-space Cutoff    1.25 Angstroem

   l    n(q)    QCUT    max X(q) W(low)/X(q) W(high)/X(q)  e(spline) 
   0     10    13.489    65.336    0.91E-04    0.11E-03    0.34E-06
   0     10    13.489    52.220    0.89E-04    0.11E-03    0.34E-06
   1     10    13.489    36.409    0.22E-03    0.27E-03    0.14E-06
   1     10    13.489    21.334    0.21E-03    0.27E-03    0.14E-06
   2      9    13.489     4.673    0.11E-03    0.12E-03    0.19E-06
  PAW_PBE Sn 08Apr2002                  :
 energy of atom  1       EATOM=  -94.0860
 kinetic energy error for atom=    0.0000 (will be added to EATOM!!)
  PAW_PBE Ge 05Jan2001                  :
 energy of atom  2       EATOM= -104.9960
 kinetic energy error for atom=    0.0001 (will be added to EATOM!!)
 
 
 POSCAR: Sn+Ge
  positions in direct lattice
  No initial velocities read in


 exchange-correlation table for PE
   RHO(1)=    0.500       N(1)  =     2000
   RHO(2)=  100.500       N(2)  =     4000
 


--------------------------------------------------------------------------------------------------------


 ion  position               nearest neighbor table
   1  0.983  0.652  0.000- 162 2.21  90 2.35  29 2.81  28 2.81
   2  0.783  0.486  0.083-  30 2.81  29 2.81  13 2.81
   3  0.583  0.319  0.167-  14 2.81  16 2.81  30 2.81 103 2.86 175 2.95
   4  0.983  0.319  0.000-  66 2.19  32 2.81  31 2.81
   5  0.783  0.152  0.083-  33 2.81  32 2.81  16 2.81
   6  0.583  0.986  0.167-  17 2.81  10 2.81  33 2.81  49 2.94
   7  0.983  0.986  0.000- 120 2.37  34 2.81  35 2.81
   8  0.783  0.819  0.083-  35 2.81  10 2.81  36 2.81
   9  0.583  0.652  0.167-  11 2.81  36 2.81  13 2.81 133 2.88
  10  0.633  0.902  0.042-   8 2.81   6 2.81  19 2.81 114 3.28  78 3.32
  11  0.433  0.736  0.125-  19 2.81   9 2.81  20 2.81
  12  0.233  0.569  0.208- 127 2.60  85 2.65  20 2.81  21 2.81 157 3.00
  13  0.633  0.569  0.042-  22 2.81   2 2.81   9 2.81 156 2.98  42 3.02
  14  0.433  0.402  0.125-   3 2.81  23 2.81  22 2.81
  15  0.233  0.236  0.208- 169 2.46  61 2.51  23 2.81  24 2.81  97 3.06
  16  0.633  0.236  0.042-   3 2.81  25 2.81   5 2.81
  17  0.433  0.069  0.125-  25 2.81   6 2.81  26 2.81
  18  0.233  0.902  0.208-  26 2.81  27 2.81  43 2.93 115 3.12
  19  0.483  0.819  0.000-  96 2.19  11 2.81  10 2.81
  20  0.283  0.652  0.083-  12 2.81  28 2.81  11 2.81
  21  0.083  0.486  0.167-  29 2.81  31 2.81  12 2.81  79 2.94
  22  0.483  0.486  0.000- 156 2.37  13 2.81  14 2.81
  23  0.283  0.319  0.083-  31 2.81  15 2.81  14 2.81
  24  0.083  0.152  0.167-  32 2.81  15 2.81  34 2.81 169 2.88
  25  0.483  0.152  0.000- 144 2.21  60 2.35  17 2.81  16 2.81
  26  0.283  0.986  0.083-  34 2.81  18 2.81  17 2.81
  27  0.083  0.819  0.167-  35 2.81  18 2.81  28 2.81  43 2.86 109 2.95
  28  0.133  0.736  0.042-  20 2.81   1 2.81  27 2.81
  29  0.933  0.569  0.125-  21 2.81   1 2.81   2 2.81
  30  0.733  0.402  0.208-   2 2.81   3 2.81 103 2.93 151 3.12
  31  0.133  0.402  0.042-  23 2.81   4 2.81  21 2.81 180 3.28  72 3.32
  32  0.933  0.236  0.125-   4 2.81  24 2.81   5 2.81
  33  0.733  0.069  0.208- 145 2.60  55 2.65   5 2.81   6 2.81 139 3.00
  34  0.133  0.069  0.042-  26 2.81   7 2.81  24 2.81 120 2.98 102 3.02
  35  0.933  0.902  0.125-  27 2.81   8 2.81   7 2.81
  36  0.733  0.736  0.208- 133 2.46  91 2.51   9 2.81   8 2.81  37 3.06
  37  0.827  0.634  0.317- 151 2.43 158 2.47 133 2.55  36 3.06
  38  0.577  0.634  0.432- 152 2.43 159 2.47 133 2.47 134 2.55
  39  0.327  0.634  0.547- 153 2.43 160 2.47 134 2.47 135 2.55
  40  0.077  0.634  0.662- 154 2.43 161 2.47 135 2.47 136 2.55
  41  0.827  0.634  0.777- 155 2.43 162 2.47 136 2.47 137 2.55
  42  0.577  0.634  0.892- 156 2.43 137 2.47 138 2.55  13 3.02
  43  0.160  0.801  0.317- 157 2.43 164 2.47 109 2.55  27 2.86  18 2.93
  44  0.910  0.801  0.432- 158 2.43 165 2.47 109 2.47 110 2.55
  45  0.660  0.801  0.547- 159 2.43 166 2.47 110 2.47 111 2.55
  46  0.410  0.801  0.662- 160 2.43 167 2.47 111 2.47 112 2.55
  47  0.160  0.801  0.777- 161 2.43 112 2.47 168 2.47 113 2.55
  48  0.910  0.801  0.892- 162 2.43 113 2.47 114 2.55
  49  0.493  0.967  0.317- 163 2.43 146 2.47 115 2.55   6 2.94
  50  0.243  0.967  0.432- 164 2.43 147 2.47 115 2.47 116 2.55
  51  0.993  0.967  0.547- 165 2.43 148 2.47 116 2.47 117 2.55
  52  0.743  0.967  0.662- 166 2.43 117 2.47 149 2.47 118 2.55
  53  0.493  0.967  0.777- 167 2.43 118 2.47 150 2.47 119 2.55
  54  0.243  0.967  0.892- 168 2.43 119 2.47 120 2.55
  55  0.827  0.134  0.317- 145 2.43 170 2.47 139 2.55  33 2.65
  56  0.577  0.134  0.432- 146 2.43 171 2.47 139 2.47 140 2.55
  57  0.327  0.134  0.547- 147 2.43 172 2.47 140 2.47 141 2.55
  58  0.077  0.134  0.662- 148 2.43 141 2.47 173 2.47 142 2.55
  59  0.827  0.134  0.777- 149 2.43 142 2.47 174 2.47 143 2.55
  60  0.577  0.134  0.892-  25 2.35 150 2.43 143 2.47 144 2.55
  61  0.160  0.301  0.317- 169 2.43 176 2.47  15 2.51 121 2.55
  62  0.910  0.301  0.432- 170 2.43 177 2.47 121 2.47 122 2.55
  63  0.660  0.301  0.547- 171 2.43 178 2.47 122 2.47 123 2.55
  64  0.410  0.301  0.662- 172 2.43 179 2.47 123 2.47 124 2.55
  65  0.160  0.301  0.777- 173 2.43 180 2.47 124 2.47 125 2.55
  66  0.910  0.301  0.892-   4 2.19 174 2.43 125 2.47 126 2.55
  67  0.493  0.467  0.317- 175 2.43 152 2.47 127 2.55
  68  0.243  0.467  0.432- 176 2.43 153 2.47 127 2.47 128 2.55
  69  0.993  0.467  0.547- 177 2.43 154 2.47 128 2.47 129 2.55
  70  0.743  0.467  0.662- 178 2.43 155 2.47 129 2.47 130 2.55
  71  0.493  0.467  0.777- 179 2.43 156 2.47 130 2.47 131 2.55
  72  0.243  0.467  0.892- 180 2.43 131 2.47 132 2.55  31 3.32
  73  0.993  0.967  0.317- 109 2.43 116 2.47 145 2.55
  74  0.743  0.967  0.432- 110 2.43 117 2.47 145 2.47 146 2.55
  75  0.493  0.967  0.547- 111 2.43 118 2.47 146 2.47 147 2.55
  76  0.243  0.967  0.662- 112 2.43 119 2.47 147 2.47 148 2.55
  77  0.993  0.967  0.777- 113 2.43 120 2.47 148 2.47 149 2.55
  78  0.743  0.967  0.892- 114 2.43 149 2.47 150 2.55  10 3.32
  79  0.993  0.467  0.317- 121 2.43 128 2.47 151 2.55  21 2.94
  80  0.743  0.467  0.432- 122 2.43 129 2.47 151 2.47 152 2.55
  81  0.493  0.467  0.547- 123 2.43 130 2.47 152 2.47 153 2.55
  82  0.243  0.467  0.662- 124 2.43 131 2.47 153 2.47 154 2.55
  83  0.993  0.467  0.777- 125 2.43 154 2.47 132 2.47 155 2.55
  84  0.743  0.467  0.892- 126 2.43 155 2.47 156 2.55
  85  0.327  0.634  0.317- 127 2.43 134 2.47 157 2.55  12 2.65
  86  0.077  0.634  0.432- 128 2.43 135 2.47 157 2.47 158 2.55
  87  0.827  0.634  0.547- 129 2.43 136 2.47 158 2.47 159 2.55
  88  0.577  0.634  0.662- 130 2.43 137 2.47 159 2.47 160 2.55
  89  0.327  0.634  0.777- 131 2.43 160 2.47 138 2.47 161 2.55
  90  0.077  0.634  0.892-   1 2.35 132 2.43 161 2.47 162 2.55
  91  0.660  0.801  0.317- 133 2.43 110 2.47  36 2.51 163 2.55
  92  0.410  0.801  0.432- 134 2.43 111 2.47 163 2.47 164 2.55
  93  0.160  0.801  0.547- 135 2.43 164 2.47 112 2.47 165 2.55
  94  0.910  0.801  0.662- 136 2.43 113 2.47 165 2.47 166 2.55
  95  0.660  0.801  0.777- 137 2.43 114 2.47 166 2.47 167 2.55
  96  0.410  0.801  0.892-  19 2.19 138 2.43 167 2.47 168 2.55
  97  0.327  0.134  0.317- 115 2.43 140 2.47 169 2.55  15 3.06
  98  0.077  0.134  0.432- 116 2.43 141 2.47 169 2.47 170 2.55
  99  0.827  0.134  0.547- 117 2.43 170 2.47 142 2.47 171 2.55
 100  0.577  0.134  0.662- 118 2.43 143 2.47 171 2.47 172 2.55
 101  0.327  0.134  0.777- 119 2.43 144 2.47 172 2.47 173 2.55
 102  0.077  0.134  0.892- 120 2.43 173 2.47 174 2.55  34 3.02
 103  0.660  0.301  0.317- 139 2.43 122 2.47 175 2.55   3 2.86  30 2.93
 104  0.410  0.301  0.432- 140 2.43 123 2.47 175 2.47 176 2.55
 105  0.160  0.301  0.547- 141 2.43 124 2.47 176 2.47 177 2.55
 106  0.910  0.301  0.662- 142 2.43 125 2.47 177 2.47 178 2.55
 107  0.660  0.301  0.777- 143 2.43 178 2.47 126 2.47 179 2.55
 108  0.410  0.301  0.892- 144 2.43 179 2.47 180 2.55
 109  0.993  0.842  0.317-  73 2.43  44 2.47  43 2.55  27 2.95
 110  0.743  0.842  0.432-  74 2.43  91 2.47  45 2.47  44 2.55
 111  0.493  0.842  0.547-  75 2.43  92 2.47  46 2.47  45 2.55
 112  0.243  0.842  0.662-  76 2.43  47 2.47  93 2.47  46 2.55
 113  0.993  0.842  0.777-  77 2.43  94 2.47  48 2.47  47 2.55
 114  0.743  0.842  0.892-  78 2.43  95 2.47  48 2.55  10 3.28
 115  0.327  0.009  0.317-  97 2.43  50 2.47  49 2.55  18 3.12
 116  0.077  0.009  0.432-  98 2.43  73 2.47  51 2.47  50 2.55
 117  0.827  0.009  0.547-  99 2.43  74 2.47  52 2.47  51 2.55
 118  0.577  0.009  0.662- 100 2.43  75 2.47  53 2.47  52 2.55
 119  0.327  0.009  0.777- 101 2.43  76 2.47  54 2.47  53 2.55
 120  0.077  0.009  0.892-   7 2.37 102 2.43  77 2.47  54 2.55  34 2.98
 121  0.993  0.342  0.317-  79 2.43  62 2.47  61 2.55
 122  0.743  0.342  0.432-  80 2.43 103 2.47  63 2.47  62 2.55
 123  0.493  0.342  0.547-  81 2.43 104 2.47  64 2.47  63 2.55
 124  0.243  0.342  0.662-  82 2.43 105 2.47  65 2.47  64 2.55
 125  0.993  0.342  0.777-  83 2.43 106 2.47  66 2.47  65 2.55
 126  0.743  0.342  0.892-  84 2.43 107 2.47  66 2.55
 127  0.327  0.509  0.317-  85 2.43  68 2.47  67 2.55  12 2.60
 128  0.077  0.509  0.432-  86 2.43  79 2.47  69 2.47  68 2.55
 129  0.827  0.509  0.547-  87 2.43  80 2.47  70 2.47  69 2.55
 130  0.577  0.509  0.662-  88 2.43  71 2.47  81 2.47  70 2.55
 131  0.327  0.509  0.777-  89 2.43  82 2.47  72 2.47  71 2.55
 132  0.077  0.509  0.892-  90 2.43  83 2.47  72 2.55
 133  0.660  0.676  0.317-  91 2.43  36 2.46  38 2.47  37 2.55   9 2.88
 134  0.410  0.676  0.432-  92 2.43  85 2.47  39 2.47  38 2.55
 135  0.160  0.676  0.547-  93 2.43  86 2.47  40 2.47  39 2.55
 136  0.910  0.676  0.662-  94 2.43  87 2.47  41 2.47  40 2.55
 137  0.660  0.676  0.777-  95 2.43  88 2.47  42 2.47  41 2.55
 138  0.410  0.676  0.892-  96 2.43  89 2.47  42 2.55
 139  0.660  0.176  0.317- 103 2.43  56 2.47  55 2.55  33 3.00
 140  0.410  0.176  0.432- 104 2.43  97 2.47  57 2.47  56 2.55
 141  0.160  0.176  0.547- 105 2.43  98 2.47  58 2.47  57 2.55
 142  0.910  0.176  0.662- 106 2.43  59 2.47  99 2.47  58 2.55
 143  0.660  0.176  0.777- 107 2.43 100 2.47  60 2.47  59 2.55
 144  0.410  0.176  0.892-  25 2.21 108 2.43 101 2.47  60 2.55
 145  0.827  0.009  0.317-  55 2.43  74 2.47  73 2.55  33 2.60
 146  0.577  0.009  0.432-  56 2.43  49 2.47  75 2.47  74 2.55
 147  0.327  0.009  0.547-  57 2.43  50 2.47  76 2.47  75 2.55
 148  0.077  0.009  0.662-  58 2.43  51 2.47  77 2.47  76 2.55
 149  0.827  0.009  0.777-  59 2.43  52 2.47  78 2.47  77 2.55
 150  0.577  0.009  0.892-  60 2.43  53 2.47  78 2.55
 151  0.827  0.509  0.317-  37 2.43  80 2.47  79 2.55  30 3.12
 152  0.577  0.509  0.432-  38 2.43  67 2.47  81 2.47  80 2.55
 153  0.327  0.509  0.547-  39 2.43  68 2.47  82 2.47  81 2.55
 154  0.077  0.509  0.662-  40 2.43  69 2.47  83 2.47  82 2.55
 155  0.827  0.509  0.777-  41 2.43  70 2.47  84 2.47  83 2.55
 156  0.577  0.509  0.892-  22 2.37  42 2.43  71 2.47  84 2.55  13 2.98
 157  0.160  0.676  0.317-  43 2.43  86 2.47  85 2.55  12 3.00
 158  0.910  0.676  0.432-  44 2.43  37 2.47  87 2.47  86 2.55
 159  0.660  0.676  0.547-  45 2.43  38 2.47  88 2.47  87 2.55
 160  0.410  0.676  0.662-  46 2.43  89 2.47  39 2.47  88 2.55
 161  0.160  0.676  0.777-  47 2.43  40 2.47  90 2.47  89 2.55
 162  0.910  0.676  0.892-   1 2.21  48 2.43  41 2.47  90 2.55
 163  0.493  0.842  0.317-  49 2.43  92 2.47  91 2.55
 164  0.243  0.842  0.432-  50 2.43  43 2.47  93 2.47  92 2.55
 165  0.993  0.842  0.547-  51 2.43  44 2.47  94 2.47  93 2.55
 166  0.743  0.842  0.662-  52 2.43  45 2.47  95 2.47  94 2.55
 167  0.493  0.842  0.777-  53 2.43  46 2.47  96 2.47  95 2.55
 168  0.243  0.842  0.892-  54 2.43  47 2.47  96 2.55
 169  0.160  0.176  0.317-  61 2.43  15 2.46  98 2.47  97 2.55  24 2.88
 170  0.910  0.176  0.432-  62 2.43  55 2.47  99 2.47  98 2.55
 171  0.660  0.176  0.547-  63 2.43  56 2.47 100 2.47  99 2.55
 172  0.410  0.176  0.662-  64 2.43  57 2.47 101 2.47 100 2.55
 173  0.160  0.176  0.777-  65 2.43  58 2.47 102 2.47 101 2.55
 174  0.910  0.176  0.892-  66 2.43  59 2.47 102 2.55
 175  0.493  0.342  0.317-  67 2.43 104 2.47 103 2.55   3 2.95
 176  0.243  0.342  0.432-  68 2.43  61 2.47 105 2.47 104 2.55
 177  0.993  0.342  0.547-  69 2.43  62 2.47 106 2.47 105 2.55
 178  0.743  0.342  0.662-  70 2.43 107 2.47  63 2.47 106 2.55
 179  0.493  0.342  0.777-  71 2.43  64 2.47 108 2.47 107 2.55
 180  0.243  0.342  0.892-  72 2.43  65 2.47 108 2.55  31 3.28
 
  LATTYP: Found a simple orthorhombic cell.
 ALAT       =    14.5102920530
 B/A-ratio  =     1.1994545697
 C/A-ratio  =     1.3416409335
  
  Lattice vectors:
  
 A1 = ( -14.5102920530,   0.0000000000,   0.0000000000)
 A2 = (   0.0000000000,   0.0000000000,  17.4044361110)
 A3 = (   0.0000000000,  19.4676017760,   0.0000000000)


Analysis of symmetry for initial positions (statically):
=====================================================================
 Subroutine PRICEL returns following result:
 
  LATTYP: Found a base centered orthorhombic cell.
 ALAT       =    14.5102911824
 B/A-ratio  =     1.3416410140
 C/A-ratio  =     1.1994546417
  
  Lattice vectors:
  
 A1 = (   7.2551455912,  -9.7338020366,   0.0000000000)
 A2 = (   7.2551455912,   9.7337997394,   0.0000000000)
 A3 = (   0.0000000000,   0.0000000000,  17.4044361110)
 
   2 primitive cells build up your supercell.
 

 Routine SETGRP: Setting up the symmetry group for a 
 simple orthorhombic supercell.


 Subroutine GETGRP returns: Found  1 space group operations
 (whereof  1 operations were pure point group operations)
 out of a pool of  8 trial point group operations.


The static configuration has the point symmetry C_1 .


Analysis of symmetry for dynamics (positions and initial velocities):
=====================================================================
 Subroutine PRICEL returns following result:
 
  LATTYP: Found a base centered orthorhombic cell.
 ALAT       =    14.5102911824
 B/A-ratio  =     1.3416410140
 C/A-ratio  =     1.1994546417
  
  Lattice vectors:
  
 A1 = (   7.2551455912,  -9.7338020366,   0.0000000000)
 A2 = (   7.2551455912,   9.7337997394,   0.0000000000)
 A3 = (   0.0000000000,   0.0000000000,  17.4044361110)
 
   2 primitive cells build up your supercell.
 

 Routine SETGRP: Setting up the symmetry group for a 
 simple orthorhombic supercell.


 Subroutine GETGRP returns: Found  1 space group operations
 (whereof  1 operations were pure point group operations)
 out of a pool of  8 trial point group operations.


The dynamic configuration has the point symmetry C_1 .


Analysis of structural, dynamic, and magnetic symmetry:
=====================================================================
 Subroutine PRICEL returns following result:
 
  LATTYP: Found a base centered orthorhombic cell.
 ALAT       =    14.5102911824
 B/A-ratio  =     1.3416410140
 C/A-ratio  =     1.1994546417
  
  Lattice vectors:
  
 A1 = (   7.2551455912,  -9.7338020366,   0.0000000000)
 A2 = (   7.2551455912,   9.7337997394,   0.0000000000)
 A3 = (   0.0000000000,   0.0000000000,  17.4044361110)
 
   2 primitive cells build up your supercell.
 

 Routine SETGRP: Setting up the symmetry group for a 
 simple orthorhombic supercell.


 Subroutine GETGRP returns: Found  1 space group operations
 (whereof  1 operations were pure point group operations)
 out of a pool of  8 trial point group operations.


The overall configuration has the point symmetry C_1 .


 Subroutine INISYM returns: Found  1 space group operations
 (whereof  1 operations are pure point group operations),
 and found     2 'primitive' translations


----------------------------------------------------------------------------------------

                                     Primitive cell                                     

  volume of cell :    2458.2075

  direct lattice vectors                    reciprocal lattice vectors
     7.255145591 -9.733802037  0.000000000     0.068916596 -0.051367396  0.000000000
     7.255145591  9.733799739  0.000000000     0.068916613  0.051367396  0.000000000
     0.000000000  0.000000000 17.404436111     0.000000000  0.000000000  0.057456616

  length of vectors
    12.140182850 12.140181008 17.404436111     0.085954096  0.085954109  0.057456616

  position of ions in fractional coordinates (direct lattice)
     0.330484273  0.635327097  0.000000007
     0.297150925  0.268660327  0.083371289
     0.263817365  0.901993349  0.166742578
     0.663817557  0.301993813  0.000000007
     0.630484207  0.935326745  0.083371274
     0.597150768  0.568659946  0.166742578
     0.997150841  0.968660529  0.000000007
     0.963817492  0.601993760  0.083371289
     0.930484082  0.235326812  0.166742548
     0.730484254  0.535327056  0.041685563
     0.697150788  0.168660434  0.125056818
     0.663817377  0.801993516  0.208428085
     0.063817583  0.201993697  0.041685570
     0.030484146  0.835327076  0.125056818
     0.997150855  0.468660246  0.208428085
     0.397150970  0.868660340  0.041685563
     0.363817519  0.501993703  0.125056818
     0.330484064  0.135326829  0.208428085
     0.192580056  0.460621385  0.316882908
     0.942579952  0.210621222  0.431815356
     0.692579906  0.960620997  0.546747804
     0.442579980  0.710620894  0.661680281
     0.192580055  0.460620908  0.776612699
     0.942579832  0.210620626  0.891545236
     0.359246722  0.960621385  0.316882879
     0.109246559  0.710621280  0.431815356
     0.859246573  0.460621116  0.546747804
     0.609246618  0.210621101  0.661680281
     0.359246602  0.960620789  0.776612639
     0.109246499  0.710620744  0.891545236
     0.525913300  0.460621415  0.316882908
     0.275913375  0.210621310  0.431815356
     0.025913180  0.960621057  0.546747804
     0.775913284  0.710620863  0.661680281
     0.525913299  0.460620938  0.776612639
     0.275913255  0.210620714  0.891545177
     0.692580025  0.960621356  0.316882908
     0.442579981  0.710621133  0.431815356
     0.192579877  0.460621086  0.546747804
     0.942580011  0.210620923  0.661680281
     0.692579906  0.960620759  0.776612639
     0.442580040  0.710620596  0.891545177
     0.859246454  0.460621235  0.316882908
     0.609246648  0.210621311  0.431815326
     0.359246662  0.960620967  0.546747744
     0.109246499  0.710620982  0.661680281
     0.859246454  0.460620759  0.776612699
     0.609246559  0.210620684  0.891545236
     0.025913240  0.960621475  0.316882879
     0.775913285  0.710621102  0.431815356
     0.525913240  0.460621117  0.546747744
     0.275913255  0.210620952  0.661680222
     0.025913240  0.960620997  0.776612759
     0.775913284  0.710620625  0.891545236
     0.150913299  0.835621534  0.316882879
     0.900913196  0.585621251  0.431815356
     0.650913300  0.335621177  0.546747744
     0.400913224  0.085620923  0.661680281
     0.150913240  0.835620997  0.776612639
     0.900913195  0.585620774  0.891545177
     0.317580056  0.335621385  0.316882879
     0.067579981  0.085621133  0.431815356
     0.817580085  0.835621058  0.546747804
     0.567580040  0.585620834  0.661680222
     0.317580055  0.335620908  0.776612639
     0.067579980  0.085620656  0.891545177
     0.650913300  0.335621415  0.316882908
     0.400913285  0.085621102  0.431815356
     0.150913240  0.835621117  0.546747804
     0.900913255  0.585620952  0.661680222
     0.650913299  0.335620938  0.776612699
     0.400913284  0.085620625  0.891545177
     0.817580025  0.835621356  0.316882908
     0.567579981  0.585621133  0.431815356
     0.317579997  0.335621206  0.546747804
     0.067579980  0.085620894  0.661680281
     0.817580025  0.835620878  0.776612699
     0.567579980  0.585620656  0.891545177
     0.984246693  0.335621474  0.316882908
     0.734246767  0.085621370  0.431815356
     0.484246602  0.835621027  0.546747804
     0.234246618  0.585621101  0.661680281
     0.984246692  0.335620997  0.776612699
     0.734246647  0.085620774  0.891545177
     0.484246722  0.835621385  0.316882879
     0.234246619  0.585621340  0.431815356
     0.984246573  0.335621116  0.546747804
     0.734246647  0.085621012  0.661680281
     0.484246721  0.835620908  0.776612699
     0.234246559  0.585620804  0.891545236

  ion indices of the primitive-cell ions
   primitive index   ion index
                 1           1
                 2           2
                 3          27
                 4           4
                 5          20
                 6          21
                 7           7
                 8           8
                 9           9
                10          31
                11          32
                12          12
                13          13
                14          35
                15          36
                16          28
                17          29
                18          18
                19          37
                20          38
                21          39
                22          40
                23          41
                24          42
                25          43
                26          44
                27          45
                28         106
                29          47
                30          48
                31          79
                32          80
                33          51
                34          82
                35          83
                36          84
                37          85
                38          86
                39          87
                40          88
                41          89
                42          90
                43          91
                44          62
                45          93
                46          94
                47          95
                48          66
                49          73
                50          68
                51          69
                52          70
                53          77
                54          72
                55         109
                56         110
                57         177
                58         112
                59         113
                60         114
                61         151
                62         116
                63         153
                64         154
                65         155
                66         120
                67         121
                68         164
                69         165
                70         166
                71         125
                72         168
                73         127
                74         128
                75         129
                76         148
                77         131
                78         132
                79         133
                80         134
                81         135
                82         136
                83         137
                84         138
                85         157
                86         158
                87         159
                88         160
                89         161
                90         162

----------------------------------------------------------------------------------------

 
 
 KPOINTS: Automatic KPOINTS generated             

Automatic generation of k-mesh.
 Grid dimensions read from file:
 generate k-points for:    2    2    2

 Generating k-lattice:

  Cartesian coordinates                     Fractional coordinates (reciprocal lattice)
     0.034458300  0.000000000  0.000000000     0.500000000  0.000000000  0.000000000
     0.000000000  0.025683698  0.000000000     0.000000000  0.500000000  0.000000000
     0.000000000  0.000000000  0.028728308     0.000000000  0.000000000  0.500000000

  Length of vectors
     0.034458300  0.025683698  0.028728308

  Shift w.r.t. Gamma in fractional coordinates (k-lattice)
     0.000000000  0.000000000  0.000000000

 
 Subroutine IBZKPT returns following result:
 ===========================================
 
 Found      8 irreducible k-points:
 
 Following reciprocal coordinates:
            Coordinates               Weight
  0.000000  0.000000  0.000000      1.000000
  0.500000  0.000000  0.000000      1.000000
  0.000000  0.500000  0.000000      1.000000
  0.500000  0.500000  0.000000      1.000000
  0.000000  0.000000  0.500000      1.000000
  0.500000  0.000000  0.500000      1.000000
  0.000000  0.500000  0.500000      1.000000
  0.500000  0.500000  0.500000      1.000000
 
 Following cartesian coordinates:
            Coordinates               Weight
  0.000000  0.000000  0.000000      1.000000
  0.034458  0.000000  0.000000      1.000000
  0.000000  0.025684  0.000000      1.000000
  0.034458  0.025684  0.000000      1.000000
  0.000000  0.000000  0.028728      1.000000
  0.034458  0.000000  0.028728      1.000000
  0.000000  0.025684  0.028728      1.000000
  0.034458  0.025684  0.028728      1.000000
 


--------------------------------------------------------------------------------------------------------




 Dimension of arrays:
   k-points           NKPTS =      8   k-points in BZ     NKDIM =      8   number of bands    NBANDS=    432
   number of dos      NEDOS =    301   number of ions     NIONS =    180
   non local maximal  LDIM  =      5   non local SUM 2l+1 LMDIM =     13
   total plane-waves  NPLWV = ******
   max r-space proj   IRMAX =   4914   max aug-charges    IRDMAX= 227526
   dimension x,y,z NGX =    96 NGY =  126 NGZ =  120
   dimension x,y,z NGXF=   192 NGYF=  252 NGZF=  240
   support grid    NGXF=   384 NGYF=  504 NGZF=  480
   ions per type =              36 144
   NGX,Y,Z   is equivalent  to a cutoff of  11.00, 10.76, 11.46 a.u.
   NGXF,Y,Z  is equivalent  to a cutoff of  22.00, 21.52, 22.92 a.u.

 SYSTEM =  Si and Ge interface calculation         
 POSCAR =  Sn+Ge                                   

 Startparameter for this run:
   NWRITE =      2    write-flag & timer
   PREC   = normal    normal or accurate (medium, high low for compatibility)
   ISTART =      0    job   : 0-new  1-cont  2-samecut
   ICHARG =      2    charge: 1-file 2-atom 10-const
   ISPIN  =      2    spin polarized calculation?
   LNONCOLLINEAR =      F non collinear calculations
   LSORBIT =      F    spin-orbit coupling
   INIWAV =      1    electr: 0-lowe 1-rand  2-diag
   LASPH  =      T    aspherical Exc in radial PAW
 Electronic Relaxation 1
   ENCUT  =  700.0 eV  51.45 Ry    7.17 a.u.  31.30 42.00 37.55*2*pi/ulx,y,z
   ENINI  =  700.0     initial cutoff
   ENAUG  =  900.0 eV  augmentation charge cutoff
   NELM   =    100;   NELMIN=  2; NELMDL= -5     # of ELM steps 
   EDIFF  = 0.1E-06   stopping-criterion for ELM
   LREAL  =      T    real-space projection
   NLSPLINE    = F    spline interpolate recip. space projectors
   LCOMPAT=      F    compatible to vasp.4.4
   GGA_COMPAT  = T    GGA compatible to vasp.4.4-vasp.4.6
   LMAXPAW     = -100 max onsite density
   LMAXMIX     =    6 max onsite mixed and CHGCAR
   VOSKOWN=      0    Vosko Wilk Nusair interpolation
   ROPT   =   -0.00050  -0.00050
 Ionic relaxation
   EDIFFG = 0.1E-05   stopping-criterion for IOM
   NSW    =      0    number of steps for IOM
   NBLOCK =      1;   KBLOCK =      1    inner block; outer block 
   IBRION =     -1    ionic relax: 0-MD 1-quasi-New 2-CG
   NFREE  =      0    steps in history (QN), initial steepest desc. (CG)
   ISIF   =      2    stress and relaxation
   IWAVPR =     10    prediction:  0-non 1-charg 2-wave 3-comb
   ISYM   =      2    0-nonsym 1-usesym 2-fastsym
   LCORR  =      T    Harris-Foulkes like correction to forces

   POTIM  = 0.5000    time-step for ionic-motion
   TEIN   =    0.0    initial temperature
   TEBEG  =    0.0;   TEEND  =   0.0 temperature during run
   SMASS  =  -3.00    Nose mass-parameter (am)
   estimated Nose-frequenzy (Omega)   =  0.10E-29 period in steps = 0.13E+47 mass=  -0.481E-26a.u.
   SCALEE = 1.0000    scale energy and forces
   NPACO  =    256;   APACO  = 10.0  distance and # of slots for P.C.
   PSTRESS=    0.0 pullay stress

  Mass of Ions in am
   POMASS = 118.71 72.61
  Ionic Valenz
   ZVAL   =   4.00  4.00
  Atomic Wigner-Seitz radii
   RWIGS  =  -1.00 -1.00
  virtual crystal weights 
   VCA    =   1.00  1.00
   NELECT =     720.0000    total number of electrons
   NUPDOWN=       1.0000    fix difference up-down

 DOS related values:
   EMIN   =  10.00;   EMAX   =-10.00  energy-range for DOS
   EFERMI =   0.00;   METHOD = LEGACY      
   ISMEAR =     0;   SIGMA  =   0.01  broadening in eV -4-tet -1-fermi 0-gaus

 Electronic relaxation 2 (details)
   IALGO  =     38    algorithm
   LDIAG  =      T    sub-space diagonalisation (order eigenvalues)
   LSUBROT=      F    optimize rotation matrix (better conditioning)
   TURBO    =      0    0=normal 1=particle mesh
   IRESTART =      0    0=no restart 2=restart with 2 vectors
   NREBOOT  =      0    no. of reboots
   NMIN     =      0    reboot dimension
   EREF     =   0.00    reference energy to select bands
   IMIX   =      4    mixing-type and parameters
     AMIX     =   0.60;   BMIX     =  1.00
     AMIX_MAG =   2.40;   BMIX_MAG =  1.00
     AMIN     =   0.10
     WC   =   100.;   INIMIX=   1;  MIXPRE=   1;  MAXMIX= -45

 Intra band minimization:
   WEIMIN = 0.0000     energy-eigenvalue tresh-hold
   EBREAK =  0.58E-10  absolut break condition
   DEPER  =   0.30     relativ break condition  

   TIME   =   0.40     timestep for ELM

  volume/ion in A,a.u.               =      27.31       184.32
  Fermi-wavevector in a.u.,A,eV,Ry     =   0.862918  1.630678 10.131269  0.744627
  Thomas-Fermi vector in A             =   1.980791
 
 Write flags
   LWAVE        =      F    write WAVECAR
   LDOWNSAMPLE  =      F    k-point downsampling of WAVECAR
   LCHARG       =      T    write CHGCAR
   LVTOT        =      F    write LOCPOT, total local potential
   LVHAR        =      T    write LOCPOT, Hartree potential only
   WRT_POTENTIAL=  hartree ionic  ! write potential to hdf5 file
   LELF         =      F    write electronic localiz. function (ELF)
   LORBIT       =      0    0 simple, 1 ext, 2 COOP (PROOUT), +10 PAW based schemes


 Dipole corrections
   LMONO      =      F    monopole corrections only (constant potential shift)
   LDIPOL     =      F    correct potential (dipole corrections)
   IDIPOL     =      0    1-x, 2-y, 3-z, 4-all directions 
   EPSILON    =  1.0000000 bulk dielectric constant
   LVACPOTAV  =      F  vacuum potentials using an averaging scheme for the charge density
   VACPOTFLAT =  0.1000000 required flatness to determine vacuum potential
 Exchange correlation treatment:
   GGA     = PE    functional components
   XC_C    = 1    coefficients multiplying the functional components
   LIBXC   =     F    Libxc                    
   VOSKOWN =     0    Vosko Wilk Nusair interpolation
   LHFCALC =     F    Hartree Fock is set to
   LHFONE  =     F    Hartree Fock one center treatment
   AEXX    =    0.0000 exact exchange contribution

 Parameters of functionals:
   PE:
     No parameter
 
 Van der Waals corrections
   IVDW    =     0    specifies the selected vdW correction

 Linear response parameters
   LEPSILON=     F    determine dielectric tensor
   LRPA    =     F    only Hartree local field effects (RPA)
   LNABLA  =     F    use nabla operator in PAW spheres
   LVEL    =     F    velocity operator in full k-point grid
   CSHIFT  =0.1000    complex shift for real part using Kramers Kronig
   OMEGAMAX=  -1.0    maximum frequency
   DEG_THRESHOLD= 0.2000000E-02 threshold for treating states as degnerate
   RTIME   =   -0.100 relaxation time in fs
  (WPLASMAI=    0.000 imaginary part of plasma frequency in eV, 0.658/RTIME)
   DFIELD  = 0.0000000 0.0000000 0.0000000 field for delta impulse in time
 
  Optional k-point grid parameters
   LKPOINTS_OPT  =     F    use optional k-point grid
   KPOINTS_OPT_MODE=     1    mode for optional k-point grid
 
 Orbital magnetization related:
   ORBITALMAG=     F  switch on orbital magnetization
   LCHIMAG   =     F  perturbation theory with respect to B field
   DQ        =  0.001000  dq finite difference perturbation B field
   LLRAUG    =     F  two centre corrections for induced B field
   LBONE     =     F  B-component reconstruction in AE one-centre
   LVGVCALC  =     T  calculate vGv susceptibility
   LVGVAPPL  =     F  apply vGv susceptibility instead of pGv for G=0

 Random number generation:
   RANDOM_GENERATOR = DEFAULT
   PCG_SEED         = not used


--------------------------------------------------------------------------------------------------------


 Static calculation
 charge density and potential will be updated during run
 spin polarized calculation
 Variant of blocked Davidson
 Davidson routine will perform the subspace rotation
 perform sub-space diagonalisation
    after iterative eigenvector-optimisation
 modified Broyden-mixing scheme, WC =      100.0
 initial mixing is a Kerker type mixing with AMIX =  0.6000 and BMIX =      1.0000
 Hartree-type preconditioning will be used
 using additional bands           72
 real space projection scheme for non local part
 use partial core corrections
 calculate Harris-corrections to forces 
   (improved forces if not selfconsistent)
 use gradient corrections 
 use of overlap-Matrix (Vanderbilt PP)
 Gauss-broadening in eV      SIGMA  =   0.01


--------------------------------------------------------------------------------------------------------


  energy-cutoff  :      700.00
  volume of cell :     4916.42
      direct lattice vectors                 reciprocal lattice vectors
    14.510292053  0.000000000  0.000000000     0.068916600  0.000000000  0.000000000
     0.000000000 19.467601776  0.000000000     0.000000000  0.051367396  0.000000000
     0.000000000  0.000000000 17.404436111     0.000000000  0.000000000  0.057456616

  length of vectors
    14.510292053 19.467601776 17.404436111     0.068916600  0.051367396  0.057456616


 
 k-points in units of 2pi/SCALE and weight: Automatic KPOINTS generated             
   0.00000000  0.00000000  0.00000000       0.125
   0.03445830  0.00000000  0.00000000       0.125
   0.00000000  0.02568370  0.00000000       0.125
   0.03445830  0.02568370  0.00000000       0.125
   0.00000000  0.00000000  0.02872831       0.125
   0.03445830  0.00000000  0.02872831       0.125
   0.00000000  0.02568370  0.02872831       0.125
   0.03445830  0.02568370  0.02872831       0.125
 
 k-points in reciprocal lattice and weights: Automatic KPOINTS generated             
   0.00000000  0.00000000  0.00000000       0.125
   0.50000000  0.00000000  0.00000000       0.125
   0.00000000  0.50000000  0.00000000       0.125
   0.50000000  0.50000000  0.00000000       0.125
   0.00000000  0.00000000  0.50000000       0.125
   0.50000000  0.00000000  0.50000000       0.125
   0.00000000  0.50000000  0.50000000       0.125
   0.50000000  0.50000000  0.50000000       0.125
 
 position of ions in fractional coordinates (direct lattice) 
   0.98290563  0.65242130  0.00000001
   0.78290558  0.48575461  0.08337129
   0.58290541  0.31908789  0.16674255
   0.98290563  0.31908801  0.00000001
   0.78290558  0.15242132  0.08337129
   0.58290541  0.98575461  0.16674255
   0.98290563  0.98575473  0.00000001
   0.78290558  0.81908804  0.08337129
   0.58290541  0.65242130  0.16674255
   0.63290560  0.90242141  0.04168557
   0.43290553  0.73575473  0.12505685
   0.23290543  0.56908804  0.20842809
   0.63290560  0.56908798  0.04168557
   0.43290553  0.40242130  0.12505685
   0.23290543  0.23575461  0.20842809
   0.63290560  0.23575476  0.04168557
   0.43290553  0.06908806  0.12505685
   0.23290543  0.90242136  0.20842809
   0.48290560  0.81908792  0.00000000
   0.28290546  0.65242124  0.08337127
   0.08290535  0.48575458  0.16674258
   0.48290560  0.48575467  0.00000000
   0.28290546  0.31908798  0.08337127
   0.08290535  0.15242128  0.16674258
   0.48290560  0.15242136  0.00000000
   0.28290546  0.98575467  0.08337127
   0.08290535  0.81908798  0.16674258
   0.13290565  0.73575467  0.04168556
   0.93290555  0.56908798  0.12505682
   0.73290551  0.40242130  0.20842809
   0.13290565  0.40242138  0.04168556
   0.93290555  0.23575471  0.12505682
   0.73290551  0.06908801  0.20842809
   0.13290565  0.06908801  0.04168556
   0.93290555  0.90242136  0.12505682
   0.73290551  0.73575461  0.20842809
   0.82660067  0.63402057  0.31688291
   0.57660055  0.63402057  0.43181536
   0.32660043  0.63402051  0.54674780
   0.07660043  0.63402045  0.66168028
   0.82660043  0.63402033  0.77661270
   0.57660019  0.63402033  0.89154524
   0.15993404  0.80068731  0.31688288
   0.90993386  0.80068725  0.43181536
   0.65993381  0.80068719  0.54674780
   0.40993381  0.80068713  0.66168022
   0.15993369  0.80068707  0.77661264
   0.90993357  0.80068702  0.89154524
   0.49326730  0.96735394  0.31688288
   0.24326718  0.96735388  0.43181536
   0.99326706  0.96735382  0.54674780
   0.74326706  0.96735382  0.66168022
   0.49326694  0.96735370  0.77661264
   0.24326682  0.96735364  0.89154524
   0.82660067  0.13402061  0.31688291
   0.57660055  0.13402057  0.43181533
   0.32660055  0.13402045  0.54674780
   0.07660055  0.13402045  0.66168022
   0.82660043  0.13402033  0.77661264
   0.57660031  0.13402033  0.89154524
   0.15993404  0.30068725  0.31688291
   0.90993392  0.30068722  0.43181533
   0.65993381  0.30068713  0.54674774
   0.40993381  0.30068707  0.66168022
   0.15993369  0.30068704  0.77661270
   0.90993357  0.30068696  0.89154524
   0.49326730  0.46735394  0.31688291
   0.24326718  0.46735388  0.43181536
   0.99326712  0.46735382  0.54674774
   0.74326706  0.46735376  0.66168022
   0.49326706  0.46735370  0.77661270
   0.24326694  0.46735364  0.89154524
   0.99326730  0.96735400  0.31688288
   0.74326718  0.96735394  0.43181533
   0.49326706  0.96735388  0.54674780
   0.24326706  0.96735382  0.66168028
   0.99326706  0.96735376  0.77661276
   0.74326694  0.96735364  0.89154518
   0.99326730  0.46735394  0.31688291
   0.74326730  0.46735388  0.43181536
   0.49326706  0.46735382  0.54674780
   0.24326706  0.46735376  0.66168028
   0.99326706  0.46735370  0.77661264
   0.74326694  0.46735364  0.89154518
   0.32660067  0.63402063  0.31688291
   0.07660055  0.63402057  0.43181536
   0.82660043  0.63402051  0.54674780
   0.57660043  0.63402039  0.66168028
   0.32660031  0.63402039  0.77661264
   0.07660031  0.63402027  0.89154518
   0.65993381  0.80068731  0.31688291
   0.40993381  0.80068725  0.43181536
   0.15993381  0.80068713  0.54674774
   0.90993369  0.80068713  0.66168028
   0.65993357  0.80068707  0.77661270
   0.40993357  0.80068696  0.89154518
   0.32660067  0.13402061  0.31688291
   0.07660055  0.13402057  0.43181536
   0.82660043  0.13402045  0.54674774
   0.57660043  0.13402045  0.66168028
   0.32660031  0.13402033  0.77661270
   0.07660031  0.13402033  0.89154524
   0.65993404  0.30068728  0.31688291
   0.40993392  0.30068719  0.43181536
   0.15993381  0.30068719  0.54674774
   0.90993381  0.30068713  0.66168028
   0.65993381  0.30068704  0.77661264
   0.40993369  0.30068702  0.89154524
   0.99326736  0.84235400  0.31688288
   0.74326718  0.84235394  0.43181536
   0.49326706  0.84235388  0.54674780
   0.24326706  0.84235382  0.66168028
   0.99326706  0.84235376  0.77661264
   0.74326694  0.84235370  0.89154518
   0.32660067  0.00902069  0.31688288
   0.07660055  0.00902057  0.43181536
   0.82660043  0.00902057  0.54674780
   0.57660043  0.00902045  0.66168028
   0.32660043  0.00902033  0.77661264
   0.07660031  0.00902033  0.89154518
   0.99326730  0.34235394  0.31688291
   0.74326730  0.34235388  0.43181533
   0.49326706  0.34235382  0.54674774
   0.24326706  0.34235376  0.66168028
   0.99326706  0.34235370  0.77661270
   0.74326694  0.34235364  0.89154518
   0.32660067  0.50902063  0.31688291
   0.07660055  0.50902057  0.43181536
   0.82660055  0.50902051  0.54674780
   0.57660043  0.50902045  0.66168028
   0.32660043  0.50902039  0.77661270
   0.07660031  0.50902033  0.89154518
   0.65993404  0.67568731  0.31688291
   0.40993404  0.67568725  0.43181536
   0.15993381  0.67568719  0.54674780
   0.90993381  0.67568713  0.66168028
   0.65993381  0.67568707  0.77661270
   0.40993369  0.67568702  0.89154518
   0.65993404  0.17568727  0.31688288
   0.40993392  0.17568719  0.43181536
   0.15993381  0.17568713  0.54674780
   0.90993381  0.17568710  0.66168028
   0.65993381  0.17568703  0.77661270
   0.40993369  0.17568696  0.89154524
   0.82660079  0.00902069  0.31688288
   0.57660055  0.00902057  0.43181533
   0.32660055  0.00902045  0.54674780
   0.07660043  0.00902045  0.66168028
   0.82660043  0.00902033  0.77661276
   0.57660031  0.00902033  0.89154518
   0.82660067  0.50902057  0.31688288
   0.57660055  0.50902051  0.43181536
   0.32660055  0.50902045  0.54674780
   0.07660043  0.50902039  0.66168022
   0.82660043  0.50902033  0.77661264
   0.57660031  0.50902027  0.89154518
   0.15993404  0.67568731  0.31688288
   0.90993392  0.67568725  0.43181536
   0.65993381  0.67568719  0.54674780
   0.40993381  0.67568713  0.66168028
   0.15993381  0.67568707  0.77661270
   0.90993363  0.67568702  0.89154524
   0.49326730  0.84235394  0.31688288
   0.24326718  0.84235388  0.43181536
   0.99326712  0.84235382  0.54674780
   0.74326706  0.84235376  0.66168022
   0.49326706  0.84235370  0.77661264
   0.24326694  0.84235364  0.89154518
   0.15993392  0.17568725  0.31688291
   0.90993392  0.17568721  0.43181533
   0.65993381  0.17568715  0.54674774
   0.40993381  0.17568709  0.66168028
   0.15993381  0.17568704  0.77661270
   0.90993363  0.17568698  0.89154518
   0.49326742  0.34235397  0.31688291
   0.24326730  0.34235388  0.43181533
   0.99326718  0.34235382  0.54674774
   0.74326706  0.34235376  0.66168028
   0.49326706  0.34235370  0.77661270
   0.24326694  0.34235364  0.89154518
 
 position of ions in cartesian coordinates  (Angst):
  14.26224769 12.70107798  0.00000012
  11.36018860  9.45647729  1.45103027
   8.45812777  6.21187603  2.90206002
  14.26224769  6.21187835  0.00000012
  11.36018860  2.96727766  1.45103027
   8.45812777 19.19027818  2.90206002
  14.26224769 19.19028049  0.00000012
  11.36018860 15.94567982  1.45103027
   8.45812777 12.70107798  2.90206002
   9.18364513 17.56798074  0.72551384
   6.28158560 14.32338005  2.17654392
   3.37952585 11.07877938  3.62757329
   9.18364513 11.07877821  0.72551384
   6.28158560  7.83417754  2.17654392
   3.37952585  4.58957684  3.62757329
   9.18364513  4.58957975  0.72551384
   6.28158560  1.34497892  2.17654392
   3.37952585 17.56797957  3.62757329
   7.00710123 15.94567750  0.00000000
   4.10504083 12.70107681  1.45103001
   1.20298087  9.45647670  2.90206055
   7.00710123  9.45647846  0.00000000
   4.10504083  6.21187777  1.45103001
   1.20298087  2.96727680  2.90206055
   7.00710123  2.96727824  0.00000000
   4.10504083 19.19027934  1.45103001
   1.20298087 15.94567865  2.90206055
   1.92849975 14.32337890  0.72551372
  13.53673206 11.07877821  2.17654340
  10.63467295  7.83417754  3.62757329
   1.92849975  7.83417927  0.72551372
  13.53673206  4.58957887  2.17654340
  10.63467295  1.34497791  3.62757329
   1.92849975  1.34497791  0.72551372
  13.53673206 17.56797957  2.17654340
  10.63467295 14.32337773  3.62757329
  11.99421715 12.34285992  5.51516833
   8.36664241 12.34285992  7.51550278
   4.73906765 12.34285875  9.51583722
   1.11149464 12.34285760 11.51617218
  11.99421368 12.34285528 13.51650610
   8.36663721 12.34285528 15.51684210
   2.32068969 15.58746176  5.51516782
  13.20340613 15.58746059  7.51550278
   9.57583225 15.58745944  9.51583722
   5.94825923 15.58745827 11.51617115
   2.32068449 15.58745712 13.51650506
  13.20340181 15.58745596 15.51684210
   7.15745255 18.83206128  5.51516782
   3.52987781 18.83206011  7.51550278
  14.41259511 18.83205896  9.51583722
  10.78502210 18.83205896 11.51617115
   7.15744736 18.83205665 13.51650506
   3.52987262 18.83205548 15.51684210
  11.99421715  2.60905990  5.51516833
   8.36664241  2.60905903  7.51550225
   4.73906939  2.60905671  9.51583722
   1.11149638  2.60905671 11.51617115
  11.99421368  2.60905439 13.51650506
   8.36663894  2.60905439 15.51684210
   2.32068969  5.85365970  5.51516833
  13.20340700  5.85365914  7.51550225
   9.57583225  5.85365738  9.51583618
   5.94825923  5.85365624 11.51617115
   2.32068449  5.85365565 13.51650610
  13.20340181  5.85365390 15.51684210
   7.15745255  9.09826039  5.51516833
   3.52987781  9.09825922  7.51550278
  14.41259598  9.09825808  9.51583618
  10.78502210  9.09825691 11.51617115
   7.15744909  9.09825576 13.51650610
   3.52987435  9.09825459 15.51684210
  14.41259858 18.83206245  5.51516782
  10.78502384 18.83206128  7.51550225
   7.15744909 18.83206011  9.51583722
   3.52987607 18.83205896 11.51617218
  14.41259511 18.83205780 13.51650715
  10.78502037 18.83205548 15.51684107
  14.41259858  9.09826039  5.51516833
  10.78502557  9.09825922  7.51550278
   7.15744909  9.09825808  9.51583722
   3.52987607  9.09825691 11.51617218
  14.41259511  9.09825576 13.51650506
  10.78502037  9.09825459 15.51684107
   4.73907112 12.34286108  5.51516833
   1.11149638 12.34285992  7.51550278
  11.99421368 12.34285875  9.51583722
   8.36664067 12.34285643 11.51617218
   4.73906593 12.34285643 13.51650506
   1.11149291 12.34285411 15.51684107
   9.57583225 15.58746176  5.51516833
   5.94825923 15.58746059  7.51550278
   2.32068622 15.58745827  9.51583618
  13.20340353 15.58745827 11.51617218
   9.57582879 15.58745712 13.51650610
   5.94825578 15.58745479 15.51684107
   4.73907112  2.60905990  5.51516833
   1.11149638  2.60905903  7.51550278
  11.99421368  2.60905671  9.51583618
   8.36664067  2.60905671 11.51617218
   4.73906593  2.60905439 13.51650610
   1.11149291  2.60905439 15.51684210
   9.57583571  5.85366028  5.51516833
   5.94826097  5.85365855  7.51550278
   2.32068622  5.85365855  9.51583618
  13.20340526  5.85365738 11.51617218
   9.57583225  5.85365565 13.51650506
   5.94825751  5.85365507 15.51684210
  14.41259944 16.39861223  5.51516782
  10.78502384 16.39861106  7.51550278
   7.15744909 16.39860989  9.51583722
   3.52987607 16.39860874 11.51617218
  14.41259511 16.39860757 13.51650506
  10.78502037 16.39860643 15.51684107
   4.73907112  0.17561112  5.51516782
   1.11149638  0.17560881  7.51550278
  11.99421368  0.17560881  9.51583722
   8.36664067  0.17560649 11.51617218
   4.73906765  0.17560417 13.51650506
   1.11149291  0.17560417 15.51684107
  14.41259858  6.66481017  5.51516833
  10.78502557  6.66480900  7.51550225
   7.15744909  6.66480785  9.51583618
   3.52987607  6.66480669 11.51617218
  14.41259511  6.66480554 13.51650610
  10.78502037  6.66480437 15.51684107
   4.73907112  9.90941086  5.51516833
   1.11149638  9.90940969  7.51550278
  11.99421542  9.90940853  9.51583722
   8.36664067  9.90940738 11.51617218
   4.73906765  9.90940621 13.51650610
   1.11149291  9.90940506 15.51684107
   9.57583571 13.15401153  5.51516833
   5.94826270 13.15401037  7.51550278
   2.32068622 13.15400922  9.51583722
  13.20340526 13.15400805 11.51617218
   9.57583225 13.15400690 13.51650610
   5.94825751 13.15400573 15.51684107
   9.57583571  3.42020977  5.51516782
   5.94826097  3.42020833  7.51550278
   2.32068622  3.42020716  9.51583722
  13.20340526  3.42020658 11.51617218
   9.57583225  3.42020514 13.51650610
   5.94825751  3.42020368 15.51684210
  11.99421887  0.17561112  5.51516782
   8.36664241  0.17560881  7.51550225
   4.73906939  0.17560649  9.51583722
   1.11149464  0.17560649 11.51617218
  11.99421368  0.17560417 13.51650715
   8.36663894  0.17560417 15.51684107
  11.99421715  9.90940969  5.51516782
   8.36664241  9.90940853  7.51550278
   4.73906939  9.90940738  9.51583722
   1.11149464  9.90940621 11.51617115
  11.99421368  9.90940506 13.51650506
   8.36663894  9.90940389 15.51684107
   2.32068969 13.15401153  5.51516782
  13.20340700 13.15401037  7.51550278
   9.57583225 13.15400922  9.51583722
   5.94825923 13.15400805 11.51617218
   2.32068622 13.15400690 13.51650610
  13.20340268 13.15400573 15.51684210
   7.15745255 16.39861106  5.51516782
   3.52987781 16.39860989  7.51550278
  14.41259598 16.39860874  9.51583722
  10.78502210 16.39860757 11.51617115
   7.15744909 16.39860643 13.51650506
   3.52987435 16.39860526 15.51684107
   2.32068796  3.42020948  5.51516833
  13.20340700  3.42020862  7.51550225
   9.57583225  3.42020745  9.51583618
   5.94825923  3.42020631 11.51617218
   2.32068622  3.42020543 13.51650610
  13.20340268  3.42020426 15.51684107
   7.15745428  6.66481075  5.51516833
   3.52987954  6.66480900  7.51550225
  14.41259685  6.66480785  9.51583618
  10.78502210  6.66480669 11.51617218
   7.15744909  6.66480554 13.51650610
   3.52987435  6.66480437 15.51684107
 


--------------------------------------------------------------------------------------------------------


 k-point     1 :   0.0000 0.0000 0.0000  plane waves:  206719
 k-point     2 :   0.5000 0.0000 0.0000  plane waves:  206710
 k-point     3 :   0.0000 0.5000 0.0000  plane waves:  206664
 k-point     4 :   0.5000 0.5000 0.0000  plane waves:  206768
 k-point     5 :   0.0000 0.0000 0.5000  plane waves:  206692
 k-point     6 :   0.5000 0.0000 0.5000  plane waves:  206692
 k-point     7 :   0.0000 0.5000 0.5000  plane waves:  206924
 k-point     8 :   0.5000 0.5000 0.5000  plane waves:  206672

 maximum and minimum number of plane-waves per node :     12980    12856

 maximum number of plane-waves:    206924
 maximum index in each direction: 
   IXMAX=   31   IYMAX=   41   IZMAX=   37
   IXMIN=  -31   IYMIN=  -42   IZMIN=  -38


 real space projection operators:
  total allocation   :      51166.17 KBytes
  max/ min on nodes  :       3512.44       2800.69


 parallel 3D FFT for wavefunctions:
    minimum data exchange during FFTs selected (reduces bandwidth)
 parallel 3D FFT for charge:
    minimum data exchange during FFTs selected (reduces bandwidth)


 total amount of memory used by VASP MPI-rank0   462083. kBytes
=======================================================================

   base      :      30000. kBytes
   nonlr-proj:      18546. kBytes
   fftplans  :      29372. kBytes
   grid      :      21893. kBytes
   one-center:        194. kBytes
   wavefun   :     362078. kBytes
 
     INWAV:  cpu time      0.0000: real time      0.0003
 Broyden mixing: mesh for mixing (old mesh)
   NGX = 63   NGY = 83   NGZ = 75
  (NGX  =192   NGY  =252   NGZ  =240)
  gives a total of 392175 points

 initial charge density was supplied:
 charge density of overlapping atoms calculated
 number of electron     720.0000000 magnetization       1.0000000
 keeping initial charge density in first step


--------------------------------------------------------------------------------------------------------


 Maximum index for non-local projection operator          338
 Maximum index for augmentation-charges         4308 (set IRDMAX)


--------------------------------------------------------------------------------------------------------


 First call to EWALD:  gamma=   0.104
 Maximum number of real-space cells 3x 2x 3
 Maximum number of reciprocal cells 2x 3x 3

    FEWALD:  cpu time      0.0043: real time      0.0043


--------------------------------------- Ionic step        1  -------------------------------------------




--------------------------------------- Iteration      1(   1)  ---------------------------------------


    POTLOK:  cpu time      0.3142: real time      0.3172
    SETDIJ:  cpu time      2.4972: real time      2.5136
     EDDAV:  cpu time     78.5657: real time     79.3815
       DOS:  cpu time      0.0028: real time      0.0028
    --------------------------------------------
      LOOP:  cpu time     81.3799: real time     82.2151

 eigenvalue-minimisations  : 13824
 total energy-change (2. order) : 0.3614132E+04  (-0.3019576E+05)
 number of electron     720.0000000 magnetization       1.0000000
 augmentation part      720.0000000 magnetization       1.0000000

 Free energy of the ion-electron system (eV)
  ---------------------------------------------------
  alpha Z        PSCENC =      1172.55070300
  Ewald energy   TEWEN  =    -15707.49021238
  -Hartree energ DENC   =     -3985.48747585
  -exchange      EXHF   =         0.00000000
  -V(xc)+E(xc)   XCENC  =     -5359.24761750
  PAW double counting   =     19511.85949846   -12966.91288459
  entropy T*S    EENTRO =        -0.00090782
  eigenvalues    EBANDS =      2442.35429234
  atomic energy  EATOM  =     18506.50640686
  Solvation  Ediel_sol  =         0.00000000
  ---------------------------------------------------
  free energy    TOTEN  =      3614.13180252 eV

  energy without entropy =     3614.13271035  energy(sigma->0) =     3614.13225644


--------------------------------------------------------------------------------------------------------




--------------------------------------- Iteration      1(   2)  ---------------------------------------


     EDDAV:  cpu time     88.8533: real time     89.7565
       DOS:  cpu time      0.0022: real time      0.0022
    --------------------------------------------
      LOOP:  cpu time     88.8555: real time     89.7587

 eigenvalue-minimisations  : 16192
 total energy-change (2. order) :-0.3908590E+04  (-0.3786272E+04)
 number of electron     720.0000000 magnetization       1.0000000
 augmentation part      720.0000000 magnetization       1.0000000

 Free energy of the ion-electron system (eV)
  ---------------------------------------------------
  alpha Z        PSCENC =      1172.55070300
  Ewald energy   TEWEN  =    -15707.49021238
  -Hartree energ DENC   =     -3985.48747585
  -exchange      EXHF   =         0.00000000
  -V(xc)+E(xc)   XCENC  =     -5359.24761750
  PAW double counting   =     19511.85949846   -12966.91288459
  entropy T*S    EENTRO =        -0.00159413
  eigenvalues    EBANDS =     -1466.23547127
  atomic energy  EATOM  =     18506.50640686
  Solvation  Ediel_sol  =         0.00000000
  ---------------------------------------------------
  free energy    TOTEN  =      -294.45864738 eV

  energy without entropy =     -294.45705326  energy(sigma->0) =     -294.45785032


--------------------------------------------------------------------------------------------------------




--------------------------------------- Iteration      1(   3)  ---------------------------------------


     EDDAV:  cpu time     92.2769: real time     93.1595
       DOS:  cpu time      0.0022: real time      0.0022
    --------------------------------------------
      LOOP:  cpu time     92.2791: real time     93.1617

 eigenvalue-minimisations  : 17000
 total energy-change (2. order) :-0.4298538E+03  (-0.4148562E+03)
 number of electron     720.0000000 magnetization       1.0000000
 augmentation part      720.0000000 magnetization       1.0000000

 Free energy of the ion-electron system (eV)
  ---------------------------------------------------
  alpha Z        PSCENC =      1172.55070300
  Ewald energy   TEWEN  =    -15707.49021238
  -Hartree energ DENC   =     -3985.48747585
  -exchange      EXHF   =         0.00000000
  -V(xc)+E(xc)   XCENC  =     -5359.24761750
  PAW double counting   =     19511.85949846   -12966.91288459
  entropy T*S    EENTRO =        -0.00138495
  eigenvalues    EBANDS =     -1896.08947095
  atomic energy  EATOM  =     18506.50640686
  Solvation  Ediel_sol  =         0.00000000
  ---------------------------------------------------
  free energy    TOTEN  =      -724.31243789 eV

  energy without entropy =     -724.31105294  energy(sigma->0) =     -724.31174541


--------------------------------------------------------------------------------------------------------




--------------------------------------- Iteration      1(   4)  ---------------------------------------


     EDDAV:  cpu time     90.6710: real time     91.5620
       DOS:  cpu time      0.0022: real time      0.0022
    --------------------------------------------
      LOOP:  cpu time     90.6733: real time     91.5643

 eigenvalue-minimisations  : 16648
 total energy-change (2. order) :-0.1861971E+02  (-0.1819896E+02)
 number of electron     720.0000000 magnetization       1.0000000
 augmentation part      720.0000000 magnetization       1.0000000

 Free energy of the ion-electron system (eV)
  ---------------------------------------------------
  alpha Z        PSCENC =      1172.55070300
  Ewald energy   TEWEN  =    -15707.49021238
  -Hartree energ DENC   =     -3985.48747585
  -exchange      EXHF   =         0.00000000
  -V(xc)+E(xc)   XCENC  =     -5359.24761750
  PAW double counting   =     19511.85949846   -12966.91288459
  entropy T*S    EENTRO =        -0.00243648
  eigenvalues    EBANDS =     -1914.70812661
  atomic energy  EATOM  =     18506.50640686
  Solvation  Ediel_sol  =         0.00000000
  ---------------------------------------------------
  free energy    TOTEN  =      -742.93214508 eV

  energy without entropy =     -742.92970860  energy(sigma->0) =     -742.93092684


--------------------------------------------------------------------------------------------------------




--------------------------------------- Iteration      1(   5)  ---------------------------------------


     EDDAV:  cpu time    100.2622: real time    101.2148
       DOS:  cpu time      0.0022: real time      0.0022
    CHARGE:  cpu time      4.2057: real time      4.2424
    MIXING:  cpu time      0.0095: real time      0.0095
    --------------------------------------------
      LOOP:  cpu time    104.4795: real time    105.4689

 eigenvalue-minimisations  : 18800
 total energy-change (2. order) :-0.8913263E+00  (-0.8829148E+00)
 number of electron     719.9999992 magnetization       1.0000000
 augmentation part     -134.7152619 magnetization      -0.1238621

 Broyden mixing:
  rms(total) = 0.27365E+01    rms(broyden)= 0.27365E+01
  rms(prec ) = 0.30158E+01
  weight for this iteration     100.00

 Free energy of the ion-electron system (eV)
  ---------------------------------------------------
  alpha Z        PSCENC =      1172.55070300
  Ewald energy   TEWEN  =    -15707.49021238
  -Hartree energ DENC   =     -3985.48747585
  -exchange      EXHF   =         0.00000000
  -V(xc)+E(xc)   XCENC  =     -5359.24761750
  PAW double counting   =     19511.85949846   -12966.91288459
  entropy T*S    EENTRO =        -0.00264386
  eigenvalues    EBANDS =     -1915.59924550
  atomic energy  EATOM  =     18506.50640686
  Solvation  Ediel_sol  =         0.00000000
  ---------------------------------------------------
  free energy    TOTEN  =      -743.82347135 eV

  energy without entropy =     -743.82082749  energy(sigma->0) =     -743.82214942


--------------------------------------------------------------------------------------------------------




--------------------------------------- Iteration      1(   6)  ---------------------------------------


    POTLOK:  cpu time      0.3034: real time      0.3064
    SETDIJ:  cpu time      2.4730: real time      2.4883
     EDDAV:  cpu time    103.7565: real time    104.7798
       DOS:  cpu time      0.0022: real time      0.0022
    CHARGE:  cpu time      4.1455: real time      4.1838
    MIXING:  cpu time      0.0101: real time      0.0101
    --------------------------------------------
      LOOP:  cpu time    110.6907: real time    111.7706

 eigenvalue-minimisations  : 19536
 total energy-change (2. order) : 0.8612524E+01  (-0.2659414E+01)
 number of electron     719.9999992 magnetization       1.0000000
 augmentation part     -134.7416815 magnetization      -0.0982826

 Broyden mixing:
  rms(total) = 0.13358E+01    rms(broyden)= 0.13358E+01
  rms(prec ) = 0.15958E+01
  weight for this iteration     100.00

 eigenvalues of (default mixing * dielectric matrix)
  average eigenvalue GAMMA=   1.5392
  1.5392

 Free energy of the ion-electron system (eV)
  ---------------------------------------------------
  alpha Z        PSCENC =      1172.55070300
  Ewald energy   TEWEN  =    -15707.49021238
  -Hartree energ DENC   =     -4181.64116756
  -exchange      EXHF   =         0.00000000
  -V(xc)+E(xc)   XCENC  =     -5333.31319972
  PAW double counting   =     28756.61466160   -22228.46537502
  entropy T*S    EENTRO =        -0.00281677
  eigenvalues    EBANDS =     -1719.96994752
  atomic energy  EATOM  =     18506.50640686
  Solvation  Ediel_sol  =         0.00000000
  ---------------------------------------------------
  free energy    TOTEN  =      -735.21094750 eV

  energy without entropy =     -735.20813073  energy(sigma->0) =     -735.20953912


--------------------------------------------------------------------------------------------------------




--------------------------------------- Iteration      1(   7)  ---------------------------------------


    POTLOK:  cpu time      0.3015: real time      0.3039
    SETDIJ:  cpu time      2.4693: real time      2.4846
     EDDAV:  cpu time     97.6362: real time     98.5555
       DOS:  cpu time      0.0022: real time      0.0022
    CHARGE:  cpu time      4.1633: real time      4.2002
    MIXING:  cpu time      0.0097: real time      0.0098
    --------------------------------------------
      LOOP:  cpu time    104.5822: real time    105.5562

 eigenvalue-minimisations  : 18184
 total energy-change (2. order) : 0.8979161E+00  (-0.2055758E+01)
 number of electron     719.9999992 magnetization       1.0000000
 augmentation part     -133.6980093 magnetization      -0.1117882

 Broyden mixing:
  rms(total) = 0.71614E+00    rms(broyden)= 0.71614E+00
  rms(prec ) = 0.99790E+00
  weight for this iteration     100.00

 eigenvalues of (default mixing * dielectric matrix)
  average eigenvalue GAMMA=   1.1825
  1.8320  0.5329

 Free energy of the ion-electron system (eV)
  ---------------------------------------------------
  alpha Z        PSCENC =      1172.55070300
  Ewald energy   TEWEN  =    -15707.49021238
  -Hartree energ DENC   =     -4178.70484017
  -exchange      EXHF   =         0.00000000
  -V(xc)+E(xc)   XCENC  =     -5321.43792190
  PAW double counting   =     34394.58418931   -27875.50394066
  entropy T*S    EENTRO =        -0.00289414
  eigenvalues    EBANDS =     -1724.81452130
  atomic energy  EATOM  =     18506.50640686
  Solvation  Ediel_sol  =         0.00000000
  ---------------------------------------------------
  free energy    TOTEN  =      -734.31303138 eV

  energy without entropy =     -734.31013724  energy(sigma->0) =     -734.31158431


--------------------------------------------------------------------------------------------------------




--------------------------------------- Iteration      1(   8)  ---------------------------------------


    POTLOK:  cpu time      0.3018: real time      0.3060
    SETDIJ:  cpu time      2.4711: real time      2.4864
     EDDAV:  cpu time     89.1974: real time     90.0257
       DOS:  cpu time      0.0022: real time      0.0022
    CHARGE:  cpu time      4.1681: real time      4.2041
    MIXING:  cpu time      0.0105: real time      0.0105
    --------------------------------------------
      LOOP:  cpu time     96.1511: real time     97.0349

 eigenvalue-minimisations  : 16264
 total energy-change (2. order) : 0.1370879E+01  (-0.4272130E+00)
 number of electron     719.9999992 magnetization       1.0000000
 augmentation part     -133.6933539 magnetization      -0.1093081

 Broyden mixing:
  rms(total) = 0.15467E+00    rms(broyden)= 0.15467E+00
  rms(prec ) = 0.21507E+00
  weight for this iteration     100.00

 eigenvalues of (default mixing * dielectric matrix)
  average eigenvalue GAMMA=   1.0896
  1.8564  0.8523  0.5603

 Free energy of the ion-electron system (eV)
  ---------------------------------------------------
  alpha Z        PSCENC =      1172.55070300
  Ewald energy   TEWEN  =    -15707.49021238
  -Hartree energ DENC   =     -4242.83353862
  -exchange      EXHF   =         0.00000000
  -V(xc)+E(xc)   XCENC  =     -5311.62897061
  PAW double counting   =     39661.65917744   -33148.80073756
  entropy T*S    EENTRO =        -0.00331345
  eigenvalues    EBANDS =     -1662.90166729
  atomic energy  EATOM  =     18506.50640686
  Solvation  Ediel_sol  =         0.00000000
  ---------------------------------------------------
  free energy    TOTEN  =      -732.94215260 eV

  energy without entropy =     -732.93883916  energy(sigma->0) =     -732.94049588


--------------------------------------------------------------------------------------------------------




--------------------------------------- Iteration      1(   9)  ---------------------------------------


    POTLOK:  cpu time      0.3040: real time      0.3066
    SETDIJ:  cpu time      2.4737: real time      2.4886
     EDDAV:  cpu time     88.4125: real time     89.2310
       DOS:  cpu time      0.0022: real time      0.0023
    CHARGE:  cpu time      4.1354: real time      4.1714
    MIXING:  cpu time      0.0109: real time      0.0109
    --------------------------------------------
      LOOP:  cpu time     95.3386: real time     96.2108

 eigenvalue-minimisations  : 16096
 total energy-change (2. order) :-0.3808335E-01  (-0.1192933E+00)
 number of electron     719.9999992 magnetization       1.0000000
 augmentation part     -133.6384067 magnetization      -0.1061547

 Broyden mixing:
  rms(total) = 0.10631E+00    rms(broyden)= 0.10631E+00
  rms(prec ) = 0.14202E+00
  weight for this iteration     100.00

 eigenvalues of (default mixing * dielectric matrix)
  average eigenvalue GAMMA=   1.0602
  1.8122  1.3587  0.5349  0.5349

 Free energy of the ion-electron system (eV)
  ---------------------------------------------------
  alpha Z        PSCENC =      1172.55070300
  Ewald energy   TEWEN  =    -15707.49021238
  -Hartree energ DENC   =     -4243.55500043
  -exchange      EXHF   =         0.00000000
  -V(xc)+E(xc)   XCENC  =     -5311.38912764
  PAW double counting   =     40112.89980533   -33600.33994607
  entropy T*S    EENTRO =        -0.00372209
  eigenvalues    EBANDS =     -1662.15914254
  atomic energy  EATOM  =     18506.50640686
  Solvation  Ediel_sol  =         0.00000000
  ---------------------------------------------------
  free energy    TOTEN  =      -732.98023595 eV

[...]
   0.114E+02 0.106E+02 0.881E+02   -.121E+02 -.107E+02 -.889E+02   0.645E+00 -.624E+00 0.129E+00   0.868E-05 0.150E-04 -.164E-04
   -.506E+01 0.310E+01 0.499E+02   0.501E+01 -.312E+01 -.500E+02   0.609E+00 -.275E+00 0.212E+00   -.433E-04 0.538E-04 0.519E-04
   -.245E+01 0.256E+01 0.170E+02   0.229E+01 -.253E+01 -.170E+02   0.551E+00 -.299E+00 -.126E+00   0.884E-05 0.200E-04 0.620E-04
   -.283E+01 0.266E+01 -.170E+02   0.270E+01 -.256E+01 0.170E+02   0.464E+00 -.357E+00 0.227E-01   0.788E-05 0.711E-05 0.707E-04
   -.303E+01 0.123E+01 -.490E+02   0.307E+01 -.107E+01 0.488E+02   0.265E+00 -.415E+00 0.117E-01   -.416E-05 -.148E-04 0.746E-04
   0.940E+01 0.807E+01 -.878E+02   -.102E+02 -.808E+01 0.883E+02   0.586E+00 -.787E+00 0.225E-01   0.332E-04 -.330E-04 -.299E-04
   0.147E+02 0.217E+02 0.608E+02   -.153E+02 -.226E+02 -.591E+02   -.991E+00 -.160E+01 0.744E+00   -.549E-05 -.643E-04 -.253E-04
   -.404E+01 0.114E+01 0.532E+02   0.391E+01 -.114E+01 -.537E+02   0.673E+00 -.142E+00 0.451E+00   0.375E-04 -.800E-04 0.454E-04
   -.258E+01 0.250E+01 0.166E+02   0.241E+01 -.238E+01 -.167E+02   0.451E+00 -.361E+00 0.728E-01   -.121E-05 -.600E-04 0.591E-04
   -.223E+01 0.259E+01 -.166E+02   0.218E+01 -.245E+01 0.165E+02   0.425E+00 -.399E+00 0.965E-01   0.106E-04 -.901E-04 0.536E-04
   -.495E+01 0.141E+01 -.539E+02   0.479E+01 -.122E+01 0.541E+02   0.587E+00 -.439E+00 -.113E+00   -.359E-04 -.758E-04 0.712E-04
   0.124E+02 0.144E+02 -.828E+02   -.129E+02 -.153E+02 0.837E+02   0.500E+00 0.238E-01 -.125E+00   -.887E-06 -.455E-04 0.269E-04
   0.183E+02 0.119E+02 0.749E+02   -.185E+02 -.116E+02 -.752E+02   0.374E+00 -.726E+00 -.104E+00   -.185E-05 -.205E-04 -.540E-04
   -.417E+01 0.347E+00 0.523E+02   0.423E+01 -.141E+00 -.522E+02   0.352E+00 -.616E+00 -.113E+00   0.248E-04 -.342E-04 -.467E-04
   -.256E+01 0.255E+01 0.171E+02   0.238E+01 -.250E+01 -.172E+02   0.507E+00 -.334E+00 0.133E+00   -.175E-04 -.819E-05 0.586E-04
   -.272E+01 0.250E+01 -.171E+02   0.254E+01 -.247E+01 0.172E+02   0.505E+00 -.316E+00 -.743E-01   0.180E-05 -.908E-05 0.946E-04
   -.385E+01 0.211E+01 -.523E+02   0.343E+01 -.200E+01 0.528E+02   0.819E+00 -.304E+00 -.504E+00   0.442E-04 -.949E-06 0.788E-04
   0.421E+01 0.150E+02 -.783E+02   -.401E+01 -.148E+02 0.784E+02   0.140E+00 -.660E+00 0.419E+00   -.445E-04 -.624E-05 0.565E-04
 -----------------------------------------------------------------------------------------------
   -.451E+01 -.669E+01 -.470E+01   0.123E-12 0.185E-12 0.568E-13   0.526E+01 0.668E+01 0.479E+01   -.559E-04 -.502E-04 0.214E-02
 
 
 POSITION                                       TOTAL-FORCE (eV/Angst)
 -----------------------------------------------------------------------------------
     14.26225     12.70108      0.00000         0.303778     -0.972929      8.301861
     11.36019      9.45648      1.45103         0.427441     -0.169938     -1.334028
      8.45813      6.21188      2.90206        -0.608637     -0.072692      0.007096
     14.26225      6.21188      0.00000         3.249383      1.000790      5.609197
     11.36019      2.96728      1.45103         0.592765     -0.291298     -0.840684
      8.45813     19.19028      2.90206        -0.804986      0.093266      1.123504
     14.26225     19.19028      0.00000        -2.392443     -0.760464      1.997515
     11.36019     15.94568      1.45103         0.272776     -0.174411     -1.003877
      8.45813     12.70108      2.90206        -0.339805     -0.403199      0.708606
      9.18365     17.56798      0.72551        -0.061231      0.317870     -0.829946
      6.28159     14.32338      2.17654        -0.174739      0.608575      0.743359
      3.37953     11.07878      3.62757        -1.024278     -0.182475     -0.946114
      9.18365     11.07878      0.72551         0.099167      0.884249      0.069748
      6.28159      7.83418      2.17654        -0.081932      0.507526      0.447811
      3.37953      4.58958      3.62757         2.693398      0.847317     -3.035105
      9.18365      4.58958      0.72551         0.408555      0.711742     -0.908773
      6.28159      1.34498      2.17654        -0.046998      0.317887      0.459650
      3.37953     17.56798      3.62757         0.600621      0.312093      0.896832
      7.00710     15.94568      0.00000         3.249383      1.000790      5.609197
      4.10504     12.70108      1.45103         0.592765     -0.291298     -0.840684
      1.20298      9.45648      2.90206        -0.804986      0.093266      1.123504
      7.00710      9.45648      0.00000        -2.392443     -0.760464      1.997515
      4.10504      6.21188      1.45103         0.272776     -0.174411     -1.003877
      1.20298      2.96728      2.90206        -0.339805     -0.403199      0.708606
      7.00710      2.96728      0.00000         0.303778     -0.972929      8.301861
      4.10504     19.19028      1.45103         0.427441     -0.169938     -1.334028
      1.20298     15.94568      2.90206        -0.608637     -0.072692      0.007096
      1.92850     14.32338      0.72551         0.408555      0.711742     -0.908773
     13.53673     11.07878      2.17654        -0.046998      0.317887      0.459650
     10.63467      7.83418      3.62757         0.600621      0.312093      0.896832
      1.92850      7.83418      0.72551        -0.061231      0.317870     -0.829946
     13.53673      4.58958      2.17654        -0.174739      0.608575      0.743359
     10.63467      1.34498      3.62757        -1.024278     -0.182475     -0.946114
      1.92850      1.34498      0.72551         0.099167      0.884249      0.069748
     13.53673     17.56798      2.17654        -0.081932      0.507526      0.447811
     10.63467     14.32338      3.62757         2.693398      0.847317     -3.035105
     11.99422     12.34286      5.51517        -0.283778      0.678606     -0.819677
      8.36664     12.34286      7.51550        -0.549609      0.232665      0.161607
      4.73907     12.34286      9.51584        -0.344972      0.225044     -0.113233
      1.11149     12.34286     11.51617        -0.330677      0.241025      0.082296
     11.99421     12.34286     13.51651        -0.374345      0.202828      0.118579
      8.36664     12.34286     15.51684        -0.001753      0.418508      0.723617
      2.32069     15.58746      5.51517         0.029086      0.499949      0.182891
     13.20341     15.58746      7.51550        -0.451156      0.177758     -0.056095
      9.57583     15.58746      9.51584        -0.336305      0.260915     -0.008898
      5.94826     15.58746     11.51617        -0.298830      0.317042      0.008490
      2.32068     15.58746     13.51651        -0.289785      0.336447      0.050090
     13.20340     15.58746     15.51684        -0.197894      0.647688      0.374930
      7.15745     18.83206      5.51517         0.132216      0.238731     -0.797824
      3.52988     18.83206      7.51550        -0.307030      0.377470      0.091392
     14.41260     18.83206      9.51584        -0.325405      0.325044      0.040594
     10.78502     18.83206     11.51617        -0.338712      0.263740      0.084495
      7.15745     18.83206     13.51651        -0.395512      0.243231      0.093978
      3.52987     18.83206     15.51684         0.046395      0.436280      1.109716
     11.99422      2.60906      5.51517         0.566369      1.371259      1.038882
      8.36664      2.60906      7.51550        -0.307302      0.248998     -0.122255
      4.73907      2.60906      9.51584        -0.381812      0.218551      0.024137
      1.11150      2.60906     11.51617        -0.344575      0.208844     -0.034217
     11.99421      2.60905     13.51651        -0.361761      0.272064      0.006207
      8.36664      2.60905     15.51684         2.479590     -0.521973     -3.218594
      2.32069      5.85366      5.51517        -0.865945      1.657679      0.987300
     13.20341      5.85366      7.51550        -0.230728      0.215264     -0.035791
      9.57583      5.85366      9.51584        -0.322616      0.299870     -0.046823
      5.94826      5.85366     11.51617        -0.384448      0.247530      0.059848
      2.32068      5.85366     13.51651        -0.424810      0.227002      0.079210
     13.20340      5.85365     15.51684        -3.373985     -0.461930     -5.560815
      7.15745      9.09826      5.51517        -0.089615      0.406884     -0.756399
      3.52988      9.09826      7.51550        -0.439995      0.316334     -0.084970
     14.41260      9.09826      9.51584        -0.353577      0.273297     -0.051815
     10.78502      9.09826     11.51617        -0.339432      0.335954     -0.035149
      7.15745      9.09826     13.51651        -0.290149      0.275545     -0.274440
      3.52987      9.09825     15.51684        -0.070793      0.533894      0.299221
     14.41260     18.83206      5.51517        -0.089615      0.406884     -0.756399
     10.78502     18.83206      7.51550        -0.439995      0.316334     -0.084970
      7.15745     18.83206      9.51584        -0.353577      0.273297     -0.051815
      3.52988     18.83206     11.51617        -0.339432      0.335954     -0.035149
     14.41260     18.83206     13.51651        -0.290149      0.275545     -0.274440
     10.78502     18.83206     15.51684        -0.070793      0.533894      0.299221
     14.41260      9.09826      5.51517         0.132216      0.238731     -0.797824
     10.78503      9.09826      7.51550        -0.307030      0.377470      0.091392
      7.15745      9.09826      9.51584        -0.325405      0.325044      0.040594
      3.52988      9.09826     11.51617        -0.338712      0.263740      0.084495
     14.41260      9.09826     13.51651        -0.395512      0.243231      0.093978
     10.78502      9.09825     15.51684         0.046395      0.436280      1.109716
      4.73907     12.34286      5.51517         0.566369      1.371259      1.038882
      1.11150     12.34286      7.51550        -0.307302      0.248998     -0.122255
     11.99421     12.34286      9.51584        -0.381812      0.218551      0.024137
      8.36664     12.34286     11.51617        -0.344575      0.208844     -0.034217
      4.73907     12.34286     13.51651        -0.361761      0.272064      0.006207
      1.11149     12.34285     15.51684         2.479590     -0.521973     -3.218594
      9.57583     15.58746      5.51517        -0.865945      1.657679      0.987300
      5.94826     15.58746      7.51550        -0.230728      0.215264     -0.035791
      2.32069     15.58746      9.51584        -0.322616      0.299870     -0.046823
     13.20340     15.58746     11.51617        -0.384448      0.247530      0.059848
      9.57583     15.58746     13.51651        -0.424810      0.227002      0.079210
      5.94826     15.58745     15.51684        -3.373985     -0.461930     -5.560815
      4.73907      2.60906      5.51517        -0.283778      0.678606     -0.819677
      1.11150      2.60906      7.51550        -0.549609      0.232665      0.161607
     11.99421      2.60906      9.51584        -0.344972      0.225044     -0.113233
      8.36664      2.60906     11.51617        -0.330677      0.241025      0.082296
      4.73907      2.60905     13.51651        -0.374345      0.202828      0.118579
      1.11149      2.60905     15.51684        -0.001753      0.418508      0.723617
      9.57584      5.85366      5.51517         0.029086      0.499949      0.182891
      5.94826      5.85366      7.51550        -0.451156      0.177758     -0.056095
      2.32069      5.85366      9.51584        -0.336305      0.260915     -0.008898
     13.20341      5.85366     11.51617        -0.298830      0.317042      0.008490
      9.57583      5.85366     13.51651        -0.289785      0.336447      0.050090
      5.94826      5.85366     15.51684        -0.197894      0.647688      0.374930
     14.41260     16.39861      5.51517         0.176201     -0.391427     -0.355107
     10.78502     16.39861      7.51550         0.401295     -0.410345     -0.014161
      7.15745     16.39861      9.51584         0.317197     -0.280947      0.009257
      3.52988     16.39861     11.51617         0.327808     -0.293908      0.032633
     14.41260     16.39861     13.51651         0.395514     -0.197969      0.056250
     10.78502     16.39861     15.51684         0.337432     -0.435782      0.536398
      4.73907      0.17561      5.51517        -0.119952     -1.066568     -0.627258
      1.11150      0.17561      7.51550         0.342074     -0.232109     -0.111125
     11.99421      0.17561      9.51584         0.328877     -0.297204     -0.096895
      8.36664      0.17561     11.51617         0.324900     -0.246441     -0.009361
      4.73907      0.17560     13.51651         0.334293     -0.427396     -0.011522
      1.11149      0.17560     15.51684         1.434798     -0.367972     -3.090879
     14.41260      6.66481      5.51517        -0.103331     -0.680260     -0.667539
     10.78503      6.66481      7.51550         0.550875     -0.294254      0.096974
      7.15745      6.66481      9.51584         0.387130     -0.269643     -0.107427
      3.52988      6.66481     11.51617         0.326552     -0.257326      0.019309
     14.41260      6.66481     13.51651         0.302741     -0.260388     -0.176523
     10.78502      6.66480     15.51684        -0.260207     -0.791164      0.591253
      4.73907      9.90941      5.51517         0.734504     -0.849848      0.450758
      1.11150      9.90941      7.51550         0.368998     -0.274562      0.030072
     11.99422      9.90941      9.51584         0.275798     -0.326120      0.052041
      8.36664      9.90941     11.51617         0.270424     -0.373771      0.046416
      4.73907      9.90941     13.51651         0.487842     -0.321082      0.039524
      1.11149      9.90941     15.51684         0.445143     -0.684169      0.558889
      9.57584     13.15401      5.51517        -1.559698     -2.460781      2.499832
      5.94826     13.15401      7.51550         0.530990     -0.144833     -0.081851
      2.32069     13.15401      9.51584         0.275537     -0.240699      0.014395
     13.20341     13.15401     11.51617         0.364693     -0.260357      0.022936
      9.57583     13.15401     13.51651         0.418958     -0.255593      0.085227
      5.94826     13.15401     15.51684        -0.022931     -0.820064      0.870343
      9.57584      3.42021      5.51517         0.382123     -0.989338     -0.407124
      5.94826      3.42021      7.51550         0.335938     -0.221302      0.095366
      2.32069      3.42021      9.51584         0.346068     -0.246678     -0.067601
     13.20341      3.42021     11.51617         0.339211     -0.238026      0.017189
      9.57583      3.42021     13.51651         0.376140     -0.164461      0.058768
      5.94826      3.42020     15.51684        -3.133117      1.250838     -5.426595
     11.99422      0.17561      5.51517         0.734504     -0.849848      0.450758
      8.36664      0.17561      7.51550         0.368998     -0.274562      0.030072
      4.73907      0.17561      9.51584         0.275798     -0.326120      0.052041
      1.11149      0.17561     11.51617         0.270424     -0.373771      0.046416
     11.99421      0.17560     13.51651         0.487842     -0.321082      0.039524
      8.36664      0.17560     15.51684         0.445143     -0.684169      0.558889
     11.99422      9.90941      5.51517        -0.119952     -1.066568     -0.627258
      8.36664      9.90941      7.51550         0.342074     -0.232109     -0.111125
      4.73907      9.90941      9.51584         0.328877     -0.297204     -0.096895
      1.11149      9.90941     11.51617         0.324900     -0.246441     -0.009361
     11.99421      9.90941     13.51651         0.334293     -0.427396     -0.011522
      8.36664      9.90940     15.51684         1.434798     -0.367972     -3.090879
      2.32069     13.15401      5.51517         0.382123     -0.989338     -0.407124
     13.20341     13.15401      7.51550         0.335938     -0.221302      0.095366
      9.57583     13.15401      9.51584         0.346068     -0.246678     -0.067601
      5.94826     13.15401     11.51617         0.339211     -0.238026      0.017189
      2.32069     13.15401     13.51651         0.376140     -0.164461      0.058768
     13.20340     13.15401     15.51684        -3.133117      1.250838     -5.426595
      7.15745     16.39861      5.51517        -0.103331     -0.680260     -0.667539
      3.52988     16.39861      7.51550         0.550875     -0.294254      0.096974
     14.41260     16.39861      9.51584         0.387130     -0.269643     -0.107427
     10.78502     16.39861     11.51617         0.326552     -0.257326      0.019309
      7.15745     16.39861     13.51651         0.302741     -0.260388     -0.176523
      3.52987     16.39861     15.51684        -0.260207     -0.791164      0.591253
      2.32069      3.42021      5.51517        -1.559698     -2.460781      2.499832
     13.20341      3.42021      7.51550         0.530990     -0.144833     -0.081851
      9.57583      3.42021      9.51584         0.275537     -0.240699      0.014395
      5.94826      3.42021     11.51617         0.364693     -0.260357      0.022936
      2.32069      3.42021     13.51651         0.418958     -0.255593      0.085227
     13.20340      3.42020     15.51684        -0.022931     -0.820064      0.870343
      7.15745      6.66481      5.51517         0.176201     -0.391427     -0.355107
      3.52988      6.66481      7.51550         0.401295     -0.410345     -0.014161
     14.41260      6.66481      9.51584         0.317197     -0.280947      0.009257
     10.78502      6.66481     11.51617         0.327808     -0.293908      0.032633
      7.15745      6.66481     13.51651         0.395514     -0.197969      0.056250
      3.52987      6.66480     15.51684         0.337432     -0.435782      0.536398
 -----------------------------------------------------------------------------------
    total drift:                                0.752449     -0.002513      0.086725


--------------------------------------------------------------------------------------------------------



  FREE ENERGIE OF THE ION-ELECTRON SYSTEM (eV)
  ---------------------------------------------------
  free  energy   TOTEN  =      -732.97341129 eV

  energy  without entropy=     -732.96940043  energy(sigma->0) =     -732.97140586
 


--------------------------------------------------------------------------------------------------------


    POTLOK:  cpu time      2.7881: real time      2.8050


--------------------------------------------------------------------------------------------------------


     LOOP+:  cpu time   2112.3368: real time   2133.8414
    4ORBIT:  cpu time      0.0000: real time      0.0000

 total amount of memory used by VASP MPI-rank0   462083. kBytes
=======================================================================

   base      :      30000. kBytes
   nonlr-proj:      18546. kBytes
   fftplans  :      29372. kBytes
   grid      :      21893. kBytes
   one-center:        194. kBytes
   wavefun   :     362078. kBytes
 
  
  
 General timing and accounting informations for this job:
 ========================================================
  
                  Total CPU time used (sec):     2276.900
                            User time (sec):     2176.912
                          System time (sec):       99.988
                         Elapsed time (sec):     2302.577
  
                   Maximum memory used (kb):      764156.
                   Average memory used (kb):          N/A
  
                          Minor page faults:       390329
                          Major page faults:           27
                 Voluntary context switches:         2154
