 120 120   0   0
  0.2190039E+02  0.7680595E-09  0.1629300E-08  0.2100086E-08  0.5000000E-15
  1.000000000000000E-004
  CAR 
 Si and Ge interface calculation         
      7.79961164     -8.57351330  301      4.75107196      1.00000000
     -8.574  0.0000E+00  0.0000E+00  0.0000E+00  0.0000E+00
     -8.519  0.0000E+00  0.0000E+00  0.0000E+00  0.0000E+00
     -8.464  0.0000E+00  0.0000E+00  0.0000E+00  0.0000E+00
     -8.410  0.0000E+00  0.0000E+00  0.0000E+00  0.0000E+00
     -8.355  0.0000E+00  0.0000E+00  0.0000E+00  0.0000E+00
     -8.301  0.0000E+00  0.0000E+00  0.0000E+00  0.0000E+00
     -8.246  0.0000E+00  0.0000E+00  0.0000E+00  0.0000E+00
     -8.191  0.0000E+00  0.0000E+00  0.0000E+00  0.0000E+00
     -8.137  0.0000E+00  0.0000E+00  0.0000E+00  0.0000E+00
     -8.082  0.0000E+00  0.0000E+00  0.0000E+00  0.0000E+00
     -8.028  0.0000E+00  0.0000E+00  0.0000E+00  0.0000E+00
     -7.973  0.0000E+00  0.0000E+00  0.0000E+00  0.0000E+00
     -7.919  0.0000E+00  0.0000E+00  0.0000E+00  0.0000E+00
     -7.864  0.2068E-05  0.1298E-07  0.1129E-06  0.7084E-09
     -7.809  0.4569E+01  0.4447E+01  0.2494E+00  0.2427E+00
     -7.755  0.1147E-01  0.1339E+00  0.2500E+00  0.2500E+00
     -7.700  0.1025E+02  0.9069E+01  0.8096E+00  0.7450E+00
     -7.646  0.8070E+01  0.9253E+01  0.1250E+01  0.1250E+01
     -7.591  0.2386E+01  0.3959E+00  0.1380E+01  0.1272E+01
     -7.537  0.2052E+02  0.2251E+02  0.2500E+01  0.2500E+01
     -7.482  0.2726E-01  0.6928E-02  0.2501E+01  0.2500E+01
     -7.427  0.2270E+02  0.2244E+02  0.3740E+01  0.3725E+01
     -7.373  0.2610E+00  0.4644E+00  0.3755E+01  0.3750E+01
     -7.318  0.2728E+02  0.2289E+02  0.5244E+01  0.5000E+01
     -7.264  0.1827E+02  0.2214E+02  0.6240E+01  0.6208E+01
     -7.209  0.2312E+02  0.1839E+02  0.7502E+01  0.7212E+01
     -7.155  0.1922E+02  0.2279E+02  0.8551E+01  0.8455E+01
     -7.100  0.1293E+02  0.1321E+02  0.9256E+01  0.9177E+01
     -7.045  0.2432E+02  0.2476E+02  0.1058E+02  0.1053E+02
     -6.991  0.2500E+02  0.2528E+02  0.1195E+02  0.1191E+02
     -6.936  0.1443E+02  0.8888E+01  0.1274E+02  0.1239E+02
     -6.882  0.3555E+02  0.3913E+02  0.1468E+02  0.1453E+02
     -6.827  0.9514E+01  0.1000E+02  0.1520E+02  0.1507E+02
     -6.772  0.3286E+02  0.3438E+02  0.1699E+02  0.1695E+02
     -6.718  0.1051E+02  0.9835E+01  0.1756E+02  0.1749E+02
     -6.663  0.2000E+02  0.1977E+02  0.1865E+02  0.1857E+02
     -6.609  0.1350E+02  0.1352E+02  0.1939E+02  0.1930E+02
     -6.554  0.3460E+02  0.3260E+02  0.2128E+02  0.2108E+02
     -6.500  0.3987E+02  0.3795E+02  0.2346E+02  0.2315E+02
     -6.445  0.4130E+02  0.4308E+02  0.2571E+02  0.2551E+02
     -6.390  0.3334E+02  0.3291E+02  0.2753E+02  0.2730E+02
     -6.336  0.4642E+02  0.4552E+02  0.3006E+02  0.2979E+02
     -6.281  0.1673E+02  0.1886E+02  0.3098E+02  0.3082E+02
     -6.227  0.3584E+02  0.3202E+02  0.3293E+02  0.3256E+02
     -6.172  0.2491E+02  0.3099E+02  0.3429E+02  0.3425E+02
     -6.118  0.4934E+02  0.4411E+02  0.3698E+02  0.3666E+02
     -6.063  0.1287E+02  0.1678E+02  0.3769E+02  0.3758E+02
     -6.008  0.2709E+02  0.2613E+02  0.3917E+02  0.3900E+02
     -5.954  0.3946E+02  0.4126E+02  0.4132E+02  0.4126E+02
     -5.899  0.4763E+02  0.4521E+02  0.4392E+02  0.4372E+02
     -5.845  0.2079E+02  0.2364E+02  0.4505E+02  0.4501E+02
     -5.790  0.4302E+02  0.3886E+02  0.4740E+02  0.4713E+02
     -5.736  0.5465E+02  0.5547E+02  0.5038E+02  0.5016E+02
     -5.681  0.2914E+02  0.2995E+02  0.5198E+02  0.5180E+02
     -5.626  0.4542E+02  0.4607E+02  0.5445E+02  0.5431E+02
     -5.572  0.3136E+02  0.2832E+02  0.5617E+02  0.5586E+02
     -5.517  0.4114E+02  0.4308E+02  0.5841E+02  0.5821E+02
     -5.463  0.4707E+02  0.4871E+02  0.6098E+02  0.6087E+02
     -5.408  0.2996E+02  0.2952E+02  0.6261E+02  0.6248E+02
     -5.353  0.4642E+02  0.4437E+02  0.6515E+02  0.6490E+02
     -5.299  0.4247E+02  0.4542E+02  0.6747E+02  0.6738E+02
     -5.244  0.3762E+02  0.3547E+02  0.6952E+02  0.6931E+02
     -5.190  0.6063E+02  0.5767E+02  0.7283E+02  0.7246E+02
     -5.135  0.3700E+02  0.4220E+02  0.7485E+02  0.7476E+02
     -5.081  0.3674E+02  0.3114E+02  0.7685E+02  0.7646E+02
     -5.026  0.3722E+02  0.4079E+02  0.7888E+02  0.7869E+02
     -4.971  0.4612E+02  0.4376E+02  0.8140E+02  0.8108E+02
     -4.917  0.3247E+02  0.3368E+02  0.8317E+02  0.8292E+02
     -4.862  0.4597E+02  0.4855E+02  0.8568E+02  0.8557E+02
     -4.808  0.2598E+02  0.2640E+02  0.8710E+02  0.8701E+02
     -4.753  0.3292E+02  0.3040E+02  0.8890E+02  0.8867E+02
     -4.699  0.5282E+02  0.5594E+02  0.9178E+02  0.9172E+02
     -4.644  0.2866E+02  0.2153E+02  0.9334E+02  0.9289E+02
     -4.589  0.2843E+02  0.3330E+02  0.9489E+02  0.9471E+02
     -4.535  0.3613E+02  0.3416E+02  0.9687E+02  0.9658E+02
     -4.480  0.3865E+02  0.3729E+02  0.9898E+02  0.9861E+02
     -4.426  0.3295E+02  0.3583E+02  0.1008E+03  0.1006E+03
     -4.371  0.4955E+02  0.4658E+02  0.1035E+03  0.1031E+03
     -4.317  0.2915E+02  0.3381E+02  0.1051E+03  0.1050E+03
     -4.262  0.2610E+02  0.2754E+02  0.1065E+03  0.1065E+03
     -4.207  0.3076E+02  0.2648E+02  0.1082E+03  0.1079E+03
     -4.153  0.1716E+02  0.1749E+02  0.1091E+03  0.1089E+03
     -4.098  0.1010E+02  0.1264E+02  0.1097E+03  0.1095E+03
     -4.044  0.2112E+02  0.1984E+02  0.1108E+03  0.1106E+03
     -3.989  0.1825E+02  0.1490E+02  0.1118E+03  0.1114E+03
     -3.934  0.1872E+02  0.2226E+02  0.1128E+03  0.1127E+03
     -3.880  0.1766E+02  0.1960E+02  0.1138E+03  0.1137E+03
     -3.825  0.1257E+02  0.1272E+02  0.1145E+03  0.1144E+03
     -3.771  0.3147E+02  0.2556E+02  0.1162E+03  0.1158E+03
     -3.716  0.2252E+02  0.2750E+02  0.1174E+03  0.1173E+03
     -3.662  0.1689E+01  0.3339E+01  0.1175E+03  0.1175E+03
     -3.607  0.2244E+02  0.2120E+02  0.1187E+03  0.1187E+03
     -3.552  0.3098E+02  0.2796E+02  0.1204E+03  0.1202E+03
     -3.498  0.1784E+02  0.1525E+02  0.1214E+03  0.1210E+03
     -3.443  0.6766E+01  0.1346E+02  0.1218E+03  0.1217E+03
     -3.389  0.1832E+02  0.1585E+02  0.1228E+03  0.1226E+03
     -3.334  0.2330E+02  0.2542E+02  0.1240E+03  0.1240E+03
     -3.280  0.1940E+02  0.1928E+02  0.1251E+03  0.1251E+03
     -3.225  0.1047E+02  0.8954E+01  0.1257E+03  0.1255E+03
     -3.170  0.5457E+02  0.4612E+02  0.1287E+03  0.1281E+03
     -3.116  0.1331E+02  0.2289E+02  0.1294E+03  0.1293E+03
     -3.061  0.1455E+02  0.1049E+02  0.1302E+03  0.1299E+03
     -3.007  0.9095E+01  0.1189E+02  0.1307E+03  0.1305E+03
     -2.952  0.3484E+02  0.3369E+02  0.1326E+03  0.1324E+03
     -2.897  0.2543E+02  0.2268E+02  0.1340E+03  0.1336E+03
     -2.843  0.3683E+02  0.3638E+02  0.1360E+03  0.1356E+03
     -2.788  0.3478E+02  0.3829E+02  0.1379E+03  0.1377E+03
     -2.734  0.2168E+02  0.2235E+02  0.1391E+03  0.1389E+03
     -2.679  0.5163E+02  0.4730E+02  0.1419E+03  0.1415E+03
     -2.625  0.6201E+02  0.6541E+02  0.1453E+03  0.1451E+03
     -2.570  0.4242E+02  0.4254E+02  0.1476E+03  0.1474E+03
     -2.515  0.6182E+02  0.5834E+02  0.1509E+03  0.1506E+03
     -2.461  0.6309E+02  0.6113E+02  0.1544E+03  0.1539E+03
     -2.406  0.5485E+02  0.5682E+02  0.1574E+03  0.1570E+03
     -2.352  0.6644E+02  0.6559E+02  0.1610E+03  0.1606E+03
     -2.297  0.5495E+02  0.5507E+02  0.1640E+03  0.1636E+03
     -2.243  0.3410E+02  0.3461E+02  0.1659E+03  0.1655E+03
     -2.188  0.4980E+02  0.4924E+02  0.1686E+03  0.1682E+03
     -2.133  0.5639E+02  0.5165E+02  0.1717E+03  0.1710E+03
     -2.079  0.5056E+02  0.5994E+02  0.1744E+03  0.1743E+03
     -2.024  0.3412E+02  0.3135E+02  0.1763E+03  0.1760E+03
     -1.970  0.3994E+02  0.3805E+02  0.1785E+03  0.1780E+03
     -1.915  0.2382E+02  0.2850E+02  0.1798E+03  0.1796E+03
     -1.861  0.2104E+02  0.2045E+02  0.1809E+03  0.1807E+03
     -1.806  0.2519E+02  0.2271E+02  0.1823E+03  0.1819E+03
     -1.751  0.2588E+02  0.2789E+02  0.1837E+03  0.1835E+03
     -1.697  0.4409E+02  0.4357E+02  0.1861E+03  0.1858E+03
     -1.642  0.6506E+02  0.5793E+02  0.1897E+03  0.1890E+03
     -1.588  0.4055E+02  0.4437E+02  0.1919E+03  0.1914E+03
     -1.533  0.1081E+02  0.1534E+02  0.1925E+03  0.1923E+03
     -1.478  0.1943E+02  0.2192E+02  0.1935E+03  0.1935E+03
     -1.424  0.3447E+02  0.2951E+02  0.1954E+03  0.1951E+03
     -1.369  0.3226E+02  0.3408E+02  0.1972E+03  0.1969E+03
     -1.315  0.1623E+02  0.1934E+02  0.1981E+03  0.1980E+03
     -1.260  0.1987E+02  0.1909E+02  0.1991E+03  0.1990E+03
     -1.206  0.1361E+02  0.1327E+02  0.1999E+03  0.1998E+03
     -1.151  0.8619E+01  0.9449E+01  0.2003E+03  0.2003E+03
     -1.096  0.1651E+02  0.1438E+02  0.2013E+03  0.2011E+03
     -1.042  0.1926E+02  0.2069E+02  0.2023E+03  0.2022E+03
     -0.987  0.4326E+02  0.4176E+02  0.2047E+03  0.2045E+03
     -0.933  0.1515E+02  0.1843E+02  0.2055E+03  0.2055E+03
     -0.878  0.4754E+01  0.4808E+01  0.2057E+03  0.2057E+03
     -0.824  0.1621E+02  0.1120E+02  0.2066E+03  0.2063E+03
     -0.769  0.1004E+02  0.1244E+02  0.2072E+03  0.2070E+03
     -0.714  0.2408E+02  0.2520E+02  0.2085E+03  0.2084E+03
     -0.660  0.3132E+02  0.2299E+02  0.2102E+03  0.2097E+03
     -0.605  0.3117E+02  0.3657E+02  0.2119E+03  0.2117E+03
     -0.551  0.4690E+02  0.4485E+02  0.2145E+03  0.2141E+03
     -0.496  0.5075E+02  0.5594E+02  0.2172E+03  0.2172E+03
     -0.442  0.1176E+02  0.8149E+01  0.2179E+03  0.2176E+03
     -0.387  0.2628E+02  0.2600E+02  0.2193E+03  0.2190E+03
     -0.332  0.1261E+02  0.1805E+02  0.2200E+03  0.2200E+03
     -0.278  0.8851E+01  0.7130E+01  0.2205E+03  0.2204E+03
     -0.223  0.1260E+02  0.1209E+02  0.2212E+03  0.2210E+03
     -0.169  0.3049E+02  0.2990E+02  0.2228E+03  0.2227E+03
     -0.114  0.7630E+01  0.1012E+02  0.2233E+03  0.2232E+03
     -0.059  0.6344E+01  0.5465E+01  0.2236E+03  0.2235E+03
     -0.005  0.2953E+02  0.2792E+02  0.2252E+03  0.2251E+03
      0.050  0.5337E+01  0.8146E+01  0.2255E+03  0.2255E+03
      0.104  0.4593E+01  0.4500E+01  0.2258E+03  0.2257E+03
      0.159  0.2753E+02  0.2329E+02  0.2273E+03  0.2270E+03
      0.213  0.5158E+02  0.4737E+02  0.2301E+03  0.2296E+03
      0.268  0.8266E+02  0.8120E+02  0.2346E+03  0.2340E+03
      0.323  0.3419E+02  0.3916E+02  0.2364E+03  0.2362E+03
      0.377  0.3767E+02  0.4008E+02  0.2385E+03  0.2384E+03
      0.432  0.4591E+02  0.4226E+02  0.2410E+03  0.2407E+03
      0.486  0.3977E+02  0.4320E+02  0.2432E+03  0.2430E+03
      0.541  0.4767E+02  0.4786E+02  0.2458E+03  0.2456E+03
      0.595  0.4711E+02  0.4033E+02  0.2484E+03  0.2478E+03
      0.650  0.6393E+02  0.6814E+02  0.2518E+03  0.2516E+03
      0.705  0.2981E+02  0.2975E+02  0.2535E+03  0.2532E+03
      0.759  0.1210E+03  0.1124E+03  0.2601E+03  0.2593E+03
      0.814  0.8010E+02  0.8668E+02  0.2644E+03  0.2640E+03
      0.868  0.5938E+02  0.6194E+02  0.2677E+03  0.2674E+03
      0.923  0.5870E+02  0.5525E+02  0.2709E+03  0.2704E+03
      0.977  0.5220E+02  0.5291E+02  0.2737E+03  0.2733E+03
      1.032  0.3596E+02  0.3813E+02  0.2757E+03  0.2754E+03
      1.087  0.1010E+03  0.9888E+02  0.2812E+03  0.2808E+03
      1.141  0.5321E+02  0.5508E+02  0.2841E+03  0.2838E+03
      1.196  0.9112E+02  0.7957E+02  0.2891E+03  0.2882E+03
      1.250  0.5924E+02  0.6834E+02  0.2923E+03  0.2919E+03
      1.305  0.7409E+02  0.7196E+02  0.2964E+03  0.2958E+03
      1.360  0.9234E+02  0.9145E+02  0.3014E+03  0.3008E+03
      1.414  0.6983E+02  0.6779E+02  0.3052E+03  0.3045E+03
      1.469  0.8039E+02  0.8454E+02  0.3096E+03  0.3091E+03
      1.523  0.4550E+02  0.4712E+02  0.3121E+03  0.3117E+03
      1.578  0.5757E+02  0.5758E+02  0.3152E+03  0.3148E+03
      1.632  0.8977E+02  0.8667E+02  0.3201E+03  0.3196E+03
      1.687  0.7545E+02  0.7805E+02  0.3242E+03  0.3238E+03
      1.742  0.7725E+02  0.7665E+02  0.3285E+03  0.3280E+03
      1.796  0.9911E+02  0.9450E+02  0.3339E+03  0.3332E+03
      1.851  0.1005E+03  0.9658E+02  0.3394E+03  0.3384E+03
      1.905  0.7504E+02  0.8284E+02  0.3434E+03  0.3430E+03
      1.960  0.7795E+02  0.8044E+02  0.3477E+03  0.3473E+03
      2.014  0.4477E+02  0.4672E+02  0.3501E+03  0.3499E+03
      2.069  0.5877E+02  0.6011E+02  0.3534E+03  0.3532E+03
      2.124  0.7737E+02  0.7107E+02  0.3576E+03  0.3570E+03
      2.178  0.4904E+02  0.4957E+02  0.3602E+03  0.3598E+03
      2.233  0.9181E+02  0.9015E+02  0.3653E+03  0.3647E+03
      2.287  0.6062E+02  0.6044E+02  0.3686E+03  0.3680E+03
      2.342  0.8944E+02  0.9324E+02  0.3735E+03  0.3731E+03
      2.396  0.5843E+02  0.5552E+02  0.3766E+03  0.3761E+03
      2.451  0.7905E+02  0.7771E+02  0.3810E+03  0.3803E+03
      2.506  0.7237E+02  0.7279E+02  0.3849E+03  0.3843E+03
      2.560  0.6398E+02  0.7184E+02  0.3884E+03  0.3882E+03
      2.615  0.7094E+02  0.6740E+02  0.3923E+03  0.3919E+03
      2.669  0.5444E+02  0.5192E+02  0.3952E+03  0.3947E+03
      2.724  0.7255E+02  0.7710E+02  0.3992E+03  0.3989E+03
      2.779  0.6469E+02  0.6184E+02  0.4027E+03  0.4023E+03
      2.833  0.3870E+02  0.4173E+02  0.4048E+03  0.4046E+03
      2.888  0.6626E+02  0.5837E+02  0.4085E+03  0.4078E+03
      2.942  0.7661E+02  0.7814E+02  0.4126E+03  0.4121E+03
      2.997  0.5006E+02  0.5356E+02  0.4154E+03  0.4150E+03
      3.051  0.6257E+02  0.5569E+02  0.4188E+03  0.4180E+03
      3.106  0.7502E+02  0.8504E+02  0.4229E+03  0.4227E+03
      3.161  0.5860E+02  0.4784E+02  0.4261E+03  0.4253E+03
      3.215  0.7523E+02  0.7288E+02  0.4302E+03  0.4292E+03
      3.270  0.8639E+02  0.9041E+02  0.4349E+03  0.4342E+03
      3.324  0.5715E+02  0.6264E+02  0.4380E+03  0.4376E+03
      3.379  0.7051E+02  0.6936E+02  0.4419E+03  0.4414E+03
      3.433  0.5842E+02  0.5960E+02  0.4451E+03  0.4446E+03
      3.488  0.5002E+02  0.5473E+02  0.4478E+03  0.4476E+03
      3.543  0.3581E+02  0.2348E+02  0.4497E+03  0.4489E+03
      3.597  0.5263E+02  0.6113E+02  0.4526E+03  0.4522E+03
      3.652  0.2336E+02  0.2656E+02  0.4539E+03  0.4537E+03
      3.706  0.3302E+02  0.2979E+02  0.4557E+03  0.4553E+03
      3.761  0.3433E+02  0.3764E+02  0.4576E+03  0.4574E+03
      3.815  0.3345E+02  0.3146E+02  0.4594E+03  0.4591E+03
      3.870  0.1782E+02  0.2177E+02  0.4604E+03  0.4603E+03
      3.925  0.3836E+02  0.3312E+02  0.4625E+03  0.4621E+03
      3.979  0.2668E+02  0.2552E+02  0.4639E+03  0.4635E+03
      4.034  0.3374E+02  0.3843E+02  0.4657E+03  0.4656E+03
      4.088  0.2572E+02  0.2629E+02  0.4672E+03  0.4670E+03
      4.143  0.2290E+02  0.1810E+02  0.4684E+03  0.4680E+03
      4.198  0.2187E+02  0.2092E+02  0.4696E+03  0.4691E+03
      4.252  0.2288E+02  0.1728E+02  0.4708E+03  0.4701E+03
      4.307  0.2213E+02  0.3181E+02  0.4721E+03  0.4718E+03
      4.361  0.8192E+01  0.1255E+02  0.4725E+03  0.4725E+03
      4.416  0.1390E+02  0.5183E+01  0.4733E+03  0.4728E+03
      4.470  0.2411E+02  0.1207E+02  0.4746E+03  0.4734E+03
      4.525  0.2270E+02  0.3115E+02  0.4758E+03  0.4751E+03
      4.580  0.1706E+02  0.1603E+02  0.4767E+03  0.4760E+03
      4.634  0.1096E+00  0.1233E+02  0.4768E+03  0.4767E+03
      4.689  0.2320E+02  0.1579E+01  0.4780E+03  0.4768E+03
      4.743  0.4421E+02  0.3386E+02  0.4804E+03  0.4786E+03
      4.798  0.3252E+02  0.3189E+02  0.4822E+03  0.4804E+03
      4.852  0.2315E+02  0.4374E+02  0.4835E+03  0.4828E+03
      4.907  0.2470E+02  0.2109E+02  0.4848E+03  0.4839E+03
      4.962  0.2629E+02  0.3077E+02  0.4863E+03  0.4856E+03
      5.016  0.3405E+02  0.1276E+02  0.4881E+03  0.4863E+03
      5.071  0.3843E+02  0.3801E+02  0.4902E+03  0.4884E+03
      5.125  0.3157E+02  0.4886E+02  0.4919E+03  0.4910E+03
      5.180  0.2708E+02  0.2525E+02  0.4934E+03  0.4924E+03
      5.234  0.3273E+02  0.3278E+02  0.4952E+03  0.4942E+03
      5.289  0.4733E+02  0.4905E+02  0.4978E+03  0.4969E+03
      5.344  0.2875E+02  0.4236E+02  0.4993E+03  0.4992E+03
      5.398  0.4900E+02  0.3948E+02  0.5020E+03  0.5013E+03
      5.453  0.3741E+02  0.4402E+02  0.5041E+03  0.5037E+03
      5.507  0.2920E+02  0.2309E+02  0.5057E+03  0.5050E+03
      5.562  0.4687E+02  0.4319E+02  0.5082E+03  0.5073E+03
      5.617  0.3718E+02  0.4594E+02  0.5102E+03  0.5099E+03
      5.671  0.7099E+02  0.5455E+02  0.5141E+03  0.5128E+03
      5.726  0.5081E+02  0.5488E+02  0.5169E+03  0.5158E+03
      5.780  0.3964E+02  0.5096E+02  0.5191E+03  0.5186E+03
      5.835  0.4858E+02  0.4456E+02  0.5217E+03  0.5210E+03
      5.889  0.6856E+02  0.7095E+02  0.5254E+03  0.5249E+03
      5.944  0.5254E+02  0.4228E+02  0.5283E+03  0.5272E+03
      5.999  0.3812E+02  0.5291E+02  0.5304E+03  0.5301E+03
      6.053  0.4850E+02  0.4543E+02  0.5330E+03  0.5326E+03
      6.108  0.5293E+02  0.5265E+02  0.5359E+03  0.5355E+03
      6.162  0.6202E+02  0.5837E+02  0.5393E+03  0.5386E+03
      6.217  0.4939E+02  0.5418E+02  0.5420E+03  0.5416E+03
      6.271  0.4496E+02  0.4594E+02  0.5445E+03  0.5441E+03
      6.326  0.2640E+02  0.2284E+02  0.5459E+03  0.5454E+03
      6.381  0.6459E+02  0.5952E+02  0.5494E+03  0.5486E+03
      6.435  0.5297E+02  0.5958E+02  0.5523E+03  0.5519E+03
      6.490  0.6970E+02  0.6918E+02  0.5561E+03  0.5556E+03
      6.544  0.6521E+02  0.6434E+02  0.5597E+03  0.5591E+03
      6.599  0.2738E+02  0.3215E+02  0.5612E+03  0.5609E+03
      6.653  0.4206E+02  0.4350E+02  0.5635E+03  0.5633E+03
      6.708  0.5344E+02  0.5110E+02  0.5664E+03  0.5661E+03
      6.763  0.3577E+02  0.3563E+02  0.5683E+03  0.5680E+03
      6.817  0.5033E+02  0.4827E+02  0.5711E+03  0.5706E+03
      6.872  0.4742E+02  0.4942E+02  0.5737E+03  0.5733E+03
      6.926  0.1497E+02  0.1931E+02  0.5745E+03  0.5744E+03
      6.981  0.4887E+01  0.5876E+01  0.5748E+03  0.5747E+03
      7.036  0.1552E+02  0.1834E+02  0.5756E+03  0.5757E+03
      7.090  0.7176E+01  0.5200E+01  0.5760E+03  0.5760E+03
      7.145  0.0000E+00  0.0000E+00  0.5760E+03  0.5760E+03
      7.199  0.0000E+00  0.0000E+00  0.5760E+03  0.5760E+03
      7.254  0.0000E+00  0.0000E+00  0.5760E+03  0.5760E+03
      7.308  0.0000E+00  0.0000E+00  0.5760E+03  0.5760E+03
      7.363  0.0000E+00  0.0000E+00  0.5760E+03  0.5760E+03
      7.418  0.0000E+00  0.0000E+00  0.5760E+03  0.5760E+03
      7.472  0.0000E+00  0.0000E+00  0.5760E+03  0.5760E+03
      7.527  0.0000E+00  0.0000E+00  0.5760E+03  0.5760E+03
      7.581  0.0000E+00  0.0000E+00  0.5760E+03  0.5760E+03
      7.636  0.0000E+00  0.0000E+00  0.5760E+03  0.5760E+03
      7.690  0.0000E+00  0.0000E+00  0.5760E+03  0.5760E+03
      7.745  0.0000E+00  0.0000E+00  0.5760E+03  0.5760E+03
      7.800  0.0000E+00  0.0000E+00  0.5760E+03  0.5760E+03
