 vasp.6.4.3 19Mar24 (build Oct 22 2024 11:23:12) complex                        
  
 executed on             LinuxIFC date 2025.06.04  00:28:04
 running   64 mpi-ranks, on    4 nodes
 distrk:  each k-point on   64 cores,    1 groups
 distr:  one band on NCORE=  16 cores,    4 groups


--------------------------------------------------------------------------------------------------------


 INCAR:
   SYSTEM = Si and Ge interface calculation
   ISTART = 0
   ICHARG = 2
   LWAVE = .FALSE.
   LREAL = AUTO
   ENCUT = 700
   ENAUG = 900
   ADDGRID = .TRUE.
   LMAXMIX = 6
   LASPH = .TRUE.
   LMIXTAU = .TRUE.
   NCORE = 16
   NELM = 100
   NBANDS = 116
   EDIFF = 1d-7
   AMIX = 0.6
   ISMEAR = 0
   SIGMA = 0.01
   NELECT = 192
   ISPIN = 2
   NUPDOWN = 1
   LVTOT = .FALSE.
   LVHAR = .TRUE.

 POTCAR:    PAW_PBE Si 05Jan2001                  
 -----------------------------------------------------------------------------
|                                                                             |
|           W    W    AA    RRRRR   N    N  II  N    N   GGGG   !!!           |
|           W    W   A  A   R    R  NN   N  II  NN   N  G    G  !!!           |
|           W    W  A    A  R    R  N N  N  II  N N  N  G       !!!           |
|           W WW W  AAAAAA  RRRRR   N  N N  II  N  N N  G  GGG   !            |
|           WW  WW  A    A  R   R   N   NN  II  N   NN  G    G                |
|           W    W  A    A  R    R  N    N  II  N    N   GGGG   !!!           |
|                                                                             |
|     You use a magnetic or noncollinear calculation, but did not specify     |
|     the initial magnetic moment with the MAGMOM tag. Note that a            |
|     default of 0.021 will be used for all atoms. This ferromagnetic         |
|     setup may break the symmetry of the crystal, in particular it may       |
|     rule out finding an antiferromagnetic solution. Thence, we              |
|     recommend setting the initial magnetic moment manually or verifying     |
|     carefully that this magnetic setup is desired.                          |
|                                                                             |
 -----------------------------------------------------------------------------

 POTCAR:    PAW_PBE Si 05Jan2001                  
   VRHFIN =Si: s2p2                                                                                 
   LEXCH  = PE                                                                                      
   EATOM  =   103.0669 eV,    7.5752 Ry                                                             
                                                                                                    
   TITEL  = PAW_PBE Si 05Jan2001                                                                    
   LULTRA =        F    use ultrasoft PP ?                                                          
   IUNSCR =        1    unscreen: 0-lin 1-nonlin 2-no                                               
   RPACOR =    1.500    partial core radius                                                         
   POMASS =   28.085; ZVAL   =    4.000    mass and valenz                                          
   RCORE  =    1.900    outmost cutoff radius                                                       
   RWIGS  =    2.480; RWIGS  =    1.312    wigner-seitz radius (au A)                               
   ENMAX  =  245.345; ENMIN  =  184.009 eV                                                          
   ICORE  =        2    local potential                                                             
   LCOR   =        T    correct aug charges                                                         
   LPAW   =        T    paw PP                                                                      
   EAUG   =  322.069                                                                                
   DEXC   =    0.000                                                                                
   RMAX   =    1.950    core radius for proj-oper                                                   
   RAUG   =    1.300    factor for augmentation sphere                                              
   RDEP   =    1.993    radius for radial grids                                                     
   RDEPT  =    1.837    core radius for aug-charge                                                  
                                                                                                    
   Atomic configuration                                                                             
    6 entries                                                                                       
     n  l   j            E        occ.                                                              
     1  0  0.50     -1785.8828   2.0000                                                             
     2  0  0.50      -139.4969   2.0000                                                             
     2  1  1.50       -95.5546   6.0000                                                             
     3  0  0.50       -10.8127   2.0000                                                             
     3  1  0.50        -4.0811   2.0000                                                             
     3  2  1.50        -4.0817   0.0000                                                             
   Description                                                                                      
     l       E           TYP  RCUT    TYP  RCUT                                                     
     0    -10.8127223     23  1.900                                                                 
     0     -7.6451159     23  1.900                                                                 
     1     -4.0811372     23  1.900                                                                 
     1      2.4879257     23  1.900                                                                 
     2     -4.0817478      7  1.900                                                                 
  local pseudopotential read in
  partial core-charges read in
  partial kinetic energy density read in
  atomic valenz-charges read in
  non local Contribution for L=           0  read in
    real space projection operators read in
  non local Contribution for L=           0  read in
    real space projection operators read in
  non local Contribution for L=           1  read in
    real space projection operators read in
  non local Contribution for L=           1  read in
    real space projection operators read in
    PAW grid and wavefunctions read in
 
   number of l-projection  operators is LMAX  =           4
   number of lm-projection operators is LMMAX =           8
 
 Optimization of the real space projectors (new method)

 maximal supplied QI-value         = 19.84
 optimisation between [QCUT,QGAM] = [ 13.49, 26.99] = [ 50.98,203.92] Ry 
 Optimized for a Real-space Cutoff    1.07 Angstroem

   l    n(q)    QCUT    max X(q) W(low)/X(q) W(high)/X(q)  e(spline) 
   0      9    13.493   159.560    0.22E-03    0.15E-03    0.72E-07
   0      9    13.493   115.863    0.21E-03    0.15E-03    0.71E-07
   1      8    13.493    88.339    0.15E-03    0.11E-03    0.13E-06
   1      8    13.493    48.592    0.15E-03    0.10E-03    0.13E-06
  PAW_PBE Si 05Jan2001                  :
 energy of atom  1       EATOM= -103.0669
 kinetic energy error for atom=    0.0003 (will be added to EATOM!!)
 
 
 POSCAR: Si+Si
  positions in direct lattice
  No initial velocities read in


 exchange-correlation table for PE
   RHO(1)=    0.500       N(1)  =     2000
   RHO(2)=  100.500       N(2)  =     4000
 


--------------------------------------------------------------------------------------------------------


 ion  position               nearest neighbor table
   1  0.994  0.994  0.000-  37 2.28  47 2.34  10 2.35  31 2.35  46 2.76  43 2.92  15 2.97  30 2.97

   2  0.827  0.827  0.300-  11 2.35  16 2.35  31 2.35  32 2.35
   3  0.661  0.661  0.600-  17 2.35  12 2.35  33 2.35  32 2.35  38 2.92  41 3.07
   4  0.327  0.327  0.000-  42 1.14  28 2.35  13 2.35  45 2.94  18 2.97  36 2.97  48 3.09
   5  0.161  0.161  0.300-  10 2.35  28 2.35  14 2.35  29 2.35
   6  0.994  0.994  0.600-  37 1.38  29 2.35  15 2.35  11 2.35  30 2.35  46 2.76  43 2.92
   7  0.661  0.661  0.000-  44 1.91  38 2.29  16 2.35  34 2.35  48 2.36  41 2.48  45 2.54  39 2.84
                            12 2.97  33 2.97
   8  0.494  0.494  0.300-  13 2.35  17 2.35  35 2.35  34 2.35  45 2.75
   9  0.327  0.327  0.600-  14 2.35  18 2.35  35 2.35  36 2.35
  10  0.244  0.994  0.150-   5 2.35   1 2.35  20 2.35  19 2.35
  11  0.077  0.827  0.450-   2 2.35  21 2.35   6 2.35  20 2.35
  12  0.911  0.661  0.750-  38 1.00   3 2.35  21 2.35  48 2.73  47 2.82   7 2.97  22 2.97  44 2.97

  13  0.577  0.327  0.150-  26 2.35   8 2.35  25 2.35   4 2.35  45 2.69  39 2.76  42 2.92
  14  0.411  0.161  0.450-   9 2.35  27 2.35   5 2.35  26 2.35
  15  0.244  0.994  0.750-  46 1.14  40 1.82  37 2.05   6 2.35  27 2.35   1 2.97  19 2.97  44 3.12

  16  0.911  0.661  0.150-  48 2.04  23 2.35   7 2.35   2 2.35  22 2.35  38 2.75
  17  0.744  0.494  0.450-   3 2.35  24 2.35   8 2.35  23 2.35
  18  0.577  0.327  0.750-   9 2.35  24 2.35  39 2.76  43 2.84  42 2.92   4 2.97  25 2.97
  19  0.494  0.994  0.000-  40 2.28  44 2.34  31 2.35  10 2.35  43 2.76  46 2.92  30 2.97  15 2.97

  20  0.327  0.827  0.300-  34 2.35  10 2.35  32 2.35  11 2.35
  21  0.161  0.661  0.600-  35 2.35  11 2.35  33 2.35  12 2.35  41 2.92  38 3.07
  22  0.161  0.661  0.000-  47 1.91  41 2.29  34 2.35  16 2.35  45 2.36  38 2.48  48 2.54  42 2.84
                            33 2.97  12 2.97
  23  0.994  0.494  0.300-  16 2.35  35 2.35  28 2.35  17 2.35  48 2.75
  24  0.827  0.327  0.600-  17 2.35  29 2.35  36 2.35  18 2.35
  25  0.827  0.327  0.000-  39 1.14  28 2.35  13 2.35  48 2.94  36 2.97  18 2.97  45 3.09
  26  0.661  0.161  0.300-  29 2.35  31 2.35  13 2.35  14 2.35
  27  0.494  0.994  0.600-  40 1.38  30 2.35  32 2.35  14 2.35  15 2.35  43 2.76  46 2.92
  28  0.077  0.327  0.150-  25 2.35   5 2.35  23 2.35   4 2.35  48 2.69  42 2.76  39 2.92
  29  0.911  0.161  0.450-  26 2.35  24 2.35   6 2.35   5 2.35
  30  0.744  0.994  0.750-  43 1.14  37 1.82  40 2.05  27 2.35   6 2.35  19 2.97   1 2.97  47 3.12

  31  0.744  0.994  0.150-  26 2.35   2 2.35  19 2.35   1 2.35
  32  0.577  0.827  0.450-  27 2.35  20 2.35   2 2.35   3 2.35
  33  0.411  0.661  0.750-  41 1.00  21 2.35   3 2.35  45 2.73  44 2.82  22 2.97   7 2.97  47 2.97

  34  0.411  0.661  0.150-  45 2.04  20 2.35  22 2.35   7 2.35   8 2.35  41 2.75
  35  0.244  0.494  0.450-  21 2.35  23 2.35   8 2.35   9 2.35
  36  0.077  0.327  0.750-  24 2.35   9 2.35  42 2.76  46 2.84  39 2.92  25 2.97   4 2.97
  37  0.989  0.973  0.750-   6 1.38  30 1.82  15 2.05   1 2.28  46 2.35  43 2.35  47 2.35
  38  0.878  0.696  0.850-  12 1.00   7 2.29  47 2.35  44 2.35  48 2.35  22 2.48  16 2.75   3 2.92
                            21 3.07
  39  0.767  0.418  0.950-  25 1.14  48 2.35  45 2.35  13 2.76  18 2.76   7 2.84  36 2.92  28 2.92

  40  0.489  0.973  0.750-  27 1.38  15 1.82  30 2.05  19 2.28  43 2.35  46 2.35  44 2.35
  41  0.378  0.696  0.850-  33 1.00  22 2.29  44 2.35  47 2.35  45 2.35   7 2.48  34 2.75  21 2.92
                             3 3.07
  42  0.267  0.418  0.950-   4 1.14  45 2.35  48 2.35  28 2.76  36 2.76  22 2.84  18 2.92  13 2.92

  43  0.684  0.085  0.800-  30 1.14  40 2.35  37 2.35  19 2.76  27 2.76  18 2.84   6 2.92   1 2.92

  44  0.573  0.807  0.900-   7 1.91  19 2.34  41 2.35  38 2.35  40 2.35  33 2.82  12 2.97  15 3.12

  45  0.462  0.529  1.000-  34 2.04  42 2.35  39 2.35  41 2.35  22 2.36   7 2.54  13 2.69  33 2.73
                             8 2.75   4 2.94  25 3.09
  46  0.184  0.085  0.800-  15 1.14  37 2.35  40 2.35   1 2.76   6 2.76  36 2.84  27 2.92  19 2.92

  47  0.073  0.807  0.900-  22 1.91   1 2.34  38 2.35  41 2.35  37 2.35  12 2.82  33 2.97  30 3.12

  48  0.962  0.529  1.000-  16 2.04  39 2.35  42 2.35  38 2.35   7 2.36  22 2.54  28 2.69  12 2.73
                            23 2.75  25 2.94   4 3.09
 
 -----------------------------------------------------------------------------
|                                                                             |
|           W    W    AA    RRRRR   N    N  II  N    N   GGGG   !!!           |
|           W    W   A  A   R    R  NN   N  II  NN   N  G    G  !!!           |
|           W    W  A    A  R    R  N N  N  II  N N  N  G       !!!           |
|           W WW W  AAAAAA  RRRRR   N  N N  II  N  N N  G  GGG   !            |
|           WW  WW  A    A  R   R   N   NN  II  N   NN  G    G                |
|           W    W  A    A  R    R  N    N  II  N    N   GGGG   !!!           |
|                                                                             |
|     The distance between some ions is very small. Please check the          |
|     nearest-neighbor list in the OUTCAR file.                               |
|     I HOPE YOU KNOW WHAT YOU ARE DOING!                                     |
|                                                                             |
 -----------------------------------------------------------------------------

  LATTYP: Found a base centered orthorhombic cell.
 ALAT       =     7.6805944440
 B/A-ratio  =     2.9999998761
 C/A-ratio  =     1.1785115315
  
  Lattice vectors:
  
 A1 = (   3.8402974600, -11.5208911900,   0.0000000000)
 A2 = (   3.8402969840,  11.5208911900,   0.0000000000)
 A3 = (   0.0000000000,   0.0000000000,   9.0516691210)


Analysis of symmetry for initial positions (statically):
=====================================================================
 Subroutine PRICEL returns following result:
 
  LATTYP: Found a simple orthorhombic cell.
 ALAT       =     3.8402972220
 B/A-ratio  =     2.3570230630
 C/A-ratio  =     2.9999998761
  
  Lattice vectors:
  
 A1 = (  -3.8402972220,   0.0000000000,   0.0000000000)
 A2 = (   0.0000000000,   0.0000000000,   9.0516691210)
 A3 = (  -0.0000002380,  11.5208911900,   0.0000000000)
 
   2 primitive cells build up your supercell.
 

 Routine SETGRP: Setting up the symmetry group for a 
 base centered orthorhombic supercell.


 Subroutine GETGRP returns: Found  1 space group operations
 (whereof  1 operations were pure point group operations)
 out of a pool of  8 trial point group operations.


The static configuration has the point symmetry C_1 .


Analysis of symmetry for dynamics (positions and initial velocities):
=====================================================================
 Subroutine PRICEL returns following result:
 
  LATTYP: Found a simple orthorhombic cell.
 ALAT       =     3.8402972220
 B/A-ratio  =     2.3570230630
 C/A-ratio  =     2.9999998761
  
  Lattice vectors:
  
 A1 = (  -3.8402972220,   0.0000000000,   0.0000000000)
 A2 = (   0.0000000000,   0.0000000000,   9.0516691210)
 A3 = (  -0.0000002380,  11.5208911900,   0.0000000000)
 
   2 primitive cells build up your supercell.
 

 Routine SETGRP: Setting up the symmetry group for a 
 base centered orthorhombic supercell.


 Subroutine GETGRP returns: Found  1 space group operations
 (whereof  1 operations were pure point group operations)
 out of a pool of  8 trial point group operations.


The dynamic configuration has the point symmetry C_1 .


Analysis of structural, dynamic, and magnetic symmetry:
=====================================================================
 Subroutine PRICEL returns following result:
 
  LATTYP: Found a simple orthorhombic cell.
 ALAT       =     3.8402972220
 B/A-ratio  =     2.3570230630
 C/A-ratio  =     2.9999998761
  
  Lattice vectors:
  
 A1 = (  -3.8402972220,   0.0000000000,   0.0000000000)
 A2 = (   0.0000000000,   0.0000000000,   9.0516691210)
 A3 = (  -0.0000002380,  11.5208911900,   0.0000000000)
 
   2 primitive cells build up your supercell.
 

 Routine SETGRP: Setting up the symmetry group for a 
 base centered orthorhombic supercell.


 Subroutine GETGRP returns: Found  1 space group operations
 (whereof  1 operations were pure point group operations)
 out of a pool of  8 trial point group operations.


The overall configuration has the point symmetry C_1 .


 Subroutine INISYM returns: Found  1 space group operations
 (whereof  1 operations are pure point group operations),
 and found     2 'primitive' translations


----------------------------------------------------------------------------------------

                                     Primitive cell                                     

  volume of cell :     400.4788

  direct lattice vectors                    reciprocal lattice vectors
    -3.840297222  0.000000000  0.000000000    -0.260396512 -0.000000005  0.000000000
     0.000000000  0.000000000  9.051669121     0.000000000  0.000000000  0.110476862
    -0.000000238 11.520891190  0.000000000     0.000000000  0.086798841  0.000000000

  length of vectors
     3.840297222  9.051669121 11.520891190     0.260396512  0.110476862  0.086798841

  position of ions in fractional coordinates (direct lattice)
     0.017796813  0.000000000  0.994067729
     0.517796874  0.299999893  0.827401042
     0.017797082  0.599999845  0.660734296
     0.017796724  0.000000000  0.327401072
     0.517796905  0.299999893  0.160734355
     0.017796993  0.599999845  0.994067669
     0.017796875  0.000000000  0.660734415
     0.517796933  0.299999893  0.494067729
     0.017797142  0.599999845  0.327401012
     0.517796843  0.149999961  0.994067729
     0.017797008  0.449999869  0.827400982
     0.517797112  0.749999881  0.660734296
     0.517796948  0.149999961  0.327401042
     0.017797067  0.449999869  0.160734341
     0.517797083  0.749999881  0.994067609
     0.517796935  0.149999961  0.660734355
     0.017796993  0.449999869  0.494067669
     0.517797217  0.749999881  0.327400923
     0.047768594  0.749999881  0.973461866
     0.547768713  0.849999845  0.695684075
     0.047768891  0.949999869  0.417906225
     0.547768778  0.799999893  0.084572934
     0.047768892  0.899999917  0.806795120
     0.547769188  0.999999821  0.529017210

  ion indices of the primitive-cell ions
   primitive index   ion index
                 1           1
                 2           2
                 3          21
                 4          25
                 5           5
                 6           6
                 7          22
                 8          23
                 9          24
                10          10
                11          11
                12          12
                13          28
                14          29
                15          15
                16          16
                17          35
                18          36
                19          37
                20          38
                21          39
                22          46
                23          47
                24          48

----------------------------------------------------------------------------------------

 
 
 KPOINTS: Automatic KPOINTS generated             

Automatic generation of k-mesh.
 Grid dimensions read from file:
 generate k-points for:    4    3    3

 Generating k-lattice:

  Cartesian coordinates                     Fractional coordinates (reciprocal lattice)
     0.032549564 -0.010849854  0.000000000     0.250000000 -0.000000000  0.000000000
     0.000000000  0.028932947  0.000000000     0.000000000  0.333333333  0.000000000
     0.000000000  0.000000000  0.036825621     0.000000000  0.000000000  0.333333333

  Length of vectors
     0.034310253  0.028932947  0.036825621

  Shift w.r.t. Gamma in fractional coordinates (k-lattice)
     0.000000000  0.000000000  0.000000000

 -----------------------------------------------------------------------------
|                                                                             |
|           W    W    AA    RRRRR   N    N  II  N    N   GGGG   !!!           |
|           W    W   A  A   R    R  NN   N  II  NN   N  G    G  !!!           |
|           W    W  A    A  R    R  N N  N  II  N N  N  G       !!!           |
|           W WW W  AAAAAA  RRRRR   N  N N  II  N  N N  G  GGG   !            |
|           WW  WW  A    A  R   R   N   NN  II  N   NN  G    G                |
|           W    W  A    A  R    R  N    N  II  N    N   GGGG   !!!           |
|                                                                             |
|     Your reciprocal lattice and k-lattice belong to different lattice       |
|     classes:                                                                |
|                                                                             |
|        The reciprocal lattice is base centered orthorhombic,                |
|        whereas your k-lattice is simple monoclinic.                         |
|                                                                             |
|     Results are often still useful ...                                      |
|                                                                             |
 -----------------------------------------------------------------------------

 WARNING: IBZKPT: internal override: KBLOWUP is changed to .FALSE.
      ... skipping the blow-up phase ...

 
 Subroutine IBZKPT returns following result:
 ===========================================
 
 Found     19 irreducible k-points:
 
 Following reciprocal coordinates:
            Coordinates               Weight
  0.000000  0.000000  0.000000      1.000000
  0.250000  0.000000  0.000000      2.000000
  0.500000  0.000000  0.000000      1.000000
  0.000000  0.333333  0.000000      2.000000
  0.250000  0.333333  0.000000      2.000000
  0.500000  0.333333  0.000000      2.000000
 -0.250000  0.333333  0.000000      2.000000
  0.000000  0.000000  0.333333      2.000000
  0.250000  0.000000  0.333333      2.000000
  0.500000  0.000000  0.333333      2.000000
 -0.250000 -0.000000  0.333333      2.000000
  0.000000  0.333333  0.333333      2.000000
  0.250000  0.333333  0.333333      2.000000
  0.500000  0.333333  0.333333      2.000000
 -0.250000  0.333333  0.333333      2.000000
  0.000000 -0.333333  0.333333      2.000000
  0.250000 -0.333333  0.333333      2.000000
  0.500000 -0.333333  0.333333      2.000000
 -0.250000 -0.333333  0.333333      2.000000
 
 Following cartesian coordinates:
            Coordinates               Weight
  0.000000  0.000000  0.000000      1.000000
  0.032550 -0.010850  0.000000      2.000000
  0.065099 -0.021700  0.000000      1.000000
  0.000000  0.028933  0.000000      2.000000
  0.032550  0.018083  0.000000      2.000000
  0.065099  0.007233  0.000000      2.000000
 -0.032550  0.039783  0.000000      2.000000
  0.000000  0.000000  0.036826      2.000000
  0.032550 -0.010850  0.036826      2.000000
  0.065099 -0.021700  0.036826      2.000000
 -0.032550  0.010850  0.036826      2.000000
  0.000000  0.028933  0.036826      2.000000
  0.032550  0.018083  0.036826      2.000000
  0.065099  0.007233  0.036826      2.000000
 -0.032550  0.039783  0.036826      2.000000
  0.000000 -0.028933  0.036826      2.000000
  0.032550 -0.039783  0.036826      2.000000
  0.065099 -0.050633  0.036826      2.000000
 -0.032550 -0.018083  0.036826      2.000000
 


--------------------------------------------------------------------------------------------------------




 Dimension of arrays:
   k-points           NKPTS =     19   k-points in BZ     NKDIM =     19   number of bands    NBANDS=    116
   number of dos      NEDOS =    301   number of ions     NIONS =     48
   non local maximal  LDIM  =      4   non local SUM 2l+1 LMDIM =      8
   total plane-waves  NPLWV = 240000
   max r-space proj   IRMAX =   1608   max aug-charges    IRDMAX=  80338
   dimension x,y,z NGX =    50 NGY =   80 NGZ =   60
   dimension x,y,z NGXF=   100 NGYF=  160 NGZF=  120
   support grid    NGXF=   200 NGYF=  320 NGZF=  240
   ions per type =              48
   NGX,Y,Z   is equivalent  to a cutoff of  10.82, 10.95, 11.02 a.u.
   NGXF,Y,Z  is equivalent  to a cutoff of  21.64, 21.90, 22.04 a.u.

 SYSTEM =  Si and Ge interface calculation         
 POSCAR =  Si+Si                                   

 Startparameter for this run:
   NWRITE =      2    write-flag & timer
   PREC   = normal    normal or accurate (medium, high low for compatibility)
   ISTART =      0    job   : 0-new  1-cont  2-samecut
   ICHARG =      2    charge: 1-file 2-atom 10-const
   ISPIN  =      2    spin polarized calculation?
   LNONCOLLINEAR =      F non collinear calculations
   LSORBIT =      F    spin-orbit coupling
   INIWAV =      1    electr: 0-lowe 1-rand  2-diag
   LASPH  =      T    aspherical Exc in radial PAW
 Electronic Relaxation 1
   ENCUT  =  700.0 eV  51.45 Ry    7.17 a.u.  16.57 26.20 19.53*2*pi/ulx,y,z
   ENINI  =  700.0     initial cutoff
   ENAUG  =  900.0 eV  augmentation charge cutoff
   NELM   =    100;   NELMIN=  2; NELMDL= -5     # of ELM steps 
   EDIFF  = 0.1E-06   stopping-criterion for ELM
   LREAL  =      T    real-space projection
   NLSPLINE    = F    spline interpolate recip. space projectors
   LCOMPAT=      F    compatible to vasp.4.4
   GGA_COMPAT  = T    GGA compatible to vasp.4.4-vasp.4.6
   LMAXPAW     = -100 max onsite density
   LMAXMIX     =    6 max onsite mixed and CHGCAR
   VOSKOWN=      0    Vosko Wilk Nusair interpolation
   ROPT   =   -0.00050
 Ionic relaxation
   EDIFFG = 0.1E-05   stopping-criterion for IOM
   NSW    =      0    number of steps for IOM
   NBLOCK =      1;   KBLOCK =      1    inner block; outer block 
   IBRION =     -1    ionic relax: 0-MD 1-quasi-New 2-CG
   NFREE  =      0    steps in history (QN), initial steepest desc. (CG)
   ISIF   =      2    stress and relaxation
   IWAVPR =     10    prediction:  0-non 1-charg 2-wave 3-comb
   ISYM   =      2    0-nonsym 1-usesym 2-fastsym
   LCORR  =      T    Harris-Foulkes like correction to forces

   POTIM  = 0.5000    time-step for ionic-motion
   TEIN   =    0.0    initial temperature
   TEBEG  =    0.0;   TEEND  =   0.0 temperature during run
   SMASS  =  -3.00    Nose mass-parameter (am)
   estimated Nose-frequenzy (Omega)   =  0.10E-29 period in steps = 0.13E+47 mass=  -0.135E-26a.u.
   SCALEE = 1.0000    scale energy and forces
   NPACO  =    256;   APACO  = 10.0  distance and # of slots for P.C.
   PSTRESS=    0.0 pullay stress

  Mass of Ions in am
   POMASS =  28.09
  Ionic Valenz
   ZVAL   =   4.00
  Atomic Wigner-Seitz radii
   RWIGS  =  -1.00
  virtual crystal weights 
   VCA    =   1.00
   NELECT =     192.0000    total number of electrons
   NUPDOWN=       1.0000    fix difference up-down

 DOS related values:
   EMIN   =  10.00;   EMAX   =-10.00  energy-range for DOS
   EFERMI =   0.00;   METHOD = LEGACY      
   ISMEAR =     0;   SIGMA  =   0.01  broadening in eV -4-tet -1-fermi 0-gaus

 Electronic relaxation 2 (details)
   IALGO  =     38    algorithm
   LDIAG  =      T    sub-space diagonalisation (order eigenvalues)
   LSUBROT=      F    optimize rotation matrix (better conditioning)
   TURBO    =      0    0=normal 1=particle mesh
   IRESTART =      0    0=no restart 2=restart with 2 vectors
   NREBOOT  =      0    no. of reboots
   NMIN     =      0    reboot dimension
   EREF     =   0.00    reference energy to select bands
   IMIX   =      4    mixing-type and parameters
     AMIX     =   0.60;   BMIX     =  1.00
     AMIX_MAG =   2.40;   BMIX_MAG =  1.00
     AMIN     =   0.10
     WC   =   100.;   INIMIX=   1;  MIXPRE=   1;  MAXMIX= -45

 Intra band minimization:
   WEIMIN = 0.0000     energy-eigenvalue tresh-hold
   EBREAK =  0.22E-09  absolut break condition
   DEPER  =   0.30     relativ break condition  

   TIME   =   0.40     timestep for ELM

  volume/ion in A,a.u.               =      16.69       112.61
  Fermi-wavevector in a.u.,A,eV,Ry     =   1.016964  1.921782 14.071347  1.034215
  Thomas-Fermi vector in A             =   2.150337
 
 Write flags
   LWAVE        =      F    write WAVECAR
   LDOWNSAMPLE  =      F    k-point downsampling of WAVECAR
   LCHARG       =      T    write CHGCAR
   LVTOT        =      F    write LOCPOT, total local potential
   LVHAR        =      T    write LOCPOT, Hartree potential only
   WRT_POTENTIAL=  hartree ionic  ! write potential to hdf5 file
   LELF         =      F    write electronic localiz. function (ELF)
   LORBIT       =      0    0 simple, 1 ext, 2 COOP (PROOUT), +10 PAW based schemes


 Dipole corrections
   LMONO      =      F    monopole corrections only (constant potential shift)
   LDIPOL     =      F    correct potential (dipole corrections)
   IDIPOL     =      0    1-x, 2-y, 3-z, 4-all directions 
   EPSILON    =  1.0000000 bulk dielectric constant
   LVACPOTAV  =      F  vacuum potentials using an averaging scheme for the charge density
   VACPOTFLAT =  0.1000000 required flatness to determine vacuum potential
 Exchange correlation treatment:
   GGA     = PE    functional components
   XC_C    = 1    coefficients multiplying the functional components
   LIBXC   =     F    Libxc                    
   VOSKOWN =     0    Vosko Wilk Nusair interpolation
   LHFCALC =     F    Hartree Fock is set to
   LHFONE  =     F    Hartree Fock one center treatment
   AEXX    =    0.0000 exact exchange contribution

 Parameters of functionals:
   PE:
     No parameter
 
 Van der Waals corrections
   IVDW    =     0    specifies the selected vdW correction

 Linear response parameters
   LEPSILON=     F    determine dielectric tensor
   LRPA    =     F    only Hartree local field effects (RPA)
   LNABLA  =     F    use nabla operator in PAW spheres
   LVEL    =     F    velocity operator in full k-point grid
   CSHIFT  =0.1000    complex shift for real part using Kramers Kronig
   OMEGAMAX=  -1.0    maximum frequency
   DEG_THRESHOLD= 0.2000000E-02 threshold for treating states as degnerate
   RTIME   =   -0.100 relaxation time in fs
  (WPLASMAI=    0.000 imaginary part of plasma frequency in eV, 0.658/RTIME)
   DFIELD  = 0.0000000 0.0000000 0.0000000 field for delta impulse in time
 
  Optional k-point grid parameters
   LKPOINTS_OPT  =     F    use optional k-point grid
   KPOINTS_OPT_MODE=     1    mode for optional k-point grid
 
 Orbital magnetization related:
   ORBITALMAG=     F  switch on orbital magnetization
   LCHIMAG   =     F  perturbation theory with respect to B field
   DQ        =  0.001000  dq finite difference perturbation B field
   LLRAUG    =     F  two centre corrections for induced B field
   LBONE     =     F  B-component reconstruction in AE one-centre
   LVGVCALC  =     T  calculate vGv susceptibility
   LVGVAPPL  =     F  apply vGv susceptibility instead of pGv for G=0

 Random number generation:
   RANDOM_GENERATOR = DEFAULT
   PCG_SEED         = not used


--------------------------------------------------------------------------------------------------------


 Static calculation
 charge density and potential will be updated during run
 spin polarized calculation
 Variant of blocked Davidson
 Davidson routine will perform the subspace rotation
 perform sub-space diagonalisation
    after iterative eigenvector-optimisation
 modified Broyden-mixing scheme, WC =      100.0
 initial mixing is a Kerker type mixing with AMIX =  0.6000 and BMIX =      1.0000
 Hartree-type preconditioning will be used
 using additional bands           20
 real space projection scheme for non local part
 use partial core corrections
 calculate Harris-corrections to forces 
   (improved forces if not selfconsistent)
 use gradient corrections 
 use of overlap-Matrix (Vanderbilt PP)
 Gauss-broadening in eV      SIGMA  =   0.01


--------------------------------------------------------------------------------------------------------


  energy-cutoff  :      700.00
  volume of cell :      800.96
      direct lattice vectors                 reciprocal lattice vectors
     7.680594444  0.000000000  0.000000000     0.130198256 -0.043399418  0.000000000
     3.840296984 11.520891190  0.000000000     0.000000000  0.086798841  0.000000000
     0.000000000  0.000000000  9.051669121     0.000000000  0.000000000  0.110476862

  length of vectors
     7.680594444 12.144085587  9.051669121     0.137241012  0.086798841  0.110476862


 
 k-points in units of 2pi/SCALE and weight: Automatic KPOINTS generated             
   0.00000000  0.00000000  0.00000000       0.028
   0.03254956 -0.01084985  0.00000000       0.056
   0.06509913 -0.02169971  0.00000000       0.028
   0.00000000  0.02893295  0.00000000       0.056
   0.03254956  0.01808309  0.00000000       0.056
   0.06509913  0.00723324  0.00000000       0.056
  -0.03254956  0.03978280  0.00000000       0.056
   0.00000000  0.00000000  0.03682562       0.056
   0.03254956 -0.01084985  0.03682562       0.056
   0.06509913 -0.02169971  0.03682562       0.056
  -0.03254956  0.01084985  0.03682562       0.056
   0.00000000  0.02893295  0.03682562       0.056
   0.03254956  0.01808309  0.03682562       0.056
   0.06509913  0.00723324  0.03682562       0.056
  -0.03254956  0.03978280  0.03682562       0.056
   0.00000000 -0.02893295  0.03682562       0.056
   0.03254956 -0.03978280  0.03682562       0.056
   0.06509913 -0.05063266  0.03682562       0.056
  -0.03254956 -0.01808309  0.03682562       0.056
 
 k-points in reciprocal lattice and weights: Automatic KPOINTS generated             
   0.00000000  0.00000000  0.00000000       0.028
   0.25000000  0.00000000  0.00000000       0.056
   0.50000000  0.00000000  0.00000000       0.028
   0.00000000  0.33333333  0.00000000       0.056
   0.25000000  0.33333333  0.00000000       0.056
   0.50000000  0.33333333  0.00000000       0.056
  -0.25000000  0.33333333  0.00000000       0.056
   0.00000000  0.00000000  0.33333333       0.056
   0.25000000  0.00000000  0.33333333       0.056
   0.50000000  0.00000000  0.33333333       0.056
  -0.25000000 -0.00000000  0.33333333       0.056
   0.00000000  0.33333333  0.33333333       0.056
   0.25000000  0.33333333  0.33333333       0.056
   0.50000000  0.33333333  0.33333333       0.056
  -0.25000000  0.33333333  0.33333333       0.056
   0.00000000 -0.33333333  0.33333333       0.056
   0.25000000 -0.33333333  0.33333333       0.056
   0.50000000 -0.33333333  0.33333333       0.056
  -0.25000000 -0.33333333  0.33333333       0.056
 
 position of ions in fractional coordinates (direct lattice) 
   0.99406773  0.99406773  0.00000000
   0.82740104  0.82740104  0.29999989
   0.66073430  0.66073430  0.59999984
   0.32740104  0.32740104  0.00000000
   0.16073437  0.16073436  0.29999989
   0.99406767  0.99406767  0.59999984
   0.66073442  0.66073442  0.00000000
   0.49406767  0.49406767  0.29999989
   0.32740098  0.32740098  0.59999984
   0.24406771  0.99406773  0.14999996
   0.07740100  0.82740098  0.44999987
   0.91073430  0.66073430  0.74999988
   0.57740110  0.32740101  0.14999996
   0.41073438  0.16073433  0.44999987
   0.24406765  0.99406761  0.74999988
   0.91073436  0.66073436  0.14999996
   0.74406767  0.49406767  0.44999987
   0.57740092  0.32740095  0.74999988
   0.49406773  0.99406773  0.00000000
   0.32740104  0.82740104  0.29999989
   0.16073431  0.66073430  0.59999984
   0.16073436  0.66073442  0.00000000
   0.99406767  0.49406773  0.29999989
   0.82740092  0.32740101  0.59999984
   0.82740110  0.32740107  0.00000000
   0.66073442  0.16073437  0.29999989
   0.49406767  0.99406767  0.59999984
   0.07740100  0.32740104  0.14999996
   0.91073430  0.16073434  0.44999987
   0.74406755  0.99406761  0.74999988
   0.74406773  0.99406773  0.14999996
   0.57740104  0.82740104  0.44999987
   0.41073430  0.66073430  0.74999988
   0.41073438  0.66073442  0.14999996
   0.24406767  0.49406767  0.44999987
   0.07740093  0.32740092  0.74999988
   0.98938477  0.97346187  0.74999988
   0.87827361  0.69568408  0.84999984
   0.76716244  0.41790623  0.94999987
   0.48938474  0.97346187  0.74999988
   0.37827355  0.69568408  0.84999984
   0.26716238  0.41790623  0.94999987
   0.68382913  0.08457293  0.79999989
   0.57271797  0.80679512  0.89999992
   0.46160680  0.52901721  0.99999994
   0.18382914  0.08457293  0.79999989
   0.07271799  0.80679512  0.89999992
   0.96160680  0.52901721  0.99999982
 
 position of ions in cartesian coordinates  (Angst):
  11.45254638 11.45254614  0.00000000
   9.53239757  9.53239738  2.71549977
   7.61224809  7.61224793  5.43100007
   3.77195186  3.77195178  0.00000000
   1.85180317  1.85180301  2.71549977
  11.45254569 11.45254545  5.43100007
   7.61224946  7.61224930  0.00000000
   5.69209997  5.69209986  2.71549977
   3.77195117  3.77195109  5.43100007
   5.69210043 11.45254614  1.35775002
   3.77195122  9.53239668  4.07324992
   9.53239670  7.61224793  6.78875076
   5.69210081  3.77195143  1.35775002
   3.77195178  1.85180268  4.07324992
   5.69209951 11.45254476  6.78875076
   9.53239738  7.61224861  1.35775002
   7.61224858  5.69209986  4.07324992
   5.69209921  3.77195076  6.78875076
   7.61224916 11.45254614  0.00000000
   5.69210035  9.53239738  2.71549977
   3.77195098  7.61224793  5.43100007
   3.77195178  7.61224930  0.00000000
   9.53239743  5.69210055  2.71549977
   7.61224805  3.77195143  5.43100007
   7.61224966  3.77195213  0.00000000
   5.69210079  1.85180319  2.71549977
   7.61224846 11.45254545  5.43100007
   1.85180296  3.77195178  1.35775002
   7.61224838  1.85180285  4.07324992
   9.53239593 11.45254476  6.78875076
   9.53239777 11.45254614  1.35775002
   7.61224896  9.53239738  4.07324992
   5.69209948  7.61224793  6.78875076
   5.69210062  7.61224930  1.35775002
   3.77195136  5.69209986  4.07324992
   1.85180193  3.77195041  6.78875076
  11.33744584 11.21514824  6.78875076
   9.41729683  8.01490053  7.69391735
   7.49714761  4.81465215  8.59908448
   7.49714839 11.21514824  6.78875076
   5.57699916  8.01490053  7.69391735
   3.65684993  4.81465215  8.59908448
   5.57699936  0.97435548  7.24133433
   7.49714729  9.29499879  8.14650146
   5.57699783  6.09474971  9.05166858
   1.73670229  0.97435557  7.24133433
   3.65685029  9.29499879  8.14650146
   9.41729505  6.09474971  9.05166750
 


--------------------------------------------------------------------------------------------------------


 k-point     1 :   0.0000 0.0000 0.0000  plane waves:   33743
 k-point     2 :   0.2500 0.0000 0.0000  plane waves:   33668
 k-point     3 :   0.5000 0.0000 0.0000  plane waves:   33648
 k-point     4 :   0.0000 0.3333 0.0000  plane waves:   33748
 k-point     5 :   0.2500 0.3333 0.0000  plane waves:   33683
 k-point     6 :   0.5000 0.3333 0.0000  plane waves:   33633
 k-point     7 :  -0.2500 0.3333 0.0000  plane waves:   33682
 k-point     8 :   0.0000 0.0000 0.3333  plane waves:   33715
 k-point     9 :   0.2500 0.0000 0.3333  plane waves:   33676
 k-point    10 :   0.5000 0.0000 0.3333  plane waves:   33690
 k-point    11 :  -0.2500-0.0000 0.3333  plane waves:   33676
 k-point    12 :   0.0000 0.3333 0.3333  plane waves:   33668
 k-point    13 :   0.2500 0.3333 0.3333  plane waves:   33690
 k-point    14 :   0.5000 0.3333 0.3333  plane waves:   33674
 k-point    15 :  -0.2500 0.3333 0.3333  plane waves:   33690
 k-point    16 :   0.0000-0.3333 0.3333  plane waves:   33668
 k-point    17 :   0.2500-0.3333 0.3333  plane waves:   33690
 k-point    18 :   0.5000-0.3333 0.3333  plane waves:   33674
 k-point    19 :  -0.2500-0.3333 0.3333  plane waves:   33690

 maximum and minimum number of plane-waves per node :      2143     2066

 maximum number of plane-waves:     33748
 maximum index in each direction: 
   IXMAX=   16   IYMAX=   26   IZMAX=   19
   IXMIN=  -17   IYMIN=  -26   IZMIN=  -19


 real space projection operators:
  total allocation   :       4519.25 KBytes
  max/ min on nodes  :        367.56        267.88


 parallel 3D FFT for wavefunctions:
    minimum data exchange during FFTs selected (reduces bandwidth)
 parallel 3D FFT for charge:
    minimum data exchange during FFTs selected (reduces bandwidth)


 total amount of memory used by VASP MPI-rank0    79625. kBytes
=======================================================================

   base      :      30000. kBytes
   nonlr-proj:       1725. kBytes
   fftplans  :       5945. kBytes
   grid      :       4346. kBytes
   one-center:         18. kBytes
   wavefun   :      37591. kBytes
 
     INWAV:  cpu time      0.0000: real time      0.0002
 Broyden mixing: mesh for mixing (old mesh)
   NGX = 33   NGY = 53   NGZ = 39
  (NGX  =100   NGY  =160   NGZ  =120)
  gives a total of  68211 points

 initial charge density was supplied:
 charge density of overlapping atoms calculated
 number of electron     192.0000000 magnetization       1.0000000
 keeping initial charge density in first step


--------------------------------------------------------------------------------------------------------


 Maximum index for non-local projection operator          303
 Maximum index for augmentation-charges         4181 (set IRDMAX)


--------------------------------------------------------------------------------------------------------


 First call to EWALD:  gamma=   0.191
 Maximum number of real-space cells 3x 2x 3
 Maximum number of reciprocal cells 2x 3x 3

    FEWALD:  cpu time      0.0021: real time      0.0021


--------------------------------------- Ionic step        1  -------------------------------------------




--------------------------------------- Iteration      1(   1)  ---------------------------------------


    POTLOK:  cpu time      0.0789: real time      0.0800
    SETDIJ:  cpu time      0.2403: real time      0.2412
     EDDAV:  cpu time      5.9661: real time      6.0160
       DOS:  cpu time      0.0024: real time      0.0024
    --------------------------------------------
      LOOP:  cpu time      6.2877: real time      6.3397

 eigenvalue-minimisations  :  8816
 total energy-change (2. order) : 0.1127154E+04  (-0.9234478E+04)
 number of electron     192.0000000 magnetization       1.0000000
 augmentation part      192.0000000 magnetization       1.0000000

 Free energy of the ion-electron system (eV)
  ---------------------------------------------------
  alpha Z        PSCENC =        96.83389486
  Ewald energy   TEWEN  =     -4854.07771605
  -Hartree energ DENC   =      -722.74557238
  -exchange      EXHF   =         0.00000000
  -V(xc)+E(xc)   XCENC  =      -425.89167118
  PAW double counting   =      4229.94053997    -3385.46287860
  entropy T*S    EENTRO =        -0.00062863
  eigenvalues    EBANDS =      1241.36053984
  atomic energy  EATOM  =      4947.19793617
  Solvation  Ediel_sol  =         0.00000000
  ---------------------------------------------------
  free energy    TOTEN  =      1127.15444401 eV

  energy without entropy =     1127.15507264  energy(sigma->0) =     1127.15475832


--------------------------------------------------------------------------------------------------------




--------------------------------------- Iteration      1(   2)  ---------------------------------------


     EDDAV:  cpu time      6.7482: real time      6.8058
       DOS:  cpu time      0.0021: real time      0.0021
    --------------------------------------------
      LOOP:  cpu time      6.7502: real time      6.8079

 eigenvalue-minimisations  : 10504
 total energy-change (2. order) :-0.9714249E+03  (-0.9357059E+03)
 number of electron     192.0000000 magnetization       1.0000000
 augmentation part      192.0000000 magnetization       1.0000000

 Free energy of the ion-electron system (eV)
  ---------------------------------------------------
  alpha Z        PSCENC =        96.83389486
  Ewald energy   TEWEN  =     -4854.07771605
  -Hartree energ DENC   =      -722.74557238
  -exchange      EXHF   =         0.00000000
  -V(xc)+E(xc)   XCENC  =      -425.89167118
  PAW double counting   =      4229.94053997    -3385.46287860
  entropy T*S    EENTRO =        -0.00121205
  eigenvalues    EBANDS =       269.93627198
  atomic energy  EATOM  =      4947.19793617
  Solvation  Ediel_sol  =         0.00000000
  ---------------------------------------------------
  free energy    TOTEN  =       155.72959273 eV

  energy without entropy =      155.73080478  energy(sigma->0) =      155.73019876


--------------------------------------------------------------------------------------------------------




--------------------------------------- Iteration      1(   3)  ---------------------------------------


     EDDAV:  cpu time      7.4545: real time      7.5171
       DOS:  cpu time      0.0019: real time      0.0019
    --------------------------------------------
      LOOP:  cpu time      7.4563: real time      7.5190

 eigenvalue-minimisations  : 11984
 total energy-change (2. order) :-0.9998404E+02  (-0.9548120E+02)
 number of electron     192.0000000 magnetization       1.0000000
 augmentation part      192.0000000 magnetization       1.0000000

 Free energy of the ion-electron system (eV)
  ---------------------------------------------------
  alpha Z        PSCENC =        96.83389486
  Ewald energy   TEWEN  =     -4854.07771605
  -Hartree energ DENC   =      -722.74557238
  -exchange      EXHF   =         0.00000000
  -V(xc)+E(xc)   XCENC  =      -425.89167118
  PAW double counting   =      4229.94053997    -3385.46287860
  entropy T*S    EENTRO =        -0.00070360
  eigenvalues    EBANDS =       169.95172543
  atomic energy  EATOM  =      4947.19793617
  Solvation  Ediel_sol  =         0.00000000
  ---------------------------------------------------
  free energy    TOTEN  =        55.74555463 eV

  energy without entropy =       55.74625823  energy(sigma->0) =       55.74590643


--------------------------------------------------------------------------------------------------------




--------------------------------------- Iteration      1(   4)  ---------------------------------------


     EDDAV:  cpu time      7.4667: real time      7.5279
       DOS:  cpu time      0.0020: real time      0.0020
    --------------------------------------------
      LOOP:  cpu time      7.4687: real time      7.5299

 eigenvalue-minimisations  : 11968
 total energy-change (2. order) :-0.6107300E+01  (-0.5968817E+01)
 number of electron     192.0000000 magnetization       1.0000000
 augmentation part      192.0000000 magnetization       1.0000000

 Free energy of the ion-electron system (eV)
  ---------------------------------------------------
  alpha Z        PSCENC =        96.83389486
  Ewald energy   TEWEN  =     -4854.07771605
  -Hartree energ DENC   =      -722.74557238
  -exchange      EXHF   =         0.00000000
  -V(xc)+E(xc)   XCENC  =      -425.89167118
  PAW double counting   =      4229.94053997    -3385.46287860
  entropy T*S    EENTRO =        -0.00084522
  eigenvalues    EBANDS =       163.84456661
  atomic energy  EATOM  =      4947.19793617
  Solvation  Ediel_sol  =         0.00000000
  ---------------------------------------------------
  free energy    TOTEN  =        49.63825419 eV

  energy without entropy =       49.63909941  energy(sigma->0) =       49.63867680


--------------------------------------------------------------------------------------------------------




--------------------------------------- Iteration      1(   5)  ---------------------------------------


     EDDAV:  cpu time      7.5024: real time      7.5669
       DOS:  cpu time      0.0019: real time      0.0019
    CHARGE:  cpu time      0.3246: real time      0.3264
    MIXING:  cpu time      0.0024: real time      0.0024
    --------------------------------------------
      LOOP:  cpu time      7.8312: real time      7.8976

 eigenvalue-minimisations  : 12032
 total energy-change (2. order) :-0.2329518E+00  (-0.2312317E+00)
 number of electron     191.9999998 magnetization       1.0000000
 augmentation part      -13.5521652 magnetization      -0.0372239

 Broyden mixing:
  rms(total) = 0.70630E+01    rms(broyden)= 0.70630E+01
  rms(prec ) = 0.79476E+01
  weight for this iteration     100.00

 Free energy of the ion-electron system (eV)
  ---------------------------------------------------
  alpha Z        PSCENC =        96.83389486
  Ewald energy   TEWEN  =     -4854.07771605
  -Hartree energ DENC   =      -722.74557238
  -exchange      EXHF   =         0.00000000
  -V(xc)+E(xc)   XCENC  =      -425.89167118
  PAW double counting   =      4229.94053997    -3385.46287860
  entropy T*S    EENTRO =        -0.00091075
  eigenvalues    EBANDS =       163.61168037
  atomic energy  EATOM  =      4947.19793617
  Solvation  Ediel_sol  =         0.00000000
  ---------------------------------------------------
  free energy    TOTEN  =        49.40530243 eV

  energy without entropy =       49.40621317  energy(sigma->0) =       49.40575780


--------------------------------------------------------------------------------------------------------




--------------------------------------- Iteration      1(   6)  ---------------------------------------


    POTLOK:  cpu time      0.0583: real time      0.0602
    SETDIJ:  cpu time      0.2358: real time      0.2366
     EDDAV:  cpu time      7.1794: real time      7.2377
       DOS:  cpu time      0.0019: real time      0.0019
    CHARGE:  cpu time      0.3224: real time      0.3240
    MIXING:  cpu time      0.0021: real time      0.0022
    --------------------------------------------
      LOOP:  cpu time      7.7998: real time      7.8626

 eigenvalue-minimisations  : 11468
 total energy-change (2. order) : 0.3257069E+02  (-0.2779746E+02)
 number of electron     191.9999999 magnetization       1.0000000
 augmentation part      -12.3033263 magnetization      -0.0492228

 Broyden mixing:
  rms(total) = 0.36781E+01    rms(broyden)= 0.36781E+01
  rms(prec ) = 0.51915E+01
  weight for this iteration     100.00

 eigenvalues of (default mixing * dielectric matrix)
  average eigenvalue GAMMA=   1.2967
  1.2967

 Free energy of the ion-electron system (eV)
  ---------------------------------------------------
  alpha Z        PSCENC =        96.83389486
  Ewald energy   TEWEN  =     -4854.07771605
  -Hartree energ DENC   =      -941.87254301
  -exchange      EXHF   =         0.00000000
  -V(xc)+E(xc)   XCENC  =      -411.85310139
  PAW double counting   =     20814.19283639   -19979.81105729
  entropy T*S    EENTRO =        -0.00126834
  eigenvalues    EBANDS =       411.36700780
  atomic energy  EATOM  =      4947.19793617
  Solvation  Ediel_sol  =         0.00000000
  ---------------------------------------------------
  free energy    TOTEN  =        81.97598915 eV

  energy without entropy =       81.97725748  energy(sigma->0) =       81.97662332


--------------------------------------------------------------------------------------------------------




--------------------------------------- Iteration      1(   7)  ---------------------------------------


    POTLOK:  cpu time      0.0587: real time      0.0601
    SETDIJ:  cpu time      0.2361: real time      0.2369
     EDDAV:  cpu time      7.2195: real time      7.2803
       DOS:  cpu time      0.0017: real time      0.0017
    CHARGE:  cpu time      0.3211: real time      0.3227
    MIXING:  cpu time      0.0018: real time      0.0018
    --------------------------------------------
      LOOP:  cpu time      7.8390: real time      7.9036

 eigenvalue-minimisations  : 11520
 total energy-change (2. order) : 0.1074113E+01  (-0.1730572E+02)
 number of electron     191.9999999 magnetization       1.0000000
 augmentation part      -12.4048768 magnetization      -0.0494593

 Broyden mixing:
  rms(total) = 0.21765E+01    rms(broyden)= 0.21765E+01
  rms(prec ) = 0.35928E+01
  weight for this iteration     100.00

 eigenvalues of (default mixing * dielectric matrix)
  average eigenvalue GAMMA=   0.9658
  1.4231  0.5084

 Free energy of the ion-electron system (eV)
  ---------------------------------------------------
  alpha Z        PSCENC =        96.83389486
  Ewald energy   TEWEN  =     -4854.07771605
  -Hartree energ DENC   =      -873.82933305
  -exchange      EXHF   =         0.00000000
  -V(xc)+E(xc)   XCENC  =      -410.17542998
  PAW double counting   =     33040.68862618   -32207.81538954
  entropy T*S    EENTRO =        -0.00079797
  eigenvalues    EBANDS =       344.22831129
  atomic energy  EATOM  =      4947.19793617
  Solvation  Ediel_sol  =         0.00000000
  ---------------------------------------------------
  free energy    TOTEN  =        83.05010192 eV

  energy without entropy =       83.05089988  energy(sigma->0) =       83.05050090


--------------------------------------------------------------------------------------------------------




--------------------------------------- Iteration      1(   8)  ---------------------------------------


    POTLOK:  cpu time      0.0585: real time      0.0600
    SETDIJ:  cpu time      0.2353: real time      0.2364
     EDDAV:  cpu time      7.0224: real time      7.0821
       DOS:  cpu time      0.0019: real time      0.0019
    CHARGE:  cpu time      0.3211: real time      0.3227
    MIXING:  cpu time      0.0019: real time      0.0019
    --------------------------------------------
      LOOP:  cpu time      7.6412: real time      7.7051

 eigenvalue-minimisations  : 11160
 total energy-change (2. order) : 0.6567885E+01  (-0.6248104E+01)
 number of electron     191.9999999 magnetization       1.0000000
 augmentation part      -12.6229838 magnetization      -0.0454937

 Broyden mixing:
  rms(total) = 0.94333E+00    rms(broyden)= 0.94333E+00
  rms(prec ) = 0.14212E+01
  weight for this iteration     100.00

 eigenvalues of (default mixing * dielectric matrix)
  average eigenvalue GAMMA=   0.9087
  1.5907  0.6741  0.4614

 Free energy of the ion-electron system (eV)
  ---------------------------------------------------
  alpha Z        PSCENC =        96.83389486
  Ewald energy   TEWEN  =     -4854.07771605
  -Hartree energ DENC   =      -872.43669661
  -exchange      EXHF   =         0.00000000
  -V(xc)+E(xc)   XCENC  =      -408.02595013
  PAW double counting   =     44814.21218020   -43982.94996706
  entropy T*S    EENTRO =        -0.00116641
  eigenvalues    EBANDS =       348.86547208
  atomic energy  EATOM  =      4947.19793617
  Solvation  Ediel_sol  =         0.00000000
  ---------------------------------------------------
  free energy    TOTEN  =        89.61798705 eV

  energy without entropy =       89.61915347  energy(sigma->0) =       89.61857026


--------------------------------------------------------------------------------------------------------




--------------------------------------- Iteration      1(   9)  ---------------------------------------


    POTLOK:  cpu time      1.1870: real time      1.1918
    SETDIJ:  cpu time      0.2373: real time      0.2382
     EDDAV:  cpu time      6.6798: real time      6.7366
       DOS:  cpu time      0.0019: real time      0.0019
    CHARGE:  cpu time      0.3206: real time      0.3221
    MIXING:  cpu time      0.0020: real time      0.0021
    --------------------------------------------
      LOOP:  cpu time      8.4285: real time      8.4925

 eigenvalue-minimisations  : 10464
 total energy-change (2. order) : 0.1023335E+01  (-0.2244828E+01)
 number of electron     191.9999999 magnetization       1.0000000
 augmentation part      -12.6496523 magnetization      -0.0457164

 Broyden mixing:
  rms(total) = 0.45994E+00    rms(broyden)= 0.45994E+00
  rms(prec ) = 0.52980E+00
  weight for this iteration     100.00

 eigenvalues of (default mixing * dielectric matrix)
  average eigenvalue GAMMA=   0.8734
  1.7254  0.6598  0.6598  0.4484

 Free energy of the ion-electron system (eV)
  ---------------------------------------------------
  alpha Z        PSCENC =        96.83389486
  Ewald energy   TEWEN  =     -4854.07771605
  -Hartree energ DENC   =      -889.91900665
  -exchange      EXHF   =         0.00000000
  -V(xc)+E(xc)   XCENC  =      -406.75617877
  PAW double counting   =     50349.41831195   -49519.39176839
  entropy T*S    EENTRO =        -0.00090652
  eigenvalues    EBANDS =       367.33675574
  atomic energy  EATOM  =      4947.19793617
  Solvation  Ediel_sol  =         0.00000000
  ---------------------------------------------------
  free energy    TOTEN  =        90.64132234 eV

  energy without entropy =       90.64222887  energy(sigma->0) =       90.64177561


--------------------------------------------------------------------------------------------------------




--------------------------------------- Iteration      1(  10)  ---------------------------------------


    POTLOK:  cpu time      0.0594: real time      0.0609
    SETDIJ:  cpu time      0.2356: real time      0.2367
     EDDAV:  cpu time      6.7468: real time      6.8025
       DOS:  cpu time      0.0019: real time      0.0019
    CHARGE:  cpu time      0.3197: real time      0.3215
    MIXING:  cpu time      0.0019: real time      0.0019
    --------------------------------------------
      LOOP:  cpu time      7.3653: real time      7.4254

 eigenvalue-minimisations  : 10552
 total energy-change (2. order) :-0.6401745E-01  (-0.3259266E+00)
 number of electron     191.9999999 magnetization       1.0000000
 augmentation part      -12.6699087 magnetization      -0.0461821

 Broyden mixing:
  rms(total) = 0.31753E+00    rms(broyden)= 0.31753E+00
  rms(prec ) = 0.32879E+00
  weight for this iteration     100.00

 eigenvalues of (default mixing * dielectric matrix)
  average eigenvalue GAMMA=   0.8514
  1.6315  0.8339  0.8339  0.4408  0.5169

 Free energy of the ion-electron system (eV)
  ---------------------------------------------------
  alpha Z        PSCENC =        96.83389486
  Ewald energy   TEWEN  =     -4854.07771605
  -Hartree energ DENC   =      -892.81291594
  -exchange      EXHF   =         0.00000000
  -V(xc)+E(xc)   XCENC  =      -406.35343341
  PAW double counting   =     51705.54685778   -50876.11573506
  entropy T*S    EENTRO =        -0.00070186
  eigenvalues    EBANDS =       370.35911840
  atomic energy  EATOM  =      4947.19793617
  Solvation  Ediel_sol  =         0.00000000
  ---------------------------------------------------
  free energy    TOTEN  =        90.57730490 eV

  energy without entropy =       90.57800676  energy(sigma->0) =       90.57765583


--------------------------------------------------------------------------------------------------------




--------------------------------------- Iteration      1(  11)  ---------------------------------------


    POTLOK:  cpu time      1.3987: real time      1.4037
    SETDIJ:  cpu time      0.2360: real time      0.2369
     EDDAV:  cpu time      6.6900: real time      6.7456
       DOS:  cpu time      0.0020: real time      0.0020
    CHARGE:  cpu time      0.3193: real time      0.3209
    MIXING:  cpu time      0.0020: real time      0.0020
    --------------------------------------------
      LOOP:  cpu time      8.6480: real time      8.7111

 eigenvalue-minimisations  : 10488
 total energy-change (2. order) :-0.1774467E-01  (-0.3808237E-01)
 number of electron     191.9999999 magnetization       1.0000000
 augmentation part      -12.6685945 magnetization      -0.0458985

 Broyden mixing:
  rms(total) = 0.22857E+00    rms(broyden)= 0.22857E+00
  rms(prec ) = 0.23356E+00
  weight for this iteration     100.00

 eigenvalues of (default mixing * dielectric matrix)
  average eigenvalue GAMMA=   0.9569
  1.5501  1.5501  0.9515  0.4349  0.6274  0.6274

 Free energy of the ion-electron system (eV)
  ---------------------------------------------------
  alpha Z        PSCENC =        96.83389486
  Ewald energy   TEWEN  =     -4854.07771605
  -Hartree energ DENC   =      -892.51009058
  -exchange      EXHF   =         0.00000000
  -V(xc)+E(xc)   XCENC  =      -406.44148419
  PAW double counting   =     50479.35596939   -49649.98588616
  entropy T*S    EENTRO =        -0.00064958
  eigenvalues    EBANDS =       370.18758636
  atomic energy  EATOM  =      4947.19793617
  Solvation  Ediel_sol  =         0.00000000
  ---------------------------------------------------
  free energy    TOTEN  =        90.55956022 eV

  energy without entropy =       90.56020980  energy(sigma->0) =       90.55988501


--------------------------------------------------------------------------------------------------------




--------------------------------------- Iteration      1(  12)  ---------------------------------------


    POTLOK:  cpu time      0.0583: real time      0.0601
    SETDIJ:  cpu time      0.2356: real time      0.2367
     EDDAV:  cpu time      6.8111: real time      6.8669
       DOS:  cpu time      0.0019: real time      0.0021
    CHARGE:  cpu time      0.3198: real time      0.3223
    MIXING:  cpu time      0.0026: real time      0.0027
    --------------------------------------------
      LOOP:  cpu time      7.4294: real time      7.4908

 eigenvalue-minimisations  : 10496
 total energy-change (2. order) :-0.2258817E-02  (-0.6255098E-02)
 number of electron     191.9999999 magnetization       1.0000000
 augmentation part      -12.6666558 magnetization      -0.0459893

 Broyden mixing:
  rms(total) = 0.93597E-01    rms(broyden)= 0.93597E-01
  rms(prec ) = 0.10702E+00
  weight for this iteration     100.00

 eigenvalues of (default mixing * dielectric matrix)
  average eigenvalue GAMMA=   1.0416
  1.9739  1.9739  0.9170  0.6921  0.6921  0.4455  0.5963

 Free energy of the ion-electron system (eV)
  ---------------------------------------------------
  alpha Z        PSCENC =        96.83389486
  Ewald energy   TEWEN  =     -4854.07771605
  -Hartree energ DENC   =      -892.28008248
  -exchange      EXHF   =         0.00000000
  -V(xc)+E(xc)   XCENC  =      -406.55649678
  PAW double counting   =     48615.91922594   -47786.61998687
  entropy T*S    EENTRO =        -0.00073701
  eigenvalues    EBANDS =       370.14126361
  atomic energy  EATOM  =      4947.19793617
  Solvation  Ediel_sol  =         0.00000000
  ---------------------------------------------------
  free energy    TOTEN  =        90.55730140 eV

  energy without entropy =       90.55803841  energy(sigma->0) =       90.55766991


--------------------------------------------------------------------------------------------------------




--------------------------------------- Iteration      1(  13)  ---------------------------------------


    POTLOK:  cpu time      0.0596: real time      0.0605
    SETDIJ:  cpu time      0.2361: real time      0.2370
     EDDAV:  cpu time      6.7418: real time      6.7976
       DOS:  cpu time      0.0018: real time      0.0018
    CHARGE:  cpu time      0.3194: real time      0.3210
    MIXING:  cpu time      0.0022: real time      0.0022
    --------------------------------------------
      LOOP:  cpu time      7.3609: real time      7.4201

 eigenvalue-minimisations  : 10592
 total energy-change (2. order) : 0.3245403E-02  (-0.3781260E-02)
 number of electron     191.9999999 magnetization       1.0000000
 augmentation part      -12.6661295 magnetization      -0.0457740

 Broyden mixing:
  rms(total) = 0.57719E-01    rms(broyden)= 0.57719E-01
  rms(prec ) = 0.68338E-01
  weight for this iteration     100.00

 eigenvalues of (default mixing * dielectric matrix)
  average eigenvalue GAMMA=   0.9757
  1.9240  1.8447  1.0238  0.7117  0.7117  0.4405  0.6188  0.5304

 Free energy of the ion-electron system (eV)
  ---------------------------------------------------
  alpha Z        PSCENC =        96.83389486
  Ewald energy   TEWEN  =     -4854.07771605
  -Hartree energ DENC   =      -893.10940608
  -exchange      EXHF   =         0.00000000
  -V(xc)+E(xc)   XCENC  =      -406.45098191
  PAW double counting   =     48275.49005014   -47446.39681677
  entropy T*S    EENTRO =        -0.00062995
  eigenvalues    EBANDS =       371.07421639
  atomic energy  EATOM  =      4947.19793617
  Solvation  Ediel_sol  =         0.00000000
  ---------------------------------------------------
  free energy    TOTEN  =        90.56054681 eV

  energy without entropy =       90.56117675  energy(sigma->0) =       90.56086178


--------------------------------------------------------------------------------------------------------




--------------------------------------- Iteration      1(  14)  ---------------------------------------


    POTLOK:  cpu time      0.0591: real time      0.0609
    SETDIJ:  cpu time      0.2357: real time      0.2366
     EDDAV:  cpu time      6.8594: real time      6.9174
       DOS:  cpu time      0.0021: real time      0.0022
    CHARGE:  cpu time      0.3196: real time      0.3212
    MIXING:  cpu time      0.0023: real time      0.0023
    --------------------------------------------
      LOOP:  cpu time      7.4781: real time      7.5406

 eigenvalue-minimisations  : 10808
 total energy-change (2. order) : 0.1030503E-02  (-0.9484108E-03)
 number of electron     191.9999999 magnetization       1.0000000
 augmentation part      -12.6636727 magnetization      -0.0459005

 Broyden mixing:
  rms(total) = 0.24377E-01    rms(broyden)= 0.24377E-01
  rms(prec ) = 0.25587E-01
  weight for this iteration     100.00

 eigenvalues of (default mixing * dielectric matrix)
  average eigenvalue GAMMA=   0.9766
  2.0325  1.4175  1.4175  0.8965  0.7378  0.7378  0.6163  0.4403  0.4930

 Free energy of the ion-electron system (eV)
  ---------------------------------------------------
  alpha Z        PSCENC =        96.83389486
  Ewald energy   TEWEN  =     -4854.07771605
  -Hartree energ DENC   =      -893.55980924
  -exchange      EXHF   =         0.00000000
  -V(xc)+E(xc)   XCENC  =      -406.39515873
  PAW double counting   =     48645.72556232   -47816.66768395
  entropy T*S    EENTRO =        -0.00071061
  eigenvalues    EBANDS =       371.50526254
  atomic energy  EATOM  =      4947.19793617
  Solvation  Ediel_sol  =         0.00000000
  ---------------------------------------------------
  free energy    TOTEN  =        90.56157731 eV

  energy without entropy =       90.56228792  energy(sigma->0) =       90.56193262


--------------------------------------------------------------------------------------------------------




--------------------------------------- Iteration      1(  15)  ---------------------------------------


    POTLOK:  cpu time      0.0591: real time      0.0597
    SETDIJ:  cpu time      0.2354: real time      0.2365
     EDDAV:  cpu time      7.0002: real time      7.0580
       DOS:  cpu time      0.0019: real time      0.0019
    CHARGE:  cpu time      0.3200: real time      0.3216
    MIXING:  cpu time      0.0024: real time      0.0024
    --------------------------------------------
      LOOP:  cpu time      7.6190: real time      7.6802

 eigenvalue-minimisations  : 11136
 total energy-change (2. order) :-0.2821698E-06  (-0.3632056E-03)
 number of electron     191.9999999 magnetization       1.0000000
 augmentation part      -12.6639793 magnetization      -0.0458959

 Broyden mixing:
  rms(total) = 0.13106E-01    rms(broyden)= 0.13106E-01
  rms(prec ) = 0.14399E-01
  weight for this iteration     100.00

 eigenvalues of (default mixing * dielectric matrix)
  average eigenvalue GAMMA=   0.9969
  1.9588  1.7626  1.7626  1.0070  0.7241  0.7241  0.5646  0.5646  0.4424  0.4579

 Free energy of the ion-electron system (eV)
  ---------------------------------------------------
  alpha Z        PSCENC =        96.83389486
  Ewald energy   TEWEN  =     -4854.07771605
  -Hartree energ DENC   =      -893.63185577
  -exchange      EXHF   =         0.00000000
  -V(xc)+E(xc)   XCENC  =      -406.37464166
  PAW double counting   =     48916.72932173   -48087.67033683
  entropy T*S    EENTRO =        -0.00071580
  eigenvalues    EBANDS =       371.55569038
  atomic energy  EATOM  =      4947.19793617
  Solvation  Ediel_sol  =         0.00000000
  ---------------------------------------------------
  free energy    TOTEN  =        90.56157703 eV

  energy without entropy =       90.56229283  energy(sigma->0) =       90.56193493


--------------------------------------------------------------------------------------------------------




--------------------------------------- Iteration      1(  16)  ---------------------------------------


    POTLOK:  cpu time      0.0589: real time      0.0598
    SETDIJ:  cpu time      0.2358: real time      0.2367
     EDDAV:  cpu time      6.7758: real time      6.8304
       DOS:  cpu time      0.0018: real time      0.0018
    CHARGE:  cpu time      0.3215: real time      0.3238
    MIXING:  cpu time      0.0028: real time      0.0028
    --------------------------------------------
      LOOP:  cpu time      7.3966: real time      7.4552

 eigenvalue-minimisations  : 10552
 total energy-change (2. order) :-0.1325919E-04  (-0.6351835E-04)
 number of electron     191.9999999 magnetization       1.0000000
 augmentation part      -12.6644316 magnetization      -0.0458919

 Broyden mixing:
  rms(total) = 0.12579E-01    rms(broyden)= 0.12579E-01
  rms(prec ) = 0.13007E-01
  weight for this iteration     100.00

 eigenvalues of (default mixing * dielectric matrix)
  average eigenvalue GAMMA=   0.9979
  2.0545  2.0545  1.3232  1.3232  0.7506  0.7506  0.6414  0.6414  0.5264  0.4485
  0.4629

 Free energy of the ion-electron system (eV)
  ---------------------------------------------------
  alpha Z        PSCENC =        96.83389486
  Ewald energy   TEWEN  =     -4854.07771605
  -Hartree energ DENC   =      -893.58264022
  -exchange      EXHF   =         0.00000000
  -V(xc)+E(xc)   XCENC  =      -406.37827371
  PAW double counting   =     48936.22521956   -48107.15883003
  entropy T*S    EENTRO =        -0.00070292
  eigenvalues    EBANDS =       371.50267611
  atomic energy  EATOM  =      4947.19793617
  Solvation  Ediel_sol  =         0.00000000
  ---------------------------------------------------
  free energy    TOTEN  =        90.56156377 eV

  energy without entropy =       90.56226669  energy(sigma->0) =       90.56191523


--------------------------------------------------------------------------------------------------------




--------------------------------------- Iteration      1(  17)  ---------------------------------------


    POTLOK:  cpu time      0.0590: real time      0.0603
    SETDIJ:  cpu time      0.2360: real time      0.2370
     EDDAV:  cpu time      6.6348: real time      6.6878
       DOS:  cpu time      0.0019: real time      0.0019
    CHARGE:  cpu time      0.3200: real time      0.3216
    MIXING:  cpu time      0.0024: real time      0.0024
    --------------------------------------------
      LOOP:  cpu time      7.2540: real time      7.3111

 eigenvalue-minimisations  : 10376
 total energy-change (2. order) : 0.3209798E-04  (-0.2097773E-04)
 number of electron     191.9999999 magnetization       1.0000000
 augmentation part      -12.6645803 magnetization      -0.0458716

 Broyden mixing:
  rms(total) = 0.57198E-02    rms(broyden)= 0.57198E-02
  rms(prec ) = 0.59204E-02
  weight for this iteration     100.00

 eigenvalues of (default mixing * dielectric matrix)
  average eigenvalue GAMMA=   0.9951
  2.1490  2.1490  1.3234  1.3234  0.7949  0.7949  0.6850  0.6850  0.6362  0.5022
  0.4393  0.4593

 Free energy of the ion-electron system (eV)
  ---------------------------------------------------
  alpha Z        PSCENC =        96.83389486
  Ewald energy   TEWEN  =     -4854.07771605
  -Hartree energ DENC   =      -893.52557093
  -exchange      EXHF   =         0.00000000
  -V(xc)+E(xc)   XCENC  =      -406.38585495
  PAW double counting   =     48866.32391502   -48037.25444112
  entropy T*S    EENTRO =        -0.00070224
  eigenvalues    EBANDS =       371.45013510
  atomic energy  EATOM  =      4947.19793617
  Solvation  Ediel_sol  =         0.00000000
  ---------------------------------------------------
  free energy    TOTEN  =        90.56159587 eV

  energy without entropy =       90.56229811  energy(sigma->0) =       90.56194699


--------------------------------------------------------------------------------------------------------




--------------------------------------- Iteration      1(  18)  ---------------------------------------


    POTLOK:  cpu time      0.0587: real time      0.0601
    SETDIJ:  cpu time      0.2357: real time      0.2366
     EDDAV:  cpu time      6.6382: real time      6.6913
       DOS:  cpu time      0.0018: real time      0.0018
    CHARGE:  cpu time      0.3204: real time      0.3221
    MIXING:  cpu time      0.0025: real time      0.0026
    --------------------------------------------
      LOOP:  cpu time      7.2575: real time      7.3146

 eigenvalue-minimisations  : 10352
 total energy-change (2. order) :-0.8096255E-05  (-0.6279649E-05)
 number of electron     191.9999999 magnetization       1.0000000
 augmentation part      -12.6647620 magnetization      -0.0458857

 Broyden mixing:
  rms(total) = 0.22695E-02    rms(broyden)= 0.22695E-02
  rms(prec ) = 0.23550E-02
  weight for this iteration     100.00

 eigenvalues of (default mixing * dielectric matrix)
  average eigenvalue GAMMA=   0.9873
  2.1233  2.1233  1.4395  1.0458  1.0458  0.9637  0.7397  0.7397  0.6845  0.5200
  0.5200  0.4452  0.4452

 Free energy of the ion-electron system (eV)
  ---------------------------------------------------
  alpha Z        PSCENC =        96.83389486
  Ewald energy   TEWEN  =     -4854.07771605
  -Hartree energ DENC   =      -893.50755180
  -exchange      EXHF   =         0.00000000
  -V(xc)+E(xc)   XCENC  =      -406.38634025
  PAW double counting   =     48842.85444332   -48013.78633455
  entropy T*S    EENTRO =        -0.00070206
  eigenvalues    EBANDS =       371.43395812
  atomic energy  EATOM  =      4947.19793617
  Solvation  Ediel_sol  =         0.00000000
  ---------------------------------------------------
  free energy    TOTEN  =        90.56158777 eV

  energy without entropy =       90.56228983  energy(sigma->0) =       90.56193880


--------------------------------------------------------------------------------------------------------




--------------------------------------- Iteration      1(  19)  ---------------------------------------


    POTLOK:  cpu time      0.0584: real time      0.0598
    SETDIJ:  cpu time      0.2354: real time      0.2363
     EDDAV:  cpu time      6.7148: real time      6.7694
       DOS:  cpu time      0.0019: real time      0.0019
    CHARGE:  cpu time      0.3206: real time      0.3224
    MIXING:  cpu time      0.0024: real time      0.0025
    --------------------------------------------
      LOOP:  cpu time      7.3335: real time      7.3922

 eigenvalue-minimisations  : 10536
 total energy-change (2. order) :-0.1763829E-05  (-0.1236540E-05)
 number of electron     191.9999999 magnetization       1.0000000
 augmentation part      -12.6647248 magnetization      -0.0458822

 Broyden mixing:
  rms(total) = 0.13227E-02    rms(broyden)= 0.13227E-02
  rms(prec ) = 0.13644E-02
  weight for this iteration     100.00

 eigenvalues of (default mixing * dielectric matrix)
  average eigenvalue GAMMA=   0.9914
  2.1666  2.1666  1.5468  1.2899  1.2899  0.7541  0.7541  0.6657  0.6657  0.5665
  0.5665  0.5646  0.4413  0.4413

 Free energy of the ion-electron system (eV)
  ---------------------------------------------------
  alpha Z        PSCENC =        96.83389486
  Ewald energy   TEWEN  =     -4854.07771605
  -Hartree energ DENC   =      -893.51732747
  -exchange      EXHF   =         0.00000000
  -V(xc)+E(xc)   XCENC  =      -406.38518214
  PAW double counting   =     48837.76708534   -48008.69999487
  entropy T*S    EENTRO =        -0.00070168
  eigenvalues    EBANDS =       371.44359184
  atomic energy  EATOM  =      4947.19793617
  Solvation  Ediel_sol  =         0.00000000
  ---------------------------------------------------
  free energy    TOTEN  =        90.56158601 eV

  energy without entropy =       90.56228768  energy(sigma->0) =       90.56193684


--------------------------------------------------------------------------------------------------------




--------------------------------------- Iteration      1(  20)  ---------------------------------------


    POTLOK:  cpu time      0.0584: real time      0.0599
    SETDIJ:  cpu time      0.2356: real time      0.2364
     EDDAV:  cpu time      6.7783: real time      6.8334
       DOS:  cpu time      0.0019: real time      0.0019
    CHARGE:  cpu time      0.3199: real time      0.3215
    MIXING:  cpu time      0.0029: real time      0.0029
    --------------------------------------------
      LOOP:  cpu time      7.3970: real time      7.4560

 eigenvalue-minimisations  : 10632
 total energy-change (2. order) :-0.3725154E-06  (-0.2997338E-06)
 number of electron     191.9999999 magnetization       1.0000000
 augmentation part      -12.6646985 magnetization      -0.0458860

 Broyden mixing:
  rms(total) = 0.64364E-03    rms(broyden)= 0.64363E-03
  rms(prec ) = 0.66433E-03
  weight for this iteration     100.00

 eigenvalues of (default mixing * dielectric matrix)
  average eigenvalue GAMMA=   1.0024
  2.2591  2.2591  1.6454  1.3463  1.3463  0.7875  0.7875  0.7479  0.7007  0.7007
  0.5402  0.5402  0.4910  0.4416  0.4427

 Free energy of the ion-electron system (eV)
  ---------------------------------------------------
  alpha Z        PSCENC =        96.83389486
  Ewald energy   TEWEN  =     -4854.07771605
  -Hartree energ DENC   =      -893.52084792
  -exchange      EXHF   =         0.00000000
  -V(xc)+E(xc)   XCENC  =      -406.38486274
  PAW double counting   =     48833.48953453   -48004.42272243
  entropy T*S    EENTRO =        -0.00070155
  eigenvalues    EBANDS =       371.44707076
  atomic energy  EATOM  =      4947.19793617
  Solvation  Ediel_sol  =         0.00000000
  ---------------------------------------------------
  free energy    TOTEN  =        90.56158563 eV

  energy without entropy =       90.56228718  energy(sigma->0) =       90.56193641


--------------------------------------------------------------------------------------------------------




--------------------------------------- Iteration      1(  21)  ---------------------------------------


    POTLOK:  cpu time      0.0587: real time      0.0605
    SETDIJ:  cpu time      0.2351: real time      0.2359
     EDDAV:  cpu time      6.5239: real time      6.5773
       DOS:  cpu time      0.0019: real time      0.0019
    CHARGE:  cpu time      0.3204: real time      0.3220
    MIXING:  cpu time      0.0027: real time      0.0027
    --------------------------------------------
      LOOP:  cpu time      7.1427: real time      7.2004

 eigenvalue-minimisations  : 10184
 total energy-change (2. order) :-0.2942761E-06  (-0.7287690E-07)
 number of electron     191.9999999 magnetization       1.0000000
 augmentation part      -12.6646895 magnetization      -0.0458867

 Broyden mixing:
  rms(total) = 0.23876E-03    rms(broyden)= 0.23874E-03
  rms(prec ) = 0.25045E-03
  weight for this iteration     100.00

 eigenvalues of (default mixing * dielectric matrix)
  average eigenvalue GAMMA=   0.9937
  2.2580  2.2580  1.6778  1.3497  1.3497  0.8827  0.8827  0.7349  0.7349  0.6989
  0.6368  0.5379  0.5379  0.4774  0.4437  0.4375

 Free energy of the ion-electron system (eV)
  ---------------------------------------------------
  alpha Z        PSCENC =        96.83389486
  Ewald energy   TEWEN  =     -4854.07771605
  -Hartree energ DENC   =      -893.52059510
  -exchange      EXHF   =         0.00000000
  -V(xc)+E(xc)   XCENC  =      -406.38474802
  PAW double counting   =     48831.23078192   -48002.16417414
  entropy T*S    EENTRO =        -0.00070127
  eigenvalues    EBANDS =       371.44690697
  atomic energy  EATOM  =      4947.19793617
  Solvation  Ediel_sol  =         0.00000000
[...]
     61       4.2108      1.00000
     62       4.2734      1.00000
     63       4.3373      1.00000
     64       4.3645      1.00000
     65       4.4657      1.00000
     66       4.5823      1.00000
     67       4.6879      1.00000
     68       4.9061      1.00000
     69       4.9323      1.00000
     70       5.0249      1.00000
     71       5.0512      1.00000
     72       5.1630      1.00000
     73       5.2457      1.00000
     74       5.3328      1.00000
     75       5.3423      1.00000
     76       5.4096      1.00000
     77       5.5380      1.00000
     78       5.6763      1.00000
     79       5.6868      1.00000
     80       5.8080      1.00000
     81       6.0127      1.00000
     82       6.0197      1.00000
     83       6.1567      1.00000
     84       6.3502      1.00000
     85       6.3507      1.00000
     86       6.5035      1.00000
     87       6.6031      1.00000
     88       6.7580      1.00000
     89       7.0846      1.00000
     90       7.1796      1.00000
     91       7.2437      1.00000
     92       7.2838      1.00000
     93       7.5104      1.00000
     94       7.6048      1.00000
     95       7.7373      1.00000
     96       7.7492      1.00000
     97       7.9564      0.00000
     98       8.0808      0.00000
     99       8.0885      0.00000
    100       8.1673      0.00000
    101       8.2514      0.00000
    102       8.5178      0.00000
    103       8.6408      0.00000
    104       8.6614      0.00000
    105       8.7800      0.00000
    106       8.8634      0.00000
    107       9.0127      0.00000
    108       9.1505      0.00000
    109       9.3144      0.00000
    110       9.4484      0.00000
    111       9.5263      0.00000
    112       9.6523      0.00000
    113       9.6795      0.00000
    114       9.7679      0.00000
    115       9.7727      0.00000
    116       9.9068      0.00000


--------------------------------------------------------------------------------------------------------


 soft charge-density along one line, spin component           1
         0         1         2         3         4         5         6         7         8         9
 total charge-density along one line
 
 soft charge-density along one line, spin component           2
         0         1         2         3         4         5         6         7         8         9
 total charge-density along one line
 
 pseudopotential strength for first ion, spin component:           1
 18.225  25.426   0.003  -0.007   0.000   0.006  -0.012   0.001
 25.426  35.477   0.004  -0.009   0.000   0.008  -0.017   0.001
  0.003   0.004   4.149   0.001   0.000   7.730   0.001   0.000
 -0.007  -0.009   0.001   4.151   0.000   0.001   7.733   0.000
  0.000   0.000   0.000   0.000   4.148   0.000   0.000   7.729
  0.006   0.008   7.730   0.001   0.000  14.412   0.002   0.001
 -0.012  -0.017   0.001   7.733   0.000   0.002  14.419   0.000
  0.001   0.001   0.000   0.000   7.729   0.001   0.000  14.410
 pseudopotential strength for first ion, spin component:           2
 18.222  25.421   0.003  -0.006   0.000   0.005  -0.010   0.001
 25.421  35.470   0.004  -0.008   0.000   0.007  -0.014   0.001
  0.003   0.004   4.147   0.001   0.000   7.726   0.002   0.000
 -0.006  -0.008   0.001   4.149   0.000   0.002   7.731   0.000
  0.000   0.000   0.000   0.000   4.147   0.000   0.000   7.727
  0.005   0.007   7.726   0.002   0.000  14.406   0.003   0.001
 -0.010  -0.014   0.002   7.731   0.000   0.003  14.414   0.000
  0.001   0.001   0.000   0.000   7.727   0.001   0.000  14.406
 total augmentation occupancy for first ion, spin component:           1
  6.033  -2.484  -0.707  -0.315  -0.025   0.243   0.165   0.009
 -2.484   1.290   0.440   0.195   0.007  -0.129  -0.117  -0.003
 -0.707   0.440   2.487   0.277   0.042  -0.544  -0.094  -0.018
 -0.315   0.195   0.277   3.248   0.026  -0.093  -0.812  -0.005
 -0.025   0.007   0.042   0.026   3.037  -0.018  -0.005  -0.718
  0.243  -0.129  -0.544  -0.093  -0.018   0.132   0.030   0.006
  0.165  -0.117  -0.094  -0.812  -0.005   0.030   0.221   0.001
  0.009  -0.003  -0.018  -0.005  -0.718   0.006   0.001   0.182
 total augmentation occupancy for first ion, spin component:           2
  0.040  -0.024  -0.002   0.004  -0.000   0.000   0.000   0.000
 -0.024   0.017   0.005  -0.010  -0.000  -0.001   0.001   0.000
 -0.002   0.005   0.035  -0.004  -0.000  -0.005   0.000   0.000
  0.004  -0.010  -0.004   0.027   0.001   0.000  -0.004  -0.000
 -0.000  -0.000  -0.000   0.001   0.008   0.000  -0.000  -0.002
  0.000  -0.001  -0.005   0.000   0.000   0.001  -0.000   0.000
  0.000   0.001   0.000  -0.004  -0.000  -0.000   0.001   0.000
  0.000   0.000   0.000  -0.000  -0.002   0.000   0.000   0.001


------------------------ aborting loop because EDIFF is reached ----------------------------------------


    CHARGE:  cpu time      0.3201: real time      0.3217
    FORLOC:  cpu time      0.0066: real time      0.0067
    FORNL :  cpu time      1.2945: real time      1.3024
    STRESS:  cpu time      3.9343: real time      3.9580
    FORCOR:  cpu time      1.2903: real time      1.2941
    FORHAR:  cpu time      0.0114: real time      0.0114
    MIXING:  cpu time      0.0029: real time      0.0029
    OFIELD:  cpu time      0.0000: real time      0.0000

  FORCE on cell =-STRESS in cart. coord.  units (eV):
  Direction    XX          YY          ZZ          XY          YZ          ZX
  --------------------------------------------------------------------------------------
  Alpha Z    96.83389    96.83389    96.83389
  Ewald   -1253.72439 -1732.64663 -1867.73833   -78.36588  -101.34627   -56.01421
  Hartree   695.25517   220.66713   -22.40103    -0.42036  -133.40446    -0.21457
  E(xc)    -655.48106  -660.52705  -660.83167     0.92702    -0.42151     0.70850
  Local   -2226.40383  -828.75624  -443.82355    14.78283   347.31034     9.90703
  n-local  2185.91488  2199.77298  2203.43081    -8.17602   -25.23319    -3.89464
  augment  -332.55127  -302.72825  -307.34888    -3.57628     5.16273    -1.89249
  Kinetic  1620.76300  1605.76954  1604.73211     4.64463     1.51261     1.80131
  Fock        0.00000     0.00000     0.00000     0.00000     0.00000     0.00000
  -------------------------------------------------------------------------------------
  Total     130.60638   598.38538   602.85336   -70.18406    93.58024   -49.59906
  in kB     261.25547  1196.96645  1205.90387  -140.39108   187.19109   -99.21433
  external pressure =      888.04 kB  Pullay stress =        0.00 kB


 VOLUME and BASIS-vectors are now :
 -----------------------------------------------------------------------------
  energy-cutoff  :      700.00
  volume of cell :      800.96
      direct lattice vectors                 reciprocal lattice vectors
     7.680594444  0.000000000  0.000000000     0.130198256 -0.043399418  0.000000000
     3.840296984 11.520891190  0.000000000     0.000000000  0.086798841  0.000000000
     0.000000000  0.000000000  9.051669121     0.000000000  0.000000000  0.110476862

  length of vectors
     7.680594444 12.144085587  9.051669121     0.137241012  0.086798841  0.110476862


 FORCES acting on ions
    electron-ion (+dipol)            ewald-force                    non-local-force                 convergence-correction
 -----------------------------------------------------------------------------------------------
   -.995E+00 -.489E+02 -.740E+02   0.733E+00 0.470E+02 0.740E+02   0.400E+00 0.266E+01 0.244E+01   0.160E-05 -.145E-03 0.812E-04
   0.631E-01 -.104E+02 -.135E+02   -.658E-01 0.107E+02 0.139E+02   -.219E-01 -.243E+00 -.210E+00   -.875E-05 0.394E-04 0.571E-04
   0.375E+00 0.257E+02 0.571E+02   -.756E+00 -.265E+02 -.581E+02   0.284E+00 0.324E+00 0.233E+00   0.159E-05 0.189E-03 0.110E-03
   -.757E+01 0.128E+03 -.339E+02   0.148E+02 -.188E+03 0.614E+02   0.589E+01 -.558E+02 0.223E+02   0.236E-04 -.190E-03 0.288E-04
   -.337E-01 -.445E+01 -.242E+01   -.105E-01 0.472E+01 0.218E+01   0.117E+00 -.533E+00 0.322E+00   0.318E-05 -.204E-03 0.960E-04
   -.655E+01 -.300E+02 0.150E+03   0.702E+01 0.313E+02 -.160E+03   0.479E+01 0.892E+01 -.542E+02   0.682E-05 -.791E-04 -.289E-03
   0.569E+01 0.185E+02 -.602E+02   -.512E+01 -.144E+02 0.589E+02   -.126E+01 -.111E+02 0.601E+01   0.216E-05 0.257E-03 -.106E-03
   -.299E+00 0.152E+02 -.460E+02   0.324E+00 -.158E+02 0.469E+02   -.323E-01 0.266E+00 -.790E+00   0.733E-05 0.161E-03 0.609E-04
   0.503E-01 -.250E+01 0.265E+02   -.747E-02 0.229E+01 -.260E+02   -.669E-01 0.198E+00 -.463E+00   0.340E-05 -.951E-04 -.444E-04
   0.280E+00 -.231E+02 -.376E+02   -.144E+00 0.234E+02 0.378E+02   -.162E+00 -.183E+00 -.232E+00   0.852E-05 -.164E-03 -.215E-04
   -.194E+00 0.481E+01 0.324E+02   0.175E+00 -.338E+01 -.325E+02   0.215E-01 -.158E+01 -.338E+00   -.331E-06 0.576E-05 0.679E-04
   -.964E+01 0.672E+02 0.134E+03   0.238E+02 -.114E+03 -.246E+03   0.619E+01 -.232E+02 -.443E+02   -.224E-04 0.163E-03 -.694E-04
   -.158E+00 0.442E+02 -.448E+02   -.864E+00 -.458E+02 0.461E+02   0.104E+01 0.980E+00 -.729E+00   -.725E-05 -.469E-04 0.165E-03
   0.365E-01 -.187E+02 0.257E+02   -.388E-01 0.187E+02 -.258E+02   0.538E-01 0.348E+00 -.191E+00   0.152E-05 -.196E-03 0.945E-04
   0.879E+01 0.417E+02 0.421E+02   0.242E+00 -.101E+03 -.676E+02   -.455E+01 -.514E+02 -.241E+02   0.257E-05 -.612E-04 -.119E-04
   -.181E+01 -.302E+02 -.888E+02   0.185E+01 0.286E+02 0.883E+02   0.252E+00 0.577E+01 0.457E+01   -.164E-04 0.186E-03 -.100E-03
   -.907E-01 0.149E+02 -.216E+00   -.444E-01 -.149E+02 0.109E+01   0.159E+00 -.577E-01 -.917E+00   -.207E-06 0.187E-03 0.843E-04
   0.943E+00 0.706E+01 0.257E+02   -.850E+00 -.761E+01 -.276E+02   -.134E+00 0.931E-01 0.244E+01   -.539E-05 -.131E-03 -.186E-03
   -.995E+00 -.489E+02 -.740E+02   0.733E+00 0.470E+02 0.740E+02   0.400E+00 0.266E+01 0.244E+01   0.763E-05 -.156E-03 0.681E-04
   0.631E-01 -.104E+02 -.135E+02   -.658E-01 0.107E+02 0.139E+02   -.219E-01 -.243E+00 -.210E+00   0.875E-05 0.393E-04 0.563E-04
   0.375E+00 0.257E+02 0.571E+02   -.756E+00 -.265E+02 -.581E+02   0.284E+00 0.324E+00 0.233E+00   0.198E-05 0.183E-03 0.962E-04
   0.569E+01 0.185E+02 -.602E+02   -.512E+01 -.144E+02 0.589E+02   -.126E+01 -.111E+02 0.601E+01   0.503E-05 0.253E-03 -.961E-04
   -.299E+00 0.152E+02 -.460E+02   0.324E+00 -.158E+02 0.469E+02   -.323E-01 0.266E+00 -.790E+00   -.786E-05 0.162E-03 0.599E-04
   0.502E-01 -.250E+01 0.265E+02   -.744E-02 0.229E+01 -.260E+02   -.669E-01 0.198E+00 -.463E+00   0.120E-05 -.857E-04 -.421E-04
   -.757E+01 0.128E+03 -.339E+02   0.148E+02 -.188E+03 0.614E+02   0.589E+01 -.558E+02 0.223E+02   0.247E-04 -.182E-03 0.331E-04
   -.337E-01 -.445E+01 -.242E+01   -.106E-01 0.472E+01 0.218E+01   0.117E+00 -.533E+00 0.322E+00   -.148E-05 -.204E-03 0.963E-04
   -.655E+01 -.300E+02 0.150E+03   0.702E+01 0.313E+02 -.160E+03   0.479E+01 0.892E+01 -.542E+02   0.152E-04 -.842E-04 -.280E-03
   -.158E+00 0.442E+02 -.448E+02   -.864E+00 -.458E+02 0.461E+02   0.104E+01 0.980E+00 -.729E+00   -.179E-04 -.441E-04 0.163E-03
   0.364E-01 -.187E+02 0.257E+02   -.387E-01 0.187E+02 -.258E+02   0.538E-01 0.348E+00 -.191E+00   -.235E-05 -.186E-03 0.888E-04
   0.879E+01 0.417E+02 0.421E+02   0.242E+00 -.101E+03 -.676E+02   -.455E+01 -.514E+02 -.241E+02   -.385E-04 -.612E-04 -.113E-04
   0.280E+00 -.231E+02 -.376E+02   -.144E+00 0.234E+02 0.378E+02   -.162E+00 -.183E+00 -.232E+00   -.116E-04 -.163E-03 -.238E-04
   -.194E+00 0.481E+01 0.324E+02   0.175E+00 -.338E+01 -.325E+02   0.215E-01 -.158E+01 -.338E+00   0.176E-05 0.742E-05 0.772E-04
   -.964E+01 0.672E+02 0.134E+03   0.238E+02 -.114E+03 -.246E+03   0.619E+01 -.232E+02 -.443E+02   0.207E-04 0.165E-03 -.637E-04
   -.181E+01 -.302E+02 -.888E+02   0.185E+01 0.286E+02 0.883E+02   0.252E+00 0.577E+01 0.457E+01   0.118E-04 0.186E-03 -.101E-03
   -.907E-01 0.149E+02 -.216E+00   -.444E-01 -.149E+02 0.109E+01   0.159E+00 -.577E-01 -.917E+00   -.787E-06 0.183E-03 0.830E-04
   0.943E+00 0.706E+01 0.257E+02   -.850E+00 -.761E+01 -.276E+02   -.134E+00 0.931E-01 0.244E+01   -.137E-04 -.126E-03 -.184E-03
   -.830E+01 0.617E+01 -.378E+02   0.543E+01 -.897E+01 0.472E+02   0.489E+01 -.934E+01 0.528E+02   0.931E-05 -.114E-03 0.242E-05
   0.586E+01 -.305E+02 -.294E+02   -.199E+02 0.805E+02 0.138E+03   -.526E+01 0.202E+02 0.449E+02   -.323E-04 0.115E-03 -.410E-04
   0.725E+01 -.296E+02 0.519E+02   -.132E+02 0.900E+02 -.757E+02   -.749E+01 0.534E+02 -.266E+02   0.327E-05 0.243E-03 -.762E-04
   -.830E+01 0.617E+01 -.378E+02   0.543E+01 -.897E+01 0.472E+02   0.489E+01 -.934E+01 0.528E+02   0.242E-04 -.125E-03 0.919E-05
   0.586E+01 -.305E+02 -.294E+02   -.199E+02 0.805E+02 0.138E+03   -.526E+01 0.202E+02 0.449E+02   0.186E-04 0.111E-03 -.441E-04
   0.725E+01 -.296E+02 0.519E+02   -.132E+02 0.900E+02 -.757E+02   -.749E+01 0.534E+02 -.266E+02   -.152E-05 0.225E-03 -.747E-04
   0.678E+01 -.155E+03 -.529E+02   -.132E+02 0.214E+03 0.757E+02   -.530E+01 0.556E+02 0.271E+02   -.309E-04 0.753E-04 0.451E-04
   0.189E+01 -.430E+02 -.170E+02   -.130E+01 0.408E+02 0.195E+02   -.117E+01 0.958E+01 -.546E+01   0.773E-05 -.135E-03 0.291E-04
   -.799E+00 0.514E+02 -.715E+01   0.113E+01 -.519E+02 0.737E+01   -.211E+00 -.363E+01 -.384E+01   0.155E-04 0.455E-03 -.152E-04
   0.678E+01 -.155E+03 -.529E+02   -.132E+02 0.214E+03 0.757E+02   -.530E+01 0.556E+02 0.271E+02   -.509E-06 0.778E-04 0.452E-04
   0.189E+01 -.430E+02 -.170E+02   -.130E+01 0.408E+02 0.195E+02   -.117E+01 0.958E+01 -.546E+01   0.182E-05 -.136E-03 0.400E-04
   -.799E+00 0.514E+02 -.715E+01   0.113E+01 -.519E+02 0.737E+01   -.211E+00 -.363E+01 -.384E+01   -.159E-04 0.451E-03 -.150E-04
 -----------------------------------------------------------------------------------------------
   0.314E+01 -.259E+01 -.136E+01   -.604E-13 -.156E-12 0.266E-13   -.311E+01 0.248E+01 0.136E+01   0.552E-05 0.100E-02 -.578E-04
 
 
 POSITION                                       TOTAL-FORCE (eV/Angst)
 -----------------------------------------------------------------------------------
     11.45255     11.45255      0.00000         0.137869      0.796895      2.447554
      9.53240      9.53240      2.71550        -0.025209      0.060668      0.149185
      7.61225      7.61225      5.43100        -0.097737     -0.484538     -0.814659
      3.77195      3.77195      0.00000        13.166588   -115.370271     49.794920
      1.85180      1.85180      2.71550         0.072306     -0.258523      0.084900
     11.45255     11.45255      5.43100         5.255250     10.224359    -64.318432
      7.61225      7.61225      0.00000        -0.685423     -6.951011      4.784946
      5.69210      5.69210      2.71550        -0.008356     -0.304836      0.102148
      3.77195      3.77195      5.43100        -0.024664     -0.015641     -0.042561
      5.69210     11.45255      1.35775        -0.026920      0.174895     -0.097799
      3.77195      9.53240      4.07325         0.001158     -0.154263     -0.422388
      9.53240      7.61225      6.78875        20.357121    -69.849300   -155.824244
      5.69210      3.77195      1.35775         0.019382     -0.645419      0.595009
      3.77195      1.85180      4.07325         0.050866      0.287798     -0.282682
      5.69210     11.45254      6.78875         4.486429   -110.882455    -49.651663
      9.53240      7.61225      1.35775         0.296571      4.202196      4.103231
      7.61225      5.69210      4.07325         0.023645      0.014591     -0.041933
      5.69210      3.77195      6.78875        -0.041997     -0.452476      0.539897
      7.61225     11.45255      0.00000         0.137869      0.796895      2.447554
      5.69210      9.53240      2.71550        -0.025209      0.060668      0.149185
      3.77195      7.61225      5.43100        -0.097737     -0.484538     -0.814659
      3.77195      7.61225      0.00000        -0.685423     -6.951011      4.784946
      9.53240      5.69210      2.71550        -0.008356     -0.304836      0.102148
      7.61225      3.77195      5.43100        -0.024664     -0.015641     -0.042561
      7.61225      3.77195      0.00000        13.166588   -115.370271     49.794920
      5.69210      1.85180      2.71550         0.072306     -0.258523      0.084900
      7.61225     11.45255      5.43100         5.255250     10.224359    -64.318432
      1.85180      3.77195      1.35775         0.019382     -0.645419      0.595009
      7.61225      1.85180      4.07325         0.050866      0.287798     -0.282682
      9.53240     11.45254      6.78875         4.486429   -110.882455    -49.651663
      9.53240     11.45255      1.35775        -0.026920      0.174895     -0.097799
      7.61225      9.53240      4.07325         0.001158     -0.154263     -0.422388
      5.69210      7.61225      6.78875        20.357121    -69.849300   -155.824244
      5.69210      7.61225      1.35775         0.296571      4.202196      4.103231
      3.77195      5.69210      4.07325         0.023645      0.014591     -0.041933
      1.85180      3.77195      6.78875        -0.041997     -0.452476      0.539897
     11.33745     11.21515      6.78875         2.015092    -12.128853     62.143325
      9.41730      8.01490      7.69392       -19.330870     70.206760    153.846064
      7.49715      4.81465      8.59908       -13.442458    113.779832    -50.362150
      7.49715     11.21515      6.78875         2.015092    -12.128853     62.143325
      5.57700      8.01490      7.69392       -19.330870     70.206760    153.846064
      3.65685      4.81465      8.59908       -13.442458    113.779832    -50.362150
      5.57700      0.97436      7.24133       -11.733136    114.413271     49.876686
      7.49715      9.29500      8.14650        -0.581578      7.406473     -2.992546
      5.57700      6.09475      9.05167         0.116071     -4.070152     -3.616805
      1.73670      0.97436      7.24133       -11.733136    114.413271     49.876686
      3.65685      9.29500      8.14650        -0.581578      7.406473     -2.992546
      9.41730      6.09475      9.05167         0.116071     -4.070152     -3.616805
 -----------------------------------------------------------------------------------
    total drift:                                0.028218     -0.107733     -0.003917


--------------------------------------------------------------------------------------------------------



  FREE ENERGIE OF THE ION-ELECTRON SYSTEM (eV)
  ---------------------------------------------------
  free  energy   TOTEN  =        90.56158516 eV

  energy  without entropy=       90.56228634  energy(sigma->0) =       90.56193575
 


--------------------------------------------------------------------------------------------------------


    POTLOK:  cpu time      0.2944: real time      0.2956


--------------------------------------------------------------------------------------------------------


     LOOP+:  cpu time    179.3465: real time    180.8811
    4ORBIT:  cpu time      0.0000: real time      0.0000

 total amount of memory used by VASP MPI-rank0    79625. kBytes
=======================================================================

   base      :      30000. kBytes
   nonlr-proj:       1725. kBytes
   fftplans  :       5945. kBytes
   grid      :       4346. kBytes
   one-center:         18. kBytes
   wavefun   :      37591. kBytes
 
  
  
 General timing and accounting informations for this job:
 ========================================================
  
                  Total CPU time used (sec):      198.078
                            User time (sec):      195.110
                          System time (sec):        2.968
                         Elapsed time (sec):      200.450
  
                   Maximum memory used (kb):      302000.
                   Average memory used (kb):          N/A
  
                          Minor page faults:        69287
                          Major page faults:           23
                 Voluntary context switches:         1437
