  72  72   0   0
  0.2340078E+02  0.7680595E-09  0.1629300E-08  0.1346378E-08  0.5000000E-15
  1.000000000000000E-004
  CAR 
 Si and Ge interface calculation         
      6.77776609     -9.69458493  301      3.72502158      1.00000000
     -9.695  0.0000E+00  0.0000E+00  0.0000E+00  0.0000E+00
     -9.640  0.0000E+00  0.0000E+00  0.0000E+00  0.0000E+00
     -9.585  0.0000E+00  0.0000E+00  0.0000E+00  0.0000E+00
     -9.530  0.0000E+00  0.0000E+00  0.0000E+00  0.0000E+00
     -9.475  0.0000E+00  0.0000E+00  0.0000E+00  0.0000E+00
     -9.420  0.0000E+00  0.0000E+00  0.0000E+00  0.0000E+00
     -9.365  0.0000E+00  0.0000E+00  0.0000E+00  0.0000E+00
     -9.310  0.0000E+00  0.0000E+00  0.0000E+00  0.0000E+00
     -9.255  0.0000E+00  0.0000E+00  0.0000E+00  0.0000E+00
     -9.200  0.0000E+00  0.0000E+00  0.0000E+00  0.0000E+00
     -9.146  0.0000E+00  0.0000E+00  0.0000E+00  0.0000E+00
     -9.091  0.0000E+00  0.0000E+00  0.0000E+00  0.0000E+00
     -9.036  0.0000E+00  0.0000E+00  0.0000E+00  0.0000E+00
     -8.981  0.8826E-06  0.1705E-08  0.4846E-07  0.9364E-10
     -8.926  0.2449E+01  0.2192E+01  0.1345E+00  0.1204E+00
     -8.871  0.5989E+01  0.5297E+01  0.4633E+00  0.4112E+00
     -8.816  0.1203E+01  0.1666E+01  0.5293E+00  0.5027E+00
     -8.761  0.1247E+02  0.1085E+02  0.1214E+01  0.1099E+01
     -8.706  0.9613E+01  0.1100E+02  0.1742E+01  0.1703E+01
     -8.651  0.1443E+00  0.8573E+00  0.1750E+01  0.1750E+01
     -8.596  0.2098E+01  0.4012E+00  0.1865E+01  0.1772E+01
     -8.542  0.1158E+02  0.1323E+02  0.2501E+01  0.2498E+01
     -8.487  0.4537E+01  0.4557E+01  0.2750E+01  0.2749E+01
     -8.432  0.6243E+01  0.1359E+01  0.3093E+01  0.2823E+01
     -8.377  0.1645E+02  0.1779E+02  0.3996E+01  0.3800E+01
     -8.322  0.2018E+02  0.2180E+02  0.5104E+01  0.4998E+01
     -8.267  0.7829E+01  0.8225E+01  0.5534E+01  0.5449E+01
     -8.212  0.5763E+01  0.4667E+01  0.5851E+01  0.5705E+01
     -8.157  0.1672E+02  0.1649E+02  0.6769E+01  0.6611E+01
     -8.102  0.1107E+02  0.1391E+02  0.7377E+01  0.7375E+01
     -8.047  0.5602E+01  0.2606E+01  0.7684E+01  0.7518E+01
     -7.992  0.1491E+02  0.1788E+02  0.8503E+01  0.8499E+01
     -7.938  0.1349E+02  0.1275E+02  0.9244E+01  0.9199E+01
     -7.883  0.6086E+01  0.3849E+01  0.9578E+01  0.9411E+01
     -7.828  0.8232E+01  0.8894E+01  0.1003E+02  0.9899E+01
     -7.773  0.1434E+02  0.1441E+02  0.1082E+02  0.1069E+02
     -7.718  0.3623E+02  0.3454E+02  0.1281E+02  0.1259E+02
     -7.663  0.1513E+02  0.1504E+02  0.1364E+02  0.1341E+02
     -7.608  0.1566E+02  0.1820E+02  0.1450E+02  0.1441E+02
     -7.553  0.1158E+02  0.1047E+02  0.1513E+02  0.1499E+02
     -7.498  0.1581E+02  0.1834E+02  0.1600E+02  0.1599E+02
     -7.443  0.1299E+02  0.9839E+01  0.1671E+02  0.1653E+02
     -7.388  0.9908E+01  0.8208E+01  0.1726E+02  0.1699E+02
     -7.334  0.1101E+02  0.1130E+02  0.1786E+02  0.1761E+02
     -7.279  0.3735E+02  0.3366E+02  0.1991E+02  0.1945E+02
     -7.224  0.3762E+02  0.4332E+02  0.2198E+02  0.2183E+02
     -7.169  0.5907E+01  0.6128E+01  0.2230E+02  0.2217E+02
     -7.114  0.3442E+02  0.2998E+02  0.2419E+02  0.2382E+02
     -7.059  0.1950E+02  0.2072E+02  0.2526E+02  0.2495E+02
     -7.004  0.1467E+02  0.1507E+02  0.2607E+02  0.2578E+02
     -6.949  0.2876E+02  0.3102E+02  0.2765E+02  0.2748E+02
     -6.894  0.2404E+02  0.2537E+02  0.2897E+02  0.2888E+02
     -6.839  0.1505E+02  0.1570E+02  0.2979E+02  0.2974E+02
     -6.784  0.1984E+02  0.1666E+02  0.3088E+02  0.3065E+02
     -6.730  0.2152E+02  0.2350E+02  0.3207E+02  0.3194E+02
     -6.675  0.4150E+02  0.4116E+02  0.3434E+02  0.3420E+02
     -6.620  0.2802E+02  0.2424E+02  0.3588E+02  0.3554E+02
     -6.565  0.2314E+02  0.2742E+02  0.3715E+02  0.3704E+02
     -6.510  0.9054E+01  0.8820E+01  0.3765E+02  0.3753E+02
     -6.455  0.2989E+02  0.2390E+02  0.3929E+02  0.3884E+02
     -6.400  0.2712E+02  0.3220E+02  0.4078E+02  0.4061E+02
     -6.345  0.1660E+02  0.1465E+02  0.4169E+02  0.4141E+02
     -6.290  0.1676E+02  0.1691E+02  0.4261E+02  0.4234E+02
     -6.235  0.2303E+02  0.2515E+02  0.4388E+02  0.4372E+02
     -6.180  0.2094E+02  0.2268E+02  0.4503E+02  0.4496E+02
     -6.126  0.1727E+02  0.1288E+02  0.4597E+02  0.4567E+02
     -6.071  0.1655E+02  0.1798E+02  0.4688E+02  0.4666E+02
     -6.016  0.1778E+02  0.1458E+02  0.4786E+02  0.4746E+02
     -5.961  0.2589E+02  0.3254E+02  0.4928E+02  0.4925E+02
     -5.906  0.1022E+02  0.7615E+01  0.4984E+02  0.4966E+02
     -5.851  0.2570E+02  0.2708E+02  0.5125E+02  0.5115E+02
     -5.796  0.4588E+02  0.4148E+02  0.5377E+02  0.5343E+02
     -5.741  0.2112E+02  0.2124E+02  0.5493E+02  0.5460E+02
     -5.686  0.1137E+02  0.1409E+02  0.5556E+02  0.5537E+02
     -5.631  0.8978E+01  0.1153E+02  0.5605E+02  0.5600E+02
     -5.576  0.1959E+02  0.1401E+02  0.5713E+02  0.5677E+02
     -5.522  0.1792E+02  0.1405E+02  0.5811E+02  0.5754E+02
     -5.467  0.1414E+02  0.1785E+02  0.5889E+02  0.5852E+02
     -5.412  0.1220E+02  0.1079E+02  0.5956E+02  0.5912E+02
     -5.357  0.1941E+02  0.2256E+02  0.6062E+02  0.6035E+02
     -5.302  0.1029E+02  0.1159E+02  0.6119E+02  0.6099E+02
     -5.247  0.9588E+01  0.9489E+01  0.6171E+02  0.6151E+02
     -5.192  0.1835E+02  0.1905E+02  0.6272E+02  0.6256E+02
     -5.137  0.1971E+02  0.2100E+02  0.6380E+02  0.6371E+02
     -5.082  0.1631E+02  0.1527E+02  0.6470E+02  0.6455E+02
     -5.027  0.2851E+02  0.2353E+02  0.6626E+02  0.6584E+02
     -4.973  0.1725E+02  0.2074E+02  0.6721E+02  0.6698E+02
     -4.918  0.1247E+02  0.1581E+02  0.6790E+02  0.6785E+02
     -4.863  0.1099E+02  0.1165E+02  0.6850E+02  0.6849E+02
     -4.808  0.4183E+01  0.1582E+01  0.6873E+02  0.6857E+02
     -4.753  0.1274E+02  0.1069E+02  0.6943E+02  0.6916E+02
     -4.698  0.1198E+02  0.1249E+02  0.7009E+02  0.6985E+02
     -4.643  0.1026E+02  0.7521E+01  0.7065E+02  0.7026E+02
     -4.588  0.2468E+02  0.2326E+02  0.7200E+02  0.7154E+02
     -4.533  0.1952E+02  0.2199E+02  0.7308E+02  0.7274E+02
     -4.478  0.1432E+02  0.1396E+02  0.7386E+02  0.7351E+02
     -4.423  0.2683E+02  0.2564E+02  0.7534E+02  0.7492E+02
     -4.369  0.2097E+02  0.2335E+02  0.7649E+02  0.7620E+02
     -4.314  0.2835E+02  0.3148E+02  0.7804E+02  0.7793E+02
     -4.259  0.9846E+01  0.1031E+02  0.7859E+02  0.7850E+02
     -4.204  0.2471E+02  0.2070E+02  0.7994E+02  0.7963E+02
     -4.149  0.2119E+02  0.2161E+02  0.8111E+02  0.8082E+02
     -4.094  0.3096E+02  0.3004E+02  0.8281E+02  0.8247E+02
     -4.039  0.1556E+02  0.1889E+02  0.8366E+02  0.8351E+02
     -3.984  0.1530E+02  0.1804E+02  0.8450E+02  0.8450E+02
     -3.929  0.5016E+01  0.2783E+01  0.8478E+02  0.8465E+02
     -3.874  0.2543E+02  0.2038E+02  0.8617E+02  0.8577E+02
     -3.819  0.8416E+01  0.1560E+02  0.8663E+02  0.8663E+02
     -3.765  0.2501E+02  0.1945E+02  0.8801E+02  0.8769E+02
     -3.710  0.2256E+02  0.2566E+02  0.8925E+02  0.8910E+02
     -3.655  0.1140E+02  0.1075E+02  0.8987E+02  0.8969E+02
     -3.600  0.1154E+02  0.1354E+02  0.9051E+02  0.9044E+02
     -3.545  0.2236E+02  0.1796E+02  0.9173E+02  0.9142E+02
     -3.490  0.2742E+02  0.2881E+02  0.9324E+02  0.9300E+02
     -3.435  0.2885E+02  0.2578E+02  0.9482E+02  0.9442E+02
     -3.380  0.3222E+02  0.2974E+02  0.9659E+02  0.9605E+02
     -3.325  0.3155E+02  0.3506E+02  0.9832E+02  0.9798E+02
     -3.270  0.2896E+02  0.2855E+02  0.9991E+02  0.9955E+02
     -3.215  0.2339E+02  0.2851E+02  0.1012E+03  0.1011E+03
     -3.161  0.6223E+01  0.7156E+01  0.1015E+03  0.1015E+03
     -3.106  0.1303E+02  0.7963E+01  0.1023E+03  0.1019E+03
     -3.051  0.4742E+02  0.3981E+02  0.1049E+03  0.1041E+03
     -2.996  0.1966E+02  0.2540E+02  0.1059E+03  0.1055E+03
     -2.941  0.1230E+02  0.1650E+02  0.1066E+03  0.1064E+03
     -2.886  0.1830E+02  0.1709E+02  0.1076E+03  0.1074E+03
     -2.831  0.1662E+02  0.1841E+02  0.1085E+03  0.1084E+03
     -2.776  0.1209E+02  0.1367E+02  0.1092E+03  0.1091E+03
     -2.721  0.1530E+02  0.1231E+02  0.1100E+03  0.1098E+03
     -2.666  0.1933E+02  0.1958E+02  0.1111E+03  0.1109E+03
     -2.611  0.1508E+01  0.4515E+01  0.1112E+03  0.1111E+03
     -2.557  0.1933E+02  0.1264E+02  0.1122E+03  0.1118E+03
     -2.502  0.1068E+02  0.1385E+02  0.1128E+03  0.1126E+03
     -2.447  0.1870E+02  0.2107E+02  0.1139E+03  0.1137E+03
     -2.392  0.1630E+02  0.1400E+02  0.1147E+03  0.1145E+03
     -2.337  0.1785E+02  0.1626E+02  0.1157E+03  0.1154E+03
     -2.282  0.2470E+02  0.2556E+02  0.1171E+03  0.1168E+03
     -2.227  0.2218E+02  0.2338E+02  0.1183E+03  0.1181E+03
     -2.172  0.2112E+02  0.2082E+02  0.1195E+03  0.1192E+03
     -2.117  0.6901E+01  0.9413E+01  0.1198E+03  0.1197E+03
     -2.062  0.1650E+02  0.1730E+02  0.1207E+03  0.1207E+03
     -2.007  0.1599E+02  0.1218E+02  0.1216E+03  0.1214E+03
     -1.953  0.2292E+02  0.1978E+02  0.1229E+03  0.1225E+03
     -1.898  0.1512E+02  0.2085E+02  0.1237E+03  0.1236E+03
     -1.843  0.3118E+01  0.5075E+01  0.1239E+03  0.1239E+03
     -1.788  0.1132E+02  0.9043E+01  0.1245E+03  0.1244E+03
     -1.733  0.1816E+02  0.1993E+02  0.1255E+03  0.1255E+03
     -1.678  0.6740E+01  0.6572E+01  0.1259E+03  0.1258E+03
     -1.623  0.4565E+01  0.5409E+01  0.1261E+03  0.1261E+03
     -1.568  0.2107E+02  0.1050E+02  0.1273E+03  0.1267E+03
     -1.513  0.2412E+02  0.2865E+02  0.1286E+03  0.1283E+03
     -1.458  0.9427E+01  0.1289E+02  0.1291E+03  0.1290E+03
     -1.404  0.1837E+02  0.1397E+02  0.1301E+03  0.1297E+03
     -1.349  0.8442E+01  0.9904E+01  0.1306E+03  0.1303E+03
     -1.294  0.5714E+01  0.1062E+02  0.1309E+03  0.1309E+03
     -1.239  0.1079E+02  0.9119E+01  0.1315E+03  0.1314E+03
     -1.184  0.3678E+02  0.2924E+02  0.1335E+03  0.1330E+03
     -1.129  0.4607E+01  0.1211E+02  0.1338E+03  0.1336E+03
     -1.074  0.1507E+02  0.1368E+02  0.1346E+03  0.1344E+03
     -1.019  0.6700E+01  0.7597E+01  0.1350E+03  0.1348E+03
     -0.964  0.4959E+01  0.6728E+01  0.1352E+03  0.1352E+03
     -0.909  0.1471E+00  0.1202E+01  0.1353E+03  0.1353E+03
     -0.854  0.4526E+01  0.3475E+01  0.1355E+03  0.1354E+03
     -0.800  0.9175E+01  0.6249E+01  0.1360E+03  0.1358E+03
     -0.745  0.1990E+02  0.1731E+02  0.1371E+03  0.1367E+03
     -0.690  0.1225E+02  0.1849E+02  0.1378E+03  0.1378E+03
     -0.635  0.2288E+02  0.1483E+02  0.1390E+03  0.1386E+03
     -0.580  0.3695E+02  0.3859E+02  0.1411E+03  0.1407E+03
     -0.525  0.1496E+02  0.2061E+02  0.1419E+03  0.1418E+03
     -0.470  0.1522E+02  0.1267E+02  0.1427E+03  0.1425E+03
     -0.415  0.4690E+02  0.4329E+02  0.1453E+03  0.1449E+03
     -0.360  0.1569E+02  0.1319E+02  0.1461E+03  0.1456E+03
     -0.305  0.4288E+02  0.4265E+02  0.1485E+03  0.1480E+03
     -0.250  0.2402E+02  0.2666E+02  0.1498E+03  0.1494E+03
     -0.196  0.3932E+02  0.3901E+02  0.1520E+03  0.1516E+03
     -0.141  0.4636E+02  0.4577E+02  0.1545E+03  0.1541E+03
     -0.086  0.2162E+02  0.2458E+02  0.1557E+03  0.1554E+03
     -0.031  0.4684E+02  0.4315E+02  0.1583E+03  0.1578E+03
      0.024  0.3867E+02  0.4210E+02  0.1604E+03  0.1601E+03
      0.079  0.3295E+02  0.2806E+02  0.1622E+03  0.1616E+03
      0.134  0.4267E+02  0.4167E+02  0.1646E+03  0.1639E+03
      0.189  0.4232E+02  0.4582E+02  0.1669E+03  0.1664E+03
      0.244  0.4381E+02  0.4512E+02  0.1693E+03  0.1689E+03
      0.299  0.3026E+02  0.2650E+02  0.1709E+03  0.1704E+03
      0.354  0.3667E+02  0.3388E+02  0.1730E+03  0.1722E+03
      0.408  0.4144E+02  0.4960E+02  0.1752E+03  0.1750E+03
      0.463  0.3177E+02  0.2760E+02  0.1770E+03  0.1765E+03
      0.518  0.5635E+02  0.5583E+02  0.1801E+03  0.1795E+03
      0.573  0.3779E+02  0.3751E+02  0.1822E+03  0.1816E+03
      0.628  0.4597E+02  0.4519E+02  0.1847E+03  0.1841E+03
      0.683  0.5141E+02  0.5042E+02  0.1875E+03  0.1869E+03
      0.738  0.3109E+02  0.3794E+02  0.1892E+03  0.1889E+03
      0.793  0.3236E+02  0.3347E+02  0.1910E+03  0.1908E+03
      0.848  0.2796E+02  0.2379E+02  0.1925E+03  0.1921E+03
      0.903  0.5404E+02  0.4845E+02  0.1955E+03  0.1947E+03
      0.958  0.3466E+02  0.3952E+02  0.1974E+03  0.1969E+03
      1.012  0.3643E+02  0.4304E+02  0.1994E+03  0.1993E+03
      1.067  0.4378E+02  0.3947E+02  0.2018E+03  0.2014E+03
      1.122  0.2748E+02  0.2469E+02  0.2033E+03  0.2028E+03
      1.177  0.3532E+02  0.3257E+02  0.2052E+03  0.2046E+03
      1.232  0.3748E+02  0.4109E+02  0.2073E+03  0.2068E+03
      1.287  0.5382E+02  0.5072E+02  0.2103E+03  0.2096E+03
      1.342  0.4689E+02  0.4569E+02  0.2128E+03  0.2121E+03
      1.397  0.5169E+02  0.5506E+02  0.2157E+03  0.2152E+03
      1.452  0.3838E+02  0.3550E+02  0.2178E+03  0.2171E+03
      1.507  0.4438E+02  0.4461E+02  0.2202E+03  0.2196E+03
      1.562  0.4171E+02  0.3998E+02  0.2225E+03  0.2218E+03
      1.616  0.4884E+02  0.5497E+02  0.2252E+03  0.2248E+03
      1.671  0.3173E+02  0.3227E+02  0.2269E+03  0.2265E+03
      1.726  0.4838E+02  0.4892E+02  0.2296E+03  0.2292E+03
      1.781  0.4909E+02  0.3739E+02  0.2323E+03  0.2313E+03
      1.836  0.3877E+02  0.5212E+02  0.2344E+03  0.2341E+03
      1.891  0.4914E+02  0.3832E+02  0.2371E+03  0.2362E+03
      1.946  0.3295E+02  0.3938E+02  0.2389E+03  0.2384E+03
      2.001  0.4295E+02  0.3975E+02  0.2413E+03  0.2406E+03
      2.056  0.4769E+02  0.4457E+02  0.2439E+03  0.2430E+03
      2.111  0.2156E+02  0.3120E+02  0.2451E+03  0.2448E+03
      2.166  0.3693E+02  0.4051E+02  0.2471E+03  0.2470E+03
      2.220  0.3013E+02  0.2763E+02  0.2488E+03  0.2485E+03
      2.275  0.2811E+02  0.2479E+02  0.2503E+03  0.2499E+03
      2.330  0.4665E+02  0.4424E+02  0.2529E+03  0.2523E+03
      2.385  0.2801E+02  0.3307E+02  0.2544E+03  0.2541E+03
      2.440  0.4286E+02  0.4072E+02  0.2568E+03  0.2563E+03
      2.495  0.3188E+02  0.3553E+02  0.2585E+03  0.2583E+03
      2.550  0.3483E+02  0.3148E+02  0.2604E+03  0.2600E+03
      2.605  0.2556E+02  0.2642E+02  0.2618E+03  0.2615E+03
      2.660  0.2671E+02  0.2830E+02  0.2633E+03  0.2630E+03
      2.715  0.1389E+02  0.1451E+02  0.2640E+03  0.2638E+03
      2.769  0.2532E+02  0.2315E+02  0.2654E+03  0.2651E+03
      2.824  0.2480E+02  0.2790E+02  0.2668E+03  0.2666E+03
      2.879  0.3371E+02  0.1346E+02  0.2686E+03  0.2674E+03
      2.934  0.2473E+02  0.4113E+02  0.2700E+03  0.2696E+03
      2.989  0.2638E+02  0.2453E+02  0.2715E+03  0.2710E+03
      3.044  0.9819E+01  0.1442E+02  0.2720E+03  0.2718E+03
      3.099  0.3381E+02  0.3337E+02  0.2739E+03  0.2736E+03
      3.154  0.1977E+02  0.7846E+01  0.2749E+03  0.2740E+03
      3.209  0.1304E+02  0.2758E+02  0.2757E+03  0.2755E+03
      3.264  0.2142E+02  0.1718E+02  0.2768E+03  0.2765E+03
      3.319  0.2260E+02  0.1605E+02  0.2781E+03  0.2774E+03
      3.373  0.2715E+02  0.3144E+02  0.2796E+03  0.2791E+03
      3.428  0.1855E+02  0.1586E+02  0.2806E+03  0.2800E+03
      3.483  0.1480E+02  0.2355E+02  0.2814E+03  0.2812E+03
      3.538  0.3131E+02  0.2033E+02  0.2831E+03  0.2824E+03
      3.593  0.1376E+02  0.1635E+02  0.2839E+03  0.2833E+03
      3.648  0.3118E+02  0.2743E+02  0.2856E+03  0.2848E+03
      3.703  0.2960E+02  0.2902E+02  0.2872E+03  0.2864E+03
      3.758  0.3014E+02  0.2651E+02  0.2889E+03  0.2878E+03
      3.813  0.1720E+02  0.2756E+02  0.2898E+03  0.2893E+03
      3.868  0.2656E+02  0.2489E+02  0.2913E+03  0.2907E+03
      3.923  0.3582E+02  0.3373E+02  0.2932E+03  0.2926E+03
      3.977  0.1960E+02  0.2629E+02  0.2943E+03  0.2940E+03
      4.032  0.3420E+02  0.2283E+02  0.2962E+03  0.2952E+03
      4.087  0.1978E+02  0.2922E+02  0.2973E+03  0.2969E+03
      4.142  0.3408E+02  0.2265E+02  0.2991E+03  0.2981E+03
      4.197  0.4580E+02  0.4332E+02  0.3017E+03  0.3005E+03
      4.252  0.1463E+02  0.2901E+02  0.3025E+03  0.3021E+03
      4.307  0.1742E+02  0.1241E+02  0.3034E+03  0.3027E+03
      4.362  0.4952E+02  0.5029E+02  0.3061E+03  0.3055E+03
      4.417  0.1391E+02  0.1782E+02  0.3069E+03  0.3065E+03
      4.472  0.3131E+02  0.2939E+02  0.3086E+03  0.3081E+03
      4.527  0.2973E+02  0.2924E+02  0.3102E+03  0.3097E+03
      4.581  0.2992E+02  0.2775E+02  0.3119E+03  0.3112E+03
      4.636  0.2708E+02  0.2840E+02  0.3134E+03  0.3128E+03
      4.691  0.2692E+02  0.2913E+02  0.3149E+03  0.3144E+03
      4.746  0.2589E+02  0.2804E+02  0.3163E+03  0.3159E+03
      4.801  0.3069E+02  0.2595E+02  0.3180E+03  0.3174E+03
      4.856  0.2903E+02  0.2890E+02  0.3196E+03  0.3189E+03
      4.911  0.3179E+02  0.2766E+02  0.3213E+03  0.3205E+03
      4.966  0.3757E+02  0.3979E+02  0.3234E+03  0.3226E+03
      5.021  0.3064E+02  0.3122E+02  0.3250E+03  0.3244E+03
      5.076  0.3162E+02  0.3584E+02  0.3268E+03  0.3263E+03
      5.131  0.2841E+02  0.2850E+02  0.3283E+03  0.3279E+03
      5.185  0.2978E+02  0.2834E+02  0.3300E+03  0.3294E+03
      5.240  0.3724E+02  0.3430E+02  0.3320E+03  0.3313E+03
      5.295  0.2988E+02  0.2841E+02  0.3337E+03  0.3329E+03
      5.350  0.2784E+02  0.3880E+02  0.3352E+03  0.3350E+03
      5.405  0.2149E+02  0.2095E+02  0.3364E+03  0.3362E+03
      5.460  0.3837E+02  0.3287E+02  0.3385E+03  0.3380E+03
      5.515  0.3596E+02  0.3728E+02  0.3405E+03  0.3400E+03
      5.570  0.2225E+02  0.2417E+02  0.3417E+03  0.3414E+03
      5.625  0.4272E+02  0.3545E+02  0.3440E+03  0.3433E+03
      5.680  0.2920E+02  0.3529E+02  0.3456E+03  0.3452E+03
      5.735  0.1784E+02  0.1922E+02  0.3466E+03  0.3463E+03
      5.789  0.2357E+02  0.2345E+02  0.3479E+03  0.3476E+03
      5.844  0.2712E+02  0.2512E+02  0.3494E+03  0.3490E+03
      5.899  0.2562E+02  0.2490E+02  0.3508E+03  0.3503E+03
      5.954  0.1380E+02  0.2120E+02  0.3516E+03  0.3515E+03
      6.009  0.6222E+01  0.5096E+01  0.3519E+03  0.3518E+03
      6.064  0.1931E+01  0.4205E+01  0.3520E+03  0.3520E+03
      6.119  0.0000E+00  0.0000E+00  0.3520E+03  0.3520E+03
      6.174  0.0000E+00  0.0000E+00  0.3520E+03  0.3520E+03
      6.229  0.0000E+00  0.0000E+00  0.3520E+03  0.3520E+03
      6.284  0.0000E+00  0.0000E+00  0.3520E+03  0.3520E+03
      6.339  0.0000E+00  0.0000E+00  0.3520E+03  0.3520E+03
      6.393  0.0000E+00  0.0000E+00  0.3520E+03  0.3520E+03
      6.448  0.0000E+00  0.0000E+00  0.3520E+03  0.3520E+03
      6.503  0.0000E+00  0.0000E+00  0.3520E+03  0.3520E+03
      6.558  0.0000E+00  0.0000E+00  0.3520E+03  0.3520E+03
      6.613  0.0000E+00  0.0000E+00  0.3520E+03  0.3520E+03
      6.668  0.0000E+00  0.0000E+00  0.3520E+03  0.3520E+03
      6.723  0.0000E+00  0.0000E+00  0.3520E+03  0.3520E+03
      6.778  0.0000E+00  0.0000E+00  0.3520E+03  0.3520E+03
