Si Bulk DFT energetics calculations using VASP\n
This script is running on comp093.cluster.local in /lustre/home/ah1365/projects/127870/task/compare-dft-mlp/data/Si_Ge/Si_1_0_0-Ge_1_0_0\n
Job started on: Thu 27 Mar 03:09:48 UTC 2025\n
Job ended on: Thu 27 Mar 03:09:48 UTC 2025\n
MPI startup(): PMI server not found. Please set I_MPI_PMI_LIBRARY variable if it is not a singleton case.
 running    1 mpi-ranks, on    1 nodes
 distrk:  each k-point on    1 cores,    1 groups
 distr:  one band on    1 cores,    1 groups
 vasp.6.4.3 19Mar24 (build Oct 22 2024 11:23:12) complex                        
  
 POSCAR found type information on POSCAR SiGe
 POSCAR found :  2 types and      20 ions
 scaLAPACK will be used
 -----------------------------------------------------------------------------
|                                                                             |
|           W    W    AA    RRRRR   N    N  II  N    N   GGGG   !!!           |
|           W    W   A  A   R    R  NN   N  II  NN   N  G    G  !!!           |
|           W    W  A    A  R    R  N N  N  II  N N  N  G       !!!           |
|           W WW W  AAAAAA  RRRRR   N  N N  II  N  N N  G  GGG   !            |
|           WW  WW  A    A  R   R   N   NN  II  N   NN  G    G                |
|           W    W  A    A  R    R  N    N  II  N    N   GGGG   !!!           |
|                                                                             |
|     The value NCORE = 4 specified in the INCAR file was overwritten,        |
|     because it was not compatible with the 1 processes available:           |
|     NCORE = 1                                                               |
|     was used instead, please check that this makes sense for your           |
|     machine.                                                                |
|                                                                             |
 -----------------------------------------------------------------------------

 LDA part: xc-table for (Slater+PW92), standard interpolation
 POSCAR, INCAR and KPOINTS ok, starting setup
 FFT: planning ... GRIDC
 FFT: planning ... GRID_SOFT
 FFT: planning ... GRID
 WAVECAR not read
 entering main loop
       N       E                     dE             d eps       ncg     rms          rms(c)
RMM:   1     0.670934877605E+03    0.67093E+03   -0.26329E+04  1836   0.128E+03
RMM:   2     0.132899901144E+03   -0.53803E+03   -0.54802E+03  1836   0.262E+02
RMM:   3    -0.416847061714E+01   -0.13707E+03   -0.15239E+03  1836   0.866E+01
RMM:   4    -0.430492579815E+02   -0.38881E+02   -0.40786E+02  1836   0.538E+01
RMM:   5    -0.605801244887E+02   -0.17531E+02   -0.15296E+02  1836   0.305E+01
RMM:   6    -0.679526672051E+02   -0.73725E+01   -0.65773E+01  1836   0.195E+01
RMM:   7    -0.713045244472E+02   -0.33519E+01   -0.30349E+01  1836   0.123E+01
RMM:   8    -0.729054127493E+02   -0.16009E+01   -0.14696E+01  1836   0.824E+00
RMM:   9    -0.744203068538E+02   -0.15149E+01   -0.14308E+01  4198   0.543E+00
RMM:  10    -0.746551919270E+02   -0.23489E+00   -0.21750E+00  4219   0.202E+00
RMM:  11    -0.747236147742E+02   -0.68423E-01   -0.40640E-01  4441   0.789E-01
RMM:  12    -0.747349204559E+02   -0.11306E-01   -0.89805E-02  4341   0.338E-01    0.177E+01
RMM:  13    -0.703460822918E+02    0.43888E+01   -0.15005E+01  6357   0.663E+00    0.105E+01
RMM:  14    -0.726568835864E+02   -0.23108E+01   -0.10005E+01  5968   0.417E+00    0.678E+00
RMM:  15    -0.720324320298E+02    0.62445E+00   -0.10434E+01  5912   0.416E+00    0.453E+00
RMM:  16    -0.716471699115E+02    0.38526E+00   -0.49527E+00  5090   0.252E+00    0.397E+00
RMM:  17    -0.688529580932E+02    0.27942E+01   -0.14197E+00  4756   0.154E+00    0.109E+00
RMM:  18    -0.688107609741E+02    0.42197E-01   -0.10939E-01  3880   0.636E-01    0.663E-01
RMM:  19    -0.687968452821E+02    0.13916E-01   -0.61448E-02  3885   0.513E-01    0.376E-01
RMM:  20    -0.687938040871E+02    0.30412E-02   -0.19625E-02  3886   0.304E-01    0.193E-01
RMM:  21    -0.687937038376E+02    0.10025E-03   -0.55119E-03  3836   0.191E-01    0.743E-02
RMM:  22    -0.687937296590E+02   -0.25821E-04   -0.15613E-03  4025   0.954E-02    0.250E-02
RMM:  23    -0.687937506455E+02   -0.20987E-04   -0.22873E-04  3966   0.412E-02    0.112E-02
RMM:  24    -0.687937478427E+02    0.28029E-05   -0.41866E-05  3905   0.190E-02    0.524E-03
RMM:  25    -0.687937475743E+02    0.26837E-06   -0.10675E-05  3389   0.948E-03    0.182E-03
RMM:  26    -0.687937479750E+02   -0.40072E-06   -0.21505E-06  2372   0.450E-03
   1 F= -.68793748E+02 E0= -.68786857E+02  d E =-.687937E+02
 curvature:   0.00 expect dE= 0.000E+00 dE for cont linesearch  0.000E+00
 trial: gam= 0.00000 g(F)=  0.128E+03 g(S)=  0.551E+02 ort = 0.000E+00 (trialstep = 0.100E+01)
 search vector abs. value=  0.183E+03
 bond charge predicted
       N       E                     dE             d eps       ncg     rms          rms(c)
RMM:   1    -0.527165511204E+02    0.16077E+02   -0.10235E+03  4976   0.836E+01    0.205E+01
RMM:   2    -0.833899968724E+02   -0.30673E+02   -0.35049E+02  4906   0.480E+01    0.160E+01
RMM:   3    -0.925830051737E+02   -0.91930E+01   -0.11157E+02  4430   0.251E+01    0.173E+01
RMM:   4    -0.787282608243E+02    0.13855E+02   -0.33008E+01  4389   0.124E+01    0.152E+01
RMM:   5    -0.743412436460E+02    0.43870E+01   -0.84518E+00  4061   0.653E+00    0.121E+01
RMM:   6    -0.859778519691E+02   -0.11637E+02   -0.18509E+01  4422   0.610E+00    0.118E+01
RMM:   7    -0.705821082047E+02    0.15396E+02   -0.10191E+01  4107   0.720E+00    0.391E+00
RMM:   8    -0.703398656555E+02    0.24224E+00   -0.62603E+00  3954   0.517E+00    0.347E+00
RMM:   9    -0.699873821572E+02    0.35248E+00   -0.12482E+00  3913   0.270E+00    0.226E+00
RMM:  10    -0.698279235865E+02    0.15946E+00   -0.91193E-01  3811   0.207E+00    0.771E-01
RMM:  11    -0.698334487382E+02   -0.55252E-02   -0.18132E-01  4060   0.102E+00    0.509E-01
RMM:  12    -0.698480747252E+02   -0.14626E-01   -0.87732E-02  4101   0.622E-01    0.367E-01
RMM:  13    -0.698452939108E+02    0.27808E-02   -0.19575E-02  3881   0.331E-01    0.179E-01
RMM:  14    -0.698466636698E+02   -0.13698E-02   -0.65562E-03  3933   0.196E-01    0.155E-01
RMM:  15    -0.698455759415E+02    0.10877E-02   -0.24367E-03  4278   0.109E-01    0.551E-02
RMM:  16    -0.698456015760E+02   -0.25634E-04   -0.61459E-04  4210   0.539E-02    0.273E-02
RMM:  17    -0.698456173519E+02   -0.15776E-04   -0.15419E-04  3944   0.305E-02    0.109E-02
RMM:  18    -0.698456222465E+02   -0.48946E-05   -0.67613E-05  4121   0.188E-02    0.580E-03
RMM:  19    -0.698456226632E+02   -0.41664E-06   -0.17121E-05  3799   0.972E-03    0.255E-03
RMM:  20    -0.698456229855E+02   -0.32227E-06   -0.44856E-06  2595   0.490E-03
   2 F= -.69845623E+02 E0= -.69835247E+02  d E =-.105188E+01
 trial-energy change:   -1.051875  1 .order  -73.570167 -183.315480   36.175147
 step:   0.8352(harm=  0.8352)  dis= 0.78223  next Energy=  -145.345001 (dE=-0.766E+02)
 bond charge predicted
       N       E                     dE             d eps       ncg     rms          rms(c)
RMM:   1    -0.757167806524E+02   -0.58712E+01   -0.63889E+01  3672   0.241E+01    0.500E+00
RMM:   2    -0.762173123003E+02   -0.50053E+00   -0.61721E+00  3773   0.832E+00    0.354E+00
RMM:   3    -0.774565620974E+02   -0.12392E+01   -0.26526E+00  3897   0.408E+00    0.453E+00
RMM:   4    -0.762412649077E+02    0.12153E+01   -0.12125E+00  3819   0.230E+00    0.303E+00
RMM:   5    -0.753607178144E+02    0.88055E+00   -0.51216E-01  3785   0.151E+00    0.198E+00
RMM:   6    -0.751693327897E+02    0.19139E+00   -0.13582E-01  3691   0.953E-01    0.126E+00
RMM:   7    -0.751437816321E+02    0.25551E-01   -0.25561E-01  3969   0.989E-01    0.614E-01
RMM:   8    -0.751274062441E+02    0.16375E-01   -0.38693E-02  3781   0.526E-01    0.350E-01
RMM:   9    -0.751213429025E+02    0.60633E-02   -0.11191E-02  3875   0.279E-01    0.190E-01
RMM:  10    -0.751211250009E+02    0.21790E-03   -0.51944E-03  3981   0.167E-01    0.109E-01
RMM:  11    -0.751211816833E+02   -0.56682E-04   -0.11308E-03  4116   0.910E-02    0.570E-02
RMM:  12    -0.751210692374E+02    0.11245E-03   -0.24804E-04  3956   0.461E-02    0.300E-02
RMM:  13    -0.751210319701E+02    0.37267E-04   -0.14663E-04  3947   0.266E-02    0.880E-03
RMM:  14    -0.751210325684E+02   -0.59822E-06   -0.44078E-05  4367   0.156E-02    0.567E-03
RMM:  15    -0.751210323242E+02    0.24413E-06   -0.56735E-06  2858   0.679E-03
   3 F= -.75121032E+02 E0= -.75111345E+02  d E =-.632728E+01
 curvature:  -0.42 expect dE=-0.154E+02 dE for cont linesearch -0.189E+01
 ZBRENT: interpolating
 opt :   0.7218  next Energy=   -76.754302 (dE=-0.796E+01)
 bond charge predicted
       N       E                     dE             d eps       ncg     rms          rms(c)
RMM:   1    -0.782500610849E+02   -0.31290E+01   -0.29923E+01  3672   0.167E+01    0.334E+00
RMM:   2    -0.784470476794E+02   -0.19699E+00   -0.26875E+00  3771   0.569E+00    0.237E+00
RMM:   3    -0.792984007255E+02   -0.85135E+00   -0.11438E+00  3913   0.275E+00    0.323E+00
RMM:   4    -0.784986863225E+02    0.79971E+00   -0.54815E-01  3820   0.155E+00    0.190E+00
RMM:   5    -0.781325403953E+02    0.36615E+00   -0.20169E-01  3749   0.101E+00    0.132E+00
RMM:   6    -0.780589173335E+02    0.73623E-01   -0.70091E-02  3796   0.629E-01    0.835E-01
RMM:   7    -0.780470739512E+02    0.11843E-01   -0.76037E-02  3904   0.579E-01    0.380E-01
RMM:   8    -0.780402697725E+02    0.68042E-02   -0.13170E-02  3779   0.328E-01    0.180E-01
RMM:   9    -0.780390170416E+02    0.12527E-02   -0.31699E-03  3860   0.163E-01    0.118E-01
RMM:  10    -0.780390619240E+02   -0.44882E-04   -0.18656E-03  3866   0.106E-01    0.623E-02
RMM:  11    -0.780390723428E+02   -0.10419E-04   -0.35919E-04  3954   0.581E-02    0.356E-02
RMM:  12    -0.780389693885E+02    0.10295E-03   -0.16139E-04  3805   0.337E-02    0.131E-02
RMM:  13    -0.780389742633E+02   -0.48749E-05   -0.53780E-05  4447   0.181E-02    0.726E-03
RMM:  14    -0.780389732864E+02    0.97689E-06   -0.76078E-06  3215   0.707E-03
   4 F= -.78038973E+02 E0= -.78029238E+02  d E =-.924523E+01
 curvature:  -0.36 expect dE=-0.943E+01 dE for cont linesearch -0.110E+01
 ZBRENT: bisectioning
 opt :   0.3609  next Energy=   -83.589773 (dE=-0.148E+02)
 bond charge predicted
       N       E                     dE             d eps       ncg     rms          rms(c)
RMM:   1    -0.869787425878E+02   -0.89398E+01   -0.30648E+02  3680   0.522E+01    0.985E+00
RMM:   2    -0.866604212358E+02    0.31832E+00   -0.31849E+01  3856   0.172E+01    0.580E+00
RMM:   3    -0.934986074842E+02   -0.68382E+01   -0.12314E+01  3985   0.823E+00    0.771E+00
RMM:   4    -0.860306813225E+02    0.74679E+01   -0.45096E+00  3848   0.440E+00    0.406E+00
RMM:   5    -0.854884074834E+02    0.54227E+00   -0.20905E+00  3833   0.284E+00    0.296E+00
RMM:   6    -0.848366860791E+02    0.65172E+00   -0.64275E-01  3754   0.180E+00    0.166E+00
RMM:   7    -0.847793664965E+02    0.57320E-01   -0.32590E-01  3813   0.128E+00    0.123E+00
RMM:   8    -0.847578404855E+02    0.21526E-01   -0.63612E-02  3800   0.676E-01    0.869E-01
RMM:   9    -0.847319711214E+02    0.25869E-01   -0.25857E-02  3905   0.393E-01    0.406E-01
RMM:  10    -0.847265456171E+02    0.54255E-02   -0.67079E-03  3802   0.237E-01    0.172E-01
RMM:  11    -0.847266215058E+02   -0.75889E-04   -0.30447E-03  3802   0.147E-01    0.129E-01
RMM:  12    -0.847261229573E+02    0.49855E-03   -0.10115E-03  3930   0.886E-02    0.434E-02
RMM:  13    -0.847260805350E+02    0.42422E-04   -0.26109E-04  3962   0.466E-02    0.285E-02
RMM:  14    -0.847260667648E+02    0.13770E-04   -0.10728E-04  3808   0.284E-02    0.111E-02
RMM:  15    -0.847260635767E+02    0.31881E-05   -0.27964E-05  3977   0.155E-02    0.609E-03
RMM:  16    -0.847260634746E+02    0.10212E-06   -0.66658E-06  3193   0.744E-03
   5 F= -.84726063E+02 E0= -.84716110E+02  d E =-.159323E+02
 curvature:  -1.82 expect dE=-0.314E+02 dE for cont linesearch -0.231E+01
 ZBRENT: bisectioning
 opt :   0.1804  next Energy=   -87.097802 (dE=-0.183E+02)
 bond charge predicted
       N       E                     dE             d eps       ncg     rms          rms(c)
RMM:   1    -0.859089824345E+02   -0.11829E+01   -0.89326E+01  3672   0.283E+01    0.478E+00
RMM:   2    -0.860108197180E+02   -0.10184E+00   -0.79918E+00  3770   0.924E+00    0.296E+00
RMM:   3    -0.860841608926E+02   -0.73341E-01   -0.15038E+00  3783   0.408E+00    0.221E+00
RMM:   4    -0.863276417211E+02   -0.24348E+00   -0.56794E-01  3877   0.190E+00    0.250E+00
RMM:   5    -0.857510813844E+02    0.57656E+00   -0.17596E-01  3701   0.118E+00    0.956E-01
RMM:   6    -0.857501061928E+02    0.97519E-03   -0.11182E-01  3803   0.757E-01    0.524E-01
RMM:   7    -0.857410885830E+02    0.90176E-02   -0.24357E-02  3726   0.389E-01    0.343E-01
RMM:   8    -0.857363378403E+02    0.47507E-02   -0.67978E-03  3764   0.226E-01    0.139E-01
RMM:   9    -0.857363106317E+02    0.27209E-04   -0.19639E-03  3912   0.123E-01    0.605E-02
RMM:  10    -0.857362981244E+02    0.12507E-04   -0.48791E-04  3812   0.631E-02    0.449E-02
RMM:  11    -0.857362583140E+02    0.39810E-04   -0.12611E-04  4015   0.330E-02    0.264E-02
RMM:  12    -0.857362398695E+02    0.18444E-04   -0.26690E-05  3789   0.164E-02    0.851E-03
RMM:  13    -0.857362379336E+02    0.19360E-05   -0.16120E-05  3657   0.106E-02    0.289E-03
RMM:  14    -0.857362378443E+02    0.89235E-07   -0.27892E-06  2460   0.537E-03
   6 F= -.85736238E+02 E0= -.85727766E+02  d E =-.169425E+02
 curvature:  -1.87 expect dE=-0.285E+02 dE for cont linesearch -0.962E+00
 ZBRENT: interpolating
 opt :   0.2507  next Energy=   -86.077067 (dE=-0.173E+02)
 bond charge predicted
       N       E                     dE             d eps       ncg     rms          rms(c)
RMM:   1    -0.858506342877E+02   -0.11440E+00   -0.13033E+01  3672   0.108E+01    0.170E+00
RMM:   2    -0.858926568262E+02   -0.42023E-01   -0.11301E+00  3754   0.370E+00    0.118E+00
RMM:   3    -0.858997261568E+02   -0.70693E-02   -0.27733E-01  3857   0.162E+00    0.107E+00
RMM:   4    -0.859388309979E+02   -0.39105E-01   -0.70758E-02  3796   0.770E-01    0.120E+00
RMM:   5    -0.858686183878E+02    0.70213E-01   -0.38628E-02  3797   0.475E-01    0.677E-01
RMM:   6    -0.858532798194E+02    0.15339E-01   -0.19725E-02  3698   0.389E-01    0.216E-01
RMM:   7    -0.858511185375E+02    0.21613E-02   -0.57339E-03  3783   0.215E-01    0.120E-01
RMM:   8    -0.858506415862E+02    0.47695E-03   -0.96595E-04  3733   0.102E-01    0.764E-02
RMM:   9    -0.858507103256E+02   -0.68739E-04   -0.93792E-04  3732   0.803E-02    0.426E-02
RMM:  10    -0.858506096869E+02    0.10064E-03   -0.30239E-04  3678   0.506E-02    0.204E-02
RMM:  11    -0.858506182705E+02   -0.85836E-05   -0.78476E-05  3978   0.231E-02    0.167E-02
RMM:  12    -0.858506158298E+02    0.24407E-05   -0.28088E-05  3684   0.144E-02    0.607E-03
RMM:  13    -0.858506147729E+02    0.10570E-05   -0.64293E-06  3042   0.767E-03    0.179E-03
RMM:  14    -0.858506149006E+02   -0.12777E-06   -0.15962E-06  2321   0.363E-03
   7 F= -.85850615E+02 E0= -.85847071E+02  d E =-.170569E+02
 curvature:  -0.66 expect dE=-0.104E+02 dE for cont linesearch -0.556E-01
 ZBRENT: interpolating
 opt :   0.2305  next Energy=   -85.890236 (dE=-0.171E+02)
 bond charge predicted
       N       E                     dE             d eps       ncg     rms          rms(c)
RMM:   1    -0.859090980599E+02   -0.58483E-01   -0.10996E+00  3672   0.317E+00    0.512E-01
RMM:   2    -0.859115432090E+02   -0.24451E-02   -0.90721E-02  3750   0.105E+00    0.326E-01
RMM:   3    -0.859167703266E+02   -0.52271E-02   -0.25029E-02  3848   0.468E-01    0.375E-01
RMM:   4    -0.859151855444E+02    0.15848E-02   -0.65178E-03  3816   0.222E-01    0.339E-01
RMM:   5    -0.859086318843E+02    0.65537E-02   -0.32743E-03  3752   0.142E-01    0.167E-01
RMM:   6    -0.859080808316E+02    0.55105E-03   -0.13438E-03  3743   0.104E-01    0.489E-02
RMM:   7    -0.859080267094E+02    0.54122E-04   -0.32609E-04  3775   0.550E-02    0.245E-02
RMM:   8    -0.859080261858E+02    0.52358E-06   -0.68966E-05  3738   0.264E-02    0.125E-02
RMM:   9    -0.859080266814E+02   -0.49558E-06   -0.19065E-05  3948   0.131E-02    0.555E-03
RMM:  10    -0.859080258879E+02    0.79349E-06   -0.55685E-06  3050   0.736E-03
   8 F= -.85908026E+02 E0= -.85903614E+02  d E =-.171143E+02
 curvature:  -0.47 expect dE=-0.725E+01 dE for cont linesearch -0.688E-03
 trial: gam= 0.08657 g(F)=  0.116E+02 g(S)=  0.373E+01 ort =-0.517E+00 (trialstep = 0.846E+00)
 search vector abs. value=  0.166E+02
 bond charge predicted
       N       E                     dE             d eps       ncg     rms          rms(c)
RMM:   1    -0.897325997252E+02   -0.38246E+01   -0.13383E+02  3678   0.336E+01    0.597E+00
RMM:   2    -0.900914330382E+02   -0.35883E+00   -0.13381E+01  3723   0.123E+01    0.494E+00
RMM:   3    -0.910488388168E+02   -0.95741E+00   -0.38887E+00  3928   0.550E+00    0.579E+00
RMM:   4    -0.900710637879E+02    0.97778E+00   -0.12127E+00  3847   0.279E+00    0.464E+00
RMM:   5    -0.894199599469E+02    0.65110E+00   -0.58290E-01  3852   0.172E+00    0.342E+00
RMM:   6    -0.892142597039E+02    0.20570E+00   -0.48946E-01  3786   0.175E+00    0.108E+00
RMM:   7    -0.890749962882E+02    0.13926E+00   -0.17215E-01  3705   0.111E+00    0.566E-01
RMM:   8    -0.890717520894E+02    0.32442E-02   -0.34862E-02  3945   0.493E-01    0.461E-01
RMM:   9    -0.890726867207E+02   -0.93463E-03   -0.75795E-03  3876   0.258E-01    0.315E-01
RMM:  10    -0.890799551923E+02   -0.72685E-02   -0.14455E-02  3819   0.258E-01    0.375E-01
RMM:  11    -0.890720713753E+02    0.78838E-02   -0.32780E-03  3673   0.155E-01    0.118E-01
RMM:  12    -0.890716137983E+02    0.45758E-03   -0.81708E-04  3807   0.764E-02    0.447E-02
RMM:  13    -0.890715820442E+02    0.31754E-04   -0.33865E-04  3918   0.444E-02    0.234E-02
RMM:  14    -0.890715832329E+02   -0.11887E-05   -0.51285E-05  3945   0.224E-02    0.125E-02
RMM:  15    -0.890715845772E+02   -0.13442E-05   -0.25405E-05  3871   0.128E-02    0.702E-03
RMM:  16    -0.890715861538E+02   -0.15766E-05   -0.58777E-06  2932   0.701E-03    0.570E-03
RMM:  17    -0.890715843794E+02    0.17744E-05   -0.13385E-06  2269   0.358E-03    0.215E-03
RMM:  18    -0.890715843604E+02    0.18988E-07   -0.50102E-07  2215   0.220E-03
   9 F= -.89071584E+02 E0= -.89061458E+02  d E =-.316356E+01
 trial-energy change:   -3.163558  1 .order   -5.081074  -12.952062    2.789915
 step:   0.5571(harm=  0.6961)  dis= 0.15775  next Energy=   -89.624547 (dE=-0.372E+01)
 bond charge predicted
       N       E                     dE             d eps       ncg     rms          rms(c)
RMM:   1    -0.896430049182E+02   -0.57142E+00   -0.18075E+01  3672   0.128E+01    0.219E+00
RMM:   2    -0.896478015501E+02   -0.47966E-02   -0.15018E+00  3722   0.416E+00    0.152E+00
RMM:   3    -0.898841175369E+02   -0.23632E+00   -0.53819E-01  3903   0.195E+00    0.188E+00
RMM:   4    -0.897638226181E+02    0.12029E+00   -0.16695E-01  3774   0.995E-01    0.145E+00
RMM:   5    -0.895872855660E+02    0.17654E+00   -0.10506E-01  3814   0.677E-01    0.835E-01
RMM:   6    -0.895637537873E+02    0.23532E-01   -0.41216E-02  3701   0.525E-01    0.526E-01
RMM:   7    -0.895534532814E+02    0.10301E-01   -0.11557E-02  3738   0.289E-01    0.266E-01
RMM:   8    -0.895507224054E+02    0.27309E-02   -0.28039E-03  3919   0.142E-01    0.115E-01
RMM:   9    -0.895507150992E+02    0.73062E-05   -0.79304E-04  3756   0.858E-02    0.502E-02
RMM:  10    -0.895507810370E+02   -0.65938E-04   -0.38546E-04  3839   0.523E-02    0.538E-02
RMM:  11    -0.895506543382E+02    0.12670E-03   -0.85182E-05  3834   0.288E-02    0.207E-02
RMM:  12    -0.895506546527E+02   -0.31452E-06   -0.62474E-05  3774   0.197E-02    0.880E-03
RMM:  13    -0.895506528419E+02    0.18108E-05   -0.10123E-05  3495   0.105E-02    0.673E-03
RMM:  14    -0.895506526611E+02    0.18070E-06   -0.34967E-06  2599   0.532E-03
  10 F= -.89550653E+02 E0= -.89542426E+02  d E =-.364263E+01
 curvature:  -0.05 expect dE=-0.614E-01 dE for cont linesearch -0.195E-06
 trial: gam= 0.03607 g(F)=  0.591E+00 g(S)=  0.570E+00 ort =-0.783E-02 (trialstep = 0.788E+00)
 search vector abs. value=  0.118E+01
 bond charge predicted
       N       E                     dE             d eps       ncg     rms          rms(c)
RMM:   1    -0.902716654257E+02   -0.72101E+00   -0.12236E+01  3672   0.102E+01    0.163E+00
RMM:   2    -0.902819797349E+02   -0.10314E-01   -0.97934E-01  3723   0.337E+00    0.103E+00
RMM:   3    -0.904783030868E+02   -0.19632E+00   -0.33761E-01  3949   0.155E+00    0.162E+00
RMM:   4    -0.903504446133E+02    0.12786E+00   -0.98082E-02  3799   0.773E-01    0.112E+00
RMM:   5    -0.902606371519E+02    0.89807E-01   -0.79540E-02  3843   0.522E-01    0.673E-01
RMM:   6    -0.902430620718E+02    0.17575E-01   -0.24494E-02  3704   0.399E-01    0.373E-01
RMM:   7    -0.902422520042E+02    0.81007E-03   -0.73512E-03  3754   0.237E-01    0.321E-01
RMM:   8    -0.902389497558E+02    0.33022E-02   -0.25829E-03  3900   0.123E-01    0.116E-01
RMM:   9    -0.902386381823E+02    0.31157E-03   -0.50180E-04  3774   0.724E-02    0.317E-02
RMM:  10    -0.902386412195E+02   -0.30372E-05   -0.15705E-04  3983   0.388E-02    0.195E-02
RMM:  11    -0.902386401866E+02    0.10329E-05   -0.35468E-05  4202   0.185E-02    0.942E-03
RMM:  12    -0.902386396439E+02    0.54272E-06   -0.77427E-06  3404   0.900E-03
  11 F= -.90238640E+02 E0= -.90229270E+02  d E =-.687987E+00
 trial-energy change:   -0.687987  1 .order   -0.683299   -0.915187   -0.451410
 step:   1.4772(harm=  1.5556)  dis= 0.10756  next Energy=   -90.439034 (dE=-0.888E+00)
 bond charge predicted
       N       E                     dE             d eps       ncg     rms          rms(c)
