Si and Ge interface calculation         
           1
     3.920200    0.000000    0.000000
     1.960100    3.394993    0.000000
     0.000000    0.000000   27.767856
   Si   Ge
    10    10
Direct configuration=     1
   0.99892834  0.16375806  0.99982568
   0.33226167  0.49709139  0.02805087
   0.33226167  0.49709139  0.11272643
   0.66559500  0.83042473  0.14095162
   0.66559500  0.83042473  0.22562719
   0.99892834  0.16375806  0.25385238
   0.99892834  0.16375806  0.33852795
   0.33226167  0.49709139  0.36675314
   0.33226167  0.49709139  0.45142870
   0.66559500  0.83042473  0.47965389
   0.17110435  0.16609268  0.48974291
   0.50443769  0.49942602  0.51915325
   0.50443769  0.49942602  0.60738425
   0.83777102  0.83275935  0.63679459
   0.83777102  0.83275935  0.72502559
   0.17110435  0.16609268  0.75443593
   0.17110435  0.16609268  0.84266693
   0.50443769  0.49942602  0.87207727
   0.50443769  0.49942602  0.96030827
   0.83777102  0.83275935  0.98971861
Si and Ge interface calculation         
           1
     4.839651    0.006071   -0.002142
     2.425083    4.217925   -0.064947
    -0.015174   -0.522442   31.591791
   Si   Ge
    10    10
Direct configuration=     2
   0.16549824  0.30844755  0.01204002
   0.37277479  0.44415518  0.04676594
   0.33110563  0.49763018  0.11348756
   0.66586922  0.82990321  0.14051361
   0.66541573  0.83027275  0.22600690
   0.99879299  0.16374852  0.25349926
   0.99860524  0.16416973  0.33895284
   0.33179664  0.49638869  0.36604656
   0.32146032  0.55118015  0.43241297
   0.96565365  0.69479348  0.46746502
   0.86246331  0.29652722  0.49892871
   0.52496602  0.44980863  0.54035567
   0.50440998  0.50047216  0.60756338
   0.83801967  0.83216518  0.63723713
   0.83775566  0.83332851  0.72470543
   0.17149784  0.16575296  0.75484633
   0.17023581  0.16692598  0.84221227
   0.50503747  0.49838410  0.87192392
   0.47792746  0.54844641  0.93922014
   0.65770791  0.69267352  0.98052178
Si and Ge interface calculation         
           1
     4.688112    0.005071   -0.001789
     2.348448    4.082294   -0.054243
    -0.012673   -0.436336   30.961553
   Si   Ge
    10    10
Direct configuration=     3
   0.14331129  0.28906094  0.01022923
   0.36753611  0.45085099  0.04406820
   0.33126644  0.49754480  0.11337714
   0.66582898  0.82998033  0.14057722
   0.66544296  0.83028606  0.22595192
   0.99880806  0.16375610  0.25355043
   0.99865193  0.16410741  0.33889116
   0.33185291  0.49649453  0.36614914
   0.32272669  0.54434248  0.43515370
   0.92549776  0.71306691  0.46926560
   0.90374149  0.27899564  0.49756477
   0.52241765  0.45601557  0.53729677
   0.50441494  0.50033012  0.60753714
   0.83799039  0.83223612  0.63717316
   0.83775483  0.83325873  0.72475167
   0.17144887  0.16579075  0.75478695
   0.17034774  0.16682341  0.84227793
   0.50495630  0.49852522  0.87194642
   0.48127613  0.54231549  0.94226269
   0.68172211  0.71139248  0.98189418
Si and Ge interface calculation         
           1
     4.583839    0.004382   -0.001546
     2.295714    3.988967   -0.046877
    -0.010952   -0.377087   30.527886
   Si   Ge
    10    10
Direct configuration=     4
   0.12754506  0.27529868  0.00896189
   0.36379720  0.45564573  0.04217286
   0.33137999  0.49748556  0.11329963
   0.66580078  0.83003432  0.14062187
   0.66546196  0.83029624  0.22591332
   0.99881907  0.16376082  0.25358636
   0.99868472  0.16406392  0.33884787
   0.33189350  0.49656845  0.36622114
   0.32364447  0.53944578  0.43707928
   0.89698377  0.72602915  0.47052640
   0.93305517  0.26655529  0.49661037
   0.52058746  0.46046783  0.53514796
   0.50441833  0.50022948  0.60751874
   0.83796918  0.83228739  0.63712824
   0.83775454  0.83320852  0.72478414
   0.17141371  0.16581837  0.75474526
   0.17042767  0.16674965  0.84232405
   0.50489876  0.49862525  0.87196219
   0.48367464  0.53791760  0.94440001
   0.69878359  0.72468606  0.98285387
Si and Ge interface calculation         
           1
     4.252019    0.002191   -0.000773
     2.127907    3.691980   -0.023439
    -0.005476   -0.188543   29.147871
   Si   Ge
    10    10
Direct configuration=     5
   0.07621921  0.23052780  0.00488105
   0.35158759  0.47134001  0.03605292
   0.33174797  0.49729602  0.11304951
   0.66570987  0.83020823  0.14076591
   0.66552300  0.83033108  0.22578874
   0.99885566  0.16377468  0.25370229
   0.99879058  0.16392415  0.33870819
   0.33202700  0.49680610  0.36645345
   0.32667384  0.52341681  0.44329694
   0.80420657  0.76817423  0.47458754
   0.02844079  0.22609697  0.49353774
   0.51458451  0.47505860  0.52821014
   0.50442904  0.49990254  0.60745944
   0.83789921  0.83245625  0.63698323
   0.83775428  0.83304362  0.72488899
   0.17129842  0.16591012  0.75461067
   0.17068878  0.16650749  0.84247294
   0.50471177  0.49895028  0.87201302
   0.49152682  0.52350466  0.95130068
   0.75431866  0.76794446  0.98594207
Si and Ge interface calculation         
           1
     4.086110    0.001096   -0.000387
     2.044004    3.543486   -0.011719
    -0.002738   -0.094272   28.457864
   Si   Ge
    10    10
Direct configuration=     6
   0.04853074  0.20642777  0.00276128
   0.34493121  0.47996368  0.03284254
   0.33194345  0.49719982  0.11291859
   0.66566248  0.83029864  0.14084127
   0.66555444  0.83035295  0.22572348
   0.99887671  0.16377935  0.25376300
   0.99884606  0.16385208  0.33863509
   0.33210154  0.49692887  0.36657501
   0.32838440  0.51460747  0.44655872
   0.75424124  0.79081693  0.47669971
   0.07982253  0.20434211  0.49194256
   0.51126376  0.48310774  0.52457180
   0.50443425  0.49972737  0.60742851
   0.83785976  0.83255099  0.63690723
   0.83775542  0.83295198  0.72494395
   0.17123469  0.16596293  0.75454016
   0.17083130  0.16637312  0.84255099
   0.50461146  0.49912458  0.87203951
   0.49584360  0.51555299  0.95491947
   0.78426452  0.79125275  0.98754255
Si and Ge interface calculation         
           1
     4.150670    0.001522   -0.000537
     2.076653    3.601270   -0.016280
    -0.003804   -0.130956   28.726367
   Si   Ge
    10    10
Direct configuration=     7
   0.05974729  0.21618054  0.00360230
   0.34764304  0.47643568  0.03412337
   0.33186492  0.49723748  0.11297076
   0.66568132  0.83026275  0.14081125
   0.66554203  0.83034342  0.22574949
   0.99886790  0.16377806  0.25373881
   0.99882394  0.16388055  0.33866421
   0.33207079  0.49688031  0.36652658
   0.32767473  0.51821184  0.44525735
   0.77446451  0.78166389  0.47586110
   0.05902346  0.21314025  0.49257526
   0.51262703  0.47980796  0.52602313
   0.50443226  0.49979808  0.60744081
   0.83787611  0.83251182  0.63693753
   0.83775468  0.83298969  0.72492203
   0.17126084  0.16594081  0.75456827
   0.17077320  0.16642837  0.84251986
   0.50465198  0.49905419  0.87202898
   0.49407716  0.51881293  0.95347595
   0.77213638  0.78181547  0.98690839
Si and Ge interface calculation         
           1
     4.132093    0.001399   -0.000494
     2.067258    3.584643   -0.014967
    -0.003497   -0.120400   28.649106
   Si   Ge
    10    10
Direct configuration=     8
   0.05657045  0.21341718  0.00336212
   0.34687669  0.47743103  0.03375840
   0.33188724  0.49722666  0.11295589
   0.66567595  0.83027299  0.14081981
   0.66554558  0.83034604  0.22574208
   0.99887036  0.16377850  0.25374570
   0.99883024  0.16387241  0.33865591
   0.33207944  0.49689420  0.36654039
   0.32787386  0.51719499  0.44562817
   0.76873476  0.78425845  0.47610052
   0.06491606  0.21064674  0.49239455
   0.51224294  0.48073817  0.52560955
   0.50443283  0.49977803  0.60743730
   0.83787152  0.83252282  0.63692890
   0.83775486  0.83297908  0.72492828
   0.17125347  0.16594700  0.75456026
   0.17078962  0.16641281  0.84252874
   0.50464049  0.49907415  0.87203199
   0.49457548  0.51789397  0.95388731
   0.77557173  0.78448889  0.98708959
Si and Ge interface calculation         
           1
     4.413015    0.002687    0.002244
     2.208837    3.796301   -0.019839
     0.015417   -0.170724   30.268599
   Si   Ge
    10    10
Direct configuration=     9
   0.08470848  0.15523423  0.00605833
   0.37030210  0.47971988  0.03747379
   0.33050306  0.49830822  0.11524974
   0.66568392  0.83002412  0.14067724
   0.66565830  0.83054606  0.22598762
   0.99906575  0.16365738  0.25347271
   0.99869179  0.16407586  0.33878491
   0.33151738  0.49602181  0.36420368
   0.35188372  0.51548175  0.44196568
   0.74179386  0.84003639  0.47333958
   0.10382025  0.14703107  0.49301977
   0.47592825  0.49051081  0.53056072
   0.50599051  0.49994999  0.60989399
   0.83832983  0.83263255  0.63703214
   0.83788212  0.83252983  0.72507539
   0.17094728  0.16632937  0.75439229
   0.17065418  0.16588201  0.84239278
   0.50499107  0.49891899  0.86967216
   0.46657713  0.50696188  0.94885005
   0.75206459  0.85132190  0.98660289
Si and Ge interface calculation         
           1
     4.317050    0.002247    0.001309
     2.160473    3.723998   -0.018175
     0.008956   -0.153533   29.715372
   Si   Ge
    10    10
Direct configuration=    10
   0.07563253  0.17399471  0.00518987
   0.36282344  0.47897019  0.03627308
   0.33095489  0.49795070  0.11450798
   0.66568055  0.83010493  0.14072335
   0.66562332  0.83048064  0.22590823
   0.99900218  0.16369748  0.25356099
   0.99873679  0.16400974  0.33874318
   0.33168833  0.49631182  0.36495923
   0.34418834  0.51605040  0.44315065
   0.75048319  0.82205204  0.47422911
   0.09128559  0.16755272  0.49282147
   0.48757577  0.48733646  0.52895838
   0.50550044  0.49988557  0.60909971
   0.83818370  0.83259682  0.63699876
   0.83784125  0.83267421  0.72502784
   0.17104523  0.16620662  0.75444657
   0.17069631  0.16605372  0.84243676
   0.50487101  0.49897783  0.87043518
   0.47550207  0.51050399  0.95047839
   0.75967862  0.82976352  0.98675671
Si and Ge interface calculation         
           1
     4.260944    0.002476    0.000568
     2.132633    3.641210   -0.003580
     0.003648   -0.030305   29.786284
   Si   Ge
    10    10
Direct configuration=    11
   0.07638218  0.16601117  0.00579683
   0.36714175  0.48381335  0.03662823
   0.33055870  0.49764396  0.11594915
   0.66519959  0.83031593  0.14119709
   0.66549678  0.83039314  0.22585706
   0.99881620  0.16386991  0.25363687
   0.99836419  0.16393957  0.33828314
   0.33122787  0.49654644  0.36351454
   0.35332029  0.51148354  0.44282391
   0.74368251  0.83017952  0.47358775
   0.09759861  0.15966453  0.49279397
   0.47832614  0.49126310  0.52894648
   0.50678248  0.49989626  0.61103116
   0.83816938  0.83274833  0.63726631
   0.83799813  0.83284085  0.72540676
   0.17145108  0.16608642  0.75413924
   0.17120985  0.16595938  0.84218122
   0.50620724  0.49893887  0.86832130
   0.47025997  0.50645768  0.95058795
   0.75880063  0.83712215  0.98675649
Si and Ge interface calculation         
           1
     4.211907    0.002675   -0.000079
     2.108301    3.568855    0.009176
    -0.000991    0.077395   29.848261
   Si   Ge
    10    10
Direct configuration=    12
   0.07708948  0.15885697  0.00632947
   0.37095089  0.48813169  0.03693591
   0.33023210  0.49732714  0.11720583
   0.66478032  0.83049054  0.14161004
   0.66538428  0.83031645  0.22581248
   0.99865199  0.16402180  0.25370295
   0.99802722  0.16389050  0.33788205
   0.33079615  0.49679896  0.36225480
   0.36142105  0.50741049  0.44254116
   0.73761568  0.83746378  0.47302495
   0.10322195  0.15261399  0.49277349
   0.47011847  0.49477390  0.52893424
   0.50794845  0.49984855  0.61271523
   0.83816032  0.83287585  0.63749952
   0.83814237  0.83297858  0.72573707
   0.17180609  0.16598805  0.75387133
   0.17166094  0.16588259  0.84195846
   0.50735705  0.49896655  0.86647824
   0.46563680  0.50283793  0.95068508
   0.75799198  0.84369981  0.98675315
Si and Ge interface calculation         
           1
     4.198323    0.005441   -0.000059
     2.103867    3.535120    0.024406
    -0.000875    0.203971   29.849823
   Si   Ge
    10    10
Direct configuration=    13
   0.08189654  0.15540575  0.00806638
   0.37448475  0.49644299  0.03878908
   0.32975936  0.49838337  0.11856897
   0.66465540  0.82938469  0.14297052
   0.66471626  0.83132151  0.22578057
   0.99859478  0.16354790  0.25377257
   0.99694193  0.16514708  0.33658655
   0.33123609  0.49601625  0.36090475
   0.37359045  0.49906378  0.44073340
   0.73909575  0.84108650  0.47130110
   0.09707932  0.15374562  0.49327647
   0.46277741  0.49731822  0.53058089
   0.50753902  0.50180591  0.61424731
   0.84044687  0.83058374  0.63901501
   0.83756971  0.83461455  0.72556731
   0.17265013  0.16430516  0.75400224
   0.17134983  0.16826885  0.84041985
   0.50894541  0.49668151  0.86498213
   0.46046955  0.49968199  0.94890251
   0.75319500  0.84236874  0.98623782
Si and Ge interface calculation         
           1
     4.157574    0.013736    0.000001
     2.090564    3.433914    0.070097
    -0.000525    0.583701   29.854508
   Si   Ge
    10    10
Direct configuration=    14
   0.09650226  0.14475486  0.01328235
   0.38513113  0.52140814  0.04433555
   0.32839747  0.50143702  0.12265665
   0.66436486  0.82588943  0.14705356
   0.66269194  0.83437057  0.22568330
   0.99843157  0.16210525  0.25398217
   0.99359045  0.16909475  0.33269820
   0.33249690  0.49378972  0.35685592
   0.41022769  0.47394939  0.43532324
   0.74341870  0.85224057  0.46612407
   0.07859889  0.15713346  0.49478362
   0.44073425  0.50486462  0.53551678
   0.50636670  0.50757049  0.61884039
   0.84743869  0.82347324  0.64356492
   0.83581800  0.83958909  0.72505548
   0.17521738  0.15919206  0.75439756
   0.17030358  0.17566232  0.83580042
   0.51367298  0.48991781  0.86049746
   0.44485108  0.49032731  0.94355985
   0.73873907  0.83840399  0.98469394
Si and Ge interface calculation         
           1
     4.153270    0.012579   -0.000702
     2.087449    3.428576    0.064270
    -0.005559    0.530518   30.083877
   Si   Ge
    10    10
Direct configuration=    15
   0.09642893  0.14681672  0.01475677
   0.38891211  0.52195350  0.04568570
   0.32786666  0.50239568  0.12351539
   0.66446312  0.82487433  0.14774314
   0.66222742  0.83532718  0.22599652
   0.99873329  0.16140460  0.25369895
   0.99284735  0.17024901  0.33202188
   0.33287050  0.49292581  0.35602820
   0.41461674  0.47355931  0.43395563
   0.74577230  0.84997025  0.46467339
   0.07535451  0.15908673  0.49556936
   0.43719678  0.50490951  0.53672932
   0.50604089  0.50881271  0.61955613
   0.84895338  0.82208197  0.64444342
   0.83535542  0.84093701  0.72517035
   0.17596983  0.15761076  0.75425187
   0.17034722  0.17706502  0.83490703
   0.51435847  0.48869167  0.85979979
   0.44113051  0.49005882  0.94233272
   0.73754816  0.83644351  0.98386987
Si and Ge interface calculation         
           1
     4.140360    0.009105   -0.002810
     2.078106    3.412563    0.046790
    -0.020661    0.370970   30.771985
   Si   Ge
    10    10
Direct configuration=    16
   0.09617679  0.15308565  0.01914732
   0.40023569  0.52366355  0.04970568
   0.32625423  0.50531861  0.12607237
   0.66474331  0.82185909  0.14979547
   0.66082582  0.83821666  0.22692951
   0.99964539  0.15928552  0.25285541
   0.99063068  0.17368242  0.33000907
   0.33401020  0.49028896  0.35356359
   0.42782492  0.47232306  0.42988431
   0.75287072  0.84307844  0.46035355
   0.06559583  0.16499167  0.49790944
   0.42654892  0.50510169  0.54033885
   0.50504707  0.51258063  0.62168760
   0.85348250  0.81794736  0.64705804
   0.83396391  0.84499225  0.72551305
   0.17823238  0.15285306  0.75381728
   0.17049749  0.18123477  0.83224820
   0.51643187  0.48497330  0.85772216
   0.42998561  0.48918688  0.93867915
   0.73399025  0.83051054  0.98141540
Si and Ge interface calculation         
           1
     4.114539    0.002159   -0.007028
     2.059420    3.380535    0.011829
    -0.050866    0.051874   32.148200
   Si   Ge
    10    10
Direct configuration=    17
   0.09548435  0.16611354  0.02773839
   0.42277154  0.52751819  0.05756868
   0.32291224  0.51144017  0.13107465
   0.66521860  0.81600338  0.15380467
   0.65797539  0.84411146  0.22875666
   0.00151037  0.15494648  0.25120393
   0.98627056  0.18037832  0.32607732
   0.33640034  0.48475037  0.34874217
   0.45448299  0.46946459  0.42192476
   0.76728861  0.82881972  0.45190097
   0.04592751  0.17706717  0.50248989
   0.40504457  0.50582199  0.54739473
   0.50296343  0.52035932  0.62585897
   0.86245420  0.80990646  0.65216592
   0.83115857  0.85317126  0.72618743
   0.18278836  0.14325533  0.75296257
   0.17091092  0.18935130  0.82705455
   0.52067802  0.47730164  0.85365624
   0.40779243  0.48705268  0.93153348
   0.72696058  0.81834074  0.97660947
Si and Ge interface calculation         
           1
     4.019102   -0.000449   -0.005043
     2.009521    3.340308    0.003488
    -0.033429   -0.039434   32.576400
   Si   Ge
    10    10
Direct configuration=    18
   0.09282633  0.18141969  0.03059732
   0.43091376  0.51927304  0.05989744
   0.32565432  0.50730870  0.13233028
   0.66325754  0.82186796  0.15528665
   0.65979425  0.84060336  0.22900935
   0.00056131  0.15886820  0.25099890
   0.98893800  0.17493917  0.32459498
   0.33625646  0.48899024  0.34748509
   0.45468124  0.47712523  0.41965132
   0.78079860  0.81354386  0.44905500
   0.03584306  0.18404963  0.50426623
   0.39993555  0.50541423  0.54945905
   0.50661629  0.51409076  0.62641996
   0.85951958  0.81628013  0.65311708
   0.83223929  0.84778036  0.72704384
   0.18079716  0.14873929  0.75208553
   0.17393380  0.18195408  0.82606444
   0.51831588  0.48406043  0.85303717
   0.40183543  0.48772757  0.92956113
   0.72427573  0.81113818  0.97474466
Si and Ge interface calculation         
           1
     3.988060   -0.001298   -0.004397
     1.993291    3.327224    0.000775
    -0.027758   -0.069133   32.715673
   Si   Ge
    10    10
Direct configuration=    19
   0.09195668  0.18648262  0.03151629
   0.43359307  0.51658163  0.06064408
   0.32655106  0.50596053  0.13273292
   0.66260831  0.82381101  0.15576286
   0.66039088  0.83945129  0.22909013
   0.00025478  0.16015706  0.25093343
   0.98982324  0.17313634  0.32411869
   0.33622477  0.49037474  0.34708195
   0.45477650  0.47962684  0.41892224
   0.78528030  0.80849378  0.44813999
   0.03249056  0.18636118  0.50483717
   0.39822206  0.50529695  0.55012171
   0.50781580  0.51203323  0.62659944
   0.85855047  0.81838581  0.65342296
   0.83258277  0.84601368  0.72731825
   0.18015095  0.15053618  0.75180452
   0.17493039  0.17951116  0.82574597
   0.51754733  0.48627915  0.85283907
   0.39986563  0.48793077  0.92892822
   0.72337804  0.80875014  0.97414556
Si and Ge interface calculation         
           1
     3.986393   -0.002389   -0.004280
     1.991565    3.338036    0.013568
    -0.026871    0.055944   32.579145
   Si   Ge
    10    10
Direct configuration=    20
   0.09512725  0.19096876  0.03187088
   0.42870824  0.51438373  0.06030135
   0.32950682  0.50252295  0.13247904
   0.66227951  0.82826244  0.15606438
   0.66242352  0.83634739  0.22858620
   0.99948327  0.16304017  0.25137843
   0.99341985  0.16867838  0.32383012
   0.33600431  0.49391577  0.34730844
   0.44810315  0.48147233  0.41933430
   0.79339872  0.80456565  0.44777996
   0.02799662  0.18945399  0.50526585
   0.39948860  0.50494108  0.54972212
   0.51038617  0.50591941  0.62586449
   0.85422906  0.82482405  0.65320312
   0.83581608  0.83861860  0.72700423
   0.17641685  0.15783225  0.75213382
   0.17624187  0.17337808  0.82598102
   0.51503543  0.49181451  0.85348351
   0.40068074  0.48913930  0.92939198
   0.72224752  0.80509524  0.97372221
