 264 264   0   0
  0.2774202E+02  0.1958175E-08  0.1958175E-08  0.1910025E-08  0.5000000E-15
  1.000000000000000E-004
  CAR 
 Si and Ge interface calculation         
      6.64263020     -9.26236265  301      4.04159320      1.00000000
     -9.262  0.0000E+00  0.0000E+00  0.0000E+00  0.0000E+00
     -9.209  0.0000E+00  0.0000E+00  0.0000E+00  0.0000E+00
     -9.156  0.0000E+00  0.0000E+00  0.0000E+00  0.0000E+00
     -9.103  0.0000E+00  0.0000E+00  0.0000E+00  0.0000E+00
     -9.050  0.0000E+00  0.0000E+00  0.0000E+00  0.0000E+00
     -8.997  0.0000E+00  0.0000E+00  0.0000E+00  0.0000E+00
     -8.944  0.0000E+00  0.0000E+00  0.0000E+00  0.0000E+00
     -8.891  0.0000E+00  0.0000E+00  0.0000E+00  0.0000E+00
     -8.838  0.0000E+00  0.0000E+00  0.0000E+00  0.0000E+00
     -8.785  0.0000E+00  0.0000E+00  0.0000E+00  0.0000E+00
     -8.732  0.0000E+00  0.0000E+00  0.0000E+00  0.0000E+00
     -8.679  0.0000E+00  0.0000E+00  0.0000E+00  0.0000E+00
     -8.626  0.0000E+00  0.0000E+00  0.0000E+00  0.0000E+00
     -8.573  0.8588E-05  0.3320E-05  0.4553E-06  0.1760E-06
     -8.520  0.1819E+02  0.1781E+02  0.9641E+00  0.9444E+00
     -8.467  0.1954E+02  0.1991E+02  0.2000E+01  0.2000E+01
     -8.414  0.8089E+00  0.5203E+00  0.2043E+01  0.2028E+01
     -8.361  0.1805E+02  0.1834E+02  0.3000E+01  0.3000E+01
     -8.308  0.1130E+02  0.9844E+01  0.3599E+01  0.3522E+01
     -8.255  0.7563E+01  0.9020E+01  0.4000E+01  0.4000E+01
     -8.202  0.4921E+01  0.4127E+01  0.4261E+01  0.4219E+01
     -8.149  0.2103E+02  0.2123E+02  0.5376E+01  0.5344E+01
     -8.096  0.3029E+02  0.2963E+02  0.6982E+01  0.6915E+01
     -8.043  0.1467E+02  0.1530E+02  0.7759E+01  0.7726E+01
     -7.990  0.4639E+01  0.5220E+01  0.8005E+01  0.8003E+01
     -7.937  0.1713E+02  0.1583E+02  0.8914E+01  0.8842E+01
     -7.884  0.1234E+02  0.1331E+02  0.9568E+01  0.9548E+01
     -7.831  0.2533E+02  0.2515E+02  0.1091E+02  0.1088E+02
     -7.778  0.1391E+02  0.1383E+02  0.1165E+02  0.1161E+02
     -7.725  0.1032E+02  0.1029E+02  0.1220E+02  0.1216E+02
     -7.672  0.1708E+02  0.1725E+02  0.1310E+02  0.1307E+02
     -7.619  0.1647E+02  0.1664E+02  0.1397E+02  0.1396E+02
     -7.566  0.2672E+02  0.2585E+02  0.1539E+02  0.1533E+02
     -7.513  0.1969E+02  0.2039E+02  0.1643E+02  0.1641E+02
     -7.460  0.3302E+01  0.3286E+01  0.1661E+02  0.1658E+02
     -7.407  0.1657E+02  0.1692E+02  0.1749E+02  0.1748E+02
     -7.354  0.1014E+02  0.1010E+02  0.1803E+02  0.1801E+02
     -7.301  0.2782E+02  0.2801E+02  0.1950E+02  0.1950E+02
     -7.248  0.2117E+02  0.2045E+02  0.2062E+02  0.2058E+02
     -7.195  0.3543E+02  0.3609E+02  0.2250E+02  0.2250E+02
     -7.142  0.3756E+02  0.3627E+02  0.2449E+02  0.2442E+02
     -7.089  0.2825E+02  0.2946E+02  0.2599E+02  0.2598E+02
     -7.036  0.1832E+02  0.1795E+02  0.2696E+02  0.2693E+02
     -6.983  0.2764E+02  0.2716E+02  0.2843E+02  0.2837E+02
     -6.930  0.4545E+02  0.4368E+02  0.3084E+02  0.3069E+02
     -6.877  0.4448E+02  0.4576E+02  0.3319E+02  0.3312E+02
     -6.824  0.4997E+02  0.4890E+02  0.3584E+02  0.3571E+02
     -6.771  0.4884E+02  0.4917E+02  0.3843E+02  0.3831E+02
     -6.718  0.3936E+02  0.3908E+02  0.4052E+02  0.4039E+02
     -6.665  0.4381E+02  0.4453E+02  0.4284E+02  0.4275E+02
     -6.612  0.3042E+02  0.3163E+02  0.4445E+02  0.4442E+02
     -6.559  0.4083E+02  0.4007E+02  0.4662E+02  0.4655E+02
     -6.505  0.2934E+02  0.2939E+02  0.4818E+02  0.4811E+02
     -6.452  0.3996E+02  0.3856E+02  0.5029E+02  0.5015E+02
     -6.399  0.3655E+02  0.3727E+02  0.5223E+02  0.5213E+02
     -6.346  0.6047E+02  0.6126E+02  0.5544E+02  0.5537E+02
     -6.293  0.3796E+02  0.3680E+02  0.5745E+02  0.5733E+02
     -6.240  0.6246E+02  0.6294E+02  0.6076E+02  0.6066E+02
     -6.187  0.5741E+02  0.5650E+02  0.6381E+02  0.6366E+02
     -6.134  0.6337E+02  0.6321E+02  0.6717E+02  0.6701E+02
     -6.081  0.6915E+02  0.6847E+02  0.7083E+02  0.7064E+02
     -6.028  0.6118E+02  0.6083E+02  0.7407E+02  0.7386E+02
     -5.975  0.8294E+02  0.8499E+02  0.7847E+02  0.7837E+02
     -5.922  0.6594E+02  0.6524E+02  0.8197E+02  0.8183E+02
     -5.869  0.6327E+02  0.6252E+02  0.8532E+02  0.8514E+02
     -5.816  0.6127E+02  0.6193E+02  0.8857E+02  0.8843E+02
     -5.763  0.8790E+02  0.8753E+02  0.9323E+02  0.9307E+02
     -5.710  0.8296E+02  0.8339E+02  0.9763E+02  0.9749E+02
     -5.657  0.9362E+02  0.9134E+02  0.1026E+03  0.1023E+03
     -5.604  0.8548E+02  0.8586E+02  0.1071E+03  0.1069E+03
     -5.551  0.7627E+02  0.7961E+02  0.1112E+03  0.1111E+03
     -5.498  0.5353E+02  0.5196E+02  0.1140E+03  0.1139E+03
     -5.445  0.7805E+02  0.7630E+02  0.1181E+03  0.1179E+03
     -5.392  0.6401E+02  0.6510E+02  0.1215E+03  0.1214E+03
     -5.339  0.8130E+02  0.8235E+02  0.1258E+03  0.1257E+03
     -5.286  0.8150E+02  0.7968E+02  0.1302E+03  0.1299E+03
     -5.233  0.5825E+02  0.5901E+02  0.1333E+03  0.1331E+03
     -5.180  0.7222E+02  0.7011E+02  0.1371E+03  0.1368E+03
     -5.127  0.7971E+02  0.7971E+02  0.1413E+03  0.1410E+03
     -5.074  0.7896E+02  0.8123E+02  0.1455E+03  0.1453E+03
     -5.021  0.7104E+02  0.6966E+02  0.1493E+03  0.1490E+03
     -4.968  0.8733E+02  0.8876E+02  0.1539E+03  0.1537E+03
     -4.915  0.6213E+02  0.6391E+02  0.1572E+03  0.1571E+03
     -4.862  0.6477E+02  0.6315E+02  0.1606E+03  0.1605E+03
     -4.809  0.1056E+03  0.1053E+03  0.1662E+03  0.1660E+03
     -4.756  0.1118E+03  0.1099E+03  0.1721E+03  0.1719E+03
     -4.703  0.1115E+03  0.1124E+03  0.1781E+03  0.1778E+03
     -4.650  0.9170E+02  0.9207E+02  0.1829E+03  0.1827E+03
     -4.597  0.1039E+03  0.1028E+03  0.1884E+03  0.1882E+03
     -4.544  0.1037E+03  0.1016E+03  0.1939E+03  0.1935E+03
     -4.491  0.9124E+02  0.9254E+02  0.1988E+03  0.1984E+03
     -4.438  0.1079E+03  0.1045E+03  0.2045E+03  0.2040E+03
     -4.385  0.9811E+02  0.1012E+03  0.2097E+03  0.2094E+03
     -4.332  0.8181E+02  0.7990E+02  0.2140E+03  0.2136E+03
     -4.279  0.7938E+02  0.8163E+02  0.2182E+03  0.2179E+03
     -4.226  0.4614E+02  0.4703E+02  0.2207E+03  0.2204E+03
     -4.173  0.1140E+03  0.1124E+03  0.2267E+03  0.2264E+03
     -4.120  0.7379E+02  0.7636E+02  0.2306E+03  0.2304E+03
     -4.067  0.6695E+02  0.6821E+02  0.2342E+03  0.2340E+03
     -4.014  0.6775E+02  0.6730E+02  0.2378E+03  0.2376E+03
     -3.961  0.5292E+02  0.5326E+02  0.2406E+03  0.2404E+03
     -3.908  0.3835E+02  0.3906E+02  0.2426E+03  0.2425E+03
     -3.855  0.5666E+02  0.5449E+02  0.2456E+03  0.2454E+03
     -3.802  0.5882E+02  0.5959E+02  0.2487E+03  0.2485E+03
     -3.749  0.5346E+02  0.5183E+02  0.2516E+03  0.2513E+03
     -3.696  0.6138E+02  0.6432E+02  0.2548E+03  0.2547E+03
     -3.643  0.7462E+02  0.7084E+02  0.2588E+03  0.2585E+03
     -3.590  0.7646E+02  0.7618E+02  0.2628E+03  0.2625E+03
     -3.537  0.6680E+02  0.6973E+02  0.2664E+03  0.2662E+03
     -3.484  0.7459E+02  0.7445E+02  0.2703E+03  0.2701E+03
     -3.431  0.6542E+02  0.6469E+02  0.2738E+03  0.2736E+03
     -3.378  0.7279E+02  0.6987E+02  0.2777E+03  0.2773E+03
     -3.324  0.8952E+02  0.9382E+02  0.2824E+03  0.2822E+03
     -3.271  0.8017E+02  0.7782E+02  0.2867E+03  0.2864E+03
     -3.218  0.7785E+02  0.7937E+02  0.2908E+03  0.2906E+03
     -3.165  0.6813E+02  0.6374E+02  0.2944E+03  0.2940E+03
     -3.112  0.6936E+02  0.7382E+02  0.2981E+03  0.2979E+03
     -3.059  0.8495E+02  0.8288E+02  0.3026E+03  0.3023E+03
     -3.006  0.6793E+02  0.6969E+02  0.3062E+03  0.3060E+03
     -2.953  0.7372E+02  0.7042E+02  0.3101E+03  0.3097E+03
     -2.900  0.1009E+03  0.1016E+03  0.3154E+03  0.3151E+03
     -2.847  0.9287E+02  0.9306E+02  0.3204E+03  0.3200E+03
     -2.794  0.1061E+03  0.1072E+03  0.3260E+03  0.3257E+03
     -2.741  0.9577E+02  0.9590E+02  0.3311E+03  0.3308E+03
     -2.688  0.1104E+03  0.1101E+03  0.3369E+03  0.3366E+03
     -2.635  0.8910E+02  0.8981E+02  0.3416E+03  0.3414E+03
     -2.582  0.1059E+03  0.1028E+03  0.3473E+03  0.3468E+03
     -2.529  0.1334E+03  0.1341E+03  0.3543E+03  0.3539E+03
     -2.476  0.9235E+02  0.9359E+02  0.3592E+03  0.3589E+03
     -2.423  0.9826E+02  0.9795E+02  0.3644E+03  0.3641E+03
     -2.370  0.9722E+02  0.1002E+03  0.3696E+03  0.3694E+03
     -2.317  0.1021E+03  0.9835E+02  0.3750E+03  0.3746E+03
     -2.264  0.9933E+02  0.1020E+03  0.3803E+03  0.3800E+03
     -2.211  0.7408E+02  0.7494E+02  0.3842E+03  0.3840E+03
     -2.158  0.1859E+02  0.2084E+02  0.3852E+03  0.3851E+03
     -2.105  0.5239E+02  0.5003E+02  0.3880E+03  0.3878E+03
     -2.052  0.8883E+02  0.8865E+02  0.3927E+03  0.3925E+03
     -1.999  0.7770E+02  0.7762E+02  0.3968E+03  0.3966E+03
     -1.946  0.1058E+03  0.1051E+03  0.4024E+03  0.4021E+03
     -1.893  0.8406E+02  0.8360E+02  0.4069E+03  0.4066E+03
     -1.840  0.7774E+02  0.7931E+02  0.4110E+03  0.4108E+03
     -1.787  0.8578E+02  0.8318E+02  0.4155E+03  0.4152E+03
     -1.734  0.9817E+02  0.9560E+02  0.4207E+03  0.4203E+03
     -1.681  0.9296E+02  0.9512E+02  0.4257E+03  0.4253E+03
     -1.628  0.7720E+02  0.8160E+02  0.4298E+03  0.4296E+03
     -1.575  0.1116E+03  0.1099E+03  0.4357E+03  0.4355E+03
     -1.522  0.4971E+02  0.4893E+02  0.4383E+03  0.4381E+03
     -1.469  0.5404E+02  0.5577E+02  0.4412E+03  0.4410E+03
     -1.416  0.5768E+02  0.5328E+02  0.4442E+03  0.4438E+03
     -1.363  0.6006E+02  0.6093E+02  0.4474E+03  0.4471E+03
     -1.310  0.6006E+02  0.6485E+02  0.4506E+03  0.4505E+03
     -1.257  0.3867E+02  0.3724E+02  0.4526E+03  0.4525E+03
     -1.204  0.7113E+02  0.7018E+02  0.4564E+03  0.4562E+03
     -1.151  0.5660E+02  0.5643E+02  0.4594E+03  0.4592E+03
     -1.098  0.5204E+02  0.5155E+02  0.4622E+03  0.4619E+03
     -1.045  0.5210E+02  0.5367E+02  0.4649E+03  0.4648E+03
     -0.992  0.4247E+02  0.4341E+02  0.4672E+03  0.4671E+03
     -0.939  0.2937E+02  0.2910E+02  0.4687E+03  0.4686E+03
     -0.886  0.7481E+02  0.7402E+02  0.4727E+03  0.4725E+03
     -0.833  0.6997E+02  0.6948E+02  0.4764E+03  0.4762E+03
     -0.780  0.4969E+02  0.5168E+02  0.4791E+03  0.4790E+03
     -0.727  0.5569E+02  0.5244E+02  0.4820E+03  0.4817E+03
     -0.674  0.6929E+02  0.7120E+02  0.4857E+03  0.4855E+03
     -0.621  0.4369E+02  0.4659E+02  0.4880E+03  0.4880E+03
     -0.568  0.2684E+02  0.2564E+02  0.4894E+03  0.4893E+03
     -0.515  0.1878E+02  0.1912E+02  0.4904E+03  0.4904E+03
     -0.462  0.3458E+02  0.3457E+02  0.4923E+03  0.4922E+03
     -0.409  0.2572E+02  0.2601E+02  0.4936E+03  0.4936E+03
     -0.356  0.6025E+02  0.5759E+02  0.4968E+03  0.4966E+03
     -0.303  0.7004E+02  0.7066E+02  0.5005E+03  0.5004E+03
     -0.250  0.8243E+02  0.8262E+02  0.5049E+03  0.5047E+03
     -0.197  0.9330E+02  0.9226E+02  0.5098E+03  0.5096E+03
     -0.144  0.1038E+03  0.1037E+03  0.5153E+03  0.5151E+03
     -0.090  0.1303E+03  0.1295E+03  0.5223E+03  0.5220E+03
     -0.037  0.1096E+03  0.1108E+03  0.5281E+03  0.5279E+03
      0.016  0.1119E+03  0.1093E+03  0.5340E+03  0.5337E+03
      0.069  0.1220E+03  0.1240E+03  0.5405E+03  0.5402E+03
      0.122  0.1165E+03  0.1176E+03  0.5466E+03  0.5465E+03
      0.175  0.8027E+02  0.7972E+02  0.5509E+03  0.5507E+03
      0.228  0.8835E+02  0.8878E+02  0.5556E+03  0.5554E+03
      0.281  0.6848E+02  0.6816E+02  0.5592E+03  0.5590E+03
      0.334  0.1041E+03  0.1035E+03  0.5647E+03  0.5645E+03
      0.387  0.9082E+02  0.8876E+02  0.5695E+03  0.5692E+03
      0.440  0.1070E+03  0.1099E+03  0.5752E+03  0.5750E+03
      0.493  0.8199E+02  0.8083E+02  0.5796E+03  0.5793E+03
      0.546  0.1158E+03  0.1133E+03  0.5857E+03  0.5853E+03
      0.599  0.1177E+03  0.1192E+03  0.5919E+03  0.5917E+03
      0.652  0.1108E+03  0.1105E+03  0.5978E+03  0.5975E+03
      0.705  0.1530E+03  0.1525E+03  0.6059E+03  0.6056E+03
      0.758  0.1512E+03  0.1497E+03  0.6139E+03  0.6135E+03
      0.811  0.1163E+03  0.1192E+03  0.6201E+03  0.6198E+03
      0.864  0.9104E+02  0.9070E+02  0.6249E+03  0.6247E+03
      0.917  0.1239E+03  0.1237E+03  0.6315E+03  0.6312E+03
      0.970  0.1122E+03  0.1094E+03  0.6375E+03  0.6370E+03
      1.023  0.1142E+03  0.1148E+03  0.6435E+03  0.6431E+03
      1.076  0.1565E+03  0.1544E+03  0.6518E+03  0.6513E+03
      1.129  0.1626E+03  0.1632E+03  0.6604E+03  0.6599E+03
      1.182  0.1776E+03  0.1775E+03  0.6698E+03  0.6694E+03
      1.235  0.1891E+03  0.1902E+03  0.6799E+03  0.6794E+03
      1.288  0.1571E+03  0.1544E+03  0.6882E+03  0.6876E+03
      1.341  0.2078E+03  0.2090E+03  0.6992E+03  0.6987E+03
      1.394  0.1503E+03  0.1504E+03  0.7072E+03  0.7067E+03
      1.447  0.1415E+03  0.1439E+03  0.7147E+03  0.7143E+03
      1.500  0.1936E+03  0.1886E+03  0.7249E+03  0.7243E+03
      1.553  0.1824E+03  0.1841E+03  0.7346E+03  0.7341E+03
      1.606  0.1902E+03  0.1886E+03  0.7447E+03  0.7441E+03
      1.659  0.1865E+03  0.1867E+03  0.7546E+03  0.7540E+03
      1.712  0.1884E+03  0.1893E+03  0.7646E+03  0.7640E+03
      1.765  0.1950E+03  0.1973E+03  0.7749E+03  0.7745E+03
      1.818  0.1666E+03  0.1637E+03  0.7837E+03  0.7831E+03
      1.871  0.1451E+03  0.1483E+03  0.7914E+03  0.7910E+03
      1.924  0.1929E+03  0.1910E+03  0.8017E+03  0.8011E+03
      1.977  0.2071E+03  0.2103E+03  0.8126E+03  0.8123E+03
      2.030  0.1608E+03  0.1568E+03  0.8212E+03  0.8206E+03
      2.083  0.1878E+03  0.1902E+03  0.8311E+03  0.8307E+03
      2.136  0.1940E+03  0.1901E+03  0.8414E+03  0.8407E+03
      2.189  0.1585E+03  0.1646E+03  0.8498E+03  0.8495E+03
      2.242  0.1623E+03  0.1560E+03  0.8584E+03  0.8577E+03
      2.295  0.1697E+03  0.1760E+03  0.8674E+03  0.8671E+03
      2.348  0.1659E+03  0.1599E+03  0.8762E+03  0.8756E+03
      2.401  0.1721E+03  0.1733E+03  0.8853E+03  0.8847E+03
      2.454  0.1484E+03  0.1516E+03  0.8932E+03  0.8928E+03
      2.507  0.1374E+03  0.1358E+03  0.9005E+03  0.9000E+03
      2.560  0.1195E+03  0.1242E+03  0.9068E+03  0.9066E+03
      2.613  0.1404E+03  0.1357E+03  0.9143E+03  0.9138E+03
      2.666  0.1455E+03  0.1473E+03  0.9220E+03  0.9216E+03
      2.719  0.1444E+03  0.1368E+03  0.9296E+03  0.9288E+03
      2.772  0.1687E+03  0.1686E+03  0.9386E+03  0.9378E+03
      2.825  0.1156E+03  0.1191E+03  0.9447E+03  0.9441E+03
      2.878  0.1452E+03  0.1444E+03  0.9524E+03  0.9517E+03
      2.931  0.1164E+03  0.1209E+03  0.9586E+03  0.9581E+03
      2.984  0.1053E+03  0.1026E+03  0.9642E+03  0.9636E+03
      3.037  0.1347E+03  0.1344E+03  0.9713E+03  0.9707E+03
      3.091  0.1291E+03  0.1283E+03  0.9781E+03  0.9775E+03
      3.144  0.1013E+03  0.1013E+03  0.9835E+03  0.9829E+03
      3.197  0.1219E+03  0.1213E+03  0.9900E+03  0.9893E+03
      3.250  0.1135E+03  0.1171E+03  0.9960E+03  0.9955E+03
      3.303  0.1109E+03  0.1062E+03  0.1002E+04  0.1001E+04
      3.356  0.9256E+02  0.9474E+02  0.1007E+04  0.1006E+04
      3.409  0.7432E+02  0.7932E+02  0.1011E+04  0.1010E+04
      3.462  0.8909E+02  0.8348E+02  0.1015E+04  0.1015E+04
      3.515  0.9162E+02  0.9735E+02  0.1020E+04  0.1020E+04
      3.568  0.8780E+02  0.8298E+02  0.1025E+04  0.1024E+04
      3.621  0.1075E+03  0.1076E+03  0.1031E+04  0.1030E+04
      3.674  0.6200E+02  0.6568E+02  0.1034E+04  0.1034E+04
      3.727  0.6077E+02  0.6101E+02  0.1037E+04  0.1037E+04
      3.780  0.4308E+02  0.4425E+02  0.1039E+04  0.1039E+04
      3.833  0.5437E+02  0.5501E+02  0.1042E+04  0.1042E+04
      3.886  0.3153E+02  0.3357E+02  0.1044E+04  0.1044E+04
      3.939  0.6103E+02  0.4855E+02  0.1047E+04  0.1046E+04
      3.992  0.7008E+02  0.7352E+02  0.1051E+04  0.1050E+04
      4.045  0.1126E+03  0.9647E+02  0.1057E+04  0.1055E+04
      4.098  0.1179E+03  0.1312E+03  0.1063E+04  0.1062E+04
      4.151  0.8076E+02  0.7766E+02  0.1067E+04  0.1066E+04
      4.204  0.9418E+02  0.9588E+02  0.1072E+04  0.1072E+04
      4.257  0.1007E+03  0.9787E+02  0.1078E+04  0.1077E+04
      4.310  0.9349E+02  0.9498E+02  0.1083E+04  0.1082E+04
      4.363  0.1252E+03  0.1231E+03  0.1089E+04  0.1088E+04
      4.416  0.1170E+03  0.1231E+03  0.1096E+04  0.1095E+04
      4.469  0.1165E+03  0.1116E+03  0.1102E+04  0.1101E+04
      4.522  0.1100E+03  0.1147E+03  0.1108E+04  0.1107E+04
      4.575  0.8662E+02  0.8849E+02  0.1112E+04  0.1112E+04
      4.628  0.1084E+03  0.1024E+03  0.1118E+04  0.1117E+04
      4.681  0.1208E+03  0.1254E+03  0.1124E+04  0.1124E+04
      4.734  0.1170E+03  0.1183E+03  0.1131E+04  0.1130E+04
      4.787  0.1148E+03  0.1132E+03  0.1137E+04  0.1136E+04
      4.840  0.1270E+03  0.1275E+03  0.1143E+04  0.1143E+04
      4.893  0.1271E+03  0.1263E+03  0.1150E+04  0.1149E+04
      4.946  0.1038E+03  0.1071E+03  0.1156E+04  0.1155E+04
      4.999  0.1149E+03  0.1119E+03  0.1162E+04  0.1161E+04
      5.052  0.1355E+03  0.1360E+03  0.1169E+04  0.1168E+04
      5.105  0.1159E+03  0.1196E+03  0.1175E+04  0.1175E+04
      5.158  0.9937E+02  0.9713E+02  0.1180E+04  0.1180E+04
      5.211  0.1087E+03  0.1112E+03  0.1186E+04  0.1186E+04
      5.264  0.8652E+02  0.8552E+02  0.1191E+04  0.1190E+04
      5.317  0.1135E+03  0.1145E+03  0.1197E+04  0.1196E+04
      5.370  0.1185E+03  0.1151E+03  0.1203E+04  0.1202E+04
      5.423  0.1413E+03  0.1441E+03  0.1210E+04  0.1210E+04
      5.476  0.1371E+03  0.1339E+03  0.1218E+04  0.1217E+04
      5.529  0.1502E+03  0.1534E+03  0.1226E+04  0.1225E+04
      5.582  0.1436E+03  0.1451E+03  0.1233E+04  0.1233E+04
      5.635  0.1603E+03  0.1590E+03  0.1242E+04  0.1241E+04
      5.688  0.9319E+02  0.9627E+02  0.1247E+04  0.1246E+04
      5.741  0.1251E+03  0.1236E+03  0.1253E+04  0.1253E+04
      5.794  0.1134E+03  0.1108E+03  0.1259E+04  0.1259E+04
      5.847  0.1446E+03  0.1467E+03  0.1267E+04  0.1267E+04
      5.900  0.7990E+02  0.8366E+02  0.1271E+04  0.1271E+04
      5.953  0.1384E+02  0.1886E+02  0.1272E+04  0.1272E+04
      6.006  0.0000E+00  0.0000E+00  0.1272E+04  0.1272E+04
      6.059  0.0000E+00  0.0000E+00  0.1272E+04  0.1272E+04
      6.112  0.0000E+00  0.0000E+00  0.1272E+04  0.1272E+04
      6.165  0.0000E+00  0.0000E+00  0.1272E+04  0.1272E+04
      6.218  0.0000E+00  0.0000E+00  0.1272E+04  0.1272E+04
      6.272  0.0000E+00  0.0000E+00  0.1272E+04  0.1272E+04
      6.325  0.0000E+00  0.0000E+00  0.1272E+04  0.1272E+04
      6.378  0.0000E+00  0.0000E+00  0.1272E+04  0.1272E+04
      6.431  0.0000E+00  0.0000E+00  0.1272E+04  0.1272E+04
      6.484  0.0000E+00  0.0000E+00  0.1272E+04  0.1272E+04
      6.537  0.0000E+00  0.0000E+00  0.1272E+04  0.1272E+04
      6.590  0.0000E+00  0.0000E+00  0.1272E+04  0.1272E+04
      6.643  0.0000E+00  0.0000E+00  0.1272E+04  0.1272E+04
