<?xml version="1.0" encoding="ISO-8859-1"?>
<modeling>
 <generator>
  <i name="program" type="string">vasp </i>
  <i name="version" type="string">6.4.3  </i>
  <i name="subversion" type="string">19Mar24 (build Oct 22 2024 11:23:12) complex                          parallel </i>
  <i name="platform" type="string">LinuxIFC </i>
  <i name="date" type="string">2025 06 09 </i>
  <i name="time" type="string">01:29:23 </i>
 </generator>
 <incar>
  <i type="string" name="SYSTEM">Si and Ge interface calculation</i>
  <i type="int" name="ISTART">     0</i>
  <i type="logical" name="ADDGRID"> T  </i>
  <i type="int" name="ISPIN">     2</i>
  <i name="AMIX">      0.60000000</i>
  <i type="int" name="ICHARG">     2</i>
  <i type="int" name="NELM">   100</i>
  <i name="EDIFF">      0.00000010</i>
  <i name="ENCUT">    700.00000000</i>
  <i name="ENAUG">    900.00000000</i>
  <i type="int" name="NBANDS">   404</i>
  <i name="NUPDOWN">      1.00000000</i>
  <i name="NELECT">    672.00000000</i>
  <i type="string" name="LREAL">AUTO</i>
  <i type="int" name="ISMEAR">     0</i>
  <i name="SIGMA">      0.01000000</i>
  <i type="int" name="LMAXMIX">     6</i>
  <i type="logical" name="LWAVE"> F  </i>
  <i type="logical" name="LVTOT"> F  </i>
  <i type="logical" name="LVHAR"> T  </i>
  <i type="logical" name="LASPH"> T  </i>
  <i type="logical" name="LMIXTAU"> T  </i>
 </incar>
 <primitive_cell>
  <structure name="primitive_cell" >
   <crystal>
    <varray name="basis" >
     <v>      -4.00066948      -6.92936313       0.00000000 </v>
     <v>       8.00133800       0.00000083       0.00000000 </v>
     <v>       0.00000000       0.00000000      20.30401230 </v>
    </varray>
    <i name="volume">   1125.73917505 </i>
    <varray name="rec_basis" >
     <v>       0.00000001      -0.14431342       0.00000000 </v>
     <v>       0.12497910      -0.07215672       0.00000000 </v>
     <v>       0.00000000       0.00000000       0.04925135 </v>
    </varray>
   </crystal>
   <varray name="positions" >
    <v>       0.37823382       0.62176649       0.32176235 </v>
    <v>       0.04490023       0.95510006       0.00000000 </v>
    <v>       0.71156694       0.28843315       0.16088118 </v>
    <v>       0.04490077       0.95509964       0.36198267 </v>
    <v>       0.71156685       0.28843339       0.04022033 </v>
    <v>       0.37823364       0.62176637       0.20110145 </v>
    <v>       0.87823380       0.12176640       0.32176235 </v>
    <v>       0.54490008       0.45510006       0.00000003 </v>
    <v>       0.21156706       0.78843330       0.16088121 </v>
    <v>       0.54490041       0.45509973       0.36198264 </v>
    <v>       0.21156694       0.78843330       0.04022027 </v>
    <v>       0.87823377       0.12176640       0.20110145 </v>
    <v>       0.87823374       0.62176637       0.32176235 </v>
    <v>       0.54490014       0.95510012       0.00000003 </v>
    <v>       0.21156706       0.28843324       0.16088118 </v>
    <v>       0.54490047       0.95509952       0.36198261 </v>
    <v>       0.21156694       0.28843324       0.04022029 </v>
    <v>       0.87823371       0.62176637       0.20110145 </v>
    <v>       0.37823388       0.12176628       0.32176235 </v>
    <v>       0.04490017       0.45510003       0.00000003 </v>
    <v>       0.71156706       0.78843324       0.16088118 </v>
    <v>       0.04490047       0.45509937       0.36198267 </v>
    <v>       0.71156670       0.78843342       0.04022032 </v>
    <v>       0.37823334       0.12176656       0.20110148 </v>
    <v>       0.21978713       0.28930821       0.84244829 </v>
    <v>       0.88645392       0.28930821       0.47340387 </v>
    <v>       0.55312046       0.28930821       0.65792608 </v>
    <v>       0.55312072       0.95597493       0.84244829 </v>
    <v>       0.21978715       0.95597493       0.47340387 </v>
    <v>       0.88645400       0.95597493       0.65792602 </v>
    <v>       0.88645384       0.62264160       0.84244829 </v>
    <v>       0.55312038       0.62264160       0.47340387 </v>
    <v>       0.21978711       0.62264160       0.65792608 </v>
    <v>       0.21978709       0.95597493       0.88857889 </v>
    <v>       0.88645388       0.95597493       0.51953441 </v>
    <v>       0.55312042       0.95597493       0.70405662 </v>
    <v>       0.88645368       0.28930821       0.88857889 </v>
    <v>       0.55312028       0.28930821       0.51953441 </v>
    <v>       0.21978719       0.28930821       0.70405662 </v>
    <v>       0.55312032       0.62264148       0.88857883 </v>
    <v>       0.21978711       0.62264160       0.51953441 </v>
    <v>       0.88645384       0.62264148       0.70405656 </v>
   </varray>
  </structure>
  <varray name="primitive_index" >
   <v type="int" >        1 </v>
   <v type="int" >       11 </v>
   <v type="int" >       12 </v>
   <v type="int" >       13 </v>
   <v type="int" >       14 </v>
   <v type="int" >       24 </v>
   <v type="int" >       31 </v>
   <v type="int" >       26 </v>
   <v type="int" >       36 </v>
   <v type="int" >       46 </v>
   <v type="int" >       38 </v>
   <v type="int" >       42 </v>
   <v type="int" >       55 </v>
   <v type="int" >       53 </v>
   <v type="int" >       60 </v>
   <v type="int" >       67 </v>
   <v type="int" >       62 </v>
   <v type="int" >       66 </v>
   <v type="int" >       73 </v>
   <v type="int" >       80 </v>
   <v type="int" >       84 </v>
   <v type="int" >       88 </v>
   <v type="int" >       86 </v>
   <v type="int" >       93 </v>
   <v type="int" >       97 </v>
   <v type="int" >      152 </v>
   <v type="int" >      153 </v>
   <v type="int" >      157 </v>
   <v type="int" >      101 </v>
   <v type="int" >      159 </v>
   <v type="int" >      133 </v>
   <v type="int" >      134 </v>
   <v type="int" >      120 </v>
   <v type="int" >      106 </v>
   <v type="int" >      164 </v>
   <v type="int" >      165 </v>
   <v type="int" >      160 </v>
   <v type="int" >      161 </v>
   <v type="int" >      111 </v>
   <v type="int" >      145 </v>
   <v type="int" >      125 </v>
   <v type="int" >      147 </v>
  </varray>
 </primitive_cell>
 <kpoints>
  <generation param="Gamma">
   <v type="int" name="divisions">       2        2        2 </v>
   <v name="usershift">      0.00000000       0.00000000       0.00000000 </v>
   <v name="genvec1">      0.50000000       0.00000000       0.00000000 </v>
   <v name="genvec2">      0.00000000       0.50000000       0.00000000 </v>
   <v name="genvec3">      0.00000000       0.00000000       0.50000000 </v>
   <v name="shift">      0.00000000       0.00000000       0.00000000 </v>
  </generation>
  <varray name="kpointlist" >
   <v>       0.00000000       0.00000000       0.00000000 </v>
   <v>       0.50000000      -0.00000000       0.00000000 </v>
   <v>       0.50000000       0.50000000       0.00000000 </v>
   <v>       0.00000000       0.50000000       0.00000000 </v>
   <v>       0.00000000       0.00000000       0.50000000 </v>
   <v>       0.50000000      -0.00000000       0.50000000 </v>
   <v>       0.50000000       0.50000000       0.50000000 </v>
   <v>       0.00000000       0.50000000       0.50000000 </v>
  </varray>
  <varray name="weights" >
   <v>       0.12500000 </v>
   <v>       0.12500000 </v>
   <v>       0.12500000 </v>
   <v>       0.12500000 </v>
   <v>       0.12500000 </v>
   <v>       0.12500000 </v>
   <v>       0.12500000 </v>
   <v>       0.12500000 </v>
  </varray>
 </kpoints>
 <parameters>
  <separator name="general" >
   <i type="string" name="SYSTEM">Si and Ge interface calculation</i>
   <i type="logical" name="LCOMPAT"> F  </i>
  </separator>
  <separator name="electronic" >
   <i type="string" name="PREC">normal</i>
   <i name="ENMAX">    700.00000000</i>
   <i name="ENAUG">    900.00000000</i>
   <i name="EDIFF">      0.00000010</i>
   <i type="int" name="IALGO">    38</i>
   <i type="int" name="IWAVPR">    10</i>
   <i type="int" name="NBANDS">   404</i>
   <i type="int" name="NBANDSLOW">    -1</i>
   <i type="int" name="NBANDSHIGH">    -1</i>
   <i name="NELECT">    672.00000000</i>
   <i type="int" name="TURBO">     0</i>
   <i type="int" name="IRESTART">     0</i>
   <i type="int" name="NREBOOT">     0</i>
   <i type="int" name="NMIN">     0</i>
   <i name="EREF">      0.00000000</i>
   <separator name="electronic smearing" >
    <i type="int" name="ISMEAR">     0</i>
    <i name="SIGMA">      0.01000000</i>
    <i name="KSPACING">      0.50000000</i>
    <i type="logical" name="KGAMMA"> T  </i>
    <i type="logical" name="KBLOWUP"> T  </i>
   </separator>
   <separator name="electronic projectors" >
    <i type="logical" name="LREAL"> T  </i>
    <v name="ROPT">     -0.00050000     -0.00050000</v>
    <i type="int" name="LMAXPAW">  -100</i>
    <i type="int" name="LMAXMIX">     6</i>
    <i type="logical" name="NLSPLINE"> F  </i>
   </separator>
   <separator name="electronic startup" >
    <i type="int" name="ISTART">     0</i>
    <i type="int" name="ICHARG">     2</i>
    <i type="int" name="INIWAV">     1</i>
   </separator>
   <separator name="electronic spin" >
    <i type="int" name="ISPIN">     2</i>
    <i type="logical" name="LNONCOLLINEAR"> F  </i>
    <v name="MAGMOM">      0.00595238      0.00595238      0.00595238      0.00595238      0.00595238      0.00595238      0.00595238      0.00595238      0.00595238      0.00595238      0.00595238      0.00595238      0.00595238      0.00595238      0.00595238      0.00595238      0.00595238      0.00595238      0.00595238      0.00595238
      0.00595238      0.00595238      0.00595238      0.00595238      0.00595238      0.00595238      0.00595238      0.00595238      0.00595238      0.00595238      0.00595238      0.00595238      0.00595238      0.00595238      0.00595238      0.00595238      0.00595238      0.00595238      0.00595238      0.00595238
      0.00595238      0.00595238      0.00595238      0.00595238      0.00595238      0.00595238      0.00595238      0.00595238      0.00595238      0.00595238      0.00595238      0.00595238      0.00595238      0.00595238      0.00595238      0.00595238      0.00595238      0.00595238      0.00595238      0.00595238
      0.00595238      0.00595238      0.00595238      0.00595238      0.00595238      0.00595238      0.00595238      0.00595238      0.00595238      0.00595238      0.00595238      0.00595238      0.00595238      0.00595238      0.00595238      0.00595238      0.00595238      0.00595238      0.00595238      0.00595238
      0.00595238      0.00595238      0.00595238      0.00595238      0.00595238      0.00595238      0.00595238      0.00595238      0.00595238      0.00595238      0.00595238      0.00595238      0.00595238      0.00595238      0.00595238      0.00595238      0.00595238      0.00595238      0.00595238      0.00595238
      0.00595238      0.00595238      0.00595238      0.00595238      0.00595238      0.00595238      0.00595238      0.00595238      0.00595238      0.00595238      0.00595238      0.00595238      0.00595238      0.00595238      0.00595238      0.00595238      0.00595238      0.00595238      0.00595238      0.00595238
      0.00595238      0.00595238      0.00595238      0.00595238      0.00595238      0.00595238      0.00595238      0.00595238      0.00595238      0.00595238      0.00595238      0.00595238      0.00595238      0.00595238      0.00595238      0.00595238      0.00595238      0.00595238      0.00595238      0.00595238
      0.00595238      0.00595238      0.00595238      0.00595238      0.00595238      0.00595238      0.00595238      0.00595238      0.00595238      0.00595238      0.00595238      0.00595238      0.00595238      0.00595238      0.00595238      0.00595238      0.00595238      0.00595238      0.00595238      0.00595238
      0.00595238      0.00595238      0.00595238      0.00595238      0.00595238      0.00595238      0.00595238      0.00595238</v>
    <i name="NUPDOWN">      1.00000000</i>
    <i type="logical" name="LSORBIT"> F  </i>
    <v name="SAXIS">      0.00000000      0.00000000      1.00000000</v>
    <i type="logical" name="LSPIRAL"> F  </i>
    <v name="QSPIRAL">      0.00000000      0.00000000      0.00000000</v>
    <i type="logical" name="LZEROZ"> F  </i>
   </separator>
   <separator name="electronic exchange-correlation" >
    <i type="logical" name="LASPH"> T  </i>
   </separator>
   <separator name="electronic convergence" >
    <i type="int" name="NELM">   100</i>
    <i type="int" name="NELMDL">    -5</i>
    <i type="int" name="NELMIN">     2</i>
    <i name="ENINI">    700.00000000</i>
    <separator name="electronic convergence detail" >
     <i type="logical" name="LDIAG"> T  </i>
     <i type="logical" name="LSUBROT"> F  </i>
     <i name="WEIMIN">      0.00000000</i>
     <i name="EBREAK">      0.00000000</i>
     <i name="DEPER">      0.30000000</i>
     <i type="int" name="NRMM">     4</i>
     <i name="TIME">      0.40000000</i>
    </separator>
   </separator>
   <separator name="electronic mixer" >
    <i name="AMIX">      0.60000000</i>
    <i name="BMIX">      1.00000000</i>
    <i name="AMIN">      0.10000000</i>
    <i name="AMIX_MAG">      2.40000000</i>
    <i name="BMIX_MAG">      1.00000000</i>
    <separator name="electronic mixer details" >
     <i type="int" name="IMIX">     4</i>
     <i type="logical" name="MIXFIRST"> F  </i>
     <i type="int" name="MAXMIX">   -45</i>
     <i name="WC">    100.00000000</i>
     <i type="int" name="INIMIX">     1</i>
     <i type="int" name="MIXPRE">     1</i>
     <i type="int" name="MREMOVE">     5</i>
    </separator>
   </separator>
   <separator name="electronic dipolcorrection" >
    <i type="logical" name="LDIPOL"> F  </i>
    <i type="logical" name="LMONO"> F  </i>
    <i type="int" name="IDIPOL">     0</i>
    <i name="EPSILON">      1.00000000</i>
    <v name="DIPOL">   -100.00000000   -100.00000000   -100.00000000</v>
    <i name="EFIELD">      0.00000000</i>
    <i type="logical" name="LVACPOTAV"> F  </i>
   </separator>
  </separator>
  <separator name="grids" >
   <i type="int" name="NGX">   108</i>
   <i type="int" name="NGY">   108</i>
   <i type="int" name="NGZ">   140</i>
   <i type="int" name="NGXF">   216</i>
   <i type="int" name="NGYF">   216</i>
   <i type="int" name="NGZF">   280</i>
   <i type="logical" name="ADDGRID"> T  </i>
  </separator>
  <separator name="ionic" >
   <i type="int" name="NSW">     0</i>
   <i type="int" name="IBRION">    -1</i>
   <i type="int" name="MDALGO">     0</i>
   <i type="int" name="ISIF">     2</i>
   <i name="PSTRESS">      0.00000000</i>
   <i name="EDIFFG">      0.00000100</i>
   <i type="int" name="NFREE">     0</i>
   <i name="POTIM">      0.50000000</i>
   <i name="SMASS">     -3.00000000</i>
   <i name="SCALEE">      1.00000000</i>
  </separator>
  <separator name="ionic md" >
   <i name="TEBEG">      0.00010000</i>
   <i name="TEEND">      0.00010000</i>
   <i type="int" name="NBLOCK">     1</i>
   <i type="int" name="KBLOCK">     1</i>
   <i type="int" name="NPACO">   256</i>
   <i name="APACO">     10.00000000</i>
  </separator>
  <separator name="symmetry" >
   <i type="int" name="ISYM">     2</i>
   <i name="SYMPREC">      0.00001000</i>
  </separator>
  <separator name="dos" >
   <i type="int" name="LORBIT">     0</i>
   <v name="RWIGS">     -1.00000000     -1.00000000</v>
   <i type="int" name="NEDOS">   301</i>
   <i name="EMIN">     10.00000000</i>
   <i name="EMAX">    -10.00000000</i>
   <i name="EFERMI">      0.00000000</i>
  </separator>
  <separator name="writing" >
   <i type="int" name="NWRITE">     2</i>
   <i type="logical" name="LWAVE"> F  </i>
   <i type="logical" name="LDOWNSAMPLE"> F  </i>
   <i type="logical" name="LCHARG"> T  </i>
   <i type="logical" name="LPARD"> F  </i>
   <i type="logical" name="LVTOT"> F  </i>
   <i type="logical" name="LVHAR"> T  </i>
   <i type="logical" name="LELF"> F  </i>
   <i type="logical" name="LOPTICS"> F  </i>
   <v name="STM">      0.00000000      0.00000000      0.00000000      0.00000000      0.00000000      0.00000000      0.00000000</v>
  </separator>
  <separator name="performance" >
   <i type="int" name="NPAR">     4</i>
   <i type="int" name="NSIM">     4</i>
   <i type="int" name="NBLK">    -1</i>
   <i type="logical" name="LPLANE"> T  </i>
   <i type="logical" name="LSCALAPACK"> T  </i>
   <i type="logical" name="LSCAAWARE"> F  </i>
   <i type="logical" name="LSCALU"> F  </i>
   <i type="logical" name="LASYNC"> F  </i>
   <i type="logical" name="LORBITALREAL"> F  </i>
  </separator>
  <separator name="miscellaneous" >
   <i type="int" name="IDIOT">     3</i>
   <i type="int" name="PHON_NSTRUCT">    -1</i>
   <i type="logical" name="LMUSIC"> F  </i>
   <v name="POMASS">     72.61000000    118.71000000</v>
   <v name="DARWINR">      0.00000000      0.00000000</v>
   <v name="DARWINV">      1.00000000      1.00000000</v>
   <i type="logical" name="LCORR"> T  </i>
  </separator>
  <i type="logical" name="GGA_COMPAT"> T  </i>
  <i type="logical" name="LBERRY"> F  </i>
  <i type="int" name="ICORELEVEL">     0</i>
  <i type="logical" name="LDAU"> F  </i>
  <i type="int" name="I_CONSTRAINED_M">     0</i>
  <separator name="electronic exchange-correlation" >
   <i type="string" name="GGA    ">PE</i>
   <i type="string" name="XC_C">1</i>
   <i type="int" name="VOSKOWN">     0</i>
   <i type="logical" name="LHFCALC"> F  </i>
   <i type="string" name="PRECFOCK"></i>
   <i type="logical" name="LSYMGRAD"> F  </i>
   <i type="logical" name="LHFONE"> F  </i>
   <i type="logical" name="LRHFCALC"> F  </i>
   <i type="logical" name="LTHOMAS"> F  </i>
   <i type="logical" name="LMODELHF"> F  </i>
   <i type="logical" name="LFOCKACE"> F  </i>
   <i name="ENCUT4O">     -1.00000000</i>
   <i type="int" name="EXXOEP">     0</i>
   <i type="int" name="FOURORBIT">     0</i>
   <i name="AEXX">      0.00000000</i>
   <i name="HFALPHA">      0.00000000</i>
   <i name="MCALPHA">      0.00000000</i>
   <i name="ALDAX">      1.00000000</i>
   <i name="AGGAX">      1.00000000</i>
   <i name="AMGGAX">      1.00000000</i>
   <i name="ALDAC">      1.00000000</i>
   <i name="AGGAC">      1.00000000</i>
   <i name="AMGGAC">      1.00000000</i>
   <i type="int" name="NKREDX">     1</i>
   <i type="int" name="NKREDY">     1</i>
   <i type="int" name="NKREDZ">     1</i>
   <i type="logical" name="SHIFTRED"> F  </i>
   <i type="logical" name="ODDONLY"> F  </i>
   <i type="logical" name="EVENONLY"> F  </i>
   <i type="int" name="LMAXFOCK">     0</i>
   <i type="int" name="NMAXFOCKAE">     0</i>
   <i type="logical" name="LFOCKAEDFT"> F  </i>
   <i name="HFSCREEN">      0.00000000</i>
   <i name="HFSCREENC">      0.00000000</i>
   <i type="int" name="NBANDSGWLOW">     0</i>
  </separator>
  <separator name="vdW DFT" >
   <i type="logical" name="LUSE_VDW"> F  </i>
   <i type="int" name="IVDW_NL">    -1</i>
   <i type="logical" name="LSPIN_VDW"> F  </i>
   <i name="ZAB_VDW">     -0.84910000</i>
   <i name="GAMMA_VDW">      1.39626340</i>
   <i name="ALPHA_VDW">      0.00000000</i>
   <i name="PARAM1">      0.12340000</i>
   <i name="PARAM2">      1.00000000</i>
   <i name="BPARAM">      6.30000000</i>
   <i name="CPARAM">      0.00930000</i>
  </separator>
  <separator name="model GW" >
   <i type="int" name="MODEL_GW">     0</i>
   <i name="MODEL_EPS0">     16.08198725</i>
   <i name="MODEL_ALPHA">      1.00000000</i>
  </separator>
  <separator name="linear response parameters" >
   <i type="logical" name="LEPSILON"> F  </i>
   <i type="logical" name="LRPA"> F  </i>
   <i type="logical" name="LNABLA"> F  </i>
   <i type="logical" name="LVEL"> F  </i>
   <i name="CSHIFT">      0.10000000</i>
   <i name="OMEGAMAX">     -1.00000000</i>
   <i name="DEG_THRESHOLD">      0.00200000</i>
   <i name="RTIME">     -0.10000000</i>
   <i name="WPLASMAI">      0.00000000</i>
   <v name="DFIELD">      0.00000000      0.00000000      0.00000000</v>
   <v name="WPLASMA">      0.00000000      0.00000000      0.00000000      0.00000000      0.00000000      0.00000000      0.00000000      0.00000000      0.00000000</v>
  </separator>
  <separator name="orbital magnetization" >
   <i type="logical" name="NUCIND"> F  </i>
   <v name="MAGPOS">      0.00000000      0.00000000      0.00000000</v>
   <i type="logical" name="LNICSALL"> T  </i>
   <i type="logical" name="ORBITALMAG"> F  </i>
   <i type="logical" name="LMAGBLOCH"> F  </i>
   <i type="logical" name="LCHIMAG"> F  </i>
   <i type="logical" name="LGAUGE"> T  </i>
   <i type="int" name="MAGATOM">     0</i>
   <v name="MAGDIPOL">      0.00000000      0.00000000      0.00000000</v>
   <v name="AVECCONST">      0.00000000      0.00000000      0.00000000</v>
  </separator>
  <separator name="response functions" >
   <i type="logical" name="LALL_IN_ONE"> F  </i>
   <i type="int" name="IALL_IN_ONE">    -1</i>
   <i type="int" name="NBANDS_WAVE">    -1</i>
   <i type="logical" name="LFINITE_TEMPERATURE"> F  </i>
   <i type="logical" name="LADDER"> F  </i>
   <i type="logical" name="LRPAFORCE"> F  </i>
   <i type="logical" name="LFXC"> F  </i>
   <i type="logical" name="LHARTREE"> T  </i>
   <i type="int" name="IBSE">     0</i>
   <v type="int" name="KPOINT">    -1     0     0     0</v>
   <i type="logical" name="LTCTC"> F  </i>
   <i type="logical" name="LTCTE"> F  </i>
   <i type="logical" name="LTETE"> F  </i>
   <i type="logical" name="LTRIPLET"> F  </i>
   <i type="logical" name="LFXCEPS"> F  </i>
   <i type="logical" name="LFXHEG"> F  </i>
   <i type="int" name="NATURALO">     2</i>
   <i type="logical" name="LHOLEGF"> F  </i>
   <i type="logical" name="L2ORDER"> F  </i>
   <i type="logical" name="LDMP1"> F  </i>
   <i type="logical" name="LMP2LT"> F  </i>
   <i type="logical" name="LSMP2LT"> F  </i>
   <i type="logical" name="LGWLF"> F  </i>
   <i name="ENCUTGW">     -1.60000002</i>
   <i name="ENCUTGWSOFT">     -1.60000002</i>
   <i name="ENCUTLF">     -1.00000000</i>
   <i type="logical" name="ESF_SPLINES"> F  </i>
   <i name="ESF_CONV">      0.01000000</i>
   <i type="int" name="ESF_NINTER">    15</i>
   <i type="int" name="LMAXMP2">    -1</i>
   <i name="SCISSOR">      0.00000000</i>
   <i type="int" name="NOMEGA">     0</i>
   <i type="int" name="NOMEGAR">     0</i>
   <i type="int" name="NBANDSGW">    -1</i>
   <i type="int" name="NBANDSO">    -1</i>
   <i type="int" name="NBANDSV">    -1</i>
   <i type="int" name="NELMGW">     1</i>
   <i type="int" name="NELMHF">     1</i>
   <i type="int" name="DIM">     3</i>
   <i type="int" name="IESPILON">     4</i>
   <i type="int" name="ANTIRES">     0</i>
   <i name="OMEGAMAX">    -30.00000000</i>
   <i name="OMEGAMIN">    -30.00000000</i>
   <i name="OMEGATL">   -200.00000000</i>
   <i type="int" name="OMEGAGRID">     0</i>
   <i name="CSHIFT">     -0.10000000</i>
   <i type="logical" name="LSELFENERGY"> F  </i>
   <i type="logical" name="LSPECTRAL"> F  </i>
   <i type="logical" name="LSPECTRALGW"> F  </i>
   <i type="logical" name="LSINGLES"> F  </i>
   <i type="logical" name="LFERMIGW"> F  </i>
   <i type="logical" name="ODDONLYGW"> F  </i>
   <i type="logical" name="EVENONLYGW"> F  </i>
   <i type="int" name="NKREDLFX">     1</i>
   <i type="int" name="NKREDLFY">     1</i>
   <i type="int" name="NKREDLFZ">     1</i>
   <i type="int" name="MAXMEM">  2800</i>
   <i type="int" name="TELESCOPE">     0</i>
   <i type="int" name="NTAUPAR">    -1</i>
   <i type="int" name="NOMEGAPAR">    -1</i>
   <i name="DAMP_NEWTON">      0.80000001</i>
   <i name="LAMBDA">      1.00000000</i>
  </separator>
  <separator name="External order field" >
   <i name="OFIELD_KAPPA">      0.00000000</i>
   <v name="OFIELD_K">      0.00000000      0.00000000      0.00000000</v>
   <i name="OFIELD_Q6_NEAR">      0.00000000</i>
   <i name="OFIELD_Q6_FAR">      0.00000000</i>
   <i name="OFIELD_A">      0.00000000</i>
  </separator>
  <separator name="optional k-points parameters" >
   <i type="int" name="KPOINTS_OPT_MODE">     1</i>
   <i type="logical" name="LKPOINTS_OPT"> F  </i>
  </separator>
 </parameters>
 <atominfo>
  <atoms>     168 </atoms>
  <types>       2 </types>
  <array name="atoms" >
   <dimension dim="1">ion</dimension>
   <field type="string">element</field>
   <field type="int">atomtype</field>
   <set>
    <rc><c>Ge</c><c>   1</c></rc>
    <rc><c>Ge</c><c>   1</c></rc>
    <rc><c>Ge</c><c>   1</c></rc>
    <rc><c>Ge</c><c>   1</c></rc>
    <rc><c>Ge</c><c>   1</c></rc>
    <rc><c>Ge</c><c>   1</c></rc>
    <rc><c>Ge</c><c>   1</c></rc>
    <rc><c>Ge</c><c>   1</c></rc>
    <rc><c>Ge</c><c>   1</c></rc>
    <rc><c>Ge</c><c>   1</c></rc>
    <rc><c>Ge</c><c>   1</c></rc>
    <rc><c>Ge</c><c>   1</c></rc>
    <rc><c>Ge</c><c>   1</c></rc>
    <rc><c>Ge</c><c>   1</c></rc>
    <rc><c>Ge</c><c>   1</c></rc>
    <rc><c>Ge</c><c>   1</c></rc>
    <rc><c>Ge</c><c>   1</c></rc>
    <rc><c>Ge</c><c>   1</c></rc>
    <rc><c>Ge</c><c>   1</c></rc>
    <rc><c>Ge</c><c>   1</c></rc>
    <rc><c>Ge</c><c>   1</c></rc>
    <rc><c>Ge</c><c>   1</c></rc>
    <rc><c>Ge</c><c>   1</c></rc>
    <rc><c>Ge</c><c>   1</c></rc>
    <rc><c>Ge</c><c>   1</c></rc>
    <rc><c>Ge</c><c>   1</c></rc>
    <rc><c>Ge</c><c>   1</c></rc>
    <rc><c>Ge</c><c>   1</c></rc>
    <rc><c>Ge</c><c>   1</c></rc>
    <rc><c>Ge</c><c>   1</c></rc>
    <rc><c>Ge</c><c>   1</c></rc>
    <rc><c>Ge</c><c>   1</c></rc>
    <rc><c>Ge</c><c>   1</c></rc>
    <rc><c>Ge</c><c>   1</c></rc>
    <rc><c>Ge</c><c>   1</c></rc>
    <rc><c>Ge</c><c>   1</c></rc>
    <rc><c>Ge</c><c>   1</c></rc>
    <rc><c>Ge</c><c>   1</c></rc>
    <rc><c>Ge</c><c>   1</c></rc>
    <rc><c>Ge</c><c>   1</c></rc>
    <rc><c>Ge</c><c>   1</c></rc>
    <rc><c>Ge</c><c>   1</c></rc>
    <rc><c>Ge</c><c>   1</c></rc>
    <rc><c>Ge</c><c>   1</c></rc>
    <rc><c>Ge</c><c>   1</c></rc>
    <rc><c>Ge</c><c>   1</c></rc>
    <rc><c>Ge</c><c>   1</c></rc>
    <rc><c>Ge</c><c>   1</c></rc>
    <rc><c>Ge</c><c>   1</c></rc>
    <rc><c>Ge</c><c>   1</c></rc>
    <rc><c>Ge</c><c>   1</c></rc>
    <rc><c>Ge</c><c>   1</c></rc>
    <rc><c>Ge</c><c>   1</c></rc>
    <rc><c>Ge</c><c>   1</c></rc>
    <rc><c>Ge</c><c>   1</c></rc>
    <rc><c>Ge</c><c>   1</c></rc>
    <rc><c>Ge</c><c>   1</c></rc>
    <rc><c>Ge</c><c>   1</c></rc>
    <rc><c>Ge</c><c>   1</c></rc>
    <rc><c>Ge</c><c>   1</c></rc>
    <rc><c>Ge</c><c>   1</c></rc>
    <rc><c>Ge</c><c>   1</c></rc>
    <rc><c>Ge</c><c>   1</c></rc>
    <rc><c>Ge</c><c>   1</c></rc>
    <rc><c>Ge</c><c>   1</c></rc>
    <rc><c>Ge</c><c>   1</c></rc>
    <rc><c>Ge</c><c>   1</c></rc>
    <rc><c>Ge</c><c>   1</c></rc>
    <rc><c>Ge</c><c>   1</c></rc>
    <rc><c>Ge</c><c>   1</c></rc>
    <rc><c>Ge</c><c>   1</c></rc>
    <rc><c>Ge</c><c>   1</c></rc>
    <rc><c>Ge</c><c>   1</c></rc>
    <rc><c>Ge</c><c>   1</c></rc>
    <rc><c>Ge</c><c>   1</c></rc>
    <rc><c>Ge</c><c>   1</c></rc>
    <rc><c>Ge</c><c>   1</c></rc>
    <rc><c>Ge</c><c>   1</c></rc>
    <rc><c>Ge</c><c>   1</c></rc>
    <rc><c>Ge</c><c>   1</c></rc>
    <rc><c>Ge</c><c>   1</c></rc>
    <rc><c>Ge</c><c>   1</c></rc>
    <rc><c>Ge</c><c>   1</c></rc>
    <rc><c>Ge</c><c>   1</c></rc>
    <rc><c>Ge</c><c>   1</c></rc>
    <rc><c>Ge</c><c>   1</c></rc>
    <rc><c>Ge</c><c>   1</c></rc>
    <rc><c>Ge</c><c>   1</c></rc>
    <rc><c>Ge</c><c>   1</c></rc>
    <rc><c>Ge</c><c>   1</c></rc>
    <rc><c>Ge</c><c>   1</c></rc>
    <rc><c>Ge</c><c>   1</c></rc>
    <rc><c>Ge</c><c>   1</c></rc>
    <rc><c>Ge</c><c>   1</c></rc>
    <rc><c>Ge</c><c>   1</c></rc>
    <rc><c>Ge</c><c>   1</c></rc>
    <rc><c>Sn</c><c>   2</c></rc>
    <rc><c>Sn</c><c>   2</c></rc>
    <rc><c>Sn</c><c>   2</c></rc>
    <rc><c>Sn</c><c>   2</c></rc>
    <rc><c>Sn</c><c>   2</c></rc>
    <rc><c>Sn</c><c>   2</c></rc>
    <rc><c>Sn</c><c>   2</c></rc>
    <rc><c>Sn</c><c>   2</c></rc>
    <rc><c>Sn</c><c>   2</c></rc>
    <rc><c>Sn</c><c>   2</c></rc>
    <rc><c>Sn</c><c>   2</c></rc>
    <rc><c>Sn</c><c>   2</c></rc>
    <rc><c>Sn</c><c>   2</c></rc>
    <rc><c>Sn</c><c>   2</c></rc>
    <rc><c>Sn</c><c>   2</c></rc>
    <rc><c>Sn</c><c>   2</c></rc>
    <rc><c>Sn</c><c>   2</c></rc>
    <rc><c>Sn</c><c>   2</c></rc>
    <rc><c>Sn</c><c>   2</c></rc>
    <rc><c>Sn</c><c>   2</c></rc>
    <rc><c>Sn</c><c>   2</c></rc>
    <rc><c>Sn</c><c>   2</c></rc>
    <rc><c>Sn</c><c>   2</c></rc>
    <rc><c>Sn</c><c>   2</c></rc>
    <rc><c>Sn</c><c>   2</c></rc>
    <rc><c>Sn</c><c>   2</c></rc>
    <rc><c>Sn</c><c>   2</c></rc>
    <rc><c>Sn</c><c>   2</c></rc>
    <rc><c>Sn</c><c>   2</c></rc>
    <rc><c>Sn</c><c>   2</c></rc>
    <rc><c>Sn</c><c>   2</c></rc>
    <rc><c>Sn</c><c>   2</c></rc>
    <rc><c>Sn</c><c>   2</c></rc>
    <rc><c>Sn</c><c>   2</c></rc>
    <rc><c>Sn</c><c>   2</c></rc>
    <rc><c>Sn</c><c>   2</c></rc>
    <rc><c>Sn</c><c>   2</c></rc>
    <rc><c>Sn</c><c>   2</c></rc>
    <rc><c>Sn</c><c>   2</c></rc>
    <rc><c>Sn</c><c>   2</c></rc>
    <rc><c>Sn</c><c>   2</c></rc>
    <rc><c>Sn</c><c>   2</c></rc>
    <rc><c>Sn</c><c>   2</c></rc>
    <rc><c>Sn</c><c>   2</c></rc>
    <rc><c>Sn</c><c>   2</c></rc>
    <rc><c>Sn</c><c>   2</c></rc>
    <rc><c>Sn</c><c>   2</c></rc>
    <rc><c>Sn</c><c>   2</c></rc>
    <rc><c>Sn</c><c>   2</c></rc>
    <rc><c>Sn</c><c>   2</c></rc>
    <rc><c>Sn</c><c>   2</c></rc>
    <rc><c>Sn</c><c>   2</c></rc>
    <rc><c>Sn</c><c>   2</c></rc>
    <rc><c>Sn</c><c>   2</c></rc>
    <rc><c>Sn</c><c>   2</c></rc>
    <rc><c>Sn</c><c>   2</c></rc>
    <rc><c>Sn</c><c>   2</c></rc>
    <rc><c>Sn</c><c>   2</c></rc>
    <rc><c>Sn</c><c>   2</c></rc>
    <rc><c>Sn</c><c>   2</c></rc>
    <rc><c>Sn</c><c>   2</c></rc>
    <rc><c>Sn</c><c>   2</c></rc>
    <rc><c>Sn</c><c>   2</c></rc>
    <rc><c>Sn</c><c>   2</c></rc>
    <rc><c>Sn</c><c>   2</c></rc>
    <rc><c>Sn</c><c>   2</c></rc>
    <rc><c>Sn</c><c>   2</c></rc>
    <rc><c>Sn</c><c>   2</c></rc>
    <rc><c>Sn</c><c>   2</c></rc>
    <rc><c>Sn</c><c>   2</c></rc>
    <rc><c>Sn</c><c>   2</c></rc>
    <rc><c>Sn</c><c>   2</c></rc>
   </set>
  </array>
  <array name="atomtypes" >
   <dimension dim="1">type</dimension>
   <field type="int">atomspertype</field>
   <field type="string">element</field>
   <field>mass</field>
   <field>valence</field>
   <field type="string">pseudopotential</field>
   <set>
    <rc><c>  96</c><c>Ge</c><c>     72.61000000</c><c>      4.00000000</c><c>  PAW_PBE Ge 05Jan2001                  </c></rc>
    <rc><c>  72</c><c>Sn</c><c>    118.71000000</c><c>      4.00000000</c><c>  PAW_PBE Sn 08Apr2002                  </c></rc>
   </set>
  </array>
 </atominfo>
 <structure name="initialpos" >
  <crystal>
   <varray name="basis" >
    <v>      16.00267601       0.00000000       0.00000000 </v>
    <v>       8.00133800      13.85872459       0.00000000 </v>
    <v>       0.00000000       0.00000000      20.30401230 </v>
   </varray>
   <i name="volume">   4502.95643002 </i>
   <varray name="rec_basis" >
    <v>       0.06248955      -0.03607836       0.00000000 </v>
    <v>       0.00000000       0.07215671       0.00000000 </v>
    <v>       0.00000000       0.00000000       0.04925135 </v>
   </varray>
  </crystal>
  <varray name="positions" >
   <v>       0.31088322       0.31088316       0.32176235 </v>
   <v>       0.97755003       0.97755003       0.00000002 </v>
   <v>       0.64421654       0.64421660       0.16088121 </v>
   <v>       0.81088316       0.31088316       0.32176235 </v>
   <v>       0.47755000       0.97755003       0.00000003 </v>
   <v>       0.14421658       0.64421660       0.16088121 </v>
   <v>       0.31088316       0.81088316       0.32176235 </v>
   <v>       0.97755003       0.47755000       0.00000003 </v>
   <v>       0.64421660       0.14421658       0.16088121 </v>
   <v>       0.81088316       0.81088316       0.32176235 </v>
   <v>       0.47755000       0.47755000       0.00000000 </v>
   <v>       0.14421657       0.14421657       0.16088118 </v>
   <v>       0.47754979       0.47754973       0.36198267 </v>
   <v>       0.14421669       0.14421661       0.04022033 </v>
   <v>       0.81088328       0.81088322       0.20110148 </v>
   <v>       0.97754979       0.47754967       0.36198267 </v>
   <v>       0.64421666       0.14421663       0.04022033 </v>
   <v>       0.31088328       0.81088322       0.20110148 </v>
   <v>       0.47754967       0.97754979       0.36198267 </v>
   <v>       0.14421663       0.64421666       0.04022033 </v>
   <v>       0.81088322       0.31088328       0.20110148 </v>
   <v>       0.97754967       0.97754979       0.36198264 </v>
   <v>       0.64421660       0.64421666       0.04022033 </v>
   <v>       0.31088316       0.31088325       0.20110145 </v>
   <v>       0.56088316       0.56088316       0.32176238 </v>
   <v>       0.22755001       0.22755001       0.00000003 </v>
   <v>       0.89421660       0.89421660       0.16088118 </v>
   <v>       0.06088321       0.56088316       0.32176241 </v>
   <v>       0.72755003       0.22755005       0.00000003 </v>
   <v>       0.39421660       0.89421660       0.16088121 </v>
   <v>       0.56088316       0.06088318       0.32176235 </v>
   <v>       0.22755001       0.72754997       0.00000001 </v>
   <v>       0.89421654       0.39421660       0.16088118 </v>
   <v>       0.06088319       0.06088311       0.32176235 </v>
   <v>       0.72755003       0.72754991       0.00000002 </v>
   <v>       0.39421663       0.39421657       0.16088121 </v>
   <v>       0.72754979       0.72754979       0.36198264 </v>
   <v>       0.39421663       0.39421663       0.04022027 </v>
   <v>       0.06088319       0.06088319       0.20110145 </v>
   <v>       0.22754979       0.72754979       0.36198264 </v>
   <v>       0.89421660       0.39421663       0.04022029 </v>
   <v>       0.56088316       0.06088319       0.20110145 </v>
   <v>       0.72754979       0.22754985       0.36198264 </v>
   <v>       0.39421663       0.89421666       0.04022029 </v>
   <v>       0.06088320       0.56088328       0.20110145 </v>
   <v>       0.22754985       0.22754985       0.36198264 </v>
   <v>       0.89421672       0.89421666       0.04022028 </v>
   <v>       0.56088328       0.56088328       0.20110145 </v>
   <v>       0.31088316       0.56088316       0.32176235 </v>
   <v>       0.97755003       0.22755001       0.00000002 </v>
   <v>       0.64421654       0.89421660       0.16088121 </v>
   <v>       0.81088316       0.56088316       0.32176238 </v>
   <v>       0.47755003       0.22755001       0.00000003 </v>
   <v>       0.14421660       0.89421660       0.16088121 </v>
   <v>       0.31088316       0.06088318       0.32176235 </v>
   <v>       0.97755003       0.72754997       0.00000003 </v>
   <v>       0.64421660       0.39421660       0.16088121 </v>
   <v>       0.81088316       0.06088309       0.32176235 </v>
   <v>       0.47755000       0.72754991       0.00000002 </v>
   <v>       0.14421661       0.39421654       0.16088118 </v>
   <v>       0.47754979       0.72754979       0.36198264 </v>
   <v>       0.14421661       0.39421660       0.04022029 </v>
   <v>       0.81088316       0.06088319       0.20110145 </v>
   <v>       0.97754973       0.72754979       0.36198264 </v>
   <v>       0.64421660       0.39421663       0.04022029 </v>
   <v>       0.31088316       0.06088319       0.20110145 </v>
   <v>       0.47754973       0.22754985       0.36198261 </v>
   <v>       0.14421663       0.89421666       0.04022028 </v>
   <v>       0.81088316       0.56088328       0.20110145 </v>
   <v>       0.97754979       0.22754985       0.36198261 </v>
   <v>       0.64421666       0.89421666       0.04022027 </v>
   <v>       0.31088322       0.56088328       0.20110145 </v>
   <v>       0.56088311       0.31088316       0.32176235 </v>
   <v>       0.22755001       0.97755003       0.00000002 </v>
   <v>       0.89421660       0.64421660       0.16088121 </v>
   <v>       0.06088318       0.31088316       0.32176238 </v>
   <v>       0.72754997       0.97755003       0.00000003 </v>
   <v>       0.39421663       0.64421660       0.16088121 </v>
   <v>       0.56088316       0.81088316       0.32176238 </v>
   <v>       0.22755000       0.47755000       0.00000003 </v>
   <v>       0.89421660       0.14421658       0.16088121 </v>
   <v>       0.06088318       0.81088311       0.32176235 </v>
   <v>       0.72754997       0.47754994       0.00000001 </v>
   <v>       0.39421660       0.14421654       0.16088118 </v>
   <v>       0.72754979       0.47754985       0.36198267 </v>
   <v>       0.39421669       0.14421672       0.04022032 </v>
   <v>       0.06088328       0.81088334       0.20110148 </v>
   <v>       0.22754967       0.47754985       0.36198267 </v>
   <v>       0.89421666       0.14421673       0.04022032 </v>
   <v>       0.56088328       0.81088334       0.20110145 </v>
   <v>       0.72754979       0.97754985       0.36198264 </v>
   <v>       0.39421669       0.64421672       0.04022033 </v>
   <v>       0.06088328       0.31088337       0.20110148 </v>
   <v>       0.22754973       0.97754979       0.36198267 </v>
   <v>       0.89421666       0.64421666       0.04022032 </v>
   <v>       0.56088328       0.31088328       0.20110145 </v>
   <v>       0.14465409       0.39010650       0.84244829 </v>
   <v>       0.14465409       0.05677319       0.47340387 </v>
   <v>       0.14465409       0.72343981       0.65792608 </v>
   <v>       0.47798744       0.72343987       0.84244823 </v>
   <v>       0.47798744       0.39010653       0.47340387 </v>
   <v>       0.47798744       0.05677319       0.65792608 </v>
   <v>       0.81132078       0.05677319       0.84244829 </v>
   <v>       0.81132078       0.72343987       0.47340387 </v>
   <v>       0.81132078       0.39010653       0.65792608 </v>
   <v>       0.47798744       0.39010656       0.88857889 </v>
   <v>       0.47798744       0.05677319       0.51953441 </v>
   <v>       0.47798744       0.72343981       0.70405662 </v>
   <v>       0.14465409       0.05677319       0.88857889 </v>
   <v>       0.14465409       0.72343981       0.51953441 </v>
   <v>       0.14465409       0.39010647       0.70405662 </v>
   <v>       0.81132084       0.72343981       0.88857889 </v>
   <v>       0.81132084       0.39010647       0.51953441 </v>
   <v>       0.81132084       0.05677307       0.70405662 </v>
   <v>       0.64465404       0.39010650       0.84244823 </v>
   <v>       0.64465404       0.05677319       0.47340387 </v>
   <v>       0.64465404       0.72343981       0.65792608 </v>
   <v>       0.31132078       0.05677319       0.84244823 </v>
   <v>       0.31132078       0.72343987       0.47340384 </v>
   <v>       0.31132078       0.39010653       0.65792608 </v>
   <v>       0.97798747       0.72343987       0.84244829 </v>
   <v>       0.97798747       0.39010656       0.47340387 </v>
   <v>       0.97798747       0.05677319       0.65792614 </v>
   <v>       0.31132075       0.72343993       0.88857889 </v>
   <v>       0.31132078       0.39010653       0.51953441 </v>
   <v>       0.31132078       0.05677319       0.70405662 </v>
   <v>       0.97798747       0.39010656       0.88857883 </v>
   <v>       0.97798747       0.05677319       0.51953435 </v>
   <v>       0.97798747       0.72343981       0.70405656 </v>
   <v>       0.64465409       0.05677319       0.88857889 </v>
   <v>       0.64465409       0.72343981       0.51953435 </v>
   <v>       0.64465409       0.39010650       0.70405656 </v>
   <v>       0.31132078       0.55677319       0.84244829 </v>
   <v>       0.31132078       0.22343987       0.47340387 </v>
   <v>       0.31132078       0.89010650       0.65792608 </v>
   <v>       0.64465404       0.89010650       0.84244829 </v>
   <v>       0.64465404       0.55677319       0.47340387 </v>
   <v>       0.64465404       0.22343981       0.65792608 </v>
   <v>       0.97798735       0.22343990       0.84244823 </v>
   <v>       0.97798735       0.89010662       0.47340381 </v>
   <v>       0.97798735       0.55677331       0.65792602 </v>
   <v>       0.64465404       0.55677325       0.88857889 </v>
   <v>       0.64465404       0.22343984       0.51953441 </v>
   <v>       0.64465404       0.89010650       0.70405662 </v>
   <v>       0.31132072       0.22343990       0.88857883 </v>
   <v>       0.31132072       0.89010656       0.51953435 </v>
   <v>       0.31132072       0.55677319       0.70405656 </v>
   <v>       0.97798747       0.89010650       0.88857889 </v>
   <v>       0.97798747       0.55677313       0.51953441 </v>
   <v>       0.97798747       0.22343978       0.70405662 </v>
   <v>       0.14465409       0.89010650       0.84244829 </v>
   <v>       0.14465409       0.55677313       0.47340387 </v>
   <v>       0.14465409       0.22343981       0.65792608 </v>
   <v>       0.81132078       0.55677319       0.84244823 </v>
   <v>       0.81132078       0.22343984       0.47340387 </v>
   <v>       0.81132078       0.89010650       0.65792608 </v>
   <v>       0.47798744       0.22343972       0.84244829 </v>
   <v>       0.47798744       0.89010644       0.47340387 </v>
   <v>       0.47798744       0.55677313       0.65792602 </v>
   <v>       0.14465409       0.55677325       0.88857889 </v>
   <v>       0.14465409       0.22343990       0.51953441 </v>
   <v>       0.14465409       0.89010656       0.70405662 </v>
   <v>       0.47798744       0.89010656       0.88857889 </v>
   <v>       0.47798744       0.55677319       0.51953441 </v>
   <v>       0.47798744       0.22343987       0.70405662 </v>
   <v>       0.81132078       0.22343993       0.88857889 </v>
   <v>       0.81132078       0.89010656       0.51953447 </v>
   <v>       0.81132078       0.55677325       0.70405662 </v>
  </varray>
 </structure>
 <calculation>
  <scstep>
   <time name="dav">   76.87   77.56</time>
   <time name="total">   79.83   80.54</time>
   <energy>
    <i name="alphaZ">   1020.59519491 </i>
    <i name="ewald"> -14123.77625645 </i>
    <i name="hartreedc">  -4354.26363402 </i>
    <i name="XCdc">  -9235.83377997 </i>
    <i name="pawpsdc">  22099.84193803 </i>
    <i name="pawaedc"> -11791.56227843 </i>
    <i name="eentropy">     -0.00193178 </i>
    <i name="bandstr">   2921.29400926 </i>
    <i name="atom">  16853.79812076 </i>
    <i name="e_fr_energy">   3390.09138233 </i>
    <i name="e_wo_entrp">   3390.09331410 </i>
    <i name="e_0_energy">   3390.09234821 </i>
   </energy>
  </scstep>
  <scstep>
   <time name="dav">   86.63   87.44</time>
   <time name="total">   86.64   87.44</time>
   <energy>
    <i name="e_fr_energy">   -272.35228335 </i>
    <i name="e_wo_entrp">   -272.35045404 </i>
    <i name="e_0_energy">   -272.35136870 </i>
   </energy>
  </scstep>
  <scstep>
   <time name="dav">   90.51   91.30</time>
   <time name="total">   90.52   91.30</time>
   <energy>
    <i name="e_fr_energy">   -675.84411510 </i>
    <i name="e_wo_entrp">   -675.84196776 </i>
    <i name="e_0_energy">   -675.84304143 </i>
   </energy>
  </scstep>
  <scstep>
   <time name="dav">   89.25   90.05</time>
   <time name="total">   89.25   90.05</time>
   <energy>
    <i name="e_fr_energy">   -692.47656777 </i>
    <i name="e_wo_entrp">   -692.47385841 </i>
    <i name="e_0_energy">   -692.47521309 </i>
   </energy>
  </scstep>
  <scstep>
   <time name="dav">   95.45   96.29</time>
   <time name="total">   99.94  100.83</time>
   <energy>
    <i name="e_fr_energy">   -693.16928933 </i>
    <i name="e_wo_entrp">   -693.16668524 </i>
    <i name="e_0_energy">   -693.16798729 </i>
   </energy>
  </scstep>
  <scstep>
   <time name="dav">  107.35  108.36</time>
   <time name="total">  114.97  116.05</time>
   <energy>
    <i name="e_fr_energy">   -684.52047089 </i>
    <i name="e_wo_entrp">   -684.51457732 </i>
    <i name="e_0_energy">   -684.51752410 </i>
   </energy>
  </scstep>
  <scstep>
   <time name="dav">   93.19   94.04</time>
   <time name="total">  100.73  101.64</time>
   <energy>
    <i name="e_fr_energy">   -685.06581025 </i>
    <i name="e_wo_entrp">   -685.06406835 </i>
    <i name="e_0_energy">   -685.06493930 </i>
   </energy>
  </scstep>
  <scstep>
   <time name="dav">   91.65   92.45</time>
   <time name="total">   99.19  100.06</time>
   <energy>
    <i name="e_fr_energy">   -683.23710571 </i>
    <i name="e_wo_entrp">   -683.23299991 </i>
    <i name="e_0_energy">   -683.23505281 </i>
   </energy>
  </scstep>
  <scstep>
   <time name="dav">   88.84   89.68</time>
   <time name="total">   96.39   97.30</time>
   <energy>
    <i name="e_fr_energy">   -683.27469340 </i>
    <i name="e_wo_entrp">   -683.27082453 </i>
    <i name="e_0_energy">   -683.27275896 </i>
   </energy>
  </scstep>
  <scstep>
   <time name="dav">   87.68   88.46</time>
   <time name="total">   95.25   96.10</time>
   <energy>
    <i name="e_fr_energy">   -683.27798147 </i>
    <i name="e_wo_entrp">   -683.27368411 </i>
    <i name="e_0_energy">   -683.27583279 </i>
   </energy>
  </scstep>
  <scstep>
   <time name="dav">   87.79   88.58</time>
   <time name="total">   95.26   96.12</time>
   <energy>
    <i name="e_fr_energy">   -683.27958048 </i>
    <i name="e_wo_entrp">   -683.27575442 </i>
    <i name="e_0_energy">   -683.27766745 </i>
   </energy>
  </scstep>
  <scstep>
   <time name="dav">   84.19   84.96</time>
   <time name="total">   91.67   92.51</time>
   <energy>
    <i name="e_fr_energy">   -683.27923162 </i>
    <i name="e_wo_entrp">   -683.27549396 </i>
    <i name="e_0_energy">   -683.27736279 </i>
   </energy>
  </scstep>
  <scstep>
   <time name="dav">   85.17   85.96</time>
   <time name="total">   92.67   93.52</time>
   <energy>
    <i name="e_fr_energy">   -683.27966163 </i>
    <i name="e_wo_entrp">   -683.27591075 </i>
    <i name="e_0_energy">   -683.27778619 </i>
   </energy>
  </scstep>
  <scstep>
   <time name="dav">   84.78   85.58</time>
   <time name="total">   92.27   93.13</time>
   <energy>
    <i name="e_fr_energy">   -683.27976961 </i>
    <i name="e_wo_entrp">   -683.27601479 </i>
    <i name="e_0_energy">   -683.27789220 </i>
   </energy>
  </scstep>
  <scstep>
   <time name="dav">   83.30   84.06</time>
   <time name="total">   90.81   91.64</time>
   <energy>
    <i name="e_fr_energy">   -683.27980174 </i>
    <i name="e_wo_entrp">   -683.27605693 </i>
    <i name="e_0_energy">   -683.27792934 </i>
   </energy>
  </scstep>
  <scstep>
   <time name="dav">   84.64   85.39</time>
   <time name="total">   92.22   93.03</time>
   <energy>
    <i name="e_fr_energy">   -683.27981734 </i>
    <i name="e_wo_entrp">   -683.27607529 </i>
    <i name="e_0_energy">   -683.27794631 </i>
   </energy>
  </scstep>
  <scstep>
   <time name="dav">   84.02   84.77</time>
   <time name="total">   91.58   92.39</time>
   <energy>
    <i name="e_fr_energy">   -683.27982264 </i>
    <i name="e_wo_entrp">   -683.27607937 </i>
    <i name="e_0_energy">   -683.27795100 </i>
   </energy>
  </scstep>
  <scstep>
   <time name="dav">   83.21   83.97</time>
   <time name="total">   90.78   91.60</time>
   <energy>
    <i name="e_fr_energy">   -683.27982491 </i>
    <i name="e_wo_entrp">   -683.27608301 </i>
    <i name="e_0_energy">   -683.27795396 </i>
   </energy>
  </scstep>
  <scstep>
   <time name="dav">   83.08   83.81</time>
   <time name="total">   90.64   91.44</time>
   <energy>
    <i name="e_fr_energy">   -683.27982568 </i>
    <i name="e_wo_entrp">   -683.27608636 </i>
    <i name="e_0_energy">   -683.27795602 </i>
   </energy>
  </scstep>
  <scstep>
   <time name="dav">   70.73   71.39</time>
   <time name="total">   78.30   79.02</time>
   <energy>
    <i name="e_fr_energy">   -683.27982595 </i>
    <i name="e_wo_entrp">   -683.27608719 </i>
    <i name="e_0_energy">   -683.27795657 </i>
   </energy>
  </scstep>
  <scstep>
   <time name="dav">   58.96   59.47</time>
   <time name="total">   66.39   66.97</time>
   <energy>
    <i name="e_fr_energy">   -683.27982570 </i>
    <i name="e_wo_entrp">   -683.27608694 </i>
    <i name="e_0_energy">   -683.27795632 </i>
   </energy>
  </scstep>
  <scstep>
   <time name="dav">   54.00   54.47</time>
   <time name="total">   56.94   57.43</time>
   <energy>
    <i name="alphaZ">   1020.59519491 </i>
    <i name="ewald"> -14123.77625645 </i>
    <i name="hartreedc">  -4582.20821802 </i>
    <i name="XCdc">  -9184.89911630 </i>
    <i name="pawpsdc">  43306.10181812 </i>
    <i name="pawaedc"> -33039.26247268 </i>
    <i name="eentropy">     -0.00373830 </i>
    <i name="bandstr">   -933.62515764 </i>
    <i name="atom">  16853.79812076 </i>
    <i name="e_fr_energy">   -683.27982560 </i>
    <i name="e_wo_entrp">   -683.27608730 </i>
    <i name="e_0_energy">   -683.27795645 </i>
   </energy>
  </scstep>
  <structure>
   <crystal>
    <varray name="basis" >
     <v>      16.00267601       0.00000000       0.00000000 </v>
     <v>       8.00133800      13.85872459       0.00000000 </v>
     <v>       0.00000000       0.00000000      20.30401230 </v>
    </varray>
    <i name="volume">   4502.95643002 </i>
    <varray name="rec_basis" >
     <v>       0.06248955      -0.03607836       0.00000000 </v>
     <v>       0.00000000       0.07215671       0.00000000 </v>
     <v>       0.00000000       0.00000000       0.04925135 </v>
    </varray>
   </crystal>
   <varray name="positions" >
    <v>       0.31088322       0.31088316       0.32176235 </v>
    <v>       0.97755003       0.97755003       0.00000002 </v>
    <v>       0.64421654       0.64421660       0.16088121 </v>
    <v>       0.81088316       0.31088316       0.32176235 </v>
    <v>       0.47755000       0.97755003       0.00000003 </v>
    <v>       0.14421658       0.64421660       0.16088121 </v>
    <v>       0.31088316       0.81088316       0.32176235 </v>
    <v>       0.97755003       0.47755000       0.00000003 </v>
    <v>       0.64421660       0.14421658       0.16088121 </v>
    <v>       0.81088316       0.81088316       0.32176235 </v>
    <v>       0.47755000       0.47755000       0.00000000 </v>
    <v>       0.14421657       0.14421657       0.16088118 </v>
    <v>       0.47754979       0.47754973       0.36198267 </v>
    <v>       0.14421669       0.14421661       0.04022033 </v>
    <v>       0.81088328       0.81088322       0.20110148 </v>
    <v>       0.97754979       0.47754967       0.36198267 </v>
    <v>       0.64421666       0.14421663       0.04022033 </v>
    <v>       0.31088328       0.81088322       0.20110148 </v>
    <v>       0.47754967       0.97754979       0.36198267 </v>
    <v>       0.14421663       0.64421666       0.04022033 </v>
    <v>       0.81088322       0.31088328       0.20110148 </v>
    <v>       0.97754967       0.97754979       0.36198264 </v>
    <v>       0.64421660       0.64421666       0.04022033 </v>
    <v>       0.31088316       0.31088325       0.20110145 </v>
    <v>       0.56088316       0.56088316       0.32176238 </v>
    <v>       0.22755001       0.22755001       0.00000003 </v>
    <v>       0.89421660       0.89421660       0.16088118 </v>
    <v>       0.06088321       0.56088316       0.32176241 </v>
    <v>       0.72755003       0.22755005       0.00000003 </v>
    <v>       0.39421660       0.89421660       0.16088121 </v>
    <v>       0.56088316       0.06088318       0.32176235 </v>
    <v>       0.22755001       0.72754997       0.00000001 </v>
    <v>       0.89421654       0.39421660       0.16088118 </v>
    <v>       0.06088319       0.06088311       0.32176235 </v>
    <v>       0.72755003       0.72754991       0.00000002 </v>
    <v>       0.39421663       0.39421657       0.16088121 </v>
    <v>       0.72754979       0.72754979       0.36198264 </v>
    <v>       0.39421663       0.39421663       0.04022027 </v>
    <v>       0.06088319       0.06088319       0.20110145 </v>
    <v>       0.22754979       0.72754979       0.36198264 </v>
    <v>       0.89421660       0.39421663       0.04022029 </v>
    <v>       0.56088316       0.06088319       0.20110145 </v>
    <v>       0.72754979       0.22754985       0.36198264 </v>
    <v>       0.39421663       0.89421666       0.04022029 </v>
    <v>       0.06088320       0.56088328       0.20110145 </v>
    <v>       0.22754985       0.22754985       0.36198264 </v>
    <v>       0.89421672       0.89421666       0.04022028 </v>
    <v>       0.56088328       0.56088328       0.20110145 </v>
    <v>       0.31088316       0.56088316       0.32176235 </v>
    <v>       0.97755003       0.22755001       0.00000002 </v>
    <v>       0.64421654       0.89421660       0.16088121 </v>
    <v>       0.81088316       0.56088316       0.32176238 </v>
    <v>       0.47755003       0.22755001       0.00000003 </v>
    <v>       0.14421660       0.89421660       0.16088121 </v>
    <v>       0.31088316       0.06088318       0.32176235 </v>
    <v>       0.97755003       0.72754997       0.00000003 </v>
    <v>       0.64421660       0.39421660       0.16088121 </v>
    <v>       0.81088316       0.06088309       0.32176235 </v>
    <v>       0.47755000       0.72754991       0.00000002 </v>
    <v>       0.14421661       0.39421654       0.16088118 </v>
    <v>       0.47754979       0.72754979       0.36198264 </v>
    <v>       0.14421661       0.39421660       0.04022029 </v>
    <v>       0.81088316       0.06088319       0.20110145 </v>
    <v>       0.97754973       0.72754979       0.36198264 </v>
    <v>       0.64421660       0.39421663       0.04022029 </v>
    <v>       0.31088316       0.06088319       0.20110145 </v>
    <v>       0.47754973       0.22754985       0.36198261 </v>
    <v>       0.14421663       0.89421666       0.04022028 </v>
    <v>       0.81088316       0.56088328       0.20110145 </v>
    <v>       0.97754979       0.22754985       0.36198261 </v>
    <v>       0.64421666       0.89421666       0.04022027 </v>
    <v>       0.31088322       0.56088328       0.20110145 </v>
    <v>       0.56088311       0.31088316       0.32176235 </v>
    <v>       0.22755001       0.97755003       0.00000002 </v>
    <v>       0.89421660       0.64421660       0.16088121 </v>
    <v>       0.06088318       0.31088316       0.32176238 </v>
    <v>       0.72754997       0.97755003       0.00000003 </v>
    <v>       0.39421663       0.64421660       0.16088121 </v>
    <v>       0.56088316       0.81088316       0.32176238 </v>
    <v>       0.22755000       0.47755000       0.00000003 </v>
    <v>       0.89421660       0.14421658       0.16088121 </v>
    <v>       0.06088318       0.81088311       0.32176235 </v>
    <v>       0.72754997       0.47754994       0.00000001 </v>
    <v>       0.39421660       0.14421654       0.16088118 </v>
    <v>       0.72754979       0.47754985       0.36198267 </v>
    <v>       0.39421669       0.14421672       0.04022032 </v>
    <v>       0.06088328       0.81088334       0.20110148 </v>
    <v>       0.22754967       0.47754985       0.36198267 </v>
    <v>       0.89421666       0.14421673       0.04022032 </v>
    <v>       0.56088328       0.81088334       0.20110145 </v>
    <v>       0.72754979       0.97754985       0.36198264 </v>
    <v>       0.39421669       0.64421672       0.04022033 </v>
    <v>       0.06088328       0.31088337       0.20110148 </v>
    <v>       0.22754973       0.97754979       0.36198267 </v>
    <v>       0.89421666       0.64421666       0.04022032 </v>
    <v>       0.56088328       0.31088328       0.20110145 </v>
    <v>       0.14465409       0.39010650       0.84244829 </v>
    <v>       0.14465409       0.05677319       0.47340387 </v>
    <v>       0.14465409       0.72343981       0.65792608 </v>
    <v>       0.47798744       0.72343987       0.84244823 </v>
    <v>       0.47798744       0.39010653       0.47340387 </v>
    <v>       0.47798744       0.05677319       0.65792608 </v>
    <v>       0.81132078       0.05677319       0.84244829 </v>
    <v>       0.81132078       0.72343987       0.47340387 </v>
    <v>       0.81132078       0.39010653       0.65792608 </v>
    <v>       0.47798744       0.39010656       0.88857889 </v>
    <v>       0.47798744       0.05677319       0.51953441 </v>
    <v>       0.47798744       0.72343981       0.70405662 </v>
    <v>       0.14465409       0.05677319       0.88857889 </v>
    <v>       0.14465409       0.72343981       0.51953441 </v>
    <v>       0.14465409       0.39010647       0.70405662 </v>
    <v>       0.81132084       0.72343981       0.88857889 </v>
    <v>       0.81132084       0.39010647       0.51953441 </v>
    <v>       0.81132084       0.05677307       0.70405662 </v>
    <v>       0.64465404       0.39010650       0.84244823 </v>
    <v>       0.64465404       0.05677319       0.47340387 </v>
    <v>       0.64465404       0.72343981       0.65792608 </v>
    <v>       0.31132078       0.05677319       0.84244823 </v>
    <v>       0.31132078       0.72343987       0.47340384 </v>
    <v>       0.31132078       0.39010653       0.65792608 </v>
    <v>       0.97798747       0.72343987       0.84244829 </v>
    <v>       0.97798747       0.39010656       0.47340387 </v>
    <v>       0.97798747       0.05677319       0.65792614 </v>
    <v>       0.31132075       0.72343993       0.88857889 </v>
    <v>       0.31132078       0.39010653       0.51953441 </v>
    <v>       0.31132078       0.05677319       0.70405662 </v>
    <v>       0.97798747       0.39010656       0.88857883 </v>
    <v>       0.97798747       0.05677319       0.51953435 </v>
    <v>       0.97798747       0.72343981       0.70405656 </v>
    <v>       0.64465409       0.05677319       0.88857889 </v>
    <v>       0.64465409       0.72343981       0.51953435 </v>
    <v>       0.64465409       0.39010650       0.70405656 </v>
    <v>       0.31132078       0.55677319       0.84244829 </v>
    <v>       0.31132078       0.22343987       0.47340387 </v>
    <v>       0.31132078       0.89010650       0.65792608 </v>
    <v>       0.64465404       0.89010650       0.84244829 </v>
    <v>       0.64465404       0.55677319       0.47340387 </v>
    <v>       0.64465404       0.22343981       0.65792608 </v>
    <v>       0.97798735       0.22343990       0.84244823 </v>
    <v>       0.97798735       0.89010662       0.47340381 </v>
    <v>       0.97798735       0.55677331       0.65792602 </v>
    <v>       0.64465404       0.55677325       0.88857889 </v>
    <v>       0.64465404       0.22343984       0.51953441 </v>
    <v>       0.64465404       0.89010650       0.70405662 </v>
    <v>       0.31132072       0.22343990       0.88857883 </v>
    <v>       0.31132072       0.89010656       0.51953435 </v>
    <v>       0.31132072       0.55677319       0.70405656 </v>
    <v>       0.97798747       0.89010650       0.88857889 </v>
    <v>       0.97798747       0.55677313       0.51953441 </v>
    <v>       0.97798747       0.22343978       0.70405662 </v>
    <v>       0.14465409       0.89010650       0.84244829 </v>
    <v>       0.14465409       0.55677313       0.47340387 </v>
    <v>       0.14465409       0.22343981       0.65792608 </v>
    <v>       0.81132078       0.55677319       0.84244823 </v>
    <v>       0.81132078       0.22343984       0.47340387 </v>
    <v>       0.81132078       0.89010650       0.65792608 </v>
    <v>       0.47798744       0.22343972       0.84244829 </v>
    <v>       0.47798744       0.89010644       0.47340387 </v>
    <v>       0.47798744       0.55677313       0.65792602 </v>
    <v>       0.14465409       0.55677325       0.88857889 </v>
    <v>       0.14465409       0.22343990       0.51953441 </v>
    <v>       0.14465409       0.89010656       0.70405662 </v>
    <v>       0.47798744       0.89010656       0.88857889 </v>
    <v>       0.47798744       0.55677319       0.51953441 </v>
    <v>       0.47798744       0.22343987       0.70405662 </v>
    <v>       0.81132078       0.22343993       0.88857889 </v>
    <v>       0.81132078       0.89010656       0.51953447 </v>
    <v>       0.81132078       0.55677325       0.70405662 </v>
   </varray>
  </structure>
  <varray name="forces" >
   <v>      -0.01936415      -0.19183865      -0.39683117 </v>
   <v>       0.04544355      -0.31015427       0.07442842 </v>
   <v>       0.07024608       0.26871842       0.18184076 </v>
   <v>      -0.01936415      -0.19183865      -0.39683117 </v>
   <v>       0.04544355      -0.31015427       0.07442842 </v>
   <v>       0.07024608       0.26871842       0.18184076 </v>
   <v>      -0.01936415      -0.19183865      -0.39683117 </v>
   <v>       0.04544355      -0.31015427       0.07442842 </v>
   <v>       0.07024608       0.26871842       0.18184076 </v>
   <v>      -0.01936415      -0.19183865      -0.39683117 </v>
   <v>       0.04544355      -0.31015427       0.07442842 </v>
   <v>       0.07024608       0.26871842       0.18184076 </v>
   <v>      -0.24508244      -0.17919150      -0.23251884 </v>
   <v>       0.07329840      -0.18829613       0.34184663 </v>
   <v>       0.05301434       0.25946241      -0.16805004 </v>
   <v>      -0.24508244      -0.17919150      -0.23251884 </v>
   <v>       0.07329840      -0.18829613       0.34184663 </v>
   <v>       0.05301434       0.25946241      -0.16805004 </v>
   <v>      -0.24508244      -0.17919150      -0.23251884 </v>
   <v>       0.07329840      -0.18829613       0.34184663 </v>
   <v>       0.05301434       0.25946241      -0.16805004 </v>
   <v>      -0.24508244      -0.17919150      -0.23251884 </v>
   <v>       0.07329840      -0.18829613       0.34184663 </v>
   <v>       0.05301434       0.25946241      -0.16805004 </v>
   <v>       0.15655221       0.07859184      -0.42069811 </v>
   <v>       0.11114783       0.17280178       0.30375561 </v>
   <v>      -0.27373595      -0.06483219       0.17912083 </v>
   <v>       0.15655221       0.07859184      -0.42069811 </v>
   <v>       0.11114783       0.17280178       0.30375561 </v>
   <v>      -0.27373595      -0.06483219       0.17912083 </v>
   <v>       0.15655221       0.07859184      -0.42069811 </v>
   <v>       0.11114783       0.17280178       0.30375561 </v>
   <v>      -0.27373595      -0.06483219       0.17912083 </v>
   <v>       0.15655221       0.07859184      -0.42069811 </v>
   <v>       0.11114783       0.17280178       0.30375561 </v>
   <v>      -0.27373595      -0.06483219       0.17912083 </v>
   <v>       0.21884545      -0.11350871      -0.44142819 </v>
   <v>       0.15412769       0.14380684       0.38996903 </v>
   <v>      -0.28487027      -0.08996226      -0.18937434 </v>
   <v>       0.21884545      -0.11350871      -0.44142819 </v>
   <v>       0.15412769       0.14380684       0.38996903 </v>
   <v>      -0.28487027      -0.08996226      -0.18937434 </v>
   <v>       0.21884545      -0.11350871      -0.44142819 </v>
   <v>       0.15412769       0.14380684       0.38996903 </v>
   <v>      -0.28487027      -0.08996226      -0.18937434 </v>
   <v>       0.21884545      -0.11350871      -0.44142819 </v>
   <v>       0.15412769       0.14380684       0.38996903 </v>
   <v>      -0.28487027      -0.08996226      -0.18937434 </v>
   <v>      -0.02497950      -0.00228557      -0.06226592 </v>
   <v>       0.01338691       0.01250243      -0.39995889 </v>
   <v>      -0.00050403      -0.00573327      -0.03326902 </v>
   <v>      -0.02497950      -0.00228557      -0.06226592 </v>
   <v>       0.01338691       0.01250243      -0.39995889 </v>
   <v>      -0.00050403      -0.00573327      -0.03326902 </v>
   <v>      -0.02497950      -0.00228557      -0.06226592 </v>
   <v>       0.01338691       0.01250243      -0.39995889 </v>
   <v>      -0.00050403      -0.00573327      -0.03326902 </v>
   <v>      -0.02497950      -0.00228557      -0.06226592 </v>
   <v>       0.01338691       0.01250243      -0.39995889 </v>
   <v>      -0.00050403      -0.00573327      -0.03326902 </v>
   <v>      -0.00606944       0.02426366       0.98012892 </v>
   <v>       0.01978661       0.00232973       0.25866394 </v>
   <v>      -0.01405227      -0.02275130      -0.13942486 </v>
   <v>      -0.00606944       0.02426366       0.98012892 </v>
   <v>       0.01978661       0.00232973       0.25866394 </v>
   <v>      -0.01405227      -0.02275130      -0.13942486 </v>
   <v>      -0.00606944       0.02426366       0.98012892 </v>
   <v>       0.01978661       0.00232973       0.25866394 </v>
   <v>      -0.01405227      -0.02275130      -0.13942486 </v>
   <v>      -0.00606944       0.02426366       0.98012892 </v>
   <v>       0.01978661       0.00232973       0.25866394 </v>
   <v>      -0.01405227      -0.02275130      -0.13942486 </v>
   <v>      -0.17453434       0.07030679      -0.42553286 </v>
   <v>      -0.25479933       0.02206588       0.34252782 </v>
   <v>       0.21284309      -0.19449544       0.19646495 </v>
   <v>      -0.17453434       0.07030679      -0.42553286 </v>
   <v>      -0.25479933       0.02206588       0.34252782 </v>
   <v>       0.21284309      -0.19449544       0.19646495 </v>
   <v>      -0.17453434       0.07030679      -0.42553286 </v>
   <v>      -0.25479933       0.02206588       0.34252782 </v>
   <v>       0.21284309      -0.19449544       0.19646495 </v>
   <v>      -0.17453434       0.07030679      -0.42553286 </v>
   <v>      -0.25479933       0.02206588       0.34252782 </v>
   <v>       0.21284309      -0.19449544       0.19646495 </v>
   <v>       0.02049676       0.19567753      -0.46453486 </v>
   <v>      -0.18578739       0.05695527       0.38126236 </v>
   <v>       0.19761653      -0.19474048      -0.17854008 </v>
   <v>       0.02049676       0.19567753      -0.46453486 </v>
   <v>      -0.18578739       0.05695527       0.38126236 </v>
   <v>       0.19761653      -0.19474048      -0.17854008 </v>
   <v>       0.02049676       0.19567753      -0.46453486 </v>
   <v>      -0.18578739       0.05695527       0.38126236 </v>
   <v>       0.19761653      -0.19474048      -0.17854008 </v>
   <v>       0.02049676       0.19567753      -0.46453486 </v>
   <v>      -0.18578739       0.05695527       0.38126236 </v>
   <v>       0.19761653      -0.19474048      -0.17854008 </v>
   <v>       0.02657668      -0.01276733      -0.64778227 </v>
   <v>       0.03134443       0.18938310       0.65360375 </v>
   <v>      -0.12019317       0.02578195       0.20605945 </v>
   <v>       0.00361896      -0.01629147       0.77692431 </v>
   <v>      -0.13547024      -0.03292998       0.39668895 </v>
   <v>       0.07197625       0.10425883       0.22132950 </v>
   <v>      -0.00369394       0.01094732      -0.49534231 </v>
   <v>       0.14379015      -0.05303087       0.59529820 </v>
   <v>       0.04937809      -0.10140461       0.20156108 </v>
   <v>       0.34948569       0.42439645      -0.44267425 </v>
   <v>      -0.07257977      -0.12220050       0.14879504 </v>
   <v>       0.00543511       0.00216787      -0.47042460 </v>
   <v>       0.13494033      -0.39609185      -0.67279841 </v>
   <v>       0.16966413      -0.01035182       0.18902865 </v>
   <v>       0.00267929       0.00949322      -0.11071362 </v>
   <v>      -0.43955474       0.08367984      -0.67694775 </v>
   <v>      -0.09192235       0.14211467       0.19978087 </v>
   <v>       0.01149877       0.00315235      -0.14996866 </v>
   <v>       0.02657668      -0.01276733      -0.64778227 </v>
   <v>       0.03134443       0.18938310       0.65360375 </v>
   <v>      -0.12019317       0.02578195       0.20605945 </v>
   <v>      -0.00369394       0.01094732      -0.49534231 </v>
   <v>       0.14379015      -0.05303087       0.59529820 </v>
   <v>       0.04937809      -0.10140461       0.20156108 </v>
   <v>       0.00361896      -0.01629147       0.77692431 </v>
   <v>      -0.13547024      -0.03292998       0.39668895 </v>
   <v>       0.07197625       0.10425883       0.22132950 </v>
   <v>      -0.43955474       0.08367984      -0.67694775 </v>
   <v>      -0.09192235       0.14211467       0.19978087 </v>
   <v>       0.01149877       0.00315235      -0.14996866 </v>
   <v>       0.34948569       0.42439645      -0.44267425 </v>
   <v>      -0.07257977      -0.12220050       0.14879504 </v>
   <v>       0.00543511       0.00216787      -0.47042460 </v>
   <v>       0.13494033      -0.39609185      -0.67279841 </v>
   <v>       0.16966413      -0.01035182       0.18902865 </v>
   <v>       0.00267929       0.00949322      -0.11071362 </v>
   <v>      -0.00369394       0.01094732      -0.49534231 </v>
   <v>       0.14379015      -0.05303087       0.59529820 </v>
   <v>       0.04937809      -0.10140461       0.20156108 </v>
   <v>       0.02657668      -0.01276733      -0.64778227 </v>
   <v>       0.03134443       0.18938310       0.65360375 </v>
   <v>      -0.12019317       0.02578195       0.20605945 </v>
   <v>       0.00361896      -0.01629147       0.77692431 </v>
   <v>      -0.13547024      -0.03292998       0.39668895 </v>
   <v>       0.07197625       0.10425883       0.22132950 </v>
   <v>       0.13494033      -0.39609185      -0.67279841 </v>
   <v>       0.16966413      -0.01035182       0.18902865 </v>
   <v>       0.00267929       0.00949322      -0.11071362 </v>
   <v>      -0.43955474       0.08367984      -0.67694775 </v>
   <v>      -0.09192235       0.14211467       0.19978087 </v>
   <v>       0.01149877       0.00315235      -0.14996866 </v>
   <v>       0.34948569       0.42439645      -0.44267425 </v>
   <v>      -0.07257977      -0.12220050       0.14879504 </v>
   <v>       0.00543511       0.00216787      -0.47042460 </v>
   <v>       0.02657668      -0.01276733      -0.64778227 </v>
   <v>       0.03134443       0.18938310       0.65360375 </v>
   <v>      -0.12019317       0.02578195       0.20605945 </v>
   <v>      -0.00369394       0.01094732      -0.49534231 </v>
   <v>       0.14379015      -0.05303087       0.59529820 </v>
   <v>       0.04937809      -0.10140461       0.20156108 </v>
   <v>       0.00361896      -0.01629147       0.77692431 </v>
   <v>      -0.13547024      -0.03292998       0.39668895 </v>
   <v>       0.07197625       0.10425883       0.22132950 </v>
   <v>       0.13494033      -0.39609185      -0.67279841 </v>
   <v>       0.16966413      -0.01035182       0.18902865 </v>
   <v>       0.00267929       0.00949322      -0.11071362 </v>
   <v>       0.34948569       0.42439645      -0.44267425 </v>
   <v>      -0.07257977      -0.12220050       0.14879504 </v>
   <v>       0.00543511       0.00216787      -0.47042460 </v>
   <v>      -0.43955474       0.08367984      -0.67694775 </v>
   <v>      -0.09192235       0.14211467       0.19978087 </v>
   <v>       0.01149877       0.00315235      -0.14996866 </v>
  </varray>
  <varray name="stress" >
   <v>      37.06851751      -0.33933969      -0.12597803 </v>
   <v>      -0.33933988      36.68283239       0.06536171 </v>
   <v>      -0.12597805       0.06536155      69.39982965 </v>
  </varray>
  <energy>
   <i name="e_fr_energy">   -683.27982560 </i>
   <i name="e_wo_entrp">   -683.27608730 </i>
   <i name="e_0_energy">   -683.27795645 </i>
  </energy>
  <time name="totalsc"> 2108.04 2128.37</time>
  <eigenvalues>
   <array>
    <dimension dim="1">band</dimension>
    <dimension dim="2">kpoint</dimension>
    <dimension dim="3">spin</dimension>
    <field>eigene</field>
    <field>occ</field>
    <set>
     <set comment="spin 1">
      <set comment="kpoint 1">
       <r>   -8.7559    1.0000 </r>
       <r>   -8.3380    1.0000 </r>
       <r>   -8.1028    1.0000 </r>
       <r>   -8.1016    1.0000 </r>
       <r>   -8.1005    1.0000 </r>
       <r>   -8.0761    1.0000 </r>
       <r>   -8.0749    1.0000 </r>
       <r>   -8.0738    1.0000 </r>
       <r>   -7.6867    1.0000 </r>
       <r>   -7.6825    1.0000 </r>
       <r>   -7.6805    1.0000 </r>
       <r>   -7.6486    1.0000 </r>
       <r>   -7.6461    1.0000 </r>
       <r>   -7.6414    1.0000 </r>
       <r>   -7.5155    1.0000 </r>
       <r>   -6.9335    1.0000 </r>
       <r>   -6.9328    1.0000 </r>
       <r>   -6.9297    1.0000 </r>
       <r>   -6.8663    1.0000 </r>
       <r>   -6.8605    1.0000 </r>
       <r>   -6.8596    1.0000 </r>
       <r>   -6.8500    1.0000 </r>
       <r>   -6.8465    1.0000 </r>
       <r>   -6.8405    1.0000 </r>
       <r>   -6.7999    1.0000 </r>
       <r>   -6.7987    1.0000 </r>
       <r>   -6.7977    1.0000 </r>
       <r>   -6.7504    1.0000 </r>
       <r>   -6.7395    1.0000 </r>
       <r>   -6.6510    1.0000 </r>
       <r>   -6.5936    1.0000 </r>
       <r>   -6.5879    1.0000 </r>
       <r>   -6.5843    1.0000 </r>
       <r>   -6.4776    1.0000 </r>
       <r>   -6.4726    1.0000 </r>
       <r>   -6.4487    1.0000 </r>
       <r>   -6.3265    1.0000 </r>
       <r>   -6.3242    1.0000 </r>
       <r>   -6.3181    1.0000 </r>
       <r>   -6.2476    1.0000 </r>
       <r>   -6.1458    1.0000 </r>
       <r>   -5.8775    1.0000 </r>
       <r>   -5.8724    1.0000 </r>
       <r>   -5.8716    1.0000 </r>
       <r>   -5.8009    1.0000 </r>
       <r>   -5.7910    1.0000 </r>
       <r>   -5.7884    1.0000 </r>
       <r>   -5.7871    1.0000 </r>
       <r>   -5.7726    1.0000 </r>
       <r>   -5.7701    1.0000 </r>
       <r>   -5.7695    1.0000 </r>
       <r>   -5.7666    1.0000 </r>
       <r>   -5.5681    1.0000 </r>
       <r>   -5.5644    1.0000 </r>
       <r>   -5.5627    1.0000 </r>
       <r>   -5.4865    1.0000 </r>
       <r>   -5.4850    1.0000 </r>
       <r>   -5.4837    1.0000 </r>
       <r>   -5.4787    1.0000 </r>
       <r>   -5.4459    1.0000 </r>
       <r>   -5.4389    1.0000 </r>
       <r>   -5.4368    1.0000 </r>
       <r>   -5.4074    1.0000 </r>
       <r>   -5.0382    1.0000 </r>
       <r>   -5.0380    1.0000 </r>
       <r>   -5.0379    1.0000 </r>
       <r>   -5.0114    1.0000 </r>
       <r>   -4.9831    1.0000 </r>
       <r>   -4.7707    1.0000 </r>
       <r>   -4.7706    1.0000 </r>
       <r>   -4.7704    1.0000 </r>
       <r>   -4.7425    1.0000 </r>
       <r>   -4.7377    1.0000 </r>
       <r>   -4.7375    1.0000 </r>
       <r>   -4.7338    1.0000 </r>
       <r>   -4.6974    1.0000 </r>
       <r>   -4.6959    1.0000 </r>
       <r>   -4.6923    1.0000 </r>
       <r>   -4.6445    1.0000 </r>
       <r>   -4.6439    1.0000 </r>
       <r>   -4.6409    1.0000 </r>
       <r>   -4.4967    1.0000 </r>
       <r>   -4.4857    1.0000 </r>
       <r>   -4.4277    1.0000 </r>
       <r>   -4.3749    1.0000 </r>
       <r>   -4.3742    1.0000 </r>
       <r>   -4.3671    1.0000 </r>
       <r>   -4.3443    1.0000 </r>
       <r>   -4.2603    1.0000 </r>
       <r>   -4.2498    1.0000 </r>
       <r>   -3.8514    1.0000 </r>
       <r>   -3.8461    1.0000 </r>
       <r>   -3.8453    1.0000 </r>
       <r>   -3.8142    1.0000 </r>
       <r>   -3.7702    1.0000 </r>
       <r>   -3.7676    1.0000 </r>
       <r>   -3.7609    1.0000 </r>
       <r>   -3.7603    1.0000 </r>
       <r>   -3.7603    1.0000 </r>
       <r>   -3.6686    1.0000 </r>
       <r>   -3.6663    1.0000 </r>
       <r>   -3.6545    1.0000 </r>
       <r>   -3.6438    1.0000 </r>
       <r>   -3.3679    1.0000 </r>
       <r>   -3.3662    1.0000 </r>
       <r>   -3.3612    1.0000 </r>
       <r>   -3.3513    1.0000 </r>
       <r>   -3.3476    1.0000 </r>
       <r>   -3.3473    1.0000 </r>
       <r>   -3.2287    1.0000 </r>
       <r>   -3.2054    1.0000 </r>
       <r>   -3.1919    1.0000 </r>
       <r>   -3.1717    1.0000 </r>
       <r>   -3.1698    1.0000 </r>
       <r>   -3.1683    1.0000 </r>
       <r>   -3.0630    1.0000 </r>
       <r>   -3.0616    1.0000 </r>
       <r>   -3.0588    1.0000 </r>
       <r>   -3.0500    1.0000 </r>
       <r>   -3.0321    1.0000 </r>
       <r>   -2.9274    1.0000 </r>
       <r>   -2.9270    1.0000 </r>
       <r>   -2.9267    1.0000 </r>
       <r>   -2.9127    1.0000 </r>
       <r>   -2.7848    1.0000 </r>
       <r>   -2.7789    1.0000 </r>
       <r>   -2.7708    1.0000 </r>
       <r>   -2.6686    1.0000 </r>
       <r>   -2.6685    1.0000 </r>
       <r>   -2.6682    1.0000 </r>
       <r>   -2.4833    1.0000 </r>
       <r>   -2.4831    1.0000 </r>
       <r>   -2.4819    1.0000 </r>
       <r>   -2.2250    1.0000 </r>
       <r>   -2.2231    1.0000 </r>
       <r>   -2.2197    1.0000 </r>
       <r>   -2.2161    1.0000 </r>
       <r>   -2.2119    1.0000 </r>
       <r>   -2.2119    1.0000 </r>
       <r>   -2.1004    1.0000 </r>
       <r>   -2.0884    1.0000 </r>
       <r>   -2.0852    1.0000 </r>
       <r>   -1.9030    1.0000 </r>
       <r>   -1.9025    1.0000 </r>
       <r>   -1.8826    1.0000 </r>
       <r>   -1.6401    1.0000 </r>
       <r>   -1.5185    1.0000 </r>
       <r>   -1.4508    1.0000 </r>
       <r>   -1.4430    1.0000 </r>
       <r>   -1.4380    1.0000 </r>
       <r>   -1.4134    1.0000 </r>
       <r>   -1.4114    1.0000 </r>
       <r>   -1.4025    1.0000 </r>
       <r>   -0.8697    1.0000 </r>
       <r>   -0.8634    1.0000 </r>
       <r>   -0.8610    1.0000 </r>
       <r>   -0.8045    1.0000 </r>
       <r>   -0.8004    1.0000 </r>
       <r>   -0.7992    1.0000 </r>
       <r>   -0.7549    1.0000 </r>
       <r>   -0.7536    1.0000 </r>
       <r>   -0.7464    1.0000 </r>
       <r>   -0.7199    1.0000 </r>
       <r>   -0.7164    1.0000 </r>
       <r>   -0.7127    1.0000 </r>
       <r>   -0.2072    1.0000 </r>
       <r>   -0.2054    1.0000 </r>
       <r>   -0.1998    1.0000 </r>
       <r>   -0.1597    1.0000 </r>
       <r>   -0.1548    1.0000 </r>
       <r>   -0.1539    1.0000 </r>
       <r>   -0.1042    1.0000 </r>
       <r>   -0.1007    1.0000 </r>
       <r>   -0.0996    1.0000 </r>
       <r>   -0.0732    1.0000 </r>
       <r>   -0.0623    1.0000 </r>
       <r>   -0.0616    1.0000 </r>
       <r>   -0.0615    1.0000 </r>
       <r>   -0.0601    1.0000 </r>
       <r>   -0.0598    1.0000 </r>
       <r>    0.0061    1.0000 </r>
       <r>    0.0117    1.0000 </r>
       <r>    0.0142    1.0000 </r>
       <r>    0.0549    1.0000 </r>
       <r>    0.0602    1.0000 </r>
       <r>    0.0629    1.0000 </r>
       <r>    0.1793    1.0000 </r>
       <r>    0.1816    1.0000 </r>
       <r>    0.1840    1.0000 </r>
       <r>    0.2041    1.0000 </r>
       <r>    0.2105    1.0000 </r>
       <r>    0.2116    1.0000 </r>
       <r>    0.2224    1.0000 </r>
       <r>    0.2777    1.0000 </r>
       <r>    0.2827    1.0000 </r>
       <r>    0.2927    1.0000 </r>
       <r>    0.2963    1.0000 </r>
       <r>    0.2983    1.0000 </r>
       <r>    0.3285    1.0000 </r>
       <r>    0.3296    1.0000 </r>
       <r>    0.3297    1.0000 </r>
       <r>    0.3755    1.0000 </r>
       <r>    0.3953    1.0000 </r>
       <r>    0.4036    1.0000 </r>
       <r>    0.4701    1.0000 </r>
       <r>    0.4714    1.0000 </r>
       <r>    0.4720    1.0000 </r>
       <r>    0.5170    1.0000 </r>
       <r>    0.5203    1.0000 </r>
       <r>    0.5217    1.0000 </r>
       <r>    0.6492    1.0000 </r>
       <r>    0.6977    1.0000 </r>
       <r>    0.7050    1.0000 </r>
       <r>    0.7356    1.0000 </r>
       <r>    0.8543    1.0000 </r>
       <r>    0.8563    1.0000 </r>
       <r>    0.8582    1.0000 </r>
       <r>    0.8996    1.0000 </r>
       <r>    0.9001    1.0000 </r>
       <r>    0.9004    1.0000 </r>
       <r>    0.9026    1.0000 </r>
       <r>    0.9474    1.0000 </r>
       <r>    0.9577    1.0000 </r>
       <r>    0.9878    1.0000 </r>
       <r>    0.9903    1.0000 </r>
       <r>    0.9922    1.0000 </r>
       <r>    1.0156    1.0000 </r>
       <r>    1.0160    1.0000 </r>
       <r>    1.0198    1.0000 </r>
       <r>    1.1337    1.0000 </r>
       <r>    1.1931    1.0000 </r>
       <r>    1.2093    1.0000 </r>
       <r>    1.2129    1.0000 </r>
       <r>    1.2793    1.0000 </r>
       <r>    1.2842    1.0000 </r>
       <r>    1.2871    1.0000 </r>
       <r>    1.3491    1.0000 </r>
       <r>    1.3733    1.0000 </r>
[...]
       <r>    -2.8395    25.4816   244.7868 </r>
       <r>    -2.7859    34.9883   246.6624 </r>
       <r>    -2.7323    77.7110   250.8284 </r>
       <r>    -2.6787    51.5165   253.5901 </r>
       <r>    -2.6251    49.6169   256.2500 </r>
       <r>    -2.5715     0.0000   256.2500 </r>
       <r>    -2.5179    69.4114   259.9710 </r>
       <r>    -2.4643    37.9341   262.0046 </r>
       <r>    -2.4106    57.6218   265.0936 </r>
       <r>    -2.3570    50.9945   267.8273 </r>
       <r>    -2.3034   103.8406   273.3941 </r>
       <r>    -2.2498    34.6207   275.2500 </r>
       <r>    -2.1962    55.4403   278.2221 </r>
       <r>    -2.1426    27.5522   279.6991 </r>
       <r>    -2.0890     6.6637   280.0563 </r>
       <r>    -2.0354    36.2541   281.9998 </r>
       <r>    -1.9818     0.0648   282.0034 </r>
       <r>    -1.9282    55.8957   284.9999 </r>
       <r>    -1.8746    39.3194   287.1078 </r>
       <r>    -1.8210    58.5612   290.2472 </r>
       <r>    -1.7673    46.3882   292.7339 </r>
       <r>    -1.7137     9.6326   293.2503 </r>
       <r>    -1.6601    44.3895   295.6300 </r>
       <r>    -1.6065   100.1034   300.9963 </r>
       <r>    -1.5529    65.5439   304.5101 </r>
       <r>    -1.4993     9.0734   304.9965 </r>
       <r>    -1.4457     3.4563   305.1818 </r>
       <r>    -1.3921    37.5611   307.1953 </r>
       <r>    -1.3385     1.0197   307.2500 </r>
       <r>    -1.2849     0.0001   307.2500 </r>
       <r>    -1.2313    27.9593   308.7489 </r>
       <r>    -1.1777    27.9998   310.2499 </r>
       <r>    -1.1240     0.0012   310.2500 </r>
       <r>    -1.0704     0.4287   310.2730 </r>
       <r>    -1.0168    27.5521   311.7500 </r>
       <r>    -0.9632     0.0000   311.7500 </r>
       <r>    -0.9096     0.0000   311.7500 </r>
       <r>    -0.8560    10.9806   312.3386 </r>
       <r>    -0.8024    36.7727   314.3100 </r>
       <r>    -0.7488    42.3362   316.5795 </r>
       <r>    -0.6952    22.9839   317.8117 </r>
       <r>    -0.6416    57.9654   320.9191 </r>
       <r>    -0.5880    29.5176   322.5015 </r>
       <r>    -0.5344    23.2889   323.7500 </r>
       <r>    -0.4807     0.0000   323.7500 </r>
       <r>    -0.4271     0.0010   323.7501 </r>
       <r>    -0.3735     4.8365   324.0093 </r>
       <r>    -0.3199    59.8254   327.2165 </r>
       <r>    -0.2663    76.5119   331.3181 </r>
       <r>    -0.2127   137.9290   338.7123 </r>
       <r>    -0.1591    40.4184   340.8790 </r>
       <r>    -0.1055   114.4483   347.0144 </r>
       <r>    -0.0519    82.7081   351.4482 </r>
       <r>     0.0017   101.5560   356.8925 </r>
       <r>     0.0553    64.7624   360.3643 </r>
       <r>     0.1089    22.9052   361.5922 </r>
       <r>     0.1626    63.5849   365.0009 </r>
       <r>     0.2162   104.0315   370.5778 </r>
       <r>     0.2698   134.4323   377.7846 </r>
       <r>     0.3234    98.6667   383.0740 </r>
       <r>     0.3770    96.7202   388.2590 </r>
       <r>     0.4306    86.9794   392.9218 </r>
       <r>     0.4842   132.5797   400.0291 </r>
       <r>     0.5378    54.7241   402.9628 </r>
       <r>     0.5914    50.8687   405.6898 </r>
       <r>     0.6450    43.1952   408.0055 </r>
       <r>     0.6986    51.6740   410.7756 </r>
       <r>     0.7522   113.6078   416.8659 </r>
       <r>     0.8059    99.6695   422.2090 </r>
       <r>     0.8595   131.0249   429.2331 </r>
       <r>     0.9131   165.8330   438.1231 </r>
       <r>     0.9667   122.9982   444.7168 </r>
       <r>     1.0203   119.2011   451.1070 </r>
       <r>     1.0739    86.9046   455.7658 </r>
       <r>     1.1275   142.8606   463.4243 </r>
       <r>     1.1811    68.9261   467.1193 </r>
       <r>     1.2347   131.7444   474.1819 </r>
       <r>     1.2883   108.5238   479.9997 </r>
       <r>     1.3419   103.9470   485.5721 </r>
       <r>     1.3955   106.2000   491.2653 </r>
       <r>     1.4491    92.7705   496.2386 </r>
       <r>     1.5028   137.1835   503.5928 </r>
       <r>     1.5564   164.3646   512.4041 </r>
       <r>     1.6100   104.9527   518.0305 </r>
       <r>     1.6636   122.3603   524.5900 </r>
       <r>     1.7172    96.2176   529.7480 </r>
       <r>     1.7708   115.8408   535.9581 </r>
       <r>     1.8244    91.0325   540.8382 </r>
       <r>     1.8780   102.4015   546.3277 </r>
       <r>     1.9316    80.5037   550.6434 </r>
       <r>     1.9852    85.5850   555.2315 </r>
       <r>     2.0388    72.6437   559.1258 </r>
       <r>     2.0924    77.9726   563.3058 </r>
       <r>     2.1461   150.0563   571.3501 </r>
       <r>     2.1997    77.7016   575.5156 </r>
       <r>     2.2533   110.1012   581.4179 </r>
       <r>     2.3069    97.7063   586.6557 </r>
       <r>     2.3605    55.2713   589.6187 </r>
       <r>     2.4141    88.0062   594.3366 </r>
       <r>     2.4677    74.2853   598.3189 </r>
       <r>     2.5213    67.1819   601.9204 </r>
       <r>     2.5749    55.6669   604.9046 </r>
       <r>     2.6285    85.7493   609.5015 </r>
       <r>     2.6821   116.8848   615.7675 </r>
       <r>     2.7357    65.0861   619.2566 </r>
       <r>     2.7894    83.2709   623.7207 </r>
       <r>     2.8430    75.6631   627.7768 </r>
       <r>     2.8966    72.8729   631.6834 </r>
       <r>     2.9502    19.8609   632.7482 </r>
       <r>     3.0038    32.5519   634.4933 </r>
       <r>     3.0574    90.9641   639.3697 </r>
       <r>     3.1110    16.4558   640.2519 </r>
       <r>     3.1646    87.7216   644.9545 </r>
       <r>     3.2182    81.3442   649.3152 </r>
       <r>     3.2718    25.3345   650.6733 </r>
       <r>     3.3254    64.7094   654.1423 </r>
       <r>     3.3790    88.4634   658.8846 </r>
       <r>     3.4327    32.0891   660.6049 </r>
       <r>     3.4863    57.9818   663.7133 </r>
       <r>     3.5399    28.6538   665.2493 </r>
       <r>     3.5935    53.7121   668.1287 </r>
       <r>     3.6471    72.0858   671.9932 </r>
       <r>     3.7007    24.8534   673.3255 </r>
       <r>     3.7543    26.5742   674.7501 </r>
       <r>     3.8079    43.6144   677.0882 </r>
       <r>     3.8615     5.8364   677.4011 </r>
       <r>     3.9151    29.8167   678.9995 </r>
       <r>     3.9687     6.5727   679.3519 </r>
       <r>     4.0223    57.3643   682.4271 </r>
       <r>     4.0760     6.7854   682.7909 </r>
       <r>     4.1296    53.6371   685.6662 </r>
       <r>     4.1832    80.0084   689.9554 </r>
       <r>     4.2368     6.5891   690.3086 </r>
       <r>     4.2904    61.0182   693.5797 </r>
       <r>     4.3440    28.3890   695.1016 </r>
       <r>     4.3976    45.7044   697.5518 </r>
       <r>     4.4512    13.8683   698.2952 </r>
       <r>     4.5048    49.5926   700.9538 </r>
       <r>     4.5584   102.0281   706.4234 </r>
       <r>     4.6120     6.3226   706.7623 </r>
       <r>     4.6656    63.4968   710.1663 </r>
       <r>     4.7192    81.9158   714.5577 </r>
       <r>     4.7729   109.8776   720.4480 </r>
       <r>     4.8265    67.8833   724.0872 </r>
       <r>     4.8801    54.9636   727.0337 </r>
       <r>     4.9337    32.4072   728.7710 </r>
       <r>     4.9873    58.7706   731.9216 </r>
       <r>     5.0409    65.2547   735.4198 </r>
       <r>     5.0945    59.9831   738.6354 </r>
       <r>     5.1481    99.5890   743.9742 </r>
       <r>     5.2017   135.2329   751.2238 </r>
       <r>     5.2553    49.0801   753.8549 </r>
       <r>     5.3089   101.0905   759.2742 </r>
       <r>     5.3625    84.4877   763.8035 </r>
       <r>     5.4162    82.1100   768.2053 </r>
       <r>     5.4698    77.4372   772.3566 </r>
       <r>     5.5234    84.7991   776.9025 </r>
       <r>     5.5770   105.0388   782.5335 </r>
       <r>     5.6306    98.0112   787.7877 </r>
       <r>     5.6842    88.0628   792.5086 </r>
       <r>     5.7378   113.7432   798.6062 </r>
       <r>     5.7914    83.0670   803.0592 </r>
       <r>     5.8450    81.1692   807.4106 </r>
       <r>     5.8986    10.9947   808.0000 </r>
       <r>     5.9522     0.0000   808.0000 </r>
       <r>     6.0058     0.0000   808.0000 </r>
       <r>     6.0595     0.0000   808.0000 </r>
       <r>     6.1131     0.0000   808.0000 </r>
       <r>     6.1667     0.0000   808.0000 </r>
       <r>     6.2203     0.0000   808.0000 </r>
       <r>     6.2739     0.0000   808.0000 </r>
       <r>     6.3275     0.0000   808.0000 </r>
       <r>     6.3811     0.0000   808.0000 </r>
       <r>     6.4347     0.0000   808.0000 </r>
       <r>     6.4883     0.0000   808.0000 </r>
       <r>     6.5419     0.0000   808.0000 </r>
       <r>     6.5955     0.0000   808.0000 </r>
      </set>
     </set>
    </array>
   </total>
  </dos>
 </calculation>
 <structure name="finalpos" >
  <crystal>
   <varray name="basis" >
    <v>      16.00267601       0.00000000       0.00000000 </v>
    <v>       8.00133800      13.85872459       0.00000000 </v>
    <v>       0.00000000       0.00000000      20.30401230 </v>
   </varray>
   <i name="volume">   4502.95643002 </i>
   <varray name="rec_basis" >
    <v>       0.06248955      -0.03607836       0.00000000 </v>
    <v>       0.00000000       0.07215671       0.00000000 </v>
    <v>       0.00000000       0.00000000       0.04925135 </v>
   </varray>
  </crystal>
  <varray name="positions" >
   <v>       0.31088322       0.31088316       0.32176235 </v>
   <v>       0.97755003       0.97755003       0.00000002 </v>
   <v>       0.64421654       0.64421660       0.16088121 </v>
   <v>       0.81088316       0.31088316       0.32176235 </v>
   <v>       0.47755000       0.97755003       0.00000003 </v>
   <v>       0.14421658       0.64421660       0.16088121 </v>
   <v>       0.31088316       0.81088316       0.32176235 </v>
   <v>       0.97755003       0.47755000       0.00000003 </v>
   <v>       0.64421660       0.14421658       0.16088121 </v>
   <v>       0.81088316       0.81088316       0.32176235 </v>
   <v>       0.47755000       0.47755000       0.00000000 </v>
   <v>       0.14421657       0.14421657       0.16088118 </v>
   <v>       0.47754979       0.47754973       0.36198267 </v>
   <v>       0.14421669       0.14421661       0.04022033 </v>
   <v>       0.81088328       0.81088322       0.20110148 </v>
   <v>       0.97754979       0.47754967       0.36198267 </v>
   <v>       0.64421666       0.14421663       0.04022033 </v>
   <v>       0.31088328       0.81088322       0.20110148 </v>
   <v>       0.47754967       0.97754979       0.36198267 </v>
   <v>       0.14421663       0.64421666       0.04022033 </v>
   <v>       0.81088322       0.31088328       0.20110148 </v>
   <v>       0.97754967       0.97754979       0.36198264 </v>
   <v>       0.64421660       0.64421666       0.04022033 </v>
   <v>       0.31088316       0.31088325       0.20110145 </v>
   <v>       0.56088316       0.56088316       0.32176238 </v>
   <v>       0.22755001       0.22755001       0.00000003 </v>
   <v>       0.89421660       0.89421660       0.16088118 </v>
   <v>       0.06088321       0.56088316       0.32176241 </v>
   <v>       0.72755003       0.22755005       0.00000003 </v>
   <v>       0.39421660       0.89421660       0.16088121 </v>
   <v>       0.56088316       0.06088318       0.32176235 </v>
   <v>       0.22755001       0.72754997       0.00000001 </v>
   <v>       0.89421654       0.39421660       0.16088118 </v>
   <v>       0.06088319       0.06088311       0.32176235 </v>
   <v>       0.72755003       0.72754991       0.00000002 </v>
   <v>       0.39421663       0.39421657       0.16088121 </v>
   <v>       0.72754979       0.72754979       0.36198264 </v>
   <v>       0.39421663       0.39421663       0.04022027 </v>
   <v>       0.06088319       0.06088319       0.20110145 </v>
   <v>       0.22754979       0.72754979       0.36198264 </v>
   <v>       0.89421660       0.39421663       0.04022029 </v>
   <v>       0.56088316       0.06088319       0.20110145 </v>
   <v>       0.72754979       0.22754985       0.36198264 </v>
   <v>       0.39421663       0.89421666       0.04022029 </v>
   <v>       0.06088320       0.56088328       0.20110145 </v>
   <v>       0.22754985       0.22754985       0.36198264 </v>
   <v>       0.89421672       0.89421666       0.04022028 </v>
   <v>       0.56088328       0.56088328       0.20110145 </v>
   <v>       0.31088316       0.56088316       0.32176235 </v>
   <v>       0.97755003       0.22755001       0.00000002 </v>
   <v>       0.64421654       0.89421660       0.16088121 </v>
   <v>       0.81088316       0.56088316       0.32176238 </v>
   <v>       0.47755003       0.22755001       0.00000003 </v>
   <v>       0.14421660       0.89421660       0.16088121 </v>
   <v>       0.31088316       0.06088318       0.32176235 </v>
   <v>       0.97755003       0.72754997       0.00000003 </v>
   <v>       0.64421660       0.39421660       0.16088121 </v>
   <v>       0.81088316       0.06088309       0.32176235 </v>
   <v>       0.47755000       0.72754991       0.00000002 </v>
   <v>       0.14421661       0.39421654       0.16088118 </v>
   <v>       0.47754979       0.72754979       0.36198264 </v>
   <v>       0.14421661       0.39421660       0.04022029 </v>
   <v>       0.81088316       0.06088319       0.20110145 </v>
   <v>       0.97754973       0.72754979       0.36198264 </v>
   <v>       0.64421660       0.39421663       0.04022029 </v>
   <v>       0.31088316       0.06088319       0.20110145 </v>
   <v>       0.47754973       0.22754985       0.36198261 </v>
   <v>       0.14421663       0.89421666       0.04022028 </v>
   <v>       0.81088316       0.56088328       0.20110145 </v>
   <v>       0.97754979       0.22754985       0.36198261 </v>
   <v>       0.64421666       0.89421666       0.04022027 </v>
   <v>       0.31088322       0.56088328       0.20110145 </v>
   <v>       0.56088311       0.31088316       0.32176235 </v>
   <v>       0.22755001       0.97755003       0.00000002 </v>
   <v>       0.89421660       0.64421660       0.16088121 </v>
   <v>       0.06088318       0.31088316       0.32176238 </v>
   <v>       0.72754997       0.97755003       0.00000003 </v>
   <v>       0.39421663       0.64421660       0.16088121 </v>
   <v>       0.56088316       0.81088316       0.32176238 </v>
   <v>       0.22755000       0.47755000       0.00000003 </v>
   <v>       0.89421660       0.14421658       0.16088121 </v>
   <v>       0.06088318       0.81088311       0.32176235 </v>
   <v>       0.72754997       0.47754994       0.00000001 </v>
   <v>       0.39421660       0.14421654       0.16088118 </v>
   <v>       0.72754979       0.47754985       0.36198267 </v>
   <v>       0.39421669       0.14421672       0.04022032 </v>
   <v>       0.06088328       0.81088334       0.20110148 </v>
   <v>       0.22754967       0.47754985       0.36198267 </v>
   <v>       0.89421666       0.14421673       0.04022032 </v>
   <v>       0.56088328       0.81088334       0.20110145 </v>
   <v>       0.72754979       0.97754985       0.36198264 </v>
   <v>       0.39421669       0.64421672       0.04022033 </v>
   <v>       0.06088328       0.31088337       0.20110148 </v>
   <v>       0.22754973       0.97754979       0.36198267 </v>
   <v>       0.89421666       0.64421666       0.04022032 </v>
   <v>       0.56088328       0.31088328       0.20110145 </v>
   <v>       0.14465409       0.39010650       0.84244829 </v>
   <v>       0.14465409       0.05677319       0.47340387 </v>
   <v>       0.14465409       0.72343981       0.65792608 </v>
   <v>       0.47798744       0.72343987       0.84244823 </v>
   <v>       0.47798744       0.39010653       0.47340387 </v>
   <v>       0.47798744       0.05677319       0.65792608 </v>
   <v>       0.81132078       0.05677319       0.84244829 </v>
   <v>       0.81132078       0.72343987       0.47340387 </v>
   <v>       0.81132078       0.39010653       0.65792608 </v>
   <v>       0.47798744       0.39010656       0.88857889 </v>
   <v>       0.47798744       0.05677319       0.51953441 </v>
   <v>       0.47798744       0.72343981       0.70405662 </v>
   <v>       0.14465409       0.05677319       0.88857889 </v>
   <v>       0.14465409       0.72343981       0.51953441 </v>
   <v>       0.14465409       0.39010647       0.70405662 </v>
   <v>       0.81132084       0.72343981       0.88857889 </v>
   <v>       0.81132084       0.39010647       0.51953441 </v>
   <v>       0.81132084       0.05677307       0.70405662 </v>
   <v>       0.64465404       0.39010650       0.84244823 </v>
   <v>       0.64465404       0.05677319       0.47340387 </v>
   <v>       0.64465404       0.72343981       0.65792608 </v>
   <v>       0.31132078       0.05677319       0.84244823 </v>
   <v>       0.31132078       0.72343987       0.47340384 </v>
   <v>       0.31132078       0.39010653       0.65792608 </v>
   <v>       0.97798747       0.72343987       0.84244829 </v>
   <v>       0.97798747       0.39010656       0.47340387 </v>
   <v>       0.97798747       0.05677319       0.65792614 </v>
   <v>       0.31132075       0.72343993       0.88857889 </v>
   <v>       0.31132078       0.39010653       0.51953441 </v>
   <v>       0.31132078       0.05677319       0.70405662 </v>
   <v>       0.97798747       0.39010656       0.88857883 </v>
   <v>       0.97798747       0.05677319       0.51953435 </v>
   <v>       0.97798747       0.72343981       0.70405656 </v>
   <v>       0.64465409       0.05677319       0.88857889 </v>
   <v>       0.64465409       0.72343981       0.51953435 </v>
   <v>       0.64465409       0.39010650       0.70405656 </v>
   <v>       0.31132078       0.55677319       0.84244829 </v>
   <v>       0.31132078       0.22343987       0.47340387 </v>
   <v>       0.31132078       0.89010650       0.65792608 </v>
   <v>       0.64465404       0.89010650       0.84244829 </v>
   <v>       0.64465404       0.55677319       0.47340387 </v>
   <v>       0.64465404       0.22343981       0.65792608 </v>
   <v>       0.97798735       0.22343990       0.84244823 </v>
   <v>       0.97798735       0.89010662       0.47340381 </v>
   <v>       0.97798735       0.55677331       0.65792602 </v>
   <v>       0.64465404       0.55677325       0.88857889 </v>
   <v>       0.64465404       0.22343984       0.51953441 </v>
   <v>       0.64465404       0.89010650       0.70405662 </v>
   <v>       0.31132072       0.22343990       0.88857883 </v>
   <v>       0.31132072       0.89010656       0.51953435 </v>
   <v>       0.31132072       0.55677319       0.70405656 </v>
   <v>       0.97798747       0.89010650       0.88857889 </v>
   <v>       0.97798747       0.55677313       0.51953441 </v>
   <v>       0.97798747       0.22343978       0.70405662 </v>
   <v>       0.14465409       0.89010650       0.84244829 </v>
   <v>       0.14465409       0.55677313       0.47340387 </v>
   <v>       0.14465409       0.22343981       0.65792608 </v>
   <v>       0.81132078       0.55677319       0.84244823 </v>
   <v>       0.81132078       0.22343984       0.47340387 </v>
   <v>       0.81132078       0.89010650       0.65792608 </v>
   <v>       0.47798744       0.22343972       0.84244829 </v>
   <v>       0.47798744       0.89010644       0.47340387 </v>
   <v>       0.47798744       0.55677313       0.65792602 </v>
   <v>       0.14465409       0.55677325       0.88857889 </v>
   <v>       0.14465409       0.22343990       0.51953441 </v>
   <v>       0.14465409       0.89010656       0.70405662 </v>
   <v>       0.47798744       0.89010656       0.88857889 </v>
   <v>       0.47798744       0.55677319       0.51953441 </v>
   <v>       0.47798744       0.22343987       0.70405662 </v>
   <v>       0.81132078       0.22343993       0.88857889 </v>
   <v>       0.81132078       0.89010656       0.51953447 </v>
   <v>       0.81132078       0.55677325       0.70405662 </v>
  </varray>
 </structure>
</modeling>
