Si and Ge interface calculation         
           1
    16.002676    0.000000    0.000000
     8.001338   13.858725    0.000000
     0.000000    0.000000   20.304012
   Ge   Sn
    96    72
Direct configuration=     1
   0.31088322  0.31088316  0.32176235
   0.97755003  0.97755003  0.00000002
   0.64421654  0.64421660  0.16088121
   0.81088316  0.31088316  0.32176235
   0.47755000  0.97755003  0.00000003
   0.14421658  0.64421660  0.16088121
   0.31088316  0.81088316  0.32176235
   0.97755003  0.47755000  0.00000003
   0.64421660  0.14421658  0.16088121
   0.81088316  0.81088316  0.32176235
   0.47755000  0.47755000  0.00000000
   0.14421657  0.14421657  0.16088118
   0.47754979  0.47754973  0.36198267
   0.14421669  0.14421661  0.04022033
   0.81088328  0.81088322  0.20110148
   0.97754979  0.47754967  0.36198267
   0.64421666  0.14421663  0.04022033
   0.31088328  0.81088322  0.20110148
   0.47754967  0.97754979  0.36198267
   0.14421663  0.64421666  0.04022033
   0.81088322  0.31088328  0.20110148
   0.97754967  0.97754979  0.36198264
   0.64421660  0.64421666  0.04022033
   0.31088316  0.31088325  0.20110145
   0.56088316  0.56088316  0.32176238
   0.22755001  0.22755001  0.00000003
   0.89421660  0.89421660  0.16088118
   0.06088321  0.56088316  0.32176241
   0.72755003  0.22755005  0.00000003
   0.39421660  0.89421660  0.16088121
   0.56088316  0.06088318  0.32176235
   0.22755001  0.72754997  0.00000001
   0.89421654  0.39421660  0.16088118
   0.06088319  0.06088311  0.32176235
   0.72755003  0.72754991  0.00000002
   0.39421663  0.39421657  0.16088121
   0.72754979  0.72754979  0.36198264
   0.39421663  0.39421663  0.04022027
   0.06088319  0.06088319  0.20110145
   0.22754979  0.72754979  0.36198264
   0.89421660  0.39421663  0.04022029
   0.56088316  0.06088319  0.20110145
   0.72754979  0.22754985  0.36198264
   0.39421663  0.89421666  0.04022029
   0.06088320  0.56088328  0.20110145
   0.22754985  0.22754985  0.36198264
   0.89421672  0.89421666  0.04022028
   0.56088328  0.56088328  0.20110145
   0.31088316  0.56088316  0.32176235
   0.97755003  0.22755001  0.00000002
   0.64421654  0.89421660  0.16088121
   0.81088316  0.56088316  0.32176238
   0.47755003  0.22755001  0.00000003
   0.14421660  0.89421660  0.16088121
   0.31088316  0.06088318  0.32176235
   0.97755003  0.72754997  0.00000003
   0.64421660  0.39421660  0.16088121
   0.81088316  0.06088309  0.32176235
   0.47755000  0.72754991  0.00000002
   0.14421661  0.39421654  0.16088118
   0.47754979  0.72754979  0.36198264
   0.14421661  0.39421660  0.04022029
   0.81088316  0.06088319  0.20110145
   0.97754973  0.72754979  0.36198264
   0.64421660  0.39421663  0.04022029
   0.31088316  0.06088319  0.20110145
   0.47754973  0.22754985  0.36198261
   0.14421663  0.89421666  0.04022028
   0.81088316  0.56088328  0.20110145
   0.97754979  0.22754985  0.36198261
   0.64421666  0.89421666  0.04022027
   0.31088322  0.56088328  0.20110145
   0.56088311  0.31088316  0.32176235
   0.22755001  0.97755003  0.00000002
   0.89421660  0.64421660  0.16088121
   0.06088318  0.31088316  0.32176238
   0.72754997  0.97755003  0.00000003
   0.39421663  0.64421660  0.16088121
   0.56088316  0.81088316  0.32176238
   0.22755000  0.47755000  0.00000003
   0.89421660  0.14421658  0.16088121
   0.06088318  0.81088311  0.32176235
   0.72754997  0.47754994  0.00000001
   0.39421660  0.14421654  0.16088118
   0.72754979  0.47754985  0.36198267
   0.39421669  0.14421672  0.04022032
   0.06088328  0.81088334  0.20110148
   0.22754967  0.47754985  0.36198267
   0.89421666  0.14421673  0.04022032
   0.56088328  0.81088334  0.20110145
   0.72754979  0.97754985  0.36198264
   0.39421669  0.64421672  0.04022033
   0.06088328  0.31088337  0.20110148
   0.22754973  0.97754979  0.36198267
   0.89421666  0.64421666  0.04022032
   0.56088328  0.31088328  0.20110145
   0.14465409  0.39010650  0.84244829
   0.14465409  0.05677319  0.47340387
   0.14465409  0.72343981  0.65792608
   0.47798744  0.72343987  0.84244823
   0.47798744  0.39010653  0.47340387
   0.47798744  0.05677319  0.65792608
   0.81132078  0.05677319  0.84244829
   0.81132078  0.72343987  0.47340387
   0.81132078  0.39010653  0.65792608
   0.47798744  0.39010656  0.88857889
   0.47798744  0.05677319  0.51953441
   0.47798744  0.72343981  0.70405662
   0.14465409  0.05677319  0.88857889
   0.14465409  0.72343981  0.51953441
   0.14465409  0.39010647  0.70405662
   0.81132084  0.72343981  0.88857889
   0.81132084  0.39010647  0.51953441
   0.81132084  0.05677307  0.70405662
   0.64465404  0.39010650  0.84244823
   0.64465404  0.05677319  0.47340387
   0.64465404  0.72343981  0.65792608
   0.31132078  0.05677319  0.84244823
   0.31132078  0.72343987  0.47340384
   0.31132078  0.39010653  0.65792608
   0.97798747  0.72343987  0.84244829
   0.97798747  0.39010656  0.47340387
   0.97798747  0.05677319  0.65792614
   0.31132075  0.72343993  0.88857889
   0.31132078  0.39010653  0.51953441
   0.31132078  0.05677319  0.70405662
   0.97798747  0.39010656  0.88857883
   0.97798747  0.05677319  0.51953435
   0.97798747  0.72343981  0.70405656
   0.64465409  0.05677319  0.88857889
   0.64465409  0.72343981  0.51953435
   0.64465409  0.39010650  0.70405656
   0.31132078  0.55677319  0.84244829
   0.31132078  0.22343987  0.47340387
   0.31132078  0.89010650  0.65792608
   0.64465404  0.89010650  0.84244829
   0.64465404  0.55677319  0.47340387
   0.64465404  0.22343981  0.65792608
   0.97798735  0.22343990  0.84244823
   0.97798735  0.89010662  0.47340381
   0.97798735  0.55677331  0.65792602
   0.64465404  0.55677325  0.88857889
   0.64465404  0.22343984  0.51953441
   0.64465404  0.89010650  0.70405662
   0.31132072  0.22343990  0.88857883
   0.31132072  0.89010656  0.51953435
   0.31132072  0.55677319  0.70405656
   0.97798747  0.89010650  0.88857889
   0.97798747  0.55677313  0.51953441
   0.97798747  0.22343978  0.70405662
   0.14465409  0.89010650  0.84244829
   0.14465409  0.55677313  0.47340387
   0.14465409  0.22343981  0.65792608
   0.81132078  0.55677319  0.84244823
   0.81132078  0.22343984  0.47340387
   0.81132078  0.89010650  0.65792608
   0.47798744  0.22343972  0.84244829
   0.47798744  0.89010644  0.47340387
   0.47798744  0.55677313  0.65792602
   0.14465409  0.55677325  0.88857889
   0.14465409  0.22343990  0.51953441
   0.14465409  0.89010656  0.70405662
   0.47798744  0.89010656  0.88857889
   0.47798744  0.55677319  0.51953441
   0.47798744  0.22343987  0.70405662
   0.81132078  0.22343993  0.88857889
   0.81132078  0.89010656  0.51953447
   0.81132078  0.55677325  0.70405662
