  96  96   0   0
  0.2924478E+02  0.1131560E-08  0.1789154E-08  0.1386738E-08  0.5000000E-15
  1.000000000000000E-004
  CAR 
 Si and Ge interface calculation         
      6.00480700    -10.53657316  301      3.22137146      1.00000000
    -10.537  0.0000E+00  0.0000E+00  0.0000E+00  0.0000E+00
    -10.481  0.0000E+00  0.0000E+00  0.0000E+00  0.0000E+00
    -10.426  0.0000E+00  0.0000E+00  0.0000E+00  0.0000E+00
    -10.371  0.0000E+00  0.0000E+00  0.0000E+00  0.0000E+00
    -10.316  0.0000E+00  0.0000E+00  0.0000E+00  0.0000E+00
    -10.261  0.0000E+00  0.0000E+00  0.0000E+00  0.0000E+00
    -10.206  0.0000E+00  0.0000E+00  0.0000E+00  0.0000E+00
    -10.151  0.0000E+00  0.0000E+00  0.0000E+00  0.0000E+00
    -10.095  0.0000E+00  0.0000E+00  0.0000E+00  0.0000E+00
    -10.040  0.0000E+00  0.0000E+00  0.0000E+00  0.0000E+00
     -9.985  0.0000E+00  0.0000E+00  0.0000E+00  0.0000E+00
     -9.930  0.0000E+00  0.0000E+00  0.0000E+00  0.0000E+00
     -9.875  0.0000E+00  0.0000E+00  0.0000E+00  0.0000E+00
     -9.820  0.2105E-05  0.7981E-07  0.1161E-06  0.4401E-08
     -9.765  0.2830E+02  0.2224E+02  0.1561E+01  0.1226E+01
     -9.710  0.4424E+02  0.5029E+02  0.4000E+01  0.3999E+01
     -9.654  0.0000E+00  0.1046E-01  0.4000E+01  0.4000E+01
     -9.599  0.0000E+00  0.0000E+00  0.4000E+01  0.4000E+01
     -9.544  0.0000E+00  0.0000E+00  0.4000E+01  0.4000E+01
     -9.489  0.0000E+00  0.0000E+00  0.4000E+01  0.4000E+01
     -9.434  0.0000E+00  0.0000E+00  0.4000E+01  0.4000E+01
     -9.379  0.0000E+00  0.0000E+00  0.4000E+01  0.4000E+01
     -9.324  0.0000E+00  0.0000E+00  0.4000E+01  0.4000E+01
     -9.268  0.0000E+00  0.0000E+00  0.4000E+01  0.4000E+01
     -9.213  0.2357E-08  0.4657E-11  0.4000E+01  0.4000E+01
     -9.158  0.1528E+02  0.1012E+02  0.4843E+01  0.4558E+01
     -9.103  0.4874E+02  0.4845E+02  0.7530E+01  0.7229E+01
     -9.048  0.8521E+01  0.1398E+02  0.8000E+01  0.8000E+01
     -8.993  0.0000E+00  0.0000E+00  0.8000E+01  0.8000E+01
     -8.938  0.0000E+00  0.0000E+00  0.8000E+01  0.8000E+01
     -8.882  0.0000E+00  0.0000E+00  0.8000E+01  0.8000E+01
     -8.827  0.0000E+00  0.0000E+00  0.8000E+01  0.8000E+01
     -8.772  0.0000E+00  0.0000E+00  0.8000E+01  0.8000E+01
     -8.717  0.1775E-09  0.2936E-13  0.8000E+01  0.8000E+01
     -8.662  0.1459E+02  0.7358E+01  0.8804E+01  0.8406E+01
     -8.607  0.7232E+01  0.1110E+02  0.9203E+01  0.9018E+01
     -8.552  0.3259E+02  0.3595E+02  0.1100E+02  0.1100E+02
     -8.496  0.7162E-08  0.2706E-11  0.1100E+02  0.1100E+02
     -8.441  0.1720E+02  0.1242E+02  0.1195E+02  0.1168E+02
     -8.386  0.9389E+00  0.5714E+01  0.1200E+02  0.1200E+02
     -8.331  0.0000E+00  0.0000E+00  0.1200E+02  0.1200E+02
     -8.276  0.1175E-13  0.0000E+00  0.1200E+02  0.1200E+02
     -8.221  0.2327E+01  0.4807E+00  0.1213E+02  0.1203E+02
     -8.166  0.1581E+02  0.1754E+02  0.1300E+02  0.1299E+02
     -8.111  0.1985E+01  0.2797E+00  0.1311E+02  0.1301E+02
     -8.055  0.1299E+02  0.1221E+02  0.1383E+02  0.1368E+02
     -8.000  0.2130E+02  0.2386E+02  0.1500E+02  0.1500E+02
     -7.945  0.1685E+02  0.1358E+02  0.1593E+02  0.1575E+02
     -7.890  0.1476E+02  0.8190E+01  0.1674E+02  0.1620E+02
     -7.835  0.3345E+02  0.3810E+02  0.1859E+02  0.1830E+02
     -7.780  0.1437E+01  0.6663E+01  0.1867E+02  0.1867E+02
     -7.725  0.1162E+02  0.6661E+01  0.1931E+02  0.1903E+02
     -7.669  0.1263E+02  0.1752E+02  0.2000E+02  0.2000E+02
     -7.614  0.1806E+02  0.1813E+02  0.2100E+02  0.2100E+02
     -7.559  0.7773E-03  0.7441E-02  0.2100E+02  0.2100E+02
     -7.504  0.1251E+02  0.1205E+02  0.2169E+02  0.2166E+02
     -7.449  0.2376E+02  0.2422E+02  0.2300E+02  0.2300E+02
     -7.394  0.5718E+01  0.4492E+01  0.2332E+02  0.2325E+02
     -7.339  0.3521E+02  0.3165E+02  0.2526E+02  0.2499E+02
     -7.283  0.3131E+02  0.2795E+02  0.2698E+02  0.2653E+02
     -7.228  0.1239E+02  0.2055E+02  0.2767E+02  0.2767E+02
     -7.173  0.2068E+02  0.1596E+02  0.2881E+02  0.2855E+02
     -7.118  0.6902E+01  0.1041E+02  0.2919E+02  0.2912E+02
     -7.063  0.3100E+02  0.2294E+02  0.3090E+02  0.3039E+02
     -7.008  0.3758E+02  0.4009E+02  0.3297E+02  0.3260E+02
     -6.953  0.1266E+02  0.1941E+02  0.3367E+02  0.3367E+02
     -6.897  0.2017E+02  0.1481E+02  0.3478E+02  0.3448E+02
     -6.842  0.2299E+02  0.2337E+02  0.3605E+02  0.3577E+02
     -6.787  0.2788E+02  0.2825E+02  0.3758E+02  0.3733E+02
     -6.732  0.1660E+02  0.2098E+02  0.3850E+02  0.3849E+02
     -6.677  0.1349E+02  0.1193E+02  0.3924E+02  0.3914E+02
     -6.622  0.3166E+02  0.3029E+02  0.4099E+02  0.4081E+02
     -6.567  0.1678E+02  0.1643E+02  0.4191E+02  0.4172E+02
     -6.512  0.2216E+02  0.1990E+02  0.4314E+02  0.4282E+02
     -6.456  0.3968E+02  0.3868E+02  0.4532E+02  0.4495E+02
     -6.401  0.3105E+02  0.3432E+02  0.4704E+02  0.4684E+02
     -6.346  0.4211E+02  0.4062E+02  0.4936E+02  0.4908E+02
     -6.291  0.1149E+02  0.1579E+02  0.4999E+02  0.4995E+02
     -6.236  0.1233E+02  0.1044E+02  0.5067E+02  0.5053E+02
     -6.181  0.2938E+02  0.2866E+02  0.5229E+02  0.5211E+02
     -6.126  0.2180E+02  0.2371E+02  0.5349E+02  0.5342E+02
     -6.070  0.2065E+02  0.1794E+02  0.5463E+02  0.5440E+02
     -6.015  0.4255E+02  0.3990E+02  0.5698E+02  0.5660E+02
     -5.960  0.4335E+02  0.4718E+02  0.5937E+02  0.5921E+02
     -5.905  0.1959E+02  0.1986E+02  0.6045E+02  0.6030E+02
     -5.850  0.3177E+02  0.2889E+02  0.6220E+02  0.6189E+02
     -5.795  0.1792E+02  0.2201E+02  0.6319E+02  0.6311E+02
     -5.740  0.2620E+02  0.2275E+02  0.6463E+02  0.6436E+02
     -5.684  0.3732E+02  0.3802E+02  0.6669E+02  0.6646E+02
     -5.629  0.3238E+02  0.3324E+02  0.6848E+02  0.6829E+02
     -5.574  0.3552E+02  0.3584E+02  0.7043E+02  0.7027E+02
     -5.519  0.4507E+02  0.4152E+02  0.7292E+02  0.7256E+02
     -5.464  0.3836E+02  0.4381E+02  0.7503E+02  0.7497E+02
     -5.409  0.3377E+02  0.2948E+02  0.7690E+02  0.7660E+02
     -5.354  0.3044E+02  0.3312E+02  0.7857E+02  0.7842E+02
     -5.298  0.2100E+02  0.1797E+02  0.7973E+02  0.7942E+02
     -5.243  0.3288E+02  0.3505E+02  0.8155E+02  0.8135E+02
     -5.188  0.2757E+02  0.2214E+02  0.8307E+02  0.8257E+02
     -5.133  0.3885E+02  0.4079E+02  0.8521E+02  0.8482E+02
     -5.078  0.2699E+02  0.2715E+02  0.8670E+02  0.8632E+02
     -5.023  0.2674E+02  0.3307E+02  0.8817E+02  0.8814E+02
     -4.968  0.2801E+02  0.2557E+02  0.8972E+02  0.8955E+02
     -4.913  0.2602E+02  0.2455E+02  0.9115E+02  0.9090E+02
     -4.857  0.4261E+02  0.4639E+02  0.9350E+02  0.9346E+02
     -4.802  0.1504E+02  0.1332E+02  0.9433E+02  0.9419E+02
     -4.747  0.4008E+02  0.3496E+02  0.9654E+02  0.9612E+02
     -4.692  0.2589E+02  0.2815E+02  0.9797E+02  0.9767E+02
     -4.637  0.2301E+02  0.2405E+02  0.9924E+02  0.9900E+02
     -4.582  0.3324E+02  0.3385E+02  0.1011E+03  0.1009E+03
     -4.527  0.1674E+02  0.1768E+02  0.1020E+03  0.1018E+03
     -4.471  0.2522E+02  0.2122E+02  0.1034E+03  0.1030E+03
     -4.416  0.2929E+02  0.3534E+02  0.1050E+03  0.1050E+03
     -4.361  0.1910E+02  0.1278E+02  0.1060E+03  0.1057E+03
     -4.306  0.2782E+02  0.2914E+02  0.1076E+03  0.1073E+03
     -4.251  0.3748E+02  0.3444E+02  0.1097E+03  0.1092E+03
     -4.196  0.1582E+02  0.2072E+02  0.1105E+03  0.1103E+03
     -4.141  0.4261E+02  0.3384E+02  0.1129E+03  0.1122E+03
     -4.085  0.1734E+02  0.2693E+02  0.1138E+03  0.1137E+03
     -4.030  0.2740E+02  0.2734E+02  0.1153E+03  0.1152E+03
     -3.975  0.2624E+02  0.2715E+02  0.1168E+03  0.1167E+03
     -3.920  0.2619E+02  0.2510E+02  0.1182E+03  0.1181E+03
     -3.865  0.1647E+02  0.1236E+02  0.1191E+03  0.1187E+03
     -3.810  0.1535E+02  0.2187E+02  0.1200E+03  0.1199E+03
     -3.755  0.2057E+02  0.1383E+02  0.1211E+03  0.1207E+03
     -3.699  0.2418E+02  0.2840E+02  0.1225E+03  0.1223E+03
     -3.644  0.3324E+02  0.2911E+02  0.1243E+03  0.1239E+03
     -3.589  0.2659E+02  0.3035E+02  0.1258E+03  0.1255E+03
     -3.534  0.2804E+02  0.2917E+02  0.1273E+03  0.1272E+03
     -3.479  0.3031E+02  0.2547E+02  0.1290E+03  0.1286E+03
     -3.424  0.3272E+02  0.3326E+02  0.1308E+03  0.1304E+03
     -3.369  0.2189E+02  0.2458E+02  0.1320E+03  0.1317E+03
     -3.314  0.2608E+02  0.2890E+02  0.1334E+03  0.1333E+03
     -3.258  0.2854E+02  0.2682E+02  0.1350E+03  0.1348E+03
     -3.203  0.2365E+02  0.2484E+02  0.1363E+03  0.1362E+03
     -3.148  0.3322E+02  0.3142E+02  0.1381E+03  0.1379E+03
     -3.093  0.3483E+02  0.3507E+02  0.1400E+03  0.1399E+03
     -3.038  0.3997E+02  0.3720E+02  0.1423E+03  0.1419E+03
     -2.983  0.4743E+02  0.4757E+02  0.1449E+03  0.1445E+03
     -2.928  0.2428E+02  0.2171E+02  0.1462E+03  0.1457E+03
     -2.872  0.2592E+02  0.2896E+02  0.1476E+03  0.1473E+03
     -2.817  0.2535E+02  0.2181E+02  0.1490E+03  0.1485E+03
     -2.762  0.2434E+02  0.3125E+02  0.1504E+03  0.1502E+03
     -2.707  0.2830E+02  0.2789E+02  0.1519E+03  0.1518E+03
     -2.652  0.2437E+02  0.2027E+02  0.1533E+03  0.1529E+03
     -2.597  0.2194E+02  0.2736E+02  0.1545E+03  0.1544E+03
     -2.542  0.3061E+02  0.2567E+02  0.1562E+03  0.1558E+03
     -2.486  0.4200E+02  0.4283E+02  0.1585E+03  0.1582E+03
     -2.431  0.1708E+02  0.1875E+02  0.1594E+03  0.1592E+03
     -2.376  0.3389E+02  0.3110E+02  0.1613E+03  0.1609E+03
     -2.321  0.2650E+02  0.3049E+02  0.1628E+03  0.1626E+03
     -2.266  0.1105E+02  0.9872E+01  0.1634E+03  0.1632E+03
     -2.211  0.2578E+02  0.2643E+02  0.1648E+03  0.1646E+03
     -2.156  0.1802E+02  0.1706E+02  0.1658E+03  0.1656E+03
     -2.100  0.3548E+02  0.3659E+02  0.1677E+03  0.1676E+03
     -2.045  0.2680E+02  0.2721E+02  0.1692E+03  0.1691E+03
     -1.990  0.3212E+02  0.2967E+02  0.1710E+03  0.1707E+03
     -1.935  0.1551E+02  0.2026E+02  0.1718E+03  0.1718E+03
     -1.880  0.1075E+02  0.9334E+01  0.1724E+03  0.1723E+03
     -1.825  0.3661E+02  0.3604E+02  0.1745E+03  0.1743E+03
     -1.770  0.2614E+01  0.3344E+01  0.1746E+03  0.1745E+03
     -1.715  0.2041E+02  0.1871E+02  0.1757E+03  0.1756E+03
     -1.659  0.1909E+02  0.2055E+02  0.1768E+03  0.1767E+03
     -1.604  0.1288E+02  0.1286E+02  0.1775E+03  0.1774E+03
     -1.549  0.1243E+02  0.1177E+02  0.1782E+03  0.1780E+03
     -1.494  0.2361E+02  0.2367E+02  0.1795E+03  0.1793E+03
     -1.439  0.2425E+02  0.2462E+02  0.1808E+03  0.1807E+03
     -1.384  0.9808E+01  0.8159E+01  0.1814E+03  0.1812E+03
     -1.329  0.1616E+02  0.1416E+02  0.1822E+03  0.1819E+03
     -1.273  0.2394E+02  0.2807E+02  0.1836E+03  0.1835E+03
     -1.218  0.1516E+02  0.1027E+02  0.1844E+03  0.1841E+03
     -1.163  0.4043E+02  0.4499E+02  0.1866E+03  0.1865E+03
     -1.108  0.1346E+02  0.1032E+02  0.1874E+03  0.1871E+03
     -1.053  0.1558E+02  0.1920E+02  0.1882E+03  0.1882E+03
     -0.998  0.2850E+02  0.2784E+02  0.1898E+03  0.1897E+03
     -0.943  0.1166E+02  0.1022E+02  0.1904E+03  0.1903E+03
     -0.887  0.4346E+02  0.4256E+02  0.1928E+03  0.1926E+03
     -0.832  0.1615E+02  0.1880E+02  0.1937E+03  0.1936E+03
     -0.777  0.5138E+01  0.6532E+01  0.1940E+03  0.1940E+03
     -0.722  0.4307E+02  0.4086E+02  0.1964E+03  0.1963E+03
     -0.667  0.2210E+02  0.1851E+02  0.1976E+03  0.1973E+03
     -0.612  0.1606E+02  0.2169E+02  0.1985E+03  0.1985E+03
     -0.557  0.1144E+02  0.9932E+01  0.1991E+03  0.1990E+03
     -0.501  0.3233E+02  0.2665E+02  0.2009E+03  0.2005E+03
     -0.446  0.4222E+02  0.4174E+02  0.2032E+03  0.2028E+03
     -0.391  0.2593E+02  0.3166E+02  0.2047E+03  0.2045E+03
     -0.336  0.3814E+02  0.3514E+02  0.2068E+03  0.2065E+03
     -0.281  0.5365E+02  0.5113E+02  0.2097E+03  0.2093E+03
     -0.226  0.4017E+02  0.4411E+02  0.2119E+03  0.2117E+03
     -0.171  0.4090E+02  0.3552E+02  0.2142E+03  0.2137E+03
     -0.116  0.4182E+02  0.4655E+02  0.2165E+03  0.2163E+03
     -0.060  0.4847E+02  0.4432E+02  0.2192E+03  0.2187E+03
     -0.005  0.4416E+02  0.4462E+02  0.2216E+03  0.2212E+03
      0.050  0.4943E+02  0.5135E+02  0.2243E+03  0.2240E+03
      0.105  0.5153E+02  0.5256E+02  0.2272E+03  0.2269E+03
      0.160  0.4299E+02  0.4319E+02  0.2296E+03  0.2293E+03
      0.215  0.5030E+02  0.5334E+02  0.2323E+03  0.2322E+03
      0.270  0.5347E+02  0.4218E+02  0.2353E+03  0.2345E+03
      0.326  0.4909E+02  0.5407E+02  0.2380E+03  0.2375E+03
      0.381  0.7326E+02  0.6923E+02  0.2420E+03  0.2413E+03
      0.436  0.5787E+02  0.6240E+02  0.2452E+03  0.2448E+03
      0.491  0.3998E+02  0.4236E+02  0.2474E+03  0.2471E+03
      0.546  0.5769E+02  0.5579E+02  0.2506E+03  0.2502E+03
      0.601  0.6003E+02  0.6071E+02  0.2539E+03  0.2535E+03
      0.656  0.5190E+02  0.4880E+02  0.2568E+03  0.2562E+03
      0.712  0.6236E+02  0.6674E+02  0.2602E+03  0.2599E+03
      0.767  0.6251E+02  0.5957E+02  0.2637E+03  0.2632E+03
      0.822  0.5658E+02  0.5306E+02  0.2668E+03  0.2661E+03
      0.877  0.6270E+02  0.6586E+02  0.2702E+03  0.2697E+03
      0.932  0.6723E+02  0.6875E+02  0.2739E+03  0.2735E+03
      0.987  0.6009E+02  0.5383E+02  0.2772E+03  0.2765E+03
      1.042  0.6300E+02  0.6469E+02  0.2807E+03  0.2801E+03
      1.098  0.5785E+02  0.5975E+02  0.2839E+03  0.2834E+03
      1.153  0.6604E+02  0.6351E+02  0.2876E+03  0.2869E+03
      1.208  0.5324E+02  0.6149E+02  0.2905E+03  0.2903E+03
      1.263  0.5434E+02  0.5507E+02  0.2935E+03  0.2933E+03
      1.318  0.5502E+02  0.4842E+02  0.2965E+03  0.2960E+03
      1.373  0.4494E+02  0.4729E+02  0.2990E+03  0.2986E+03
      1.428  0.6401E+02  0.6235E+02  0.3025E+03  0.3020E+03
      1.483  0.6178E+02  0.6319E+02  0.3059E+03  0.3055E+03
      1.539  0.4180E+02  0.4635E+02  0.3082E+03  0.3080E+03
      1.594  0.5476E+02  0.4607E+02  0.3113E+03  0.3106E+03
      1.649  0.3946E+02  0.4687E+02  0.3134E+03  0.3132E+03
      1.704  0.6647E+02  0.5797E+02  0.3171E+03  0.3164E+03
      1.759  0.5355E+02  0.5853E+02  0.3200E+03  0.3196E+03
      1.814  0.3303E+02  0.3772E+02  0.3219E+03  0.3217E+03
      1.869  0.4228E+02  0.3671E+02  0.3242E+03  0.3237E+03
      1.925  0.4512E+02  0.4867E+02  0.3267E+03  0.3264E+03
      1.980  0.5036E+02  0.4738E+02  0.3295E+03  0.3290E+03
      2.035  0.4153E+02  0.4021E+02  0.3318E+03  0.3312E+03
      2.090  0.4543E+02  0.5074E+02  0.3343E+03  0.3340E+03
      2.145  0.5584E+02  0.5603E+02  0.3373E+03  0.3371E+03
      2.200  0.4078E+02  0.3915E+02  0.3396E+03  0.3393E+03
      2.255  0.6160E+02  0.5609E+02  0.3430E+03  0.3423E+03
      2.311  0.3158E+02  0.3162E+02  0.3447E+03  0.3441E+03
      2.366  0.4986E+02  0.5299E+02  0.3475E+03  0.3470E+03
      2.421  0.4365E+02  0.4898E+02  0.3499E+03  0.3497E+03
      2.476  0.4894E+02  0.3873E+02  0.3526E+03  0.3519E+03
      2.531  0.5640E+02  0.5981E+02  0.3557E+03  0.3551E+03
      2.586  0.4047E+02  0.3529E+02  0.3579E+03  0.3571E+03
      2.641  0.5510E+02  0.5868E+02  0.3610E+03  0.3603E+03
      2.697  0.4703E+02  0.5009E+02  0.3636E+03  0.3631E+03
      2.752  0.3561E+02  0.3270E+02  0.3655E+03  0.3649E+03
      2.807  0.3807E+02  0.4004E+02  0.3676E+03  0.3671E+03
      2.862  0.4564E+02  0.4857E+02  0.3701E+03  0.3698E+03
      2.917  0.1973E+02  0.2180E+02  0.3712E+03  0.3710E+03
      2.972  0.2186E+02  0.1704E+02  0.3724E+03  0.3719E+03
      3.027  0.4925E+02  0.4193E+02  0.3751E+03  0.3742E+03
      3.082  0.5058E+02  0.6034E+02  0.3779E+03  0.3776E+03
      3.138  0.3998E+02  0.3142E+02  0.3801E+03  0.3793E+03
      3.193  0.4213E+02  0.4611E+02  0.3825E+03  0.3818E+03
      3.248  0.4735E+02  0.3953E+02  0.3851E+03  0.3840E+03
      3.303  0.3081E+02  0.4461E+02  0.3868E+03  0.3865E+03
      3.358  0.4834E+02  0.4767E+02  0.3894E+03  0.3891E+03
      3.413  0.4179E+02  0.4314E+02  0.3917E+03  0.3915E+03
      3.468  0.3343E+02  0.2621E+02  0.3936E+03  0.3929E+03
      3.524  0.4797E+02  0.5136E+02  0.3962E+03  0.3958E+03
      3.579  0.4947E+02  0.4295E+02  0.3990E+03  0.3981E+03
      3.634  0.4447E+02  0.3946E+02  0.4014E+03  0.4003E+03
      3.689  0.4811E+02  0.5690E+02  0.4041E+03  0.4034E+03
      3.744  0.4401E+02  0.4760E+02  0.4065E+03  0.4061E+03
      3.799  0.3450E+02  0.3694E+02  0.4084E+03  0.4081E+03
      3.854  0.3713E+02  0.3015E+02  0.4104E+03  0.4098E+03
      3.910  0.2018E+02  0.3148E+02  0.4115E+03  0.4115E+03
      3.965  0.2795E+02  0.2069E+02  0.4131E+03  0.4126E+03
      4.020  0.3887E+02  0.3632E+02  0.4152E+03  0.4146E+03
      4.075  0.3812E+02  0.4313E+02  0.4173E+03  0.4170E+03
      4.130  0.4433E+02  0.3777E+02  0.4198E+03  0.4191E+03
      4.185  0.3425E+02  0.3980E+02  0.4217E+03  0.4213E+03
      4.240  0.4892E+02  0.4931E+02  0.4244E+03  0.4240E+03
      4.296  0.1181E+02  0.1774E+02  0.4250E+03  0.4250E+03
      4.351  0.2400E+02  0.1748E+02  0.4263E+03  0.4260E+03
      4.406  0.4767E+02  0.4590E+02  0.4290E+03  0.4285E+03
      4.461  0.2179E+02  0.2756E+02  0.4302E+03  0.4300E+03
      4.516  0.3892E+02  0.3335E+02  0.4323E+03  0.4318E+03
      4.571  0.4986E+02  0.5161E+02  0.4351E+03  0.4347E+03
      4.626  0.2933E+02  0.3218E+02  0.4367E+03  0.4365E+03
      4.681  0.3875E+02  0.3572E+02  0.4388E+03  0.4384E+03
      4.737  0.5226E+02  0.4877E+02  0.4417E+03  0.4411E+03
      4.792  0.4474E+02  0.4477E+02  0.4442E+03  0.4436E+03
      4.847  0.3323E+02  0.3616E+02  0.4460E+03  0.4456E+03
      4.902  0.4772E+02  0.4644E+02  0.4486E+03  0.4481E+03
      4.957  0.5430E+02  0.6026E+02  0.4516E+03  0.4515E+03
      5.012  0.5053E+02  0.4797E+02  0.4544E+03  0.4541E+03
      5.067  0.4587E+02  0.4007E+02  0.4569E+03  0.4563E+03
      5.123  0.4176E+02  0.4629E+02  0.4592E+03  0.4589E+03
      5.178  0.5709E+02  0.5163E+02  0.4624E+03  0.4617E+03
      5.233  0.2919E+02  0.3520E+02  0.4640E+03  0.4637E+03
      5.288  0.1907E-01  0.6035E+01  0.4640E+03  0.4640E+03
      5.343  0.0000E+00  0.0000E+00  0.4640E+03  0.4640E+03
      5.398  0.0000E+00  0.0000E+00  0.4640E+03  0.4640E+03
      5.453  0.0000E+00  0.0000E+00  0.4640E+03  0.4640E+03
      5.509  0.0000E+00  0.0000E+00  0.4640E+03  0.4640E+03
      5.564  0.0000E+00  0.0000E+00  0.4640E+03  0.4640E+03
      5.619  0.0000E+00  0.0000E+00  0.4640E+03  0.4640E+03
      5.674  0.0000E+00  0.0000E+00  0.4640E+03  0.4640E+03
      5.729  0.0000E+00  0.0000E+00  0.4640E+03  0.4640E+03
      5.784  0.0000E+00  0.0000E+00  0.4640E+03  0.4640E+03
      5.839  0.0000E+00  0.0000E+00  0.4640E+03  0.4640E+03
      5.895  0.0000E+00  0.0000E+00  0.4640E+03  0.4640E+03
      5.950  0.0000E+00  0.0000E+00  0.4640E+03  0.4640E+03
      6.005  0.0000E+00  0.0000E+00  0.4640E+03  0.4640E+03
