       N       E                     dE             d eps       ncg     rms          rms(c)
DAV:   1     0.205721031486E+04    0.20572E+04   -0.15742E+05  7424   0.165E+03
DAV:   2    -0.482056509341E+02   -0.21054E+04   -0.20394E+04  8720   0.194E+02
DAV:   3    -0.283809432973E+03   -0.23560E+03   -0.22653E+03  9184   0.643E+01
DAV:   4    -0.294170481180E+03   -0.10361E+02   -0.10056E+02  8960   0.132E+01
DAV:   5    -0.294607219754E+03   -0.43674E+00   -0.43247E+00  9752   0.241E+00    0.235E+01
DAV:   6    -0.285987154392E+03    0.86201E+01   -0.15902E+01  9984   0.711E+00    0.114E+01
DAV:   7    -0.285064227277E+03    0.92293E+00   -0.80011E+00  8704   0.505E+00    0.380E+00
DAV:   8    -0.284864583045E+03    0.19964E+00   -0.11960E+00  8344   0.218E+00    0.104E+00
DAV:   9    -0.284862667782E+03    0.19153E-02   -0.23588E-01  8904   0.771E-01    0.512E-01
DAV:  10    -0.284863724909E+03   -0.10571E-02   -0.46849E-02  8528   0.372E-01    0.293E-01
DAV:  11    -0.284865232206E+03   -0.15073E-02   -0.93586E-03  8448   0.177E-01    0.136E-01
DAV:  12    -0.284865592508E+03   -0.36030E-03   -0.23438E-03  8752   0.980E-02    0.642E-02
DAV:  13    -0.284865560362E+03    0.32146E-04   -0.79241E-04  8752   0.586E-02    0.349E-02
DAV:  14    -0.284865607978E+03   -0.47616E-04   -0.26727E-04  8592   0.287E-02    0.203E-02
DAV:  15    -0.284865624998E+03   -0.17020E-04   -0.61941E-05  8328   0.142E-02    0.848E-03
DAV:  16    -0.284865628842E+03   -0.38442E-05   -0.18141E-05  8888   0.670E-03    0.467E-03
DAV:  17    -0.284865630348E+03   -0.15057E-05   -0.41325E-06  8376   0.371E-03    0.259E-03
DAV:  18    -0.284865631029E+03   -0.68113E-06   -0.12303E-06  8120   0.196E-03    0.124E-03
DAV:  19    -0.284865631031E+03   -0.17717E-08   -0.27321E-07  5728   0.977E-04
   1 F= -.28486563E+03 E0= -.28486410E+03  d E =-.306542E-02  mag=     1.0000
