Si and Ge interface calculation         
           1
    11.315600    0.000000    0.000000
     0.000000   17.891535    0.000000
     0.000000   -0.000000   13.867377
   Ge   Sn
    48    48
Direct configuration=     1
   0.94556874  0.07620380  0.00000001
   0.69556868  0.42620391  0.06450955
   0.44556868  0.77620399  0.12901908
   0.19556862  0.12620413  0.19352868
   0.94556868  0.47620416  0.25803819
   0.69556868  0.82620430  0.32254764
   0.44556874  0.07620380  0.00000001
   0.19556871  0.42620391  0.06450955
   0.94556868  0.77620399  0.12901908
   0.69556868  0.12620413  0.19352868
   0.44556868  0.47620416  0.25803819
   0.19556862  0.82620430  0.32254764
   0.07056873  0.82620394  0.00000003
   0.82056868  0.17620409  0.06450953
   0.57056868  0.52620411  0.12901904
   0.32056862  0.87620413  0.19352865
   0.07056862  0.22620416  0.25803822
   0.82056856  0.57620430  0.32254770
   0.57056874  0.82620394  0.00000003
   0.32056874  0.17620409  0.06450953
   0.07056871  0.52620411  0.12901904
   0.82056868  0.87620413  0.19352865
   0.57056868  0.22620416  0.25803822
   0.32056862  0.57620430  0.32254770
   0.94556874  0.57620382  0.00000002
   0.69556868  0.92620391  0.06450952
   0.44556868  0.27620399  0.12901910
   0.19556862  0.62620413  0.19352861
   0.94556868  0.97620416  0.25803819
   0.69556868  0.32620430  0.32254770
   0.44556874  0.57620382  0.00000002
   0.19556871  0.92620391  0.06450952
   0.94556868  0.27620399  0.12901910
   0.69556868  0.62620413  0.19352861
   0.44556868  0.97620416  0.25803819
   0.19556862  0.32620430  0.32254770
   0.07056873  0.32620382  0.00000000
   0.82056868  0.67620397  0.06450956
   0.57056868  0.02620399  0.12901908
   0.32056862  0.37620413  0.19352861
   0.07056862  0.72620416  0.25803816
   0.82056856  0.07620430  0.32254761
   0.57056874  0.32620382  0.00000000
   0.32056874  0.67620397  0.06450956
   0.07056871  0.02620399  0.12901908
   0.82056868  0.37620413  0.19352861
   0.57056868  0.72620416  0.25803816
   0.32056862  0.07620430  0.32254761
   0.06472540  0.20866334  0.42247543
   0.73139191  0.83366329  0.51799476
   0.39805850  0.45866323  0.61351407
   0.06472504  0.08366323  0.70903349
   0.73139155  0.70866305  0.80455279
   0.39805821  0.33366305  0.90007210
   0.06472540  0.70866334  0.42247543
   0.73139191  0.33366329  0.51799476
   0.39805850  0.95866323  0.61351407
   0.06472516  0.58366323  0.70903349
   0.73139155  0.20866299  0.80455279
   0.39805809  0.83366305  0.90007222
   0.31472540  0.45866334  0.42247543
   0.98139191  0.08366323  0.51799476
   0.64805853  0.70866323  0.61351407
   0.31472513  0.33366323  0.70903337
   0.98139155  0.95866305  0.80455279
   0.64805818  0.58366305  0.90007210
   0.31472540  0.95866334  0.42247543
   0.98139191  0.58366329  0.51799476
   0.64805853  0.20866323  0.61351407
   0.31472513  0.83366323  0.70903337
   0.98139155  0.45866305  0.80455279
   0.64805818  0.08366299  0.90007210
   0.06472540  0.45866334  0.42247543
   0.73139191  0.08366323  0.51799476
   0.39805850  0.70866323  0.61351407
   0.06472516  0.33366323  0.70903349
   0.73139155  0.95866305  0.80455279
   0.39805809  0.58366305  0.90007210
   0.06472540  0.95866334  0.42247543
   0.73139191  0.58366329  0.51799476
   0.39805850  0.20866323  0.61351407
   0.06472504  0.83366317  0.70903349
   0.73139155  0.45866305  0.80455279
   0.39805809  0.08366299  0.90007222
   0.31472546  0.20866323  0.42247543
   0.98139203  0.83366329  0.51799476
   0.64805853  0.45866317  0.61351407
   0.31472513  0.08366323  0.70903337
   0.98139155  0.70866305  0.80455279
   0.64805818  0.33366305  0.90007210
   0.31472546  0.70866334  0.42247546
   0.98139203  0.33366332  0.51799476
   0.64805853  0.95866329  0.61351407
   0.31472513  0.58366323  0.70903337
   0.98139155  0.20866299  0.80455279
   0.64805818  0.83366305  0.90007210
