 168 168   0   0
  0.2680330E+02  0.1600268E-08  0.1600268E-08  0.2030401E-08  0.5000000E-15
  1.000000000000000E-004
  CAR 
 Si and Ge interface calculation         
      6.61828063     -9.48804305  301      3.63424649      1.00000000
     -9.488  0.0000E+00  0.0000E+00  0.0000E+00  0.0000E+00
     -9.434  0.0000E+00  0.0000E+00  0.0000E+00  0.0000E+00
     -9.381  0.0000E+00  0.0000E+00  0.0000E+00  0.0000E+00
     -9.327  0.0000E+00  0.0000E+00  0.0000E+00  0.0000E+00
     -9.273  0.0000E+00  0.0000E+00  0.0000E+00  0.0000E+00
     -9.220  0.0000E+00  0.0000E+00  0.0000E+00  0.0000E+00
     -9.166  0.0000E+00  0.0000E+00  0.0000E+00  0.0000E+00
     -9.112  0.0000E+00  0.0000E+00  0.0000E+00  0.0000E+00
     -9.059  0.0000E+00  0.0000E+00  0.0000E+00  0.0000E+00
     -9.005  0.0000E+00  0.0000E+00  0.0000E+00  0.0000E+00
     -8.951  0.0000E+00  0.0000E+00  0.0000E+00  0.0000E+00
     -8.897  0.0000E+00  0.0000E+00  0.0000E+00  0.0000E+00
     -8.844  0.0000E+00  0.0000E+00  0.0000E+00  0.0000E+00
     -8.790  0.5751E-05  0.1338E-06  0.3088E-06  0.7184E-08
     -8.736  0.9285E+01  0.9122E+01  0.4985E+00  0.4897E+00
     -8.683  0.2850E-01  0.1915E+00  0.5000E+00  0.5000E+00
     -8.629  0.2622E-07  0.2636E-09  0.5000E+00  0.5000E+00
     -8.575  0.5194E+02  0.4366E+02  0.3288E+01  0.2844E+01
     -8.522  0.3942E+01  0.1222E+02  0.3500E+01  0.3500E+01
     -8.468  0.0000E+00  0.0000E+00  0.3500E+01  0.3500E+01
     -8.414  0.0000E+00  0.0000E+00  0.3500E+01  0.3500E+01
     -8.361  0.9664E-02  0.4356E-03  0.3501E+01  0.3500E+01
     -8.307  0.9303E+01  0.9311E+01  0.4000E+01  0.4000E+01
     -8.253  0.2239E+02  0.9767E+01  0.5202E+01  0.4524E+01
     -8.200  0.3349E+02  0.4611E+02  0.7000E+01  0.7000E+01
     -8.146  0.5581E+02  0.5513E+02  0.9996E+01  0.9960E+01
     -8.092  0.2564E+02  0.2234E+02  0.1137E+02  0.1116E+02
     -8.038  0.3031E+02  0.3429E+02  0.1300E+02  0.1300E+02
     -7.985  0.0000E+00  0.0000E+00  0.1300E+02  0.1300E+02
     -7.931  0.0000E+00  0.0000E+00  0.1300E+02  0.1300E+02
     -7.877  0.2202E-07  0.1233E-09  0.1300E+02  0.1300E+02
     -7.824  0.5152E+02  0.4133E+02  0.1577E+02  0.1522E+02
     -7.770  0.4363E+01  0.1455E+02  0.1600E+02  0.1600E+02
     -7.716  0.2089E-03  0.2120E-04  0.1600E+02  0.1600E+02
     -7.663  0.2841E+02  0.2761E+02  0.1753E+02  0.1748E+02
     -7.609  0.8349E+02  0.7902E+02  0.2201E+02  0.2172E+02
     -7.555  0.5574E+02  0.6100E+02  0.2500E+02  0.2500E+02
     -7.502  0.8346E+01  0.7168E+01  0.2545E+02  0.2538E+02
     -7.448  0.9669E+00  0.2145E+01  0.2550E+02  0.2550E+02
     -7.394  0.2286E-08  0.9358E-10  0.2550E+02  0.2550E+02
     -7.341  0.4103E+02  0.3220E+02  0.2770E+02  0.2723E+02
     -7.287  0.7073E+02  0.7956E+02  0.3150E+02  0.3150E+02
     -7.233  0.6649E-01  0.1554E-01  0.3150E+02  0.3150E+02
     -7.179  0.6449E+02  0.5730E+02  0.3497E+02  0.3458E+02
     -7.126  0.4720E+02  0.5444E+02  0.3750E+02  0.3750E+02
     -7.072  0.0000E+00  0.0000E+00  0.3750E+02  0.3750E+02
     -7.018  0.1323E+00  0.1610E-01  0.3751E+02  0.3750E+02
     -6.965  0.5575E+02  0.5585E+02  0.4050E+02  0.4050E+02
     -6.911  0.8257E+02  0.7880E+02  0.4493E+02  0.4473E+02
     -6.857  0.2888E+02  0.2228E+02  0.4648E+02  0.4593E+02
     -6.804  0.8936E+02  0.9525E+02  0.5128E+02  0.5104E+02
     -6.750  0.3271E+02  0.3170E+02  0.5304E+02  0.5274E+02
     -6.696  0.6450E+02  0.7000E+02  0.5650E+02  0.5650E+02
     -6.643  0.8234E+01  0.5425E+01  0.5694E+02  0.5679E+02
     -6.589  0.1495E+02  0.1229E+02  0.5774E+02  0.5745E+02
     -6.535  0.3176E+02  0.3051E+02  0.5945E+02  0.5909E+02
     -6.482  0.4608E+02  0.5114E+02  0.6192E+02  0.6183E+02
     -6.428  0.2022E+02  0.2157E+02  0.6301E+02  0.6299E+02
     -6.374  0.9395E+02  0.8594E+02  0.6805E+02  0.6761E+02
     -6.320  0.1160E+03  0.1052E+03  0.7428E+02  0.7325E+02
     -6.267  0.4133E+02  0.6047E+02  0.7650E+02  0.7650E+02
     -6.213  0.2296E+02  0.1452E+02  0.7773E+02  0.7728E+02
     -6.159  0.4234E+02  0.5070E+02  0.8001E+02  0.8000E+02
     -6.106  0.4562E+01  0.4630E+01  0.8025E+02  0.8025E+02
     -6.052  0.7741E+02  0.7187E+02  0.8441E+02  0.8411E+02
     -5.998  0.7001E+01  0.1213E+02  0.8478E+02  0.8476E+02
     -5.945  0.1079E+03  0.8706E+02  0.9057E+02  0.8943E+02
     -5.891  0.2206E+02  0.4317E+02  0.9176E+02  0.9175E+02
     -5.837  0.3251E+02  0.2913E+02  0.9350E+02  0.9332E+02
     -5.784  0.8203E+02  0.7478E+02  0.9791E+02  0.9733E+02
     -5.730  0.5760E+02  0.6834E+02  0.1010E+03  0.1010E+03
     -5.676  0.2240E+02  0.1638E+02  0.1022E+03  0.1019E+03
     -5.623  0.5542E+01  0.1156E+02  0.1025E+03  0.1025E+03
     -5.569  0.9362E+01  0.3146E+01  0.1030E+03  0.1027E+03
     -5.515  0.8714E+02  0.7710E+02  0.1077E+03  0.1068E+03
     -5.461  0.6697E+02  0.7392E+02  0.1113E+03  0.1108E+03
     -5.408  0.6722E+02  0.7031E+02  0.1149E+03  0.1146E+03
     -5.354  0.2230E+02  0.2259E+02  0.1161E+03  0.1158E+03
     -5.300  0.8075E+02  0.7424E+02  0.1204E+03  0.1198E+03
     -5.247  0.5311E+02  0.6277E+02  0.1233E+03  0.1231E+03
     -5.193  0.2303E+02  0.2571E+02  0.1245E+03  0.1245E+03
     -5.139  0.5581E+02  0.5513E+02  0.1275E+03  0.1275E+03
     -5.086  0.5714E+02  0.5498E+02  0.1306E+03  0.1304E+03
     -5.032  0.3827E+02  0.3822E+02  0.1326E+03  0.1325E+03
     -4.978  0.8567E+02  0.7535E+02  0.1372E+03  0.1365E+03
     -4.925  0.5728E+02  0.6303E+02  0.1403E+03  0.1399E+03
     -4.871  0.6558E+02  0.6355E+02  0.1438E+03  0.1433E+03
     -4.817  0.7029E+02  0.7446E+02  0.1476E+03  0.1473E+03
     -4.764  0.8917E+02  0.9193E+02  0.1524E+03  0.1522E+03
     -4.710  0.4274E+02  0.3765E+02  0.1547E+03  0.1543E+03
     -4.656  0.2548E+02  0.3255E+02  0.1560E+03  0.1560E+03
     -4.602  0.4110E+02  0.4175E+02  0.1583E+03  0.1582E+03
     -4.549  0.3874E+02  0.3449E+02  0.1603E+03  0.1601E+03
     -4.495  0.2284E+02  0.2475E+02  0.1616E+03  0.1614E+03
     -4.441  0.2663E+02  0.2621E+02  0.1630E+03  0.1628E+03
     -4.388  0.5229E+02  0.4605E+02  0.1658E+03  0.1653E+03
     -4.334  0.9202E+02  0.9735E+02  0.1707E+03  0.1705E+03
     -4.280  0.3764E+02  0.3420E+02  0.1728E+03  0.1724E+03
     -4.227  0.4821E+02  0.5173E+02  0.1753E+03  0.1751E+03
     -4.173  0.3088E+02  0.3450E+02  0.1770E+03  0.1770E+03
     -4.119  0.3394E+02  0.2636E+02  0.1788E+03  0.1784E+03
     -4.066  0.6467E+02  0.6276E+02  0.1823E+03  0.1818E+03
     -4.012  0.1315E+02  0.2265E+02  0.1830E+03  0.1830E+03
     -3.958  0.1406E+02  0.1390E+02  0.1838E+03  0.1837E+03
     -3.905  0.2867E+02  0.2804E+02  0.1853E+03  0.1853E+03
     -3.851  0.6080E+02  0.5810E+02  0.1886E+03  0.1884E+03
     -3.797  0.5918E+02  0.6057E+02  0.1917E+03  0.1916E+03
     -3.743  0.5706E+02  0.5201E+02  0.1948E+03  0.1944E+03
     -3.690  0.5875E+02  0.6134E+02  0.1980E+03  0.1977E+03
     -3.636  0.7312E+02  0.6758E+02  0.2019E+03  0.2013E+03
     -3.582  0.6910E+01  0.1702E+02  0.2023E+03  0.2023E+03
     -3.529  0.6365E+02  0.5314E+02  0.2057E+03  0.2051E+03
     -3.475  0.6100E+02  0.6816E+02  0.2089E+03  0.2088E+03
     -3.421  0.5692E+02  0.6011E+02  0.2120E+03  0.2120E+03
     -3.368  0.6579E+01  0.3177E+01  0.2124E+03  0.2122E+03
     -3.314  0.4933E+02  0.5289E+02  0.2150E+03  0.2150E+03
     -3.260  0.2185E+02  0.1681E+02  0.2162E+03  0.2159E+03
     -3.207  0.8798E+02  0.9168E+02  0.2209E+03  0.2208E+03
     -3.153  0.1088E+03  0.9982E+02  0.2267E+03  0.2262E+03
     -3.099  0.2814E+02  0.3844E+02  0.2282E+03  0.2282E+03
     -3.046  0.4640E+02  0.3408E+02  0.2307E+03  0.2301E+03
     -2.992  0.7118E+02  0.8223E+02  0.2346E+03  0.2345E+03
     -2.938  0.7632E+02  0.7521E+02  0.2387E+03  0.2385E+03
     -2.884  0.9012E+02  0.9238E+02  0.2435E+03  0.2435E+03
     -2.831  0.2796E+02  0.2781E+02  0.2450E+03  0.2450E+03
     -2.777  0.4925E+02  0.4091E+02  0.2476E+03  0.2472E+03
     -2.723  0.8927E+02  0.8777E+02  0.2524E+03  0.2519E+03
     -2.670  0.3531E+02  0.3943E+02  0.2543E+03  0.2540E+03
     -2.616  0.3573E+02  0.4175E+02  0.2562E+03  0.2562E+03
     -2.562  0.8500E-02  0.8910E-03  0.2563E+03  0.2563E+03
     -2.509  0.8328E+02  0.8203E+02  0.2607E+03  0.2607E+03
     -2.455  0.2906E+02  0.2934E+02  0.2623E+03  0.2622E+03
     -2.401  0.6983E+02  0.6521E+02  0.2660E+03  0.2657E+03
     -2.348  0.6376E+02  0.5702E+02  0.2695E+03  0.2688E+03
     -2.294  0.1039E+03  0.1089E+03  0.2750E+03  0.2746E+03
     -2.240  0.4445E+01  0.1147E+02  0.2753E+03  0.2753E+03
     -2.187  0.5557E+02  0.5578E+02  0.2783E+03  0.2782E+03
     -2.133  0.2786E+02  0.2795E+02  0.2797E+03  0.2797E+03
     -2.079  0.1285E+02  0.1080E+02  0.2804E+03  0.2803E+03
     -2.025  0.2906E+02  0.3113E+02  0.2820E+03  0.2820E+03
     -1.972  0.5684E+01  0.2348E+01  0.2823E+03  0.2821E+03
     -1.918  0.5103E+02  0.5360E+02  0.2850E+03  0.2850E+03
     -1.864  0.5007E+02  0.4465E+02  0.2877E+03  0.2874E+03
     -1.811  0.4689E+02  0.5306E+02  0.2903E+03  0.2903E+03
     -1.757  0.5561E+02  0.5445E+02  0.2932E+03  0.2932E+03
     -1.703  0.1947E+01  0.1892E+01  0.2933E+03  0.2933E+03
     -1.650  0.8775E+02  0.6695E+02  0.2981E+03  0.2969E+03
     -1.596  0.6393E+02  0.8075E+02  0.3015E+03  0.3012E+03
     -1.542  0.6075E+02  0.6570E+02  0.3047E+03  0.3047E+03
     -1.489  0.4750E+01  0.4990E+01  0.3050E+03  0.3050E+03
     -1.435  0.1663E+02  0.1227E+02  0.3059E+03  0.3057E+03
     -1.381  0.2527E+02  0.2960E+02  0.3072E+03  0.3072E+03
     -1.328  0.4967E-02  0.3462E-01  0.3072E+03  0.3072E+03
     -1.274  0.8400E+00  0.5691E-01  0.3073E+03  0.3073E+03
     -1.220  0.2836E+02  0.2826E+02  0.3088E+03  0.3088E+03
     -1.166  0.2667E+02  0.2757E+02  0.3102E+03  0.3102E+03
     -1.113  0.2429E-11  0.5170E-14  0.3103E+03  0.3102E+03
     -1.059  0.1643E+02  0.8100E+01  0.3111E+03  0.3107E+03
     -1.005  0.1150E+02  0.1984E+02  0.3118E+03  0.3117E+03
     -0.952  0.0000E+00  0.0000E+00  0.3118E+03  0.3118E+03
     -0.898  0.8121E-04  0.5583E-05  0.3118E+03  0.3118E+03
     -0.844  0.2482E+02  0.2127E+02  0.3131E+03  0.3129E+03
     -0.791  0.4343E+02  0.4253E+02  0.3154E+03  0.3152E+03
     -0.737  0.2911E+02  0.3263E+02  0.3170E+03  0.3169E+03
     -0.683  0.3613E+02  0.2993E+02  0.3189E+03  0.3185E+03
     -0.630  0.5814E+02  0.6042E+02  0.3220E+03  0.3218E+03
     -0.576  0.3036E+02  0.3035E+02  0.3237E+03  0.3234E+03
     -0.522  0.1523E+01  0.6375E+01  0.3238E+03  0.3238E+03
     -0.469  0.0000E+00  0.0000E+00  0.3238E+03  0.3238E+03
     -0.415  0.4738E+00  0.1691E+00  0.3238E+03  0.3238E+03
     -0.361  0.1706E+02  0.1070E+02  0.3247E+03  0.3243E+03
     -0.307  0.4774E+02  0.5432E+02  0.3273E+03  0.3273E+03
     -0.254  0.1410E+03  0.1254E+03  0.3348E+03  0.3340E+03
     -0.200  0.1037E+03  0.1136E+03  0.3404E+03  0.3401E+03
     -0.146  0.4448E+02  0.3487E+02  0.3428E+03  0.3420E+03
     -0.093  0.9967E+02  0.1082E+03  0.3481E+03  0.3478E+03
     -0.039  0.8591E+02  0.8835E+02  0.3527E+03  0.3525E+03
      0.015  0.1223E+03  0.1146E+03  0.3593E+03  0.3587E+03
      0.068  0.2973E+02  0.4000E+02  0.3609E+03  0.3608E+03
      0.122  0.3625E+02  0.3214E+02  0.3629E+03  0.3625E+03
      0.176  0.5447E+02  0.5163E+02  0.3658E+03  0.3653E+03
      0.229  0.1569E+03  0.1436E+03  0.3742E+03  0.3730E+03
      0.283  0.9977E+02  0.1166E+03  0.3796E+03  0.3793E+03
      0.337  0.1267E+03  0.1216E+03  0.3864E+03  0.3858E+03
      0.391  0.6993E+02  0.7068E+02  0.3901E+03  0.3896E+03
      0.444  0.1115E+03  0.1059E+03  0.3961E+03  0.3953E+03
      0.498  0.8812E+02  0.1015E+03  0.4008E+03  0.4007E+03
      0.552  0.4425E+02  0.4310E+02  0.4032E+03  0.4030E+03
      0.605  0.7992E+02  0.7861E+02  0.4075E+03  0.4073E+03
      0.659  0.3833E+02  0.3610E+02  0.4096E+03  0.4092E+03
      0.713  0.4623E+02  0.4977E+02  0.4120E+03  0.4119E+03
      0.766  0.1277E+03  0.1182E+03  0.4189E+03  0.4182E+03
      0.820  0.1255E+03  0.1200E+03  0.4256E+03  0.4247E+03
      0.874  0.9849E+02  0.1104E+03  0.4309E+03  0.4306E+03
      0.927  0.1801E+03  0.1745E+03  0.4406E+03  0.4400E+03
      0.981  0.1238E+03  0.1238E+03  0.4472E+03  0.4466E+03
      1.035  0.1100E+03  0.1124E+03  0.4531E+03  0.4526E+03
      1.088  0.7921E+02  0.8355E+02  0.4574E+03  0.4571E+03
      1.142  0.1526E+03  0.1477E+03  0.4656E+03  0.4651E+03
      1.196  0.1023E+03  0.8947E+02  0.4711E+03  0.4699E+03
      1.250  0.9616E+02  0.1158E+03  0.4762E+03  0.4761E+03
      1.303  0.1156E+03  0.1105E+03  0.4824E+03  0.4820E+03
      1.357  0.1027E+03  0.9955E+02  0.4880E+03  0.4874E+03
      1.411  0.1194E+03  0.1216E+03  0.4944E+03  0.4939E+03
      1.464  0.6130E+02  0.6322E+02  0.4977E+03  0.4973E+03
      1.518  0.1899E+03  0.1757E+03  0.5079E+03  0.5067E+03
      1.572  0.1147E+03  0.1307E+03  0.5140E+03  0.5137E+03
      1.625  0.1383E+03  0.1283E+03  0.5214E+03  0.5206E+03
      1.679  0.6299E+02  0.7737E+02  0.5248E+03  0.5248E+03
      1.733  0.1626E+03  0.1519E+03  0.5335E+03  0.5329E+03
      1.786  0.1028E+03  0.1026E+03  0.5391E+03  0.5384E+03
      1.840  0.7881E+02  0.8436E+02  0.5433E+03  0.5430E+03
      1.894  0.8060E+02  0.8282E+02  0.5476E+03  0.5474E+03
      1.947  0.8915E+02  0.8763E+02  0.5524E+03  0.5521E+03
      2.001  0.8667E+02  0.8326E+02  0.5571E+03  0.5566E+03
      2.055  0.6822E+02  0.6524E+02  0.5607E+03  0.5601E+03
      2.109  0.9843E+02  0.9608E+02  0.5660E+03  0.5652E+03
      2.162  0.1419E+03  0.1515E+03  0.5736E+03  0.5734E+03
      2.216  0.1042E+03  0.9730E+02  0.5792E+03  0.5786E+03
      2.270  0.8403E+02  0.8548E+02  0.5837E+03  0.5832E+03
      2.323  0.7372E+02  0.8069E+02  0.5877E+03  0.5875E+03
      2.377  0.5419E+02  0.5292E+02  0.5906E+03  0.5904E+03
      2.431  0.1051E+03  0.1071E+03  0.5962E+03  0.5961E+03
      2.484  0.5331E+02  0.5179E+02  0.5991E+03  0.5989E+03
      2.538  0.8080E+02  0.8163E+02  0.6034E+03  0.6033E+03
      2.592  0.4183E+02  0.4095E+02  0.6057E+03  0.6055E+03
      2.645  0.9281E+02  0.9299E+02  0.6107E+03  0.6105E+03
      2.699  0.1279E+03  0.1250E+03  0.6175E+03  0.6172E+03
      2.753  0.6153E+02  0.5393E+02  0.6208E+03  0.6201E+03
      2.806  0.1038E+03  0.1054E+03  0.6264E+03  0.6257E+03
      2.860  0.5752E+02  0.6025E+02  0.6295E+03  0.6290E+03
      2.914  0.5113E+02  0.5864E+02  0.6322E+03  0.6321E+03
      2.968  0.1056E+02  0.1223E+02  0.6328E+03  0.6328E+03
      3.021  0.9481E+02  0.8125E+02  0.6379E+03  0.6371E+03
      3.075  0.2996E+02  0.4425E+02  0.6395E+03  0.6395E+03
      3.129  0.3341E+02  0.2495E+02  0.6413E+03  0.6408E+03
      3.182  0.1110E+03  0.1153E+03  0.6473E+03  0.6470E+03
      3.236  0.4813E+02  0.5085E+02  0.6499E+03  0.6498E+03
      3.290  0.5131E+02  0.4282E+02  0.6526E+03  0.6521E+03
      3.343  0.8394E+02  0.5665E+02  0.6571E+03  0.6551E+03
      3.397  0.4157E+02  0.7356E+02  0.6593E+03  0.6590E+03
      3.451  0.5403E+02  0.5206E+02  0.6622E+03  0.6618E+03
      3.504  0.4076E+02  0.4134E+02  0.6644E+03  0.6641E+03
      3.558  0.4301E+02  0.2347E+02  0.6667E+03  0.6653E+03
      3.612  0.7520E+02  0.7505E+02  0.6708E+03  0.6694E+03
      3.665  0.3268E+02  0.5812E+02  0.6725E+03  0.6725E+03
      3.719  0.4120E+02  0.3999E+02  0.6747E+03  0.6746E+03
      3.773  0.3420E+02  0.4898E+01  0.6766E+03  0.6749E+03
      3.827  0.1238E+02  0.4406E+02  0.6773E+03  0.6772E+03
      3.880  0.3220E+02  0.1598E+02  0.6790E+03  0.6781E+03
      3.934  0.4510E+00  0.1667E+02  0.6790E+03  0.6790E+03
      3.988  0.1919E+02  0.1503E+02  0.6800E+03  0.6798E+03
      4.041  0.5059E+02  0.5477E+02  0.6827E+03  0.6827E+03
      4.095  0.2536E+02  0.1495E+02  0.6841E+03  0.6836E+03
      4.149  0.6702E+02  0.6028E+02  0.6877E+03  0.6868E+03
      4.202  0.4269E+02  0.5985E+02  0.6900E+03  0.6900E+03
      4.256  0.3252E+02  0.1767E+02  0.6917E+03  0.6909E+03
      4.310  0.5309E+02  0.6578E+02  0.6946E+03  0.6945E+03
      4.363  0.3030E+02  0.2790E+02  0.6962E+03  0.6960E+03
      4.417  0.3849E+02  0.4115E+02  0.6983E+03  0.6982E+03
      4.471  0.1257E+02  0.9806E+01  0.6990E+03  0.6987E+03
      4.524  0.9658E+02  0.8910E+02  0.7042E+03  0.7035E+03
      4.578  0.4842E+02  0.6054E+02  0.7067E+03  0.7067E+03
      4.632  0.2308E+02  0.1578E+02  0.7080E+03  0.7076E+03
      4.686  0.7261E+02  0.7129E+02  0.7119E+03  0.7114E+03
      4.739  0.9039E+02  0.9133E+02  0.7167E+03  0.7163E+03
      4.793  0.8434E+02  0.8967E+02  0.7213E+03  0.7211E+03
      4.847  0.8502E+02  0.7951E+02  0.7258E+03  0.7254E+03
      4.900  0.3712E+02  0.4011E+02  0.7278E+03  0.7276E+03
      4.954  0.3491E+02  0.3504E+02  0.7297E+03  0.7294E+03
      5.008  0.6681E+02  0.6678E+02  0.7333E+03  0.7330E+03
      5.061  0.4736E+02  0.5106E+02  0.7358E+03  0.7358E+03
      5.115  0.8099E+02  0.7353E+02  0.7402E+03  0.7397E+03
      5.169  0.1508E+03  0.1458E+03  0.7483E+03  0.7475E+03
      5.222  0.6020E+02  0.7250E+02  0.7515E+03  0.7514E+03
      5.276  0.1331E+03  0.1271E+03  0.7587E+03  0.7583E+03
      5.330  0.6112E+02  0.6086E+02  0.7619E+03  0.7615E+03
      5.383  0.7780E+02  0.7183E+02  0.7661E+03  0.7654E+03
      5.437  0.4991E+02  0.5953E+02  0.7688E+03  0.7686E+03
      5.491  0.9858E+02  0.9882E+02  0.7741E+03  0.7739E+03
      5.545  0.1339E+03  0.1263E+03  0.7813E+03  0.7807E+03
      5.598  0.7463E+02  0.7592E+02  0.7853E+03  0.7847E+03
      5.652  0.8507E+02  0.8853E+02  0.7898E+03  0.7895E+03
      5.706  0.1082E+03  0.1070E+03  0.7957E+03  0.7952E+03
      5.759  0.1034E+03  0.1069E+03  0.8012E+03  0.8010E+03
      5.813  0.8331E+02  0.7644E+02  0.8057E+03  0.8051E+03
      5.867  0.4225E+02  0.4517E+02  0.8079E+03  0.8075E+03
      5.920  0.1069E+01  0.9081E+01  0.8080E+03  0.8080E+03
      5.974  0.0000E+00  0.0000E+00  0.8080E+03  0.8080E+03
      6.028  0.0000E+00  0.0000E+00  0.8080E+03  0.8080E+03
      6.081  0.0000E+00  0.0000E+00  0.8080E+03  0.8080E+03
      6.135  0.0000E+00  0.0000E+00  0.8080E+03  0.8080E+03
      6.189  0.0000E+00  0.0000E+00  0.8080E+03  0.8080E+03
      6.242  0.0000E+00  0.0000E+00  0.8080E+03  0.8080E+03
      6.296  0.0000E+00  0.0000E+00  0.8080E+03  0.8080E+03
      6.350  0.0000E+00  0.0000E+00  0.8080E+03  0.8080E+03
      6.404  0.0000E+00  0.0000E+00  0.8080E+03  0.8080E+03
      6.457  0.0000E+00  0.0000E+00  0.8080E+03  0.8080E+03
      6.511  0.0000E+00  0.0000E+00  0.8080E+03  0.8080E+03
      6.565  0.0000E+00  0.0000E+00  0.8080E+03  0.8080E+03
      6.618  0.0000E+00  0.0000E+00  0.8080E+03  0.8080E+03
