   8   8   0   0
  0.1228641E+02  0.4615000E-09  0.4615000E-09  0.4615000E-09  0.5000000E-15
  1.000000000000000E-004
  CAR 
 Si and Ge interface calculation         
     11.76235725    -10.99119484  301      4.59906668      1.00000000
    -10.991  0.0000E+00  0.0000E+00  0.0000E+00  0.0000E+00
    -10.915  0.0000E+00  0.0000E+00  0.0000E+00  0.0000E+00
    -10.840  0.0000E+00  0.0000E+00  0.0000E+00  0.0000E+00
    -10.764  0.0000E+00  0.0000E+00  0.0000E+00  0.0000E+00
    -10.688  0.0000E+00  0.0000E+00  0.0000E+00  0.0000E+00
    -10.612  0.0000E+00  0.0000E+00  0.0000E+00  0.0000E+00
    -10.536  0.0000E+00  0.0000E+00  0.0000E+00  0.0000E+00
    -10.460  0.0000E+00  0.0000E+00  0.0000E+00  0.0000E+00
    -10.384  0.0000E+00  0.0000E+00  0.0000E+00  0.0000E+00
    -10.309  0.0000E+00  0.0000E+00  0.0000E+00  0.0000E+00
    -10.233  0.0000E+00  0.0000E+00  0.0000E+00  0.0000E+00
    -10.157  0.0000E+00  0.0000E+00  0.0000E+00  0.0000E+00
    -10.081  0.0000E+00  0.0000E+00  0.0000E+00  0.0000E+00
    -10.005  0.3363E-12  0.0000E+00  0.2551E-13  0.0000E+00
     -9.929  0.7688E-01  0.0000E+00  0.5831E-02  0.0000E+00
     -9.854  0.1944E-02  0.3841E-16  0.5978E-02  0.2913E-17
     -9.778  0.4593E+00  0.7661E-01  0.4082E-01  0.5811E-02
     -9.702  0.8759E+00  0.2950E-04  0.1072E+00  0.5833E-02
     -9.626  0.7111E-06  0.4612E+00  0.1108E+00  0.4082E-01
     -9.550  0.6150E+00  0.6206E+00  0.1574E+00  0.8788E-01
     -9.474  0.1370E+00  0.3020E+00  0.1678E+00  0.1108E+00
     -9.398  0.3243E+00  0.6150E+00  0.1924E+00  0.1574E+00
     -9.323  0.1845E+01  0.1951E-01  0.3324E+00  0.1589E+00
     -9.247  0.3713E-01  0.4418E+00  0.3352E+00  0.1924E+00
     -9.171  0.1808E+01  0.1841E+01  0.4723E+00  0.3320E+00
     -9.095  0.0000E+00  0.1152E-02  0.4723E+00  0.3324E+00
     -9.019  0.2428E-03  0.1844E+01  0.4723E+00  0.4723E+00
     -8.943  0.9223E+00  0.0000E+00  0.5423E+00  0.4723E+00
     -8.868  0.2039E+01  0.1642E-05  0.6970E+00  0.4723E+00
     -8.792  0.1730E+00  0.9225E+00  0.7172E+00  0.5423E+00
     -8.716  0.1845E+01  0.1350E+01  0.8571E+00  0.6446E+00
     -8.640  0.8938E+00  0.9566E+00  0.9249E+00  0.7172E+00
     -8.564  0.9514E+00  0.1845E+01  0.9971E+00  0.8571E+00
     -8.488  0.6150E+00  0.2069E+00  0.1044E+01  0.8728E+00
     -8.412  0.7158E+00  0.1638E+01  0.1098E+01  0.9971E+00
     -8.337  0.1129E+01  0.6150E+00  0.1184E+01  0.1044E+01
     -8.261  0.3690E+01  0.1369E+00  0.1464E+01  0.1054E+01
     -8.185  0.0000E+00  0.1708E+01  0.1464E+01  0.1184E+01
     -8.109  0.0000E+00  0.3690E+01  0.1464E+01  0.1464E+01
     -8.033  0.4412E+00  0.0000E+00  0.1497E+01  0.1464E+01
     -7.957  0.1847E+01  0.0000E+00  0.1639E+01  0.1464E+01
     -7.882  0.1842E+01  0.3096E+00  0.1778E+01  0.1487E+01
     -7.806  0.2767E+01  0.1978E+01  0.1988E+01  0.1637E+01
     -7.730  0.1845E+01  0.1845E+01  0.2128E+01  0.1778E+01
     -7.654  0.1029E-06  0.2747E+01  0.2128E+01  0.1987E+01
     -7.578  0.1845E+01  0.1830E+01  0.2268E+01  0.2127E+01
     -7.502  0.3673E+01  0.6661E-10  0.2547E+01  0.2128E+01
     -7.426  0.1845E+01  0.1845E+01  0.2688E+01  0.2268E+01
     -7.351  0.0000E+00  0.3397E+01  0.2688E+01  0.2526E+01
     -7.275  0.1251E-03  0.1845E+01  0.2688E+01  0.2688E+01
     -7.199  0.1845E+01  0.0000E+00  0.2828E+01  0.2688E+01
     -7.123  0.1768E-01  0.8897E-06  0.2829E+01  0.2688E+01
     -7.047  0.2592E+01  0.1845E+01  0.3026E+01  0.2828E+01
     -6.971  0.4002E+01  0.4037E-03  0.3329E+01  0.2828E+01
     -6.896  0.1845E+01  0.2467E+01  0.3469E+01  0.3015E+01
     -6.820  0.5528E+01  0.4144E+01  0.3889E+01  0.3329E+01
     -6.744  0.0000E+00  0.1844E+01  0.3889E+01  0.3469E+01
     -6.668  0.1755E+01  0.5318E+01  0.4022E+01  0.3873E+01
     -6.592  0.2265E+01  0.0000E+00  0.4203E+01  0.3889E+01
     -6.516  0.3249E+01  0.1445E+01  0.4449E+01  0.3999E+01
     -6.440  0.3452E+01  0.1863E+01  0.4711E+01  0.4170E+01
     -6.365  0.2973E+01  0.3672E+01  0.4939E+01  0.4449E+01
     -6.289  0.4306E-07  0.2629E+01  0.4939E+01  0.4648E+01
     -6.213  0.8617E+01  0.3813E+01  0.5592E+01  0.4939E+01
     -6.137  0.0000E+00  0.4263E-10  0.5638E+01  0.4939E+01
     -6.061  0.0000E+00  0.6677E+01  0.5638E+01  0.5445E+01
     -5.985  0.0000E+00  0.2384E+01  0.5638E+01  0.5638E+01
     -5.910  0.3996E-03  0.0000E+00  0.5639E+01  0.5638E+01
     -5.834  0.4163E+01  0.0000E+00  0.5954E+01  0.5638E+01
     -5.758  0.3056E+01  0.7661E-08  0.6186E+01  0.5638E+01
     -5.682  0.2468E+01  0.4135E+01  0.6373E+01  0.5952E+01
     -5.606  0.7078E+01  0.1873E+01  0.6910E+01  0.6095E+01
     -5.530  0.5235E-09  0.3662E+01  0.6933E+01  0.6373E+01
     -5.454  0.3690E+01  0.3541E+01  0.7213E+01  0.6642E+01
     -5.379  0.2429E+00  0.3839E+01  0.7231E+01  0.6933E+01
     -5.303  0.2525E+01  0.3653E+01  0.7423E+01  0.7210E+01
     -5.227  0.0000E+00  0.3684E-03  0.7423E+01  0.7213E+01
     -5.151  0.1781E+01  0.2651E+01  0.7558E+01  0.7414E+01
     -5.075  0.3060E+01  0.0000E+00  0.7795E+01  0.7423E+01
     -4.999  0.1357E+01  0.2878E+00  0.7911E+01  0.7445E+01
     -4.924  0.5407E+00  0.1856E+01  0.7971E+01  0.7585E+01
     -4.848  0.3818E+00  0.3623E+01  0.8000E+01  0.7860E+01
     -4.772  0.0000E+00  0.9224E+00  0.8000E+01  0.7930E+01
     -4.696  0.0000E+00  0.9224E+00  0.8000E+01  0.8000E+01
     -4.620  0.0000E+00  0.0000E+00  0.8000E+01  0.8000E+01
     -4.544  0.0000E+00  0.0000E+00  0.8000E+01  0.8000E+01
     -4.469  0.0000E+00  0.0000E+00  0.8000E+01  0.8000E+01
     -4.393  0.0000E+00  0.0000E+00  0.8000E+01  0.8000E+01
     -4.317  0.0000E+00  0.0000E+00  0.8000E+01  0.8000E+01
     -4.241  0.0000E+00  0.0000E+00  0.8000E+01  0.8000E+01
     -4.165  0.0000E+00  0.0000E+00  0.8000E+01  0.8000E+01
     -4.089  0.0000E+00  0.0000E+00  0.8000E+01  0.8000E+01
     -4.013  0.0000E+00  0.0000E+00  0.8000E+01  0.8000E+01
     -3.938  0.0000E+00  0.0000E+00  0.8000E+01  0.8000E+01
     -3.862  0.0000E+00  0.0000E+00  0.8000E+01  0.8000E+01
     -3.786  0.0000E+00  0.0000E+00  0.8000E+01  0.8000E+01
     -3.710  0.0000E+00  0.0000E+00  0.8000E+01  0.8000E+01
     -3.634  0.0000E+00  0.0000E+00  0.8000E+01  0.8000E+01
     -3.558  0.0000E+00  0.0000E+00  0.8000E+01  0.8000E+01
     -3.483  0.0000E+00  0.0000E+00  0.8000E+01  0.8000E+01
     -3.407  0.0000E+00  0.0000E+00  0.8000E+01  0.8000E+01
     -3.331  0.0000E+00  0.0000E+00  0.8000E+01  0.8000E+01
     -3.255  0.3800E-10  0.0000E+00  0.8000E+01  0.8000E+01
     -3.179  0.2907E+00  0.0000E+00  0.8022E+01  0.8000E+01
     -3.103  0.2748E+01  0.8681E-02  0.8230E+01  0.8001E+01
     -3.027  0.8826E+00  0.8471E+00  0.8297E+01  0.8065E+01
     -2.952  0.2775E+01  0.3062E+01  0.8508E+01  0.8297E+01
     -2.876  0.1868E+01  0.7481E+00  0.8650E+01  0.8354E+01
     -2.800  0.4582E+01  0.3537E+01  0.8997E+01  0.8636E+01
     -2.724  0.1482E+01  0.9207E+00  0.9109E+01  0.8717E+01
     -2.648  0.3916E+01  0.3690E+01  0.9407E+01  0.8997E+01
     -2.572  0.1085E+02  0.3322E+01  0.1023E+02  0.9249E+01
     -2.497  0.1884E+01  0.2007E+01  0.1038E+02  0.9406E+01
     -2.421  0.3643E+01  0.1001E+02  0.1065E+02  0.1017E+02
     -2.345  0.7052E+01  0.3469E+01  0.1119E+02  0.1050E+02
     -2.269  0.6998E+01  0.2071E+01  0.1172E+02  0.1065E+02
     -2.193  0.1172E+01  0.9260E+01  0.1181E+02  0.1136E+02
     -2.117  0.0000E+00  0.3722E+01  0.1181E+02  0.1167E+02
     -2.041  0.0000E+00  0.1814E+01  0.1181E+02  0.1181E+02
     -1.966  0.2852E-04  0.0000E+00  0.1181E+02  0.1181E+02
     -1.890  0.1845E+01  0.0000E+00  0.1195E+02  0.1181E+02
     -1.814  0.2781E+01  0.9443E-10  0.1216E+02  0.1181E+02
     -1.738  0.1832E+01  0.1845E+01  0.1230E+02  0.1195E+02
     -1.662  0.7380E+01  0.1902E+01  0.1286E+02  0.1209E+02
     -1.586  0.0000E+00  0.2711E+01  0.1286E+02  0.1230E+02
     -1.511  0.0000E+00  0.7377E+01  0.1286E+02  0.1286E+02
     -1.435  0.0000E+00  0.0000E+00  0.1286E+02  0.1286E+02
     -1.359  0.1069E+00  0.0000E+00  0.1287E+02  0.1286E+02
     -1.283  0.1738E+01  0.0000E+00  0.1300E+02  0.1286E+02
     -1.207  0.3278E-01  0.2389E+00  0.1300E+02  0.1288E+02
     -1.131  0.1812E+01  0.1606E+01  0.1314E+02  0.1300E+02
     -1.055  0.1845E+01  0.8408E-01  0.1328E+02  0.1300E+02
     -0.980  0.3464E+01  0.1761E+01  0.1354E+02  0.1314E+02
     -0.904  0.1477E+01  0.1835E+01  0.1367E+02  0.1328E+02
     -0.828  0.4150E+01  0.3614E+01  0.1401E+02  0.1355E+02
     -0.752  0.0000E+00  0.1812E+00  0.1401E+02  0.1357E+02
     -0.676  0.0000E+00  0.5815E+01  0.1401E+02  0.1401E+02
     -0.600  0.0000E+00  0.0000E+00  0.1401E+02  0.1401E+02
     -0.525  0.0000E+00  0.0000E+00  0.1401E+02  0.1401E+02
     -0.449  0.0000E+00  0.0000E+00  0.1401E+02  0.1401E+02
     -0.373  0.0000E+00  0.0000E+00  0.1401E+02  0.1401E+02
     -0.297  0.1823E+01  0.0000E+00  0.1415E+02  0.1401E+02
     -0.221  0.3455E+00  0.0000E+00  0.1418E+02  0.1401E+02
     -0.145  0.5771E+00  0.1560E+01  0.1422E+02  0.1413E+02
     -0.069  0.9297E+00  0.7665E-02  0.1429E+02  0.1415E+02
      0.006  0.2648E+01  0.9149E+00  0.1449E+02  0.1422E+02
      0.082  0.5339E+01  0.2463E+00  0.1490E+02  0.1424E+02
      0.158  0.1845E+01  0.3071E+01  0.1504E+02  0.1447E+02
      0.234  0.0000E+00  0.5535E+01  0.1504E+02  0.1490E+02
      0.310  0.1791E+01  0.1789E+01  0.1517E+02  0.1503E+02
      0.386  0.2682E+01  0.0000E+00  0.1538E+02  0.1504E+02
      0.461  0.7379E+01  0.7441E-01  0.1595E+02  0.1504E+02
      0.537  0.1838E+01  0.4102E+01  0.1609E+02  0.1535E+02
      0.613  0.3660E+01  0.7346E+01  0.1637E+02  0.1594E+02
      0.689  0.4182E+01  0.1090E+01  0.1669E+02  0.1603E+02
      0.765  0.3526E+01  0.1359E+01  0.1696E+02  0.1613E+02
      0.841  0.5523E-12  0.7035E+01  0.1696E+02  0.1667E+02
      0.916  0.9224E+00  0.3892E+01  0.1703E+02  0.1696E+02
      0.992  0.1861E+01  0.0000E+00  0.1717E+02  0.1696E+02
      1.068  0.8482E+01  0.6987E+00  0.1782E+02  0.1702E+02
      1.144  0.6256E+01  0.1844E+01  0.1829E+02  0.1717E+02
      1.220  0.1339E-07  0.7132E+01  0.1829E+02  0.1771E+02
      1.296  0.1845E+01  0.7363E+01  0.1843E+02  0.1829E+02
      1.372  0.7112E+00  0.1844E-13  0.1849E+02  0.1829E+02
      1.447  0.3001E+01  0.1843E+01  0.1871E+02  0.1843E+02
      1.523  0.1824E+01  0.1303E-01  0.1885E+02  0.1843E+02
      1.599  0.2836E+01  0.3677E+01  0.1907E+02  0.1871E+02
      1.675  0.8008E+01  0.1845E+01  0.1967E+02  0.1885E+02
      1.751  0.6740E+01  0.1966E+01  0.2019E+02  0.1900E+02
      1.827  0.6397E+01  0.6484E+01  0.2067E+02  0.1949E+02
      1.902  0.1886E+01  0.8647E+01  0.2081E+02  0.2018E+02
      1.978  0.4110E+01  0.6426E+01  0.2113E+02  0.2067E+02
      2.054  0.4609E+01  0.1849E+01  0.2147E+02  0.2081E+02
      2.130  0.9216E+00  0.3976E+01  0.2155E+02  0.2111E+02
      2.206  0.6029E+01  0.4400E+01  0.2200E+02  0.2146E+02
      2.282  0.2277E+01  0.8916E+00  0.2218E+02  0.2154E+02
      2.358  0.5906E+01  0.5919E+01  0.2262E+02  0.2199E+02
      2.433  0.5618E+01  0.1865E+01  0.2305E+02  0.2214E+02
      2.509  0.1845E+01  0.5340E+01  0.2319E+02  0.2255E+02
      2.585  0.5535E+01  0.6436E+01  0.2361E+02  0.2305E+02
      2.661  0.4270E+01  0.1845E+01  0.2393E+02  0.2319E+02
      2.737  0.5922E+01  0.5535E+01  0.2438E+02  0.2361E+02
      2.813  0.4881E+01  0.3730E+01  0.2475E+02  0.2389E+02
      2.888  0.7991E+01  0.6395E+01  0.2536E+02  0.2438E+02
      2.964  0.2768E+01  0.3837E+01  0.2557E+02  0.2467E+02
      3.040  0.1680E+01  0.8548E+01  0.2570E+02  0.2532E+02
      3.116  0.3702E+01  0.3288E+01  0.2599E+02  0.2557E+02
      3.192  0.6934E+01  0.9616E+00  0.2652E+02  0.2564E+02
      3.268  0.2073E+01  0.4571E+01  0.2671E+02  0.2599E+02
      3.344  0.9225E+00  0.4935E+01  0.2680E+02  0.2636E+02
      3.419  0.5520E+01  0.2896E+01  0.2722E+02  0.2658E+02
      3.495  0.2867E+01  0.2932E+01  0.2744E+02  0.2680E+02
      3.571  0.5103E+01  0.4940E+01  0.2783E+02  0.2718E+02
      3.647  0.3592E+01  0.2740E+01  0.2814E+02  0.2743E+02
      3.723  0.6143E+01  0.4090E+01  0.2860E+02  0.2774E+02
      3.799  0.6289E+01  0.4572E+01  0.2908E+02  0.2809E+02
      3.874  0.1390E+01  0.5607E+01  0.2918E+02  0.2853E+02
      3.950  0.3201E+01  0.7299E+01  0.2946E+02  0.2908E+02
      4.026  0.3127E+01  0.3352E+00  0.2974E+02  0.2910E+02
      4.102  0.4561E+01  0.3580E+01  0.3008E+02  0.2938E+02
      4.178  0.2367E-05  0.4335E+01  0.3008E+02  0.2970E+02
      4.254  0.1845E+01  0.4913E+01  0.3022E+02  0.3008E+02
      4.330  0.6438E+01  0.5408E-10  0.3071E+02  0.3008E+02
      4.405  0.2680E+01  0.1845E+01  0.3091E+02  0.3022E+02
      4.481  0.3075E+01  0.6020E+01  0.3115E+02  0.3068E+02
      4.557  0.0000E+00  0.1814E+01  0.3115E+02  0.3082E+02
      4.633  0.2253E-14  0.4466E+01  0.3115E+02  0.3115E+02
      4.709  0.1841E+01  0.0000E+00  0.3129E+02  0.3115E+02
      4.785  0.1373E+01  0.0000E+00  0.3140E+02  0.3115E+02
      4.860  0.3690E+01  0.9894E+00  0.3168E+02  0.3123E+02
      4.936  0.2949E-01  0.1373E+01  0.3168E+02  0.3133E+02
      5.012  0.9525E+00  0.4385E+01  0.3175E+02  0.3167E+02
      5.088  0.2092E+01  0.1437E-05  0.3191E+02  0.3168E+02
      5.164  0.0000E+00  0.9225E+00  0.3191E+02  0.3175E+02
      5.240  0.5289E-04  0.1570E+01  0.3191E+02  0.3187E+02
      5.316  0.9225E+00  0.5826E+00  0.3198E+02  0.3191E+02
      5.391  0.2306E+00  0.4155E-13  0.3200E+02  0.3191E+02
      5.467  0.0000E+00  0.9221E+00  0.3200E+02  0.3198E+02
      5.543  0.0000E+00  0.2243E+00  0.3200E+02  0.3200E+02
      5.619  0.0000E+00  0.0000E+00  0.3200E+02  0.3200E+02
      5.695  0.0000E+00  0.0000E+00  0.3200E+02  0.3200E+02
      5.771  0.0000E+00  0.0000E+00  0.3200E+02  0.3200E+02
      5.846  0.0000E+00  0.0000E+00  0.3200E+02  0.3200E+02
      5.922  0.0000E+00  0.0000E+00  0.3200E+02  0.3200E+02
      5.998  0.0000E+00  0.0000E+00  0.3200E+02  0.3200E+02
      6.074  0.0000E+00  0.0000E+00  0.3200E+02  0.3200E+02
      6.150  0.0000E+00  0.0000E+00  0.3200E+02  0.3200E+02
      6.226  0.0000E+00  0.0000E+00  0.3200E+02  0.3200E+02
      6.302  0.0000E+00  0.0000E+00  0.3200E+02  0.3200E+02
      6.377  0.0000E+00  0.0000E+00  0.3200E+02  0.3200E+02
      6.453  0.0000E+00  0.0000E+00  0.3200E+02  0.3200E+02
      6.529  0.0000E+00  0.0000E+00  0.3200E+02  0.3200E+02
      6.605  0.0000E+00  0.0000E+00  0.3200E+02  0.3200E+02
      6.681  0.0000E+00  0.0000E+00  0.3200E+02  0.3200E+02
      6.757  0.0000E+00  0.0000E+00  0.3200E+02  0.3200E+02
      6.832  0.0000E+00  0.0000E+00  0.3200E+02  0.3200E+02
      6.908  0.0000E+00  0.0000E+00  0.3200E+02  0.3200E+02
      6.984  0.3369E-04  0.0000E+00  0.3200E+02  0.3200E+02
      7.060  0.2306E+00  0.0000E+00  0.3202E+02  0.3200E+02
      7.136  0.2592E-03  0.0000E+00  0.3202E+02  0.3200E+02
      7.212  0.4610E+00  0.0000E+00  0.3205E+02  0.3200E+02
      7.287  0.0000E+00  0.1024E-15  0.3205E+02  0.3200E+02
      7.363  0.0000E+00  0.2298E+00  0.3205E+02  0.3202E+02
      7.439  0.0000E+00  0.5220E-09  0.3205E+02  0.3202E+02
      7.515  0.2074E-09  0.4613E+00  0.3205E+02  0.3205E+02
      7.591  0.1001E+01  0.0000E+00  0.3213E+02  0.3205E+02
      7.667  0.3829E+00  0.0000E+00  0.3216E+02  0.3205E+02
      7.743  0.2766E+01  0.0000E+00  0.3237E+02  0.3205E+02
      7.818  0.1024E-15  0.0000E+00  0.3237E+02  0.3205E+02
      7.894  0.1830E+01  0.1278E+01  0.3251E+02  0.3215E+02
      7.970  0.0000E+00  0.1663E-10  0.3251E+02  0.3216E+02
      8.046  0.0000E+00  0.2767E+01  0.3251E+02  0.3237E+02
      8.122  0.5544E-02  0.2156E-09  0.3251E+02  0.3237E+02
      8.198  0.1840E+01  0.1845E+01  0.3265E+02  0.3251E+02
      8.273  0.1518E-03  0.0000E+00  0.3265E+02  0.3251E+02
      8.349  0.2293E+01  0.0000E+00  0.3282E+02  0.3251E+02
      8.425  0.3497E-01  0.6537E+00  0.3282E+02  0.3256E+02
      8.501  0.4191E-01  0.1191E+01  0.3283E+02  0.3265E+02
      8.577  0.1746E+01  0.4616E+00  0.3296E+02  0.3268E+02
      8.653  0.9245E+00  0.1845E+01  0.3304E+02  0.3282E+02
      8.729  0.4212E+01  0.7688E-01  0.3336E+02  0.3283E+02
      8.804  0.1845E+01  0.7328E-04  0.3350E+02  0.3283E+02
      8.880  0.2763E+01  0.3383E+01  0.3371E+02  0.3308E+02
      8.956  0.4539E+00  0.5461E-03  0.3375E+02  0.3308E+02
      9.032  0.5312E+01  0.5535E+01  0.3415E+02  0.3350E+02
      9.108  0.1537E-05  0.2093E+01  0.3422E+02  0.3366E+02
      9.184  0.8517E+01  0.2216E+01  0.3486E+02  0.3383E+02
      9.259  0.2632E+01  0.1886E+01  0.3507E+02  0.3398E+02
      9.335  0.0000E+00  0.4969E+01  0.3507E+02  0.3436E+02
      9.411  0.4673E+00  0.8343E+01  0.3510E+02  0.3499E+02
      9.487  0.4435E+01  0.9033E+00  0.3544E+02  0.3507E+02
      9.563  0.4463E+01  0.3967E-03  0.3580E+02  0.3507E+02
      9.639  0.1002E+02  0.4613E+00  0.3656E+02  0.3510E+02
      9.715  0.4583E+01  0.5600E+01  0.3692E+02  0.3553E+02
      9.790  0.4191E+01  0.7650E+01  0.3727E+02  0.3612E+02
      9.866  0.9223E+01  0.5927E+01  0.3797E+02  0.3657E+02
      9.942  0.1845E+01  0.7507E+01  0.3811E+02  0.3714E+02
     10.018  0.2795E+01  0.4593E+01  0.3832E+02  0.3749E+02
     10.094  0.5965E+01  0.6351E+01  0.3878E+02  0.3797E+02
     10.170  0.0000E+00  0.1849E+01  0.3878E+02  0.3811E+02
     10.245  0.2789E+01  0.3180E+01  0.3899E+02  0.3835E+02
     10.321  0.4163E+01  0.4464E+01  0.3937E+02  0.3869E+02
     10.397  0.2423E+01  0.1071E+01  0.3955E+02  0.3878E+02
     10.473  0.4021E+01  0.3690E+01  0.3986E+02  0.3906E+02
     10.549  0.1845E+01  0.5585E+01  0.4000E+02  0.3948E+02
     10.625  0.0000E+00  0.3102E+01  0.4000E+02  0.3972E+02
     10.701  0.0000E+00  0.1845E+01  0.4000E+02  0.3986E+02
     10.776  0.0000E+00  0.1845E+01  0.4000E+02  0.4000E+02
     10.852  0.0000E+00  0.0000E+00  0.4000E+02  0.4000E+02
     10.928  0.0000E+00  0.0000E+00  0.4000E+02  0.4000E+02
     11.004  0.0000E+00  0.0000E+00  0.4000E+02  0.4000E+02
     11.080  0.0000E+00  0.0000E+00  0.4000E+02  0.4000E+02
     11.156  0.0000E+00  0.0000E+00  0.4000E+02  0.4000E+02
     11.231  0.0000E+00  0.0000E+00  0.4000E+02  0.4000E+02
     11.307  0.0000E+00  0.0000E+00  0.4000E+02  0.4000E+02
     11.383  0.0000E+00  0.0000E+00  0.4000E+02  0.4000E+02
     11.459  0.0000E+00  0.0000E+00  0.4000E+02  0.4000E+02
     11.535  0.0000E+00  0.0000E+00  0.4000E+02  0.4000E+02
     11.611  0.0000E+00  0.0000E+00  0.4000E+02  0.4000E+02
     11.687  0.0000E+00  0.0000E+00  0.4000E+02  0.4000E+02
     11.762  0.0000E+00  0.0000E+00  0.4000E+02  0.4000E+02
