 120 120   0   0
  0.1350816E+02  0.1330318E-08  0.1629300E-08  0.8192406E-09  0.5000000E-15
  1.000000000000000E-004
  CAR 
 Si and Ge interface calculation         
      7.50267046    -15.07754323  301      4.07744804      1.00000000
    -15.078  0.0000E+00  0.0000E+00  0.0000E+00  0.0000E+00
    -15.002  0.0000E+00  0.0000E+00  0.0000E+00  0.0000E+00
    -14.927  0.0000E+00  0.0000E+00  0.0000E+00  0.0000E+00
    -14.852  0.0000E+00  0.0000E+00  0.0000E+00  0.0000E+00
    -14.776  0.0000E+00  0.0000E+00  0.0000E+00  0.0000E+00
    -14.701  0.0000E+00  0.0000E+00  0.0000E+00  0.0000E+00
    -14.626  0.0000E+00  0.0000E+00  0.0000E+00  0.0000E+00
    -14.551  0.0000E+00  0.0000E+00  0.0000E+00  0.0000E+00
    -14.475  0.0000E+00  0.0000E+00  0.0000E+00  0.0000E+00
    -14.400  0.0000E+00  0.0000E+00  0.0000E+00  0.0000E+00
    -14.325  0.0000E+00  0.0000E+00  0.0000E+00  0.0000E+00
    -14.250  0.0000E+00  0.0000E+00  0.0000E+00  0.0000E+00
    -14.174  0.0000E+00  0.0000E+00  0.0000E+00  0.0000E+00
    -14.099  0.1931E-10  0.2335E-14  0.1453E-11  0.1758E-15
    -14.024  0.4428E+01  0.4409E+01  0.3333E+00  0.3318E+00
    -13.949  0.9810E+01  0.8815E+01  0.1072E+01  0.9968E+00
    -13.873  0.1676E+02  0.1767E+02  0.2333E+01  0.2333E+01
    -13.798  0.5349E+00  0.2685E-01  0.2374E+01  0.2335E+01
    -13.723  0.2603E+02  0.2626E+02  0.4333E+01  0.4312E+01
    -13.647  0.8803E+01  0.8060E+01  0.4996E+01  0.4940E+01
    -13.572  0.1404E+02  0.1298E+02  0.6057E+01  0.5977E+01
    -13.497  0.7337E+01  0.6439E+01  0.6611E+01  0.6490E+01
    -13.422  0.1341E+02  0.1564E+02  0.7677E+01  0.7667E+01
    -13.346  0.1946E+02  0.1605E+02  0.9142E+01  0.8875E+01
    -13.271  0.6742E+01  0.1015E+02  0.9667E+01  0.9667E+01
    -13.196  0.1029E+02  0.8925E+01  0.1044E+02  0.1034E+02
    -13.121  0.1186E+02  0.1314E+02  0.1133E+02  0.1133E+02
    -13.045  0.1473E+02  0.1075E+02  0.1244E+02  0.1214E+02
    -12.970  0.2809E+02  0.2925E+02  0.1458E+02  0.1436E+02
    -12.895  0.5546E+01  0.8176E+01  0.1500E+02  0.1500E+02
    -12.820  0.2146E+02  0.1813E+02  0.1662E+02  0.1636E+02
    -12.744  0.8857E+01  0.1287E+02  0.1733E+02  0.1733E+02
    -12.669  0.8860E+01  0.8855E+01  0.1800E+02  0.1800E+02
    -12.594  0.8855E+01  0.8857E+01  0.1867E+02  0.1867E+02
    -12.518  0.1748E+02  0.1457E+02  0.1998E+02  0.1976E+02
    -12.443  0.2362E+02  0.1831E+02  0.2178E+02  0.2138E+02
    -12.368  0.2742E+01  0.7927E+01  0.2200E+02  0.2200E+02
    -12.293  0.1818E+02  0.1628E+02  0.2337E+02  0.2323E+02
    -12.217  0.8239E+01  0.8796E+01  0.2400E+02  0.2400E+02
    -12.142  0.4428E+01  0.4410E+01  0.2433E+02  0.2433E+02
    -12.067  0.7020E+01  0.5161E+01  0.2486E+02  0.2472E+02
    -11.992  0.1898E+01  0.3700E+01  0.2500E+02  0.2500E+02
    -11.916  0.3083E+02  0.3008E+02  0.2733E+02  0.2726E+02
    -11.841  0.8857E+01  0.8857E+01  0.2800E+02  0.2800E+02
    -11.766  0.0000E+00  0.0000E+00  0.2800E+02  0.2800E+02
    -11.691  0.5758E-10  0.1623E-13  0.2800E+02  0.2800E+02
    -11.615  0.4428E+01  0.4419E+01  0.2833E+02  0.2833E+02
    -11.540  0.8857E+01  0.8856E+01  0.2900E+02  0.2900E+02
    -11.465  0.0000E+00  0.0000E+00  0.2900E+02  0.2900E+02
    -11.389  0.2184E+01  0.3408E+00  0.2916E+02  0.2903E+02
    -11.314  0.1110E+02  0.1295E+02  0.3000E+02  0.3000E+02
    -11.239  0.2359E+02  0.1929E+02  0.3178E+02  0.3145E+02
    -11.164  0.4394E+02  0.4534E+02  0.3508E+02  0.3487E+02
    -11.088  0.1855E+02  0.1976E+02  0.3652E+02  0.3636E+02
    -11.013  0.7317E+01  0.8564E+01  0.3707E+02  0.3701E+02
    -10.938  0.7906E+01  0.8779E+01  0.3767E+02  0.3767E+02
    -10.863  0.1094E+02  0.4596E+01  0.3849E+02  0.3801E+02
    -10.787  0.1444E+02  0.2197E+02  0.3967E+02  0.3967E+02
    -10.712  0.2185E-01  0.1115E-02  0.3967E+02  0.3967E+02
    -10.637  0.9124E+01  0.8863E+01  0.4036E+02  0.4033E+02
    -10.562  0.2627E+02  0.2623E+02  0.4233E+02  0.4231E+02
    -10.486  0.9373E-03  0.5996E-05  0.4233E+02  0.4233E+02
    -10.411  0.8856E+01  0.8857E+01  0.4300E+02  0.4300E+02
    -10.336  0.8870E+01  0.8852E+01  0.4367E+02  0.4367E+02
    -10.260  0.1311E+02  0.1210E+02  0.4465E+02  0.4458E+02
    -10.185  0.5387E+01  0.5423E+01  0.4508E+02  0.4501E+02
    -10.110  0.1667E+02  0.1747E+02  0.4633E+02  0.4632E+02
    -10.035  0.7036E+01  0.2862E+01  0.4686E+02  0.4655E+02
     -9.959  0.4428E+01  0.1041E+02  0.4733E+02  0.4733E+02
     -9.884  0.1659E+02  0.1386E+02  0.4858E+02  0.4838E+02
     -9.809  0.1587E+02  0.1718E+02  0.4980E+02  0.4967E+02
     -9.734  0.1147E+02  0.1225E+02  0.5066E+02  0.5059E+02
     -9.658  0.1327E+02  0.1363E+02  0.5167E+02  0.5167E+02
     -9.583  0.1791E+02  0.1700E+02  0.5301E+02  0.5295E+02
     -9.508  0.3028E+02  0.2792E+02  0.5529E+02  0.5510E+02
     -9.432  0.2025E+02  0.2022E+02  0.5686E+02  0.5662E+02
     -9.357  0.1552E+02  0.1657E+02  0.5803E+02  0.5794E+02
     -9.282  0.2136E+02  0.1570E+02  0.5964E+02  0.5918E+02
     -9.207  0.2742E+02  0.2568E+02  0.6178E+02  0.6111E+02
     -9.131  0.2041E+02  0.2464E+02  0.6345E+02  0.6300E+02
     -9.056  0.1905E+02  0.2164E+02  0.6491E+02  0.6471E+02
     -8.981  0.2120E+02  0.1782E+02  0.6654E+02  0.6605E+02
     -8.906  0.3308E+02  0.3098E+02  0.6909E+02  0.6841E+02
     -8.830  0.2049E+02  0.2778E+02  0.7066E+02  0.7055E+02
     -8.755  0.4429E+01  0.6008E+01  0.7100E+02  0.7100E+02
     -8.680  0.1918E+02  0.9456E+01  0.7244E+02  0.7171E+02
     -8.605  0.2804E+02  0.3363E+02  0.7459E+02  0.7431E+02
     -8.529  0.9496E+01  0.1256E+02  0.7533E+02  0.7533E+02
     -8.454  0.1788E+02  0.1568E+02  0.7668E+02  0.7651E+02
     -8.379  0.2205E+02  0.1814E+02  0.7835E+02  0.7789E+02
     -8.303  0.2332E+02  0.2876E+02  0.8020E+02  0.8006E+02
     -8.228  0.6045E+01  0.8050E+01  0.8067E+02  0.8067E+02
     -8.153  0.8855E+01  0.8857E+01  0.8133E+02  0.8133E+02
     -8.078  0.3551E+01  0.7927E+00  0.8160E+02  0.8139E+02
     -8.002  0.3318E+01  0.4490E+01  0.8192E+02  0.8173E+02
     -7.927  0.9159E+01  0.1034E+02  0.8265E+02  0.8251E+02
     -7.852  0.4421E+01  0.5300E+01  0.8300E+02  0.8300E+02
     -7.777  0.1521E-04  0.1326E-06  0.8300E+02  0.8300E+02
     -7.701  0.8857E+01  0.8857E+01  0.8367E+02  0.8367E+02
     -7.626  0.4429E+01  0.4429E+01  0.8400E+02  0.8400E+02
     -7.551  0.9090E-02  0.5224E-03  0.8400E+02  0.8400E+02
     -7.476  0.4420E+01  0.4428E+01  0.8433E+02  0.8433E+02
     -7.400  0.4430E+01  0.4426E+01  0.8467E+02  0.8467E+02
     -7.325  0.1074E+02  0.9352E+01  0.8548E+02  0.8537E+02
     -7.250  0.1583E+02  0.1722E+02  0.8667E+02  0.8667E+02
     -7.174  0.6982E+01  0.5705E+01  0.8719E+02  0.8710E+02
     -7.099  0.1039E+02  0.1165E+02  0.8800E+02  0.8800E+02
     -7.024  0.0000E+00  0.0000E+00  0.8800E+02  0.8800E+02
     -6.949  0.8464E+01  0.5443E+01  0.8864E+02  0.8841E+02
     -6.873  0.1106E-14  0.3414E+01  0.8867E+02  0.8867E+02
     -6.798  0.3014E+01  0.2195E+01  0.8889E+02  0.8883E+02
     -6.723  0.1065E+02  0.1093E+02  0.8970E+02  0.8966E+02
     -6.648  0.1270E+02  0.1239E+02  0.9065E+02  0.9060E+02
     -6.572  0.1930E+02  0.1718E+02  0.9211E+02  0.9190E+02
     -6.497  0.1675E+02  0.1484E+02  0.9338E+02  0.9304E+02
     -6.422  0.2684E+02  0.2779E+02  0.9543E+02  0.9520E+02
     -6.347  0.3443E+02  0.3421E+02  0.9804E+02  0.9777E+02
     -6.271  0.2922E+02  0.2648E+02  0.1002E+03  0.9980E+02
     -6.196  0.4190E+02  0.4418E+02  0.1034E+03  0.1032E+03
     -6.121  0.3396E+02  0.3274E+02  0.1060E+03  0.1057E+03
     -6.045  0.3508E+02  0.3287E+02  0.1087E+03  0.1083E+03
     -5.970  0.1958E+02  0.2411E+02  0.1102E+03  0.1101E+03
     -5.895  0.1493E+02  0.1352E+02  0.1113E+03  0.1112E+03
     -5.820  0.2125E+02  0.1998E+02  0.1129E+03  0.1128E+03
     -5.744  0.1755E+02  0.1654E+02  0.1142E+03  0.1140E+03
     -5.669  0.2684E+02  0.2717E+02  0.1163E+03  0.1161E+03
     -5.594  0.1782E+02  0.1658E+02  0.1176E+03  0.1174E+03
     -5.519  0.3167E+02  0.2926E+02  0.1200E+03  0.1196E+03
     -5.443  0.4106E+02  0.4040E+02  0.1232E+03  0.1227E+03
     -5.368  0.2298E+02  0.2404E+02  0.1250E+03  0.1246E+03
     -5.293  0.2790E+02  0.3134E+02  0.1271E+03  0.1270E+03
     -5.218  0.3163E+02  0.2525E+02  0.1295E+03  0.1289E+03
     -5.142  0.4038E+02  0.4642E+02  0.1327E+03  0.1324E+03
     -5.067  0.2177E+02  0.2285E+02  0.1344E+03  0.1342E+03
     -4.992  0.3197E+02  0.3183E+02  0.1369E+03  0.1366E+03
     -4.916  0.3136E+02  0.3106E+02  0.1392E+03  0.1389E+03
     -4.841  0.2205E+02  0.2227E+02  0.1410E+03  0.1406E+03
     -4.766  0.3740E+02  0.3615E+02  0.1438E+03  0.1434E+03
     -4.691  0.2470E+02  0.2569E+02  0.1458E+03  0.1454E+03
     -4.615  0.3099E+02  0.3235E+02  0.1481E+03  0.1479E+03
     -4.540  0.3131E+02  0.3015E+02  0.1505E+03  0.1501E+03
     -4.465  0.2805E+02  0.2925E+02  0.1527E+03  0.1524E+03
     -4.390  0.3664E+02  0.3699E+02  0.1555E+03  0.1552E+03
     -4.314  0.2577E+02  0.2849E+02  0.1574E+03  0.1574E+03
     -4.239  0.2085E+02  0.1683E+02  0.1590E+03  0.1587E+03
     -4.164  0.3476E+02  0.3527E+02  0.1616E+03  0.1614E+03
     -4.089  0.2632E+02  0.2682E+02  0.1636E+03  0.1634E+03
     -4.013  0.2911E+02  0.2761E+02  0.1658E+03  0.1655E+03
     -3.938  0.3097E+02  0.3014E+02  0.1682E+03  0.1678E+03
     -3.863  0.2421E+02  0.2310E+02  0.1700E+03  0.1696E+03
     -3.787  0.3566E+02  0.3591E+02  0.1728E+03  0.1723E+03
     -3.712  0.3705E+02  0.4021E+02  0.1757E+03  0.1754E+03
     -3.637  0.2383E+02  0.2482E+02  0.1775E+03  0.1773E+03
     -3.562  0.3600E+02  0.3505E+02  0.1803E+03  0.1800E+03
     -3.486  0.3391E+02  0.3435E+02  0.1829E+03  0.1826E+03
     -3.411  0.2920E+02  0.3130E+02  0.1851E+03  0.1850E+03
     -3.336  0.2263E+02  0.2027E+02  0.1868E+03  0.1865E+03
     -3.261  0.2487E+02  0.2518E+02  0.1887E+03  0.1885E+03
     -3.185  0.2694E+02  0.2778E+02  0.1907E+03  0.1906E+03
     -3.110  0.2570E+02  0.2565E+02  0.1927E+03  0.1926E+03
     -3.035  0.2518E+02  0.2164E+02  0.1946E+03  0.1942E+03
     -2.959  0.2666E+02  0.3104E+02  0.1967E+03  0.1966E+03
     -2.884  0.2218E+02  0.1702E+02  0.1983E+03  0.1979E+03
     -2.809  0.2694E+02  0.2939E+02  0.2004E+03  0.2001E+03
     -2.734  0.2113E+02  0.2277E+02  0.2020E+03  0.2018E+03
     -2.658  0.3069E+02  0.3065E+02  0.2043E+03  0.2042E+03
     -2.583  0.3101E+02  0.3097E+02  0.2067E+03  0.2066E+03
     -2.508  0.3115E+02  0.3062E+02  0.2090E+03  0.2089E+03
     -2.433  0.2779E+02  0.2510E+02  0.2111E+03  0.2108E+03
     -2.357  0.2643E+02  0.2772E+02  0.2132E+03  0.2129E+03
     -2.282  0.3334E+02  0.2965E+02  0.2157E+03  0.2152E+03
     -2.207  0.3105E+02  0.3404E+02  0.2181E+03  0.2178E+03
     -2.132  0.2979E+02  0.3232E+02  0.2204E+03  0.2203E+03
     -2.056  0.4220E+02  0.3968E+02  0.2236E+03  0.2233E+03
     -1.981  0.4564E+02  0.4345E+02  0.2270E+03  0.2266E+03
     -1.906  0.3016E+02  0.3240E+02  0.2293E+03  0.2290E+03
     -1.830  0.3446E+02  0.3500E+02  0.2320E+03  0.2317E+03
     -1.755  0.2379E+02  0.2191E+02  0.2338E+03  0.2334E+03
     -1.680  0.4064E+02  0.4157E+02  0.2369E+03  0.2365E+03
     -1.605  0.3275E+02  0.3077E+02  0.2394E+03  0.2389E+03
     -1.529  0.4462E+02  0.4699E+02  0.2428E+03  0.2425E+03
     -1.454  0.4052E+02  0.3974E+02  0.2459E+03  0.2456E+03
     -1.379  0.4008E+02  0.3864E+02  0.2489E+03  0.2486E+03
     -1.304  0.4477E+02  0.4689E+02  0.2524E+03  0.2521E+03
     -1.228  0.4072E+02  0.3819E+02  0.2555E+03  0.2551E+03
     -1.153  0.4068E+02  0.4126E+02  0.2586E+03  0.2582E+03
     -1.078  0.3810E+02  0.3804E+02  0.2615E+03  0.2611E+03
     -1.003  0.3846E+02  0.3732E+02  0.2645E+03  0.2639E+03
     -0.927  0.4032E+02  0.4116E+02  0.2676E+03  0.2671E+03
     -0.852  0.4142E+02  0.4107E+02  0.2707E+03  0.2702E+03
     -0.777  0.2617E+02  0.3041E+02  0.2727E+03  0.2726E+03
     -0.701  0.4720E+02  0.4187E+02  0.2763E+03  0.2757E+03
     -0.626  0.2883E+02  0.3480E+02  0.2786E+03  0.2784E+03
     -0.551  0.3563E+02  0.3387E+02  0.2812E+03  0.2810E+03
     -0.476  0.3473E+02  0.3409E+02  0.2839E+03  0.2836E+03
     -0.400  0.3499E+02  0.3408E+02  0.2866E+03  0.2862E+03
     -0.325  0.2379E+02  0.2720E+02  0.2884E+03  0.2882E+03
     -0.250  0.3048E+02  0.2815E+02  0.2907E+03  0.2904E+03
     -0.175  0.2814E+02  0.2607E+02  0.2929E+03  0.2924E+03
     -0.099  0.4239E+02  0.4427E+02  0.2961E+03  0.2957E+03
     -0.024  0.2334E+02  0.2531E+02  0.2979E+03  0.2976E+03
      0.051  0.3582E+02  0.3410E+02  0.3006E+03  0.3002E+03
      0.126  0.4008E+02  0.3653E+02  0.3036E+03  0.3031E+03
      0.202  0.3830E+02  0.4188E+02  0.3065E+03  0.3062E+03
      0.277  0.3497E+02  0.3455E+02  0.3092E+03  0.3089E+03
      0.352  0.4033E+02  0.3696E+02  0.3122E+03  0.3117E+03
      0.428  0.3663E+02  0.4089E+02  0.3151E+03  0.3148E+03
      0.503  0.3645E+02  0.3482E+02  0.3178E+03  0.3176E+03
      0.578  0.3904E+02  0.3650E+02  0.3208E+03  0.3204E+03
      0.653  0.3036E+02  0.2656E+02  0.3231E+03  0.3224E+03
      0.729  0.3991E+02  0.4522E+02  0.3262E+03  0.3258E+03
      0.804  0.4097E+02  0.4303E+02  0.3294E+03  0.3291E+03
      0.879  0.3638E+02  0.3181E+02  0.3321E+03  0.3316E+03
      0.954  0.4766E+02  0.4704E+02  0.3357E+03  0.3352E+03
      1.030  0.4491E+02  0.4632E+02  0.3391E+03  0.3387E+03
      1.105  0.3044E+02  0.2998E+02  0.3414E+03  0.3411E+03
      1.180  0.4880E+02  0.4644E+02  0.3451E+03  0.3446E+03
      1.255  0.4079E+02  0.4341E+02  0.3483E+03  0.3479E+03
      1.331  0.4811E+02  0.4749E+02  0.3519E+03  0.3515E+03
      1.406  0.4645E+02  0.4508E+02  0.3554E+03  0.3550E+03
      1.481  0.5205E+02  0.5269E+02  0.3594E+03  0.3590E+03
      1.557  0.4617E+02  0.4521E+02  0.3629E+03  0.3624E+03
      1.632  0.5029E+02  0.4936E+02  0.3667E+03  0.3661E+03
      1.707  0.3487E+02  0.3710E+02  0.3694E+03  0.3690E+03
      1.782  0.4707E+02  0.4421E+02  0.3731E+03  0.3724E+03
      1.858  0.4002E+02  0.4359E+02  0.3761E+03  0.3757E+03
      1.933  0.5566E+02  0.5220E+02  0.3803E+03  0.3796E+03
      2.008  0.5994E+02  0.5630E+02  0.3849E+03  0.3840E+03
      2.083  0.3445E+02  0.4190E+02  0.3876E+03  0.3872E+03
      2.159  0.5775E+02  0.5227E+02  0.3920E+03  0.3912E+03
      2.234  0.4016E+02  0.4336E+02  0.3950E+03  0.3945E+03
      2.309  0.4631E+02  0.4103E+02  0.3985E+03  0.3976E+03
      2.384  0.4690E+02  0.4820E+02  0.4022E+03  0.4013E+03
      2.460  0.5240E+02  0.5382E+02  0.4063E+03  0.4054E+03
      2.535  0.4654E+02  0.5265E+02  0.4099E+03  0.4093E+03
      2.610  0.5639E+02  0.4766E+02  0.4142E+03  0.4130E+03
      2.686  0.4395E+02  0.5208E+02  0.4176E+03  0.4170E+03
      2.761  0.4150E+02  0.4298E+02  0.4207E+03  0.4203E+03
      2.836  0.4064E+02  0.3954E+02  0.4238E+03  0.4233E+03
      2.911  0.4853E+02  0.4794E+02  0.4275E+03  0.4269E+03
      2.987  0.5363E+02  0.5219E+02  0.4316E+03  0.4309E+03
      3.062  0.4673E+02  0.4444E+02  0.4351E+03  0.4343E+03
      3.137  0.4034E+02  0.4212E+02  0.4382E+03  0.4375E+03
      3.212  0.3787E+02  0.4077E+02  0.4412E+03  0.4406E+03
      3.288  0.4088E+02  0.3885E+02  0.4443E+03  0.4436E+03
      3.363  0.4928E+02  0.4937E+02  0.4480E+03  0.4473E+03
      3.438  0.5565E+02  0.5358E+02  0.4522E+03  0.4514E+03
      3.513  0.3173E+02  0.3394E+02  0.4546E+03  0.4540E+03
      3.589  0.4132E+02  0.4329E+02  0.4578E+03  0.4573E+03
      3.664  0.4576E+02  0.4377E+02  0.4612E+03  0.4606E+03
      3.739  0.4189E+02  0.3833E+02  0.4644E+03  0.4636E+03
      3.815  0.4984E+02  0.4891E+02  0.4682E+03  0.4673E+03
      3.890  0.3425E+02  0.3750E+02  0.4708E+03  0.4702E+03
      3.965  0.4872E+02  0.4199E+02  0.4745E+03  0.4733E+03
      4.040  0.5071E+02  0.4896E+02  0.4784E+03  0.4771E+03
      4.116  0.4557E+02  0.4626E+02  0.4818E+03  0.4806E+03
      4.191  0.3639E+02  0.4122E+02  0.4846E+03  0.4838E+03
      4.266  0.4084E+02  0.4138E+02  0.4877E+03  0.4869E+03
      4.341  0.3938E+02  0.4023E+02  0.4906E+03  0.4900E+03
      4.417  0.5359E+02  0.4491E+02  0.4947E+03  0.4934E+03
      4.492  0.5229E+02  0.5470E+02  0.4987E+03  0.4976E+03
      4.567  0.4248E+02  0.4500E+02  0.5020E+03  0.5010E+03
      4.643  0.4545E+02  0.4188E+02  0.5055E+03  0.5043E+03
      4.718  0.4614E+02  0.5000E+02  0.5090E+03  0.5081E+03
      4.793  0.5557E+02  0.4935E+02  0.5132E+03  0.5118E+03
      4.868  0.4929E+02  0.5438E+02  0.5170E+03  0.5159E+03
      4.944  0.5641E+02  0.5024E+02  0.5213E+03  0.5198E+03
      5.019  0.4133E+02  0.4774E+02  0.5244E+03  0.5234E+03
      5.094  0.3945E+02  0.4048E+02  0.5275E+03  0.5266E+03
      5.169  0.3722E+02  0.3711E+02  0.5303E+03  0.5294E+03
      5.245  0.3438E+02  0.3267E+02  0.5330E+03  0.5319E+03
      5.320  0.4126E+02  0.4903E+02  0.5362E+03  0.5356E+03
      5.395  0.3840E+02  0.3658E+02  0.5391E+03  0.5384E+03
      5.470  0.4355E+02  0.4076E+02  0.5424E+03  0.5415E+03
      5.546  0.4414E+02  0.4419E+02  0.5457E+03  0.5449E+03
      5.621  0.3493E+02  0.4276E+02  0.5485E+03  0.5481E+03
      5.696  0.3764E+02  0.3694E+02  0.5513E+03  0.5509E+03
      5.772  0.3754E+02  0.3326E+02  0.5541E+03  0.5535E+03
      5.847  0.3327E+02  0.3290E+02  0.5567E+03  0.5561E+03
      5.922  0.3306E+02  0.3118E+02  0.5592E+03  0.5585E+03
      5.997  0.2902E+02  0.2988E+02  0.5614E+03  0.5607E+03
      6.073  0.4291E+02  0.4184E+02  0.5647E+03  0.5639E+03
      6.148  0.3703E+02  0.3819E+02  0.5675E+03  0.5669E+03
      6.223  0.2919E+02  0.2915E+02  0.5697E+03  0.5691E+03
      6.298  0.3308E+02  0.3862E+02  0.5723E+03  0.5720E+03
      6.374  0.2986E+02  0.2559E+02  0.5745E+03  0.5740E+03
      6.449  0.1667E+02  0.2238E+02  0.5758E+03  0.5757E+03
      6.524  0.2814E+01  0.4003E+01  0.5760E+03  0.5760E+03
      6.599  0.0000E+00  0.0000E+00  0.5760E+03  0.5760E+03
      6.675  0.0000E+00  0.0000E+00  0.5760E+03  0.5760E+03
      6.750  0.0000E+00  0.0000E+00  0.5760E+03  0.5760E+03
      6.825  0.0000E+00  0.0000E+00  0.5760E+03  0.5760E+03
      6.901  0.0000E+00  0.0000E+00  0.5760E+03  0.5760E+03
      6.976  0.0000E+00  0.0000E+00  0.5760E+03  0.5760E+03
      7.051  0.0000E+00  0.0000E+00  0.5760E+03  0.5760E+03
      7.126  0.0000E+00  0.0000E+00  0.5760E+03  0.5760E+03
      7.202  0.0000E+00  0.0000E+00  0.5760E+03  0.5760E+03
      7.277  0.0000E+00  0.0000E+00  0.5760E+03  0.5760E+03
      7.352  0.0000E+00  0.0000E+00  0.5760E+03  0.5760E+03
      7.427  0.0000E+00  0.0000E+00  0.5760E+03  0.5760E+03
      7.503  0.0000E+00  0.0000E+00  0.5760E+03  0.5760E+03
