Si and Ge interface calculation         
           1
     9.177114    0.000000    0.000000
    -9.177115   12.978401    0.000000
     0.000000    0.000000   21.072142
   Sn   Si
    48    72
Direct configuration=     1
   0.50000000  0.48202050  0.00000001
   0.49999997  0.23202048  0.10887733
   0.50000000  0.98202044  0.21775471
   0.49999994  0.73202038  0.32663202
   0.49999997  0.48202038  0.43550938
   0.50000000  0.23202032  0.54438674
   0.00000000  0.98202050  0.00000001
   0.00000000  0.73202050  0.10887733
   0.00000002  0.48202044  0.21775471
   0.00000002  0.23202044  0.32663202
   0.00000000  0.98202038  0.43550938
   0.00000005  0.73202038  0.54438674
   0.49999997  0.98202050  0.00000002
   0.50000000  0.73202050  0.10887735
   0.50000000  0.48202044  0.21775471
   0.50000006  0.23202044  0.32663202
   0.49999991  0.98202038  0.43550938
   0.50000006  0.73202038  0.54438674
   0.00000003  0.48202050  0.00000001
   0.00000000  0.23202048  0.10887733
   0.00000000  0.98202044  0.21775469
   0.00000000  0.73202038  0.32663202
   0.99999994  0.48202038  0.43550938
   0.00000005  0.23202032  0.54438674
   0.87499994  0.60702044  0.00000001
   0.87499994  0.35702044  0.10887735
   0.87499994  0.10702039  0.21775471
   0.87499988  0.85702032  0.32663202
   0.87499994  0.60702038  0.43550941
   0.87499988  0.35702026  0.54438674
   0.37499997  0.10702048  0.00000001
   0.37499997  0.85702050  0.10887735
   0.37500003  0.60702044  0.21775471
   0.37499991  0.35702032  0.32663202
   0.37500003  0.10702044  0.43550941
   0.37499997  0.85702038  0.54438674
   0.87499994  0.10702048  0.00000000
   0.87499994  0.85702050  0.10887735
   0.87499994  0.60702044  0.21775469
   0.87499988  0.35702032  0.32663202
   0.87500006  0.10702044  0.43550941
   0.87500000  0.85702038  0.54438674
   0.37499994  0.60702044  0.00000001
   0.37499994  0.35702044  0.10887735
   0.37499997  0.10702039  0.21775471
   0.37499991  0.85702032  0.32663202
   0.37499991  0.60702038  0.43550938
   0.37499994  0.35702026  0.54438674
   0.35481608  0.68814945  0.54438674
   0.60481608  0.93814951  0.63550937
   0.85481620  0.18814957  0.72663200
   0.10481608  0.43814957  0.81775463
   0.35481608  0.68814969  0.90887719
   0.60481644  0.93814993  0.99999982
   0.02148272  0.02148272  0.54438674
   0.27148277  0.27148279  0.63550937
   0.52148288  0.52148288  0.72663200
   0.77148288  0.77148288  0.81775463
   0.02148306  0.02148306  0.90887719
   0.27148306  0.27148306  0.99999982
   0.68814945  0.35481608  0.54438674
   0.93814945  0.60481614  0.63550937
   0.18814957  0.85481620  0.72663200
   0.43814945  0.10481620  0.81775463
   0.68814957  0.35481620  0.90887719
   0.93814993  0.60481644  0.99999982
   0.18814944  0.85481608  0.54438674
   0.43814945  0.10481608  0.63550937
   0.68814957  0.35481632  0.72663194
   0.93814951  0.60481632  0.81775463
   0.18814945  0.85481632  0.90887719
   0.43814993  0.10481644  0.99999982
   0.52148282  0.52148277  0.54438674
   0.77148282  0.77148277  0.63550937
   0.02148294  0.02148294  0.72663200
   0.27148282  0.27148294  0.81775463
   0.52148282  0.52148294  0.90887719
   0.77148330  0.77148318  0.99999982
   0.85481608  0.18814941  0.54438674
   0.10481620  0.43814948  0.63550937
   0.35481632  0.68814957  0.72663200
   0.60481620  0.93814957  0.81775463
   0.85481608  0.18814957  0.90887719
   0.10481644  0.43814993  0.99999982
   0.10481612  0.68814939  0.54438674
   0.35481620  0.93814945  0.63550937
   0.60481632  0.18814957  0.72663200
   0.85481620  0.43814957  0.81775463
   0.10481644  0.68814969  0.90887719
   0.35481644  0.93814981  0.99999982
   0.43814945  0.35481605  0.54438674
   0.68814951  0.60481614  0.63550937
   0.93814969  0.85481626  0.72663200
   0.18814957  0.10481620  0.81775463
   0.43814969  0.35481644  0.90887719
   0.68814969  0.60481656  0.99999982
   0.77148277  0.02148273  0.54438674
   0.02148282  0.27148279  0.63550937
   0.27148294  0.52148288  0.72663200
   0.52148282  0.77148288  0.81775463
   0.77148318  0.02148306  0.90887719
   0.02148318  0.27148318  0.99999982
   0.27148268  0.52148271  0.54438674
   0.52148277  0.77148282  0.63550937
   0.77148282  0.02148282  0.72663200
   0.02148282  0.27148294  0.81775463
   0.27148294  0.52148306  0.90887719
   0.52148318  0.77148306  0.99999982
   0.93814939  0.85481620  0.54438674
   0.18814945  0.10481620  0.63550937
   0.43814957  0.35481632  0.72663200
   0.68814957  0.60481644  0.81775463
   0.93814969  0.85481656  0.90887719
   0.18814969  0.10481644  0.99999982
   0.60481614  0.18814942  0.54438674
   0.85481620  0.43814948  0.63550937
   0.10481632  0.68814963  0.72663200
   0.35481620  0.93814963  0.81775463
   0.60481644  0.18814981  0.90887719
   0.85481656  0.43814981  0.99999982
