 vasp.6.4.3 19Mar24 (build Oct 22 2024 11:23:12) complex                        
  
 executed on             LinuxIFC date 2025.06.04  01:07:23
 running   64 mpi-ranks, on    4 nodes
 distrk:  each k-point on   64 cores,    1 groups
 distr:  one band on NCORE=  16 cores,    4 groups


--------------------------------------------------------------------------------------------------------


 INCAR:
   SYSTEM = Si and Ge interface calculation
   ISTART = 0
   ICHARG = 2
   LWAVE = .FALSE.
   LREAL = AUTO
   ENCUT = 700
   ENAUG = 900
   ADDGRID = .TRUE.
   LMAXMIX = 6
   LASPH = .TRUE.
   LMIXTAU = .TRUE.
   NCORE = 16
   NELM = 100
   NBANDS = 116
   EDIFF = 1d-7
   AMIX = 0.6
   ISMEAR = 0
   SIGMA = 0.01
   NELECT = 192
   ISPIN = 2
   NUPDOWN = 1
   LVTOT = .FALSE.
   LVHAR = .TRUE.

 POTCAR:    PAW_PBE Sn 08Apr2002                  
 -----------------------------------------------------------------------------
|                                                                             |
|           W    W    AA    RRRRR   N    N  II  N    N   GGGG   !!!           |
|           W    W   A  A   R    R  NN   N  II  NN   N  G    G  !!!           |
|           W    W  A    A  R    R  N N  N  II  N N  N  G       !!!           |
|           W WW W  AAAAAA  RRRRR   N  N N  II  N  N N  G  GGG   !            |
|           WW  WW  A    A  R   R   N   NN  II  N   NN  G    G                |
|           W    W  A    A  R    R  N    N  II  N    N   GGGG   !!!           |
|                                                                             |
|     You use a magnetic or noncollinear calculation, but did not specify     |
|     the initial magnetic moment with the MAGMOM tag. Note that a            |
|     default of 0.021 will be used for all atoms. This ferromagnetic         |
|     setup may break the symmetry of the crystal, in particular it may       |
|     rule out finding an antiferromagnetic solution. Thence, we              |
|     recommend setting the initial magnetic moment manually or verifying     |
|     carefully that this magnetic setup is desired.                          |
|                                                                             |
 -----------------------------------------------------------------------------

 POTCAR:    PAW_PBE Sn 08Apr2002                  
   VRHFIN =Sn: s2p2                                                                                 
   LEXCH  = PE                                                                                      
   EATOM  =    94.0860 eV,    6.9151 Ry                                                             
                                                                                                    
   TITEL  = PAW_PBE Sn 08Apr2002                                                                    
   LULTRA =        F    use ultrasoft PP ?                                                          
   IUNSCR =        1    unscreen: 0-lin 1-nonlin 2-no                                               
   RPACOR =    2.000    partial core radius                                                         
   POMASS =  118.710; ZVAL   =    4.000    mass and valenz                                          
   RCORE  =    3.000    outmost cutoff radius                                                       
   RWIGS  =    2.960; RWIGS  =    1.566    wigner-seitz radius (au A)                               
   ENMAX  =  103.236; ENMIN  =   77.427 eV                                                          
   ICORE  =        3    local potential                                                             
   LCOR   =        T    correct aug charges                                                         
   LPAW   =        T    paw PP                                                                      
   EAUG   =  263.585                                                                                
   DEXC   =    0.000                                                                                
   RMAX   =    3.078    core radius for proj-oper                                                   
   RAUG   =    1.300    factor for augmentation sphere                                              
   RDEP   =    3.022    radius for radial grids                                                     
   RDEPT  =    2.655    core radius for aug-charge                                                  
                                                                                                    
   Atomic configuration                                                                             
   13 entries                                                                                       
     n  l   j            E        occ.                                                              
     1  0  0.50    -29007.2859   2.0000                                                             
     2  0  0.50     -4378.8056   2.0000                                                             
     2  1  1.50     -3930.4293   6.0000                                                             
     3  0  0.50      -845.0264   2.0000                                                             
     3  1  1.50      -698.5725   6.0000                                                             
     3  2  2.50      -473.2839  10.0000                                                             
     4  0  0.50      -133.9036   2.0000                                                             
     4  1  1.50       -89.6752   6.0000                                                             
     4  2  2.50       -25.8375  10.0000                                                             
     5  0  0.50       -10.5484   2.0000                                                             
     5  1  0.50        -3.6940   2.0000                                                             
     5  2  1.50        -1.3606   0.0000                                                             
     4  3  2.50        -4.0817   0.0000                                                             
   Description                                                                                      
     l       E           TYP  RCUT    TYP  RCUT                                                     
     0    -10.5483727     23  3.000                                                                 
     0     27.2116520     23  3.000                                                                 
     1     -3.6939829     23  3.000                                                                 
     1      1.9821976     23  3.000                                                                 
     2     -1.3605826     23  3.000                                                                 
     3     -2.7211652     23  3.000                                                                 
  local pseudopotential read in
  partial core-charges read in
  partial kinetic energy density read in
  atomic valenz-charges read in
  non local Contribution for L=           0  read in
    real space projection operators read in
  non local Contribution for L=           0  read in
    real space projection operators read in
  non local Contribution for L=           1  read in
    real space projection operators read in
  non local Contribution for L=           1  read in
    real space projection operators read in
  non local Contribution for L=           2  read in
    real space projection operators read in
    PAW grid and wavefunctions read in
 
   number of l-projection  operators is LMAX  =           5
   number of lm-projection operators is LMMAX =          13
 
 Optimization of the real space projectors (new method)

 maximal supplied QI-value         = 12.47
 optimisation between [QCUT,QGAM] = [ 12.47, 27.06] = [ 43.56,205.12] Ry 
 Optimized for a Real-space Cutoff    1.58 Angstroem

   l    n(q)    QCUT    max X(q) W(low)/X(q) W(high)/X(q)  e(spline) 
   0     13    12.472    14.688    0.45E-04    0.45E-04    0.25E-05
   0     13    12.472     7.308    0.94E-04    0.11E-03    0.61E-05
   1     12    12.472    45.102    0.34E-03    0.14E-03    0.21E-05
   1     12    12.472    30.691    0.31E-03    0.13E-03    0.20E-05
   2     12    12.472     7.156    0.86E-04    0.11E-03    0.17E-05
 WARNING: PSMAXN for non-local potential too small
          PSMAXN should be >   13.5545592237991       NTYP=           1
  PAW_PBE Sn 08Apr2002                  :
 energy of atom  1       EATOM=  -94.0860
 kinetic energy error for atom=    0.0000 (will be added to EATOM!!)
 
 
 POSCAR: Sn+Sn
  positions in direct lattice
  No initial velocities read in


 exchange-correlation table for PE
   RHO(1)=    0.500       N(1)  =     2000
   RHO(2)=  100.500       N(2)  =     4000
 


--------------------------------------------------------------------------------------------------------


 ion  position               nearest neighbor table
   1  0.694  0.523  0.100-  34 2.67   8 2.81   7 2.81  38 2.81  18 2.81  42 2.81
   2  0.944  0.912  0.000-  48 1.66  39 2.67  37 2.81  29 2.81  22 3.50
   3  0.444  0.912  0.000-  22 1.66  33 2.67  29 2.81  37 2.81  48 3.50
   4  0.056  0.273  0.600-   6 2.46  45 2.81  15 2.81
   5  0.694  0.968  0.500-  39 2.46  37 2.81  12 2.81  23 3.50
   6  0.944  0.357  0.400-   4 2.46   7 2.81  38 2.81  13 2.81
   7  0.944  0.495  0.300-  38 0.00  44 2.67   6 2.81   1 2.81  20 2.81
   8  0.694  0.662  0.000-  28 2.46  30 2.81   1 2.81  14 3.50
   9  0.306  0.662  0.500-  10 1.66  32 2.46  26 2.81  46 2.81  17 3.50
  10  0.444  0.718  0.500-   9 1.66  46 2.67  32 2.81  30 2.81  31 3.50
  11  0.194  0.107  0.400-  45 2.67  21 2.81  24 2.81  47 2.81  19 2.81  43 2.81
  12  0.694  0.107  0.400-  27 2.67  19 2.81  43 2.81  24 2.81  47 2.81   5 2.81
  13  0.944  0.273  0.100-  15 2.46  24 2.81  47 2.81   6 2.81
  14  0.056  0.718  1.000-  16 1.66  32 2.67  46 2.81  28 2.81   8 3.50
  15  0.056  0.357  0.900-  13 2.46   4 2.81  40 2.81
  16  0.194  0.662  0.000-  14 1.66  46 2.46  20 2.81  32 2.81
  17  0.944  0.718  0.500-  31 1.66  28 2.67  30 2.81  32 2.81   9 3.50
  18  0.444  0.495  0.300-  42 0.00  26 2.67  25 2.81  20 2.81   1 2.81
  19  0.444  0.134  0.200-  43 0.00  41 2.67  36 2.81  12 2.81  11 2.81
  20  0.194  0.523  0.100-  40 2.67  16 2.81  18 2.81  42 2.81   7 2.81  38 2.81
  21  0.194  0.968  0.500-  23 1.66  33 2.46  11 2.81  29 2.81
  22  0.306  0.968  1.000-   3 1.66  29 2.46  33 2.81  41 2.81   2 3.50
  23  0.056  0.912  0.500-  21 1.66  29 2.67  33 2.81  39 2.81   5 3.50
  24  0.944  0.134  0.200-  47 0.00  35 2.67  13 2.81  11 2.81  12 2.81
  25  0.444  0.357  0.400-  18 2.81  42 2.81  36 2.81
  26  0.306  0.523  0.600-  18 2.67  42 2.67   9 2.81  40 2.81  34 2.81
  27  0.556  0.134  0.700-  12 2.67  35 2.81  41 2.81
  28  0.806  0.745  0.800-   8 2.46  17 2.67  31 2.81  39 2.81  14 2.81
  29  0.194  0.884  0.200-  22 2.46  23 2.67   2 2.81  21 2.81   3 2.81  32 2.81
  30  0.694  0.745  0.300-  31 2.46   8 2.81  17 2.81  37 2.81  10 2.81
  31  0.806  0.662  0.500-  17 1.66  30 2.46  28 2.81  44 2.81  10 3.50
  32  0.194  0.745  0.300-   9 2.46  14 2.67  10 2.81  16 2.81  17 2.81  29 2.81
  33  0.306  0.884  0.700-  21 2.46   3 2.67  22 2.81  23 2.81  46 2.81
  34  0.556  0.495  0.800-   1 2.67  44 2.81  26 2.81
  35  0.806  0.107  0.900-  24 2.67  47 2.67  48 2.81  27 2.81  45 2.81
  36  0.444  0.273  0.100-  19 2.81  43 2.81  25 2.81
  37  0.694  0.884  0.200-  48 2.46   5 2.81   2 2.81   3 2.81  30 2.81
  38  0.944  0.495  0.300-   7 0.00  44 2.67   6 2.81   1 2.81  20 2.81
  39  0.806  0.884  0.700-   5 2.46   2 2.67  48 2.81  23 2.81  28 2.81
  40  0.056  0.495  0.800-  20 2.67  15 2.81  26 2.81  44 2.81
  41  0.306  0.107  0.900-  19 2.67  43 2.67  27 2.81  45 2.81  22 2.81
  42  0.444  0.495  0.300-  18 0.00  26 2.67  25 2.81  20 2.81   1 2.81
  43  0.444  0.134  0.200-  19 0.00  41 2.67  36 2.81  12 2.81  11 2.81
  44  0.806  0.523  0.600-   7 2.67  38 2.67  31 2.81  34 2.81  40 2.81
  45  0.056  0.134  0.700-  11 2.67   4 2.81  35 2.81  41 2.81
  46  0.306  0.745  0.800-  16 2.46  10 2.67  14 2.81   9 2.81  33 2.81
  47  0.944  0.134  0.200-  24 0.00  35 2.67  13 2.81  11 2.81  12 2.81
  48  0.806  0.968  1.000-   2 1.66  37 2.46  35 2.81  39 2.81   3 3.50
 
 -----------------------------------------------------------------------------
|                                                                             |
|           W    W    AA    RRRRR   N    N  II  N    N   GGGG   !!!           |
|           W    W   A  A   R    R  NN   N  II  NN   N  G    G  !!!           |
|           W    W  A    A  R    R  N N  N  II  N N  N  G       !!!           |
|           W WW W  AAAAAA  RRRRR   N  N N  II  N  N N  G  GGG   !            |
|           WW  WW  A    A  R   R   N   NN  II  N   NN  G    G                |
|           W    W  A    A  R    R  N    N  II  N    N   GGGG   !!!           |
|                                                                             |
|     The distance between some ions is very small. Please check the          |
|     nearest-neighbor list in the OUTCAR file.                               |
|     I HOPE YOU KNOW WHAT YOU ARE DOING!                                     |
|                                                                             |
 -----------------------------------------------------------------------------

  LATTYP: Found a simple orthorhombic cell.
 ALAT       =     7.6476025580
 B/A-ratio  =     1.1999988777
 C/A-ratio  =     2.5455823088
  
  Lattice vectors:
  
 A1 = (   0.0000000000,   0.0000000000,   7.6476025580)
 A2 = (   9.1771144870,   0.0000000000,   0.0000000000)
 A3 = (   0.0000000000,  19.4676017760,   0.0000000000)


Analysis of symmetry for initial positions (statically):
=====================================================================
 Subroutine PRICEL returns:
 Original cell was already a primitive cell.
 

 Routine SETGRP: Setting up the symmetry group for a 
 simple orthorhombic supercell.


 Subroutine GETGRP returns: Found  2 space group operations
 (whereof  1 operations were pure point group operations)
 out of a pool of  8 trial point group operations.


The static configuration has the point symmetry C_1 .
 The point group associated with its full space group is C_2 .


Analysis of symmetry for dynamics (positions and initial velocities):
=====================================================================
 Subroutine PRICEL returns:
 Original cell was already a primitive cell.
 

 Routine SETGRP: Setting up the symmetry group for a 
 simple orthorhombic supercell.


 Subroutine GETGRP returns: Found  2 space group operations
 (whereof  1 operations were pure point group operations)
 out of a pool of  8 trial point group operations.


The dynamic configuration has the point symmetry C_1 .
 The point group associated with its full space group is C_2 .


Analysis of structural, dynamic, and magnetic symmetry:
=====================================================================
 Subroutine PRICEL returns:
 Original cell was already a primitive cell.
 

 Routine SETGRP: Setting up the symmetry group for a 
 simple orthorhombic supercell.


 Subroutine GETGRP returns: Found  2 space group operations
 (whereof  1 operations were pure point group operations)
 out of a pool of  8 trial point group operations.


The overall configuration has the point symmetry C_1 .
 The point group associated with its full space group is C_2 .


 Subroutine INISYM returns: Found  2 space group operations
 (whereof  1 operations are pure point group operations),
 and found     1 'primitive' translations


----------------------------------------------------------------------------------------

                                     Primitive cell                                     

  volume of cell :    1366.2932

  direct lattice vectors                    reciprocal lattice vectors
     9.177114487  0.000000000  0.000000000     0.108966713  0.000000000  0.000000000
     0.000000000 19.467601776  0.000000000     0.000000000  0.051367396  0.000000000
     0.000000000  0.000000000  7.647602558     0.000000000  0.000000000  0.130759933

  length of vectors
     9.177114487 19.467601776  7.647602558     0.108966713  0.051367396  0.130759933

  position of ions in fractional coordinates (direct lattice)
     0.693514049  0.523244023  0.100000001
     0.943514049  0.912132978  0.000000022
     0.443514049  0.912132978  0.000000017
     0.056485891  0.273243964  0.600000024
     0.693513870  0.967688084  0.499999970
     0.943513870  0.356577158  0.399999857
     0.943513930  0.495465994  0.299999952
     0.693514049  0.662132919  0.000000035
     0.306485921  0.662132859  0.499999940
     0.443513811  0.717688084  0.499999821
     0.193513989  0.106577039  0.399999797
     0.693513870  0.106577158  0.399999917
     0.943514049  0.273243934  0.099999987
     0.056486130  0.717688084  0.999999881
     0.056486130  0.356577158  0.899999857
     0.193514079  0.662132859  0.000000000
     0.943513870  0.717688084  0.499999821
     0.443513989  0.495465994  0.299999923
     0.443514049  0.134355187  0.199999899
     0.193514034  0.523244023  0.099999964
     0.193513930  0.967688322  0.499999970
     0.306486130  0.967688084  0.999999881
     0.056485925  0.912132978  0.499999940
     0.943514049  0.134355187  0.199999973
     0.443513989  0.356577277  0.399999857
     0.306485951  0.523244023  0.599999964
     0.556485951  0.134355187  0.699999928
     0.806486070  0.745466113  0.799999952
     0.193514019  0.884355068  0.199999973
     0.693514049  0.745466113  0.299999952
     0.806485891  0.662132919  0.499999940
     0.193513930  0.745466113  0.299999952
     0.306485891  0.884355068  0.699999928
     0.556486011  0.495465934  0.799999952
     0.806485891  0.106577218  0.899999857
     0.443513989  0.273243964  0.100000016
     0.693514109  0.884355068  0.199999973
     0.943513930  0.495465994  0.299999952
     0.806485891  0.884355068  0.699999928
     0.056486011  0.495465994  0.799999952
     0.306486011  0.106577098  0.899999857
     0.443513989  0.495465994  0.299999923
     0.443514049  0.134355187  0.199999899
     0.806485951  0.523244023  0.599999964
     0.056485891  0.134355187  0.699999928
     0.306486011  0.745466113  0.799999952
     0.943514049  0.134355187  0.199999973
     0.806486130  0.967688322  0.999999881

  ion indices of the primitive-cell ions
   primitive index   ion index
                 1           1
                 2           2
                 3           3
                 4           4
                 5           5
                 6           6
                 7           7
                 8           8
                 9           9
                10          10
                11          11
                12          12
                13          13
                14          14
                15          15
                16          16
                17          17
                18          18
                19          19
                20          20
                21          21
                22          22
                23          23
                24          24
                25          25
                26          26
                27          27
                28          28
                29          29
                30          30
                31          31
                32          32
                33          33
                34          34
                35          35
                36          36
                37          37
                38          38
                39          39
                40          40
                41          41
                42          42
                43          43
                44          44
                45          45
                46          46
                47          47
                48          48

----------------------------------------------------------------------------------------

 
 
 KPOINTS: Automatic KPOINTS generated             

Automatic generation of k-mesh.
 Grid dimensions read from file:
 generate k-points for:    3    2    4

 Generating k-lattice:

  Cartesian coordinates                     Fractional coordinates (reciprocal lattice)
     0.036322238  0.000000000  0.000000000     0.333333333  0.000000000  0.000000000
     0.000000000  0.025683698  0.000000000     0.000000000  0.500000000  0.000000000
     0.000000000  0.000000000  0.032689983     0.000000000  0.000000000  0.250000000

  Length of vectors
     0.036322238  0.025683698  0.032689983

  Shift w.r.t. Gamma in fractional coordinates (k-lattice)
     0.000000000  0.000000000  0.000000000

 
 Subroutine IBZKPT returns following result:
 ===========================================
 
 Found     12 irreducible k-points:
 
 Following reciprocal coordinates:
            Coordinates               Weight
  0.000000  0.000000  0.000000      1.000000
  0.333333  0.000000  0.000000      2.000000
  0.000000  0.500000  0.000000      1.000000
  0.333333  0.500000  0.000000      2.000000
  0.000000  0.000000  0.250000      2.000000
  0.333333  0.000000  0.250000      4.000000
  0.000000  0.500000  0.250000      2.000000
  0.333333  0.500000  0.250000      4.000000
  0.000000  0.000000  0.500000      1.000000
  0.333333  0.000000  0.500000      2.000000
  0.000000  0.500000  0.500000      1.000000
  0.333333  0.500000  0.500000      2.000000
 
 Following cartesian coordinates:
            Coordinates               Weight
  0.000000  0.000000  0.000000      1.000000
  0.036322  0.000000  0.000000      2.000000
  0.000000  0.025684  0.000000      1.000000
  0.036322  0.025684  0.000000      2.000000
  0.000000  0.000000  0.032690      2.000000
  0.036322  0.000000  0.032690      4.000000
  0.000000  0.025684  0.032690      2.000000
  0.036322  0.025684  0.032690      4.000000
  0.000000  0.000000  0.065380      1.000000
  0.036322  0.000000  0.065380      2.000000
  0.000000  0.025684  0.065380      1.000000
  0.036322  0.025684  0.065380      2.000000
 


--------------------------------------------------------------------------------------------------------




 Dimension of arrays:
   k-points           NKPTS =     12   k-points in BZ     NKDIM =     12   number of bands    NBANDS=    116
   number of dos      NEDOS =    301   number of ions     NIONS =     48
   non local maximal  LDIM  =      5   non local SUM 2l+1 LMDIM =     13
   total plane-waves  NPLWV = 378000
   max r-space proj   IRMAX =   4608   max aug-charges    IRDMAX= 213221
   dimension x,y,z NGX =    60 NGY =  126 NGZ =   50
   dimension x,y,z NGXF=   120 NGYF=  252 NGZF=  100
   support grid    NGXF=   240 NGYF=  504 NGZF=  200
   ions per type =              48
   NGX,Y,Z   is equivalent  to a cutoff of  10.87, 10.76, 10.87 a.u.
   NGXF,Y,Z  is equivalent  to a cutoff of  21.74, 21.52, 21.74 a.u.

 SYSTEM =  Si and Ge interface calculation         
 POSCAR =  Sn+Sn                                   

 Startparameter for this run:
   NWRITE =      2    write-flag & timer
   PREC   = normal    normal or accurate (medium, high low for compatibility)
   ISTART =      0    job   : 0-new  1-cont  2-samecut
   ICHARG =      2    charge: 1-file 2-atom 10-const
   ISPIN  =      2    spin polarized calculation?
   LNONCOLLINEAR =      F non collinear calculations
   LSORBIT =      F    spin-orbit coupling
   INIWAV =      1    electr: 0-lowe 1-rand  2-diag
   LASPH  =      T    aspherical Exc in radial PAW
 Electronic Relaxation 1
   ENCUT  =  700.0 eV  51.45 Ry    7.17 a.u.  19.80 42.00 16.50*2*pi/ulx,y,z
   ENINI  =  700.0     initial cutoff
   ENAUG  =  900.0 eV  augmentation charge cutoff
   NELM   =    100;   NELMIN=  2; NELMDL= -5     # of ELM steps 
   EDIFF  = 0.1E-06   stopping-criterion for ELM
   LREAL  =      T    real-space projection
   NLSPLINE    = F    spline interpolate recip. space projectors
   LCOMPAT=      F    compatible to vasp.4.4
   GGA_COMPAT  = T    GGA compatible to vasp.4.4-vasp.4.6
   LMAXPAW     = -100 max onsite density
   LMAXMIX     =    6 max onsite mixed and CHGCAR
   VOSKOWN=      0    Vosko Wilk Nusair interpolation
   ROPT   =   -0.00050
 Ionic relaxation
   EDIFFG = 0.1E-05   stopping-criterion for IOM
   NSW    =      0    number of steps for IOM
   NBLOCK =      1;   KBLOCK =      1    inner block; outer block 
   IBRION =     -1    ionic relax: 0-MD 1-quasi-New 2-CG
   NFREE  =      0    steps in history (QN), initial steepest desc. (CG)
   ISIF   =      2    stress and relaxation
   IWAVPR =     10    prediction:  0-non 1-charg 2-wave 3-comb
   ISYM   =      2    0-nonsym 1-usesym 2-fastsym
   LCORR  =      T    Harris-Foulkes like correction to forces

   POTIM  = 0.5000    time-step for ionic-motion
   TEIN   =    0.0    initial temperature
   TEBEG  =    0.0;   TEEND  =   0.0 temperature during run
   SMASS  =  -3.00    Nose mass-parameter (am)
   estimated Nose-frequenzy (Omega)   =  0.10E-29 period in steps = 0.13E+47 mass=  -0.192E-26a.u.
   SCALEE = 1.0000    scale energy and forces
   NPACO  =    256;   APACO  = 10.0  distance and # of slots for P.C.
   PSTRESS=    0.0 pullay stress

  Mass of Ions in am
   POMASS = 118.71
  Ionic Valenz
   ZVAL   =   4.00
  Atomic Wigner-Seitz radii
   RWIGS  =  -1.00
  virtual crystal weights 
   VCA    =   1.00
   NELECT =     192.0000    total number of electrons
   NUPDOWN=       1.0000    fix difference up-down

 DOS related values:
   EMIN   =  10.00;   EMAX   =-10.00  energy-range for DOS
   EFERMI =   0.00;   METHOD = LEGACY      
   ISMEAR =     0;   SIGMA  =   0.01  broadening in eV -4-tet -1-fermi 0-gaus

 Electronic relaxation 2 (details)
   IALGO  =     38    algorithm
   LDIAG  =      T    sub-space diagonalisation (order eigenvalues)
   LSUBROT=      F    optimize rotation matrix (better conditioning)
   TURBO    =      0    0=normal 1=particle mesh
   IRESTART =      0    0=no restart 2=restart with 2 vectors
   NREBOOT  =      0    no. of reboots
   NMIN     =      0    reboot dimension
   EREF     =   0.00    reference energy to select bands
   IMIX   =      4    mixing-type and parameters
     AMIX     =   0.60;   BMIX     =  1.00
     AMIX_MAG =   2.40;   BMIX_MAG =  1.00
     AMIN     =   0.10
     WC   =   100.;   INIMIX=   1;  MIXPRE=   1;  MAXMIX= -45

 Intra band minimization:
   WEIMIN = 0.0000     energy-eigenvalue tresh-hold
   EBREAK =  0.22E-09  absolut break condition
   DEPER  =   0.30     relativ break condition  

   TIME   =   0.40     timestep for ELM

  volume/ion in A,a.u.               =      28.46       192.09
  Fermi-wavevector in a.u.,A,eV,Ry     =   0.851126  1.608395  9.856274  0.724416
  Thomas-Fermi vector in A             =   1.967211
 
 Write flags
   LWAVE        =      F    write WAVECAR
   LDOWNSAMPLE  =      F    k-point downsampling of WAVECAR
   LCHARG       =      T    write CHGCAR
   LVTOT        =      F    write LOCPOT, total local potential
   LVHAR        =      T    write LOCPOT, Hartree potential only
   WRT_POTENTIAL=  hartree ionic  ! write potential to hdf5 file
   LELF         =      F    write electronic localiz. function (ELF)
   LORBIT       =      0    0 simple, 1 ext, 2 COOP (PROOUT), +10 PAW based schemes


 Dipole corrections
   LMONO      =      F    monopole corrections only (constant potential shift)
   LDIPOL     =      F    correct potential (dipole corrections)
   IDIPOL     =      0    1-x, 2-y, 3-z, 4-all directions 
   EPSILON    =  1.0000000 bulk dielectric constant
   LVACPOTAV  =      F  vacuum potentials using an averaging scheme for the charge density
   VACPOTFLAT =  0.1000000 required flatness to determine vacuum potential
 Exchange correlation treatment:
   GGA     = PE    functional components
   XC_C    = 1    coefficients multiplying the functional components
   LIBXC   =     F    Libxc                    
   VOSKOWN =     0    Vosko Wilk Nusair interpolation
   LHFCALC =     F    Hartree Fock is set to
   LHFONE  =     F    Hartree Fock one center treatment
   AEXX    =    0.0000 exact exchange contribution

 Parameters of functionals:
   PE:
     No parameter
 
 Van der Waals corrections
   IVDW    =     0    specifies the selected vdW correction

 Linear response parameters
   LEPSILON=     F    determine dielectric tensor
   LRPA    =     F    only Hartree local field effects (RPA)
   LNABLA  =     F    use nabla operator in PAW spheres
   LVEL    =     F    velocity operator in full k-point grid
   CSHIFT  =0.1000    complex shift for real part using Kramers Kronig
   OMEGAMAX=  -1.0    maximum frequency
   DEG_THRESHOLD= 0.2000000E-02 threshold for treating states as degnerate
   RTIME   =   -0.100 relaxation time in fs
  (WPLASMAI=    0.000 imaginary part of plasma frequency in eV, 0.658/RTIME)
   DFIELD  = 0.0000000 0.0000000 0.0000000 field for delta impulse in time
 
  Optional k-point grid parameters
   LKPOINTS_OPT  =     F    use optional k-point grid
   KPOINTS_OPT_MODE=     1    mode for optional k-point grid
 
 Orbital magnetization related:
   ORBITALMAG=     F  switch on orbital magnetization
   LCHIMAG   =     F  perturbation theory with respect to B field
   DQ        =  0.001000  dq finite difference perturbation B field
   LLRAUG    =     F  two centre corrections for induced B field
   LBONE     =     F  B-component reconstruction in AE one-centre
   LVGVCALC  =     T  calculate vGv susceptibility
   LVGVAPPL  =     F  apply vGv susceptibility instead of pGv for G=0

 Random number generation:
   RANDOM_GENERATOR = DEFAULT
   PCG_SEED         = not used


--------------------------------------------------------------------------------------------------------


 Static calculation
 charge density and potential will be updated during run
 spin polarized calculation
 Variant of blocked Davidson
 Davidson routine will perform the subspace rotation
 perform sub-space diagonalisation
    after iterative eigenvector-optimisation
 modified Broyden-mixing scheme, WC =      100.0
 initial mixing is a Kerker type mixing with AMIX =  0.6000 and BMIX =      1.0000
 Hartree-type preconditioning will be used
 using additional bands           20
 real space projection scheme for non local part
 use partial core corrections
 calculate Harris-corrections to forces 
   (improved forces if not selfconsistent)
 use gradient corrections 
 use of overlap-Matrix (Vanderbilt PP)
 Gauss-broadening in eV      SIGMA  =   0.01


--------------------------------------------------------------------------------------------------------


  energy-cutoff  :      700.00
  volume of cell :     1366.29
      direct lattice vectors                 reciprocal lattice vectors
     9.177114487  0.000000000  0.000000000     0.108966713  0.000000000  0.000000000
     0.000000000 19.467601776  0.000000000     0.000000000  0.051367396  0.000000000
     0.000000000  0.000000000  7.647602558     0.000000000  0.000000000  0.130759933

  length of vectors
     9.177114487 19.467601776  7.647602558     0.108966713  0.051367396  0.130759933


 
 k-points in units of 2pi/SCALE and weight: Automatic KPOINTS generated             
   0.00000000  0.00000000  0.00000000       0.042
   0.03632224  0.00000000  0.00000000       0.083
   0.00000000  0.02568370  0.00000000       0.042
   0.03632224  0.02568370  0.00000000       0.083
   0.00000000  0.00000000  0.03268998       0.083
   0.03632224  0.00000000  0.03268998       0.167
   0.00000000  0.02568370  0.03268998       0.083
   0.03632224  0.02568370  0.03268998       0.167
   0.00000000  0.00000000  0.06537997       0.042
   0.03632224  0.00000000  0.06537997       0.083
   0.00000000  0.02568370  0.06537997       0.042
   0.03632224  0.02568370  0.06537997       0.083
 
 k-points in reciprocal lattice and weights: Automatic KPOINTS generated             
   0.00000000  0.00000000  0.00000000       0.042
   0.33333333  0.00000000  0.00000000       0.083
   0.00000000  0.50000000  0.00000000       0.042
   0.33333333  0.50000000  0.00000000       0.083
   0.00000000  0.00000000  0.25000000       0.083
   0.33333333  0.00000000  0.25000000       0.167
   0.00000000  0.50000000  0.25000000       0.083
   0.33333333  0.50000000  0.25000000       0.167
   0.00000000  0.00000000  0.50000000       0.042
   0.33333333  0.00000000  0.50000000       0.083
   0.00000000  0.50000000  0.50000000       0.042
   0.33333333  0.50000000  0.50000000       0.083
 
 position of ions in fractional coordinates (direct lattice) 
   0.69351405  0.52324402  0.10000000
   0.94351405  0.91213298  0.00000002
   0.44351405  0.91213298  0.00000002
   0.05648589  0.27324396  0.60000002
   0.69351387  0.96768808  0.49999997
   0.94351387  0.35657716  0.39999986
   0.94351393  0.49546599  0.29999995
   0.69351405  0.66213292  0.00000003
   0.30648592  0.66213286  0.49999994
   0.44351381  0.71768808  0.49999982
   0.19351399  0.10657704  0.39999980
   0.69351387  0.10657716  0.39999992
   0.94351405  0.27324393  0.09999999
   0.05648613  0.71768808  0.99999988
   0.05648613  0.35657716  0.89999986
   0.19351408  0.66213286  0.00000000
   0.94351387  0.71768808  0.49999982
   0.44351399  0.49546599  0.29999992
   0.44351405  0.13435519  0.19999990
   0.19351403  0.52324402  0.09999996
   0.19351393  0.96768832  0.49999997
   0.30648613  0.96768808  0.99999988
   0.05648592  0.91213298  0.49999994
   0.94351405  0.13435519  0.19999997
   0.44351399  0.35657728  0.39999986
   0.30648595  0.52324402  0.59999996
   0.55648595  0.13435519  0.69999993
   0.80648607  0.74546611  0.79999995
   0.19351402  0.88435507  0.19999997
   0.69351405  0.74546611  0.29999995
   0.80648589  0.66213292  0.49999994
   0.19351393  0.74546611  0.29999995
   0.30648589  0.88435507  0.69999993
   0.55648601  0.49546593  0.79999995
   0.80648589  0.10657722  0.89999986
   0.44351399  0.27324396  0.10000002
   0.69351411  0.88435507  0.19999997
   0.94351393  0.49546599  0.29999995
   0.80648589  0.88435507  0.69999993
   0.05648601  0.49546599  0.79999995
   0.30648601  0.10657710  0.89999986
   0.44351399  0.49546599  0.29999992
   0.44351405  0.13435519  0.19999990
   0.80648595  0.52324402  0.59999996
   0.05648589  0.13435519  0.69999993
   0.30648601  0.74546611  0.79999995
   0.94351405  0.13435519  0.19999997
   0.80648613  0.96768832  0.99999988
 
 position of ions in cartesian coordinates  (Angst):
   6.36445783 10.18630627  0.76476026
   8.65873645 17.75704158  0.00000017
   4.07017920 17.75704158  0.00000013
   0.51837749  5.31940468  4.58856172
   6.36445618 18.83856626  3.82380105
   8.65873481  6.94170211  3.05903993
   8.65873536  9.64553466  2.29428040
   6.36445783 12.89013999  0.00000027
   2.81265639 12.89013882  3.82380082
   4.07017702 13.97166582  3.82379991
   1.77590003  2.07479935  3.05903947
   6.36445618  2.07480167  3.05904039
   8.65873645  5.31940409  0.76476016
   0.51837968 13.97166582  7.64760165
   0.51837968  6.94170211  6.88284121
   1.77590086 12.89013882  0.00000000
   8.65873481 13.97166582  3.82379991
   4.07017865  9.64553466  2.29428018
   4.07017920  2.61557328  1.52951974
   1.77590044 10.18630627  0.76475998
   1.77589949 18.83857090  3.82380105
   2.81265830 18.83856626  7.64760165
   0.51837780 17.75704158  3.82380082
   8.65873645  2.61557328  1.52952031
   4.07017865  6.94170443  3.05903993
   2.81265666 10.18630627  4.58856126
   5.10693528  2.61557328  5.35332124
   7.40121500 14.51243743  6.11808168
   1.77590031 17.21627229  1.52952031
   6.36445783 14.51243743  2.29428040
   7.40121335 12.89013999  3.82380082
   1.77589949 14.51243743  2.29428040
   2.81265611 17.21627229  5.35332124
   5.10693583  9.64553350  6.11808168
   7.40121335  2.07480284  6.88284121
   4.07017865  5.31940468  0.76476038
   6.36445838 17.21627229  1.52952031
   8.65873536  9.64553466  2.29428040
   7.40121335 17.21627229  5.35332124
   0.51837859  9.64553466  6.11808168
   2.81265721  2.07480050  6.88284121
   4.07017865  9.64553466  2.29428018
   4.07017920  2.61557328  1.52951974
   7.40121390 10.18630627  4.58856126
   0.51837749  2.61557328  5.35332124
   2.81265721 14.51243743  6.11808168
   8.65873645  2.61557328  1.52952031
   7.40121555 18.83857090  7.64760165
 


--------------------------------------------------------------------------------------------------------


 k-point     1 :   0.0000 0.0000 0.0000  plane waves:   57473
 k-point     2 :   0.3333 0.0000 0.0000  plane waves:   57464
 k-point     3 :   0.0000 0.5000 0.0000  plane waves:   57540
 k-point     4 :   0.3333 0.5000 0.0000  plane waves:   57498
 k-point     5 :   0.0000 0.0000 0.2500  plane waves:   57427
 k-point     6 :   0.3333 0.0000 0.2500  plane waves:   57483
 k-point     7 :   0.0000 0.5000 0.2500  plane waves:   57468
 k-point     8 :   0.3333 0.5000 0.2500  plane waves:   57510
 k-point     9 :   0.0000 0.0000 0.5000  plane waves:   57452
 k-point    10 :   0.3333 0.0000 0.5000  plane waves:   57360
 k-point    11 :   0.0000 0.5000 0.5000  plane waves:   57368
 k-point    12 :   0.3333 0.5000 0.5000  plane waves:   57372

 maximum and minimum number of plane-waves per node :      3632     3541

 maximum number of plane-waves:     57540
 maximum index in each direction: 
   IXMAX=   19   IYMAX=   41   IZMAX=   16
   IXMIN=  -20   IYMIN=  -42   IZMIN=  -16


 real space projection operators:
  total allocation   :      21547.50 KBytes
  max/ min on nodes  :       1516.33        988.41


 parallel 3D FFT for wavefunctions:
    minimum data exchange during FFTs selected (reduces bandwidth)
 parallel 3D FFT for charge:
    minimum data exchange during FFTs selected (reduces bandwidth)


 total amount of memory used by VASP MPI-rank0    89839. kBytes
=======================================================================

   base      :      30000. kBytes
   nonlr-proj:       5495. kBytes
   fftplans  :       8089. kBytes
   grid      :       5717. kBytes
   one-center:         48. kBytes
   wavefun   :      40490. kBytes
 
     INWAV:  cpu time      0.0000: real time      0.0002
 Broyden mixing: mesh for mixing (old mesh)
   NGX = 39   NGY = 83   NGZ = 33
  (NGX  =120   NGY  =252   NGZ  =100)
  gives a total of 106821 points

 initial charge density was supplied:
 charge density of overlapping atoms calculated
 number of electron     192.0000000 magnetization       1.0000000
 keeping initial charge density in first step


--------------------------------------------------------------------------------------------------------


 Maximum index for non-local projection operator          388
 Maximum index for augmentation-charges         4203 (set IRDMAX)


--------------------------------------------------------------------------------------------------------


 First call to EWALD:  gamma=   0.160
 Maximum number of real-space cells 3x 2x 4
 Maximum number of reciprocal cells 2x 4x 2

    FEWALD:  cpu time      0.0021: real time      0.0021


--------------------------------------- Ionic step        1  -------------------------------------------




--------------------------------------- Iteration      1(   1)  ---------------------------------------


    POTLOK:  cpu time      0.1069: real time      0.1080
    SETDIJ:  cpu time      0.7621: real time      0.7659
     EDDAV:  cpu time      6.6370: real time      6.6896
       DOS:  cpu time      0.0018: real time      0.0018
    --------------------------------------------
      LOOP:  cpu time      7.5078: real time      7.5653

 eigenvalue-minimisations  :  5568
 total energy-change (2. order) : 0.6513752E+03  (-0.7934827E+04)
 number of electron     192.0000000 magnetization       1.0000000
 augmentation part      192.0000000 magnetization       1.0000000

 Free energy of the ion-electron system (eV)
  ---------------------------------------------------
  alpha Z        PSCENC =       210.94456856
  Ewald energy   TEWEN  =     -4471.48948065
  -Hartree energ DENC   =      -890.34022879
  -exchange      EXHF   =         0.00000000
  -V(xc)+E(xc)   XCENC  =     -5903.37709289
  PAW double counting   =      9091.93393999    -3146.95201293
  entropy T*S    EENTRO =        -0.00065835
  eigenvalues    EBANDS =      1244.52900896
  atomic energy  EATOM  =      4516.12718286
  Solvation  Ediel_sol  =         0.00000000
  ---------------------------------------------------
  free energy    TOTEN  =       651.37522677 eV

  energy without entropy =      651.37588512  energy(sigma->0) =      651.37555594


--------------------------------------------------------------------------------------------------------




--------------------------------------- Iteration      1(   2)  ---------------------------------------


     EDDAV:  cpu time      7.6691: real time      7.7325
       DOS:  cpu time      0.0012: real time      0.0012
    --------------------------------------------
      LOOP:  cpu time      7.6703: real time      7.7337

 eigenvalue-minimisations  :  6632
 total energy-change (2. order) :-0.1054010E+04  (-0.1018942E+04)
 number of electron     192.0000000 magnetization       1.0000000
 augmentation part      192.0000000 magnetization       1.0000000

 Free energy of the ion-electron system (eV)
  ---------------------------------------------------
  alpha Z        PSCENC =       210.94456856
  Ewald energy   TEWEN  =     -4471.48948065
  -Hartree energ DENC   =      -890.34022879
  -exchange      EXHF   =         0.00000000
  -V(xc)+E(xc)   XCENC  =     -5903.37709289
  PAW double counting   =      9091.93393999    -3146.95201293
  entropy T*S    EENTRO =        -0.00152803
  eigenvalues    EBANDS =       190.52014691
  atomic energy  EATOM  =      4516.12718286
  Solvation  Ediel_sol  =         0.00000000
  ---------------------------------------------------
  free energy    TOTEN  =      -402.63450496 eV

  energy without entropy =     -402.63297693  energy(sigma->0) =     -402.63374094


--------------------------------------------------------------------------------------------------------




--------------------------------------- Iteration      1(   3)  ---------------------------------------


     EDDAV:  cpu time      8.6804: real time      8.7506
       DOS:  cpu time      0.0014: real time      0.0014
    --------------------------------------------
      LOOP:  cpu time      8.6818: real time      8.7519

 eigenvalue-minimisations  :  7848
 total energy-change (2. order) :-0.1318107E+03  (-0.1262121E+03)
 number of electron     192.0000000 magnetization       1.0000000
 augmentation part      192.0000000 magnetization       1.0000000

 Free energy of the ion-electron system (eV)
  ---------------------------------------------------
  alpha Z        PSCENC =       210.94456856
  Ewald energy   TEWEN  =     -4471.48948065
  -Hartree energ DENC   =      -890.34022879
  -exchange      EXHF   =         0.00000000
  -V(xc)+E(xc)   XCENC  =     -5903.37709289
  PAW double counting   =      9091.93393999    -3146.95201293
  entropy T*S    EENTRO =        -0.00204326
  eigenvalues    EBANDS =        58.70997078
  atomic energy  EATOM  =      4516.12718286
  Solvation  Ediel_sol  =         0.00000000
  ---------------------------------------------------
  free energy    TOTEN  =      -534.44519632 eV

  energy without entropy =     -534.44315306  energy(sigma->0) =     -534.44417469


--------------------------------------------------------------------------------------------------------




--------------------------------------- Iteration      1(   4)  ---------------------------------------


     EDDAV:  cpu time      8.0984: real time      8.1651
       DOS:  cpu time      0.0015: real time      0.0015
    --------------------------------------------
      LOOP:  cpu time      8.0999: real time      8.1666

 eigenvalue-minimisations  :  7216
 total energy-change (2. order) :-0.7693445E+01  (-0.7330585E+01)
 number of electron     192.0000000 magnetization       1.0000000
 augmentation part      192.0000000 magnetization       1.0000000

 Free energy of the ion-electron system (eV)
  ---------------------------------------------------
  alpha Z        PSCENC =       210.94456856
  Ewald energy   TEWEN  =     -4471.48948065
  -Hartree energ DENC   =      -890.34022879
  -exchange      EXHF   =         0.00000000
  -V(xc)+E(xc)   XCENC  =     -5903.37709289
  PAW double counting   =      9091.93393999    -3146.95201293
  entropy T*S    EENTRO =        -0.00188449
  eigenvalues    EBANDS =        51.01636723
  atomic energy  EATOM  =      4516.12718286
  Solvation  Ediel_sol  =         0.00000000
  ---------------------------------------------------
  free energy    TOTEN  =      -542.13864110 eV

  energy without entropy =     -542.13675661  energy(sigma->0) =     -542.13769886


--------------------------------------------------------------------------------------------------------




--------------------------------------- Iteration      1(   5)  ---------------------------------------


     EDDAV:  cpu time      9.7170: real time      9.7967
       DOS:  cpu time      0.0015: real time      0.0015
    CHARGE:  cpu time      0.5623: real time      0.5662
    MIXING:  cpu time      0.0036: real time      0.0036
    --------------------------------------------
      LOOP:  cpu time     10.2845: real time     10.3681

 eigenvalue-minimisations  :  9072
 total energy-change (2. order) :-0.5842428E+00  (-0.5722769E+00)
 number of electron     191.9999998 magnetization       1.0000000
 augmentation part      -49.9300717 magnetization      -0.1225530

 Broyden mixing:
  rms(total) = 0.50406E+01    rms(broyden)= 0.50406E+01
  rms(prec ) = 0.53851E+01
  weight for this iteration     100.00

 Free energy of the ion-electron system (eV)
  ---------------------------------------------------
  alpha Z        PSCENC =       210.94456856
  Ewald energy   TEWEN  =     -4471.48948065
  -Hartree energ DENC   =      -890.34022879
  -exchange      EXHF   =         0.00000000
  -V(xc)+E(xc)   XCENC  =     -5903.37709289
  PAW double counting   =      9091.93393999    -3146.95201293
  entropy T*S    EENTRO =        -0.00206593
  eigenvalues    EBANDS =        50.43230582
  atomic energy  EATOM  =      4516.12718286
  Solvation  Ediel_sol  =         0.00000000
  ---------------------------------------------------
  free energy    TOTEN  =      -542.72288395 eV

  energy without entropy =     -542.72081802  energy(sigma->0) =     -542.72185099


--------------------------------------------------------------------------------------------------------




--------------------------------------- Iteration      1(   6)  ---------------------------------------


    POTLOK:  cpu time      0.0860: real time      0.0875
    SETDIJ:  cpu time      0.7407: real time      0.7442
     EDDAV:  cpu time      9.4924: real time      9.5695
       DOS:  cpu time      0.0014: real time      0.0014
    CHARGE:  cpu time      0.5623: real time      0.5664
    MIXING:  cpu time      0.0040: real time      0.0040
    --------------------------------------------
      LOOP:  cpu time     10.8868: real time     10.9730

 eigenvalue-minimisations  :  8840
 total energy-change (2. order) :-0.2430617E+02  (-0.4944049E+02)
 number of electron     191.9999998 magnetization       1.0000000
 augmentation part      -40.6553064 magnetization      -0.1346664

 Broyden mixing:
  rms(total) = 0.55435E+01    rms(broyden)= 0.55435E+01
  rms(prec ) = 0.70448E+01
  weight for this iteration     100.00

 eigenvalues of (default mixing * dielectric matrix)
  average eigenvalue GAMMA=   0.4242
  0.4242

 Free energy of the ion-electron system (eV)
  ---------------------------------------------------
  alpha Z        PSCENC =       210.94456856
  Ewald energy   TEWEN  =     -4471.48948065
  -Hartree energ DENC   =      -843.64339393
  -exchange      EXHF   =         0.00000000
  -V(xc)+E(xc)   XCENC  =     -5891.85247806
  PAW double counting   =     16153.10186444   -10227.83478125
  entropy T*S    EENTRO =        -0.00149260
  eigenvalues    EBANDS =       -12.38104561
  atomic energy  EATOM  =      4516.12718286
  Solvation  Ediel_sol  =         0.00000000
  ---------------------------------------------------
  free energy    TOTEN  =      -567.02905624 eV

  energy without entropy =     -567.02756364  energy(sigma->0) =     -567.02830994


--------------------------------------------------------------------------------------------------------




--------------------------------------- Iteration      1(   7)  ---------------------------------------


    POTLOK:  cpu time      0.0866: real time      0.0875
    SETDIJ:  cpu time      0.7507: real time      0.7542
     EDDAV:  cpu time      9.8479: real time      9.9265
       DOS:  cpu time      0.0014: real time      0.0014
    CHARGE:  cpu time      0.5609: real time      0.5650
    MIXING:  cpu time      0.0027: real time      0.0027
    --------------------------------------------
      LOOP:  cpu time     11.2501: real time     11.3371

 eigenvalue-minimisations  :  9264
 total energy-change (2. order) : 0.7059026E+02  (-0.5169668E+02)
 number of electron     191.9999998 magnetization       1.0000000
 augmentation part      -47.8995305 magnetization      -0.0874482

 Broyden mixing:
  rms(total) = 0.29531E+01    rms(broyden)= 0.29531E+01
  rms(prec ) = 0.34241E+01
  weight for this iteration     100.00

 eigenvalues of (default mixing * dielectric matrix)
  average eigenvalue GAMMA=   1.4339
  2.5835  0.2842

 Free energy of the ion-electron system (eV)
  ---------------------------------------------------
  alpha Z        PSCENC =       210.94456856
  Ewald energy   TEWEN  =     -4471.48948065
  -Hartree energ DENC   =      -869.01170277
  -exchange      EXHF   =         0.00000000
  -V(xc)+E(xc)   XCENC  =     -5892.35797730
  PAW double counting   =     22166.49157484   -16261.30215468
  entropy T*S    EENTRO =        -0.00118112
  eigenvalues    EBANDS =       104.16037166
  atomic energy  EATOM  =      4516.12718286
  Solvation  Ediel_sol  =         0.00000000
  ---------------------------------------------------
  free energy    TOTEN  =      -496.43879860 eV

  energy without entropy =     -496.43761747  energy(sigma->0) =     -496.43820804


--------------------------------------------------------------------------------------------------------




--------------------------------------- Iteration      1(   8)  ---------------------------------------


    POTLOK:  cpu time      0.0863: real time      0.0882
    SETDIJ:  cpu time      0.7442: real time      0.7477
     EDDAV:  cpu time      8.5950: real time      8.6662
       DOS:  cpu time      0.0014: real time      0.0014
    CHARGE:  cpu time      0.5609: real time      0.5648
    MIXING:  cpu time      0.0040: real time      0.0040
    --------------------------------------------
      LOOP:  cpu time      9.9918: real time     10.0724

 eigenvalue-minimisations  :  7808
 total energy-change (2. order) :-0.2039368E+02  (-0.2524213E+02)
 number of electron     191.9999998 magnetization       1.0000000
 augmentation part      -48.8955348 magnetization      -0.1038092

 Broyden mixing:
  rms(total) = 0.15372E+01    rms(broyden)= 0.15372E+01
  rms(prec ) = 0.25971E+01
  weight for this iteration     100.00

 eigenvalues of (default mixing * dielectric matrix)
  average eigenvalue GAMMA=   1.0693
  2.3594  0.5771  0.2714

 Free energy of the ion-electron system (eV)
  ---------------------------------------------------
  alpha Z        PSCENC =       210.94456856
  Ewald energy   TEWEN  =     -4471.48948065
  -Hartree energ DENC   =      -869.89814668
  -exchange      EXHF   =         0.00000000
  -V(xc)+E(xc)   XCENC  =     -5882.53818308
  PAW double counting   =     47607.34109452   -41743.62074975
  entropy T*S    EENTRO =        -0.00146799
  eigenvalues    EBANDS =       116.30270399
  atomic energy  EATOM  =      4516.12718286
  Solvation  Ediel_sol  =         0.00000000
  ---------------------------------------------------
  free energy    TOTEN  =      -516.83247821 eV

  energy without entropy =     -516.83101022  energy(sigma->0) =     -516.83174422


--------------------------------------------------------------------------------------------------------




--------------------------------------- Iteration      1(   9)  ---------------------------------------


    POTLOK:  cpu time      0.0865: real time      0.0878
    SETDIJ:  cpu time      0.7464: real time      0.7498
     EDDAV:  cpu time      9.4759: real time      9.5519
       DOS:  cpu time      0.0014: real time      0.0014
    CHARGE:  cpu time      0.5641: real time      0.5680
    MIXING:  cpu time      0.0044: real time      0.0044
    --------------------------------------------
      LOOP:  cpu time     10.8787: real time     10.9633

 eigenvalue-minimisations  :  8820
 total energy-change (2. order) : 0.1936700E+02  (-0.8914350E+01)
 number of electron     191.9999998 magnetization       1.0000000
 augmentation part      -48.1886554 magnetization      -0.0784141

 Broyden mixing:
  rms(total) = 0.71334E+00    rms(broyden)= 0.71334E+00
  rms(prec ) = 0.83152E+00
  weight for this iteration     100.00

 eigenvalues of (default mixing * dielectric matrix)
  average eigenvalue GAMMA=   0.9630
  2.4017  0.7606  0.2589  0.4308

 Free energy of the ion-electron system (eV)
  ---------------------------------------------------
  alpha Z        PSCENC =       210.94456856
  Ewald energy   TEWEN  =     -4471.48948065
  -Hartree energ DENC   =      -838.26047831
  -exchange      EXHF   =         0.00000000
  -V(xc)+E(xc)   XCENC  =     -5880.87010133
  PAW double counting   =     47391.70170739   -41520.20509090
  entropy T*S    EENTRO =        -0.00196979
  eigenvalues    EBANDS =        94.58817982
  atomic energy  EATOM  =      4516.12718286
  Solvation  Ediel_sol  =         0.00000000
  ---------------------------------------------------
  free energy    TOTEN  =      -497.46548235 eV

  energy without entropy =     -497.46351256  energy(sigma->0) =     -497.46449745


--------------------------------------------------------------------------------------------------------




--------------------------------------- Iteration      1(  10)  ---------------------------------------


    POTLOK:  cpu time      0.0876: real time      0.0883
    SETDIJ:  cpu time      0.7438: real time      0.7473
     EDDAV:  cpu time      9.5651: real time      9.6421
       DOS:  cpu time      0.0016: real time      0.0016
    CHARGE:  cpu time      0.5607: real time      0.5645
    MIXING:  cpu time      0.0043: real time      0.0043
    --------------------------------------------
      LOOP:  cpu time     10.9630: real time     11.0481

 eigenvalue-minimisations  :  8920
 total energy-change (2. order) : 0.1341997E+01  (-0.2334607E+01)
 number of electron     191.9999998 magnetization       1.0000000
 augmentation part      -47.4149744 magnetization      -0.0515267

 Broyden mixing:
  rms(total) = 0.42183E+00    rms(broyden)= 0.42183E+00
  rms(prec ) = 0.52715E+00
  weight for this iteration     100.00

 eigenvalues of (default mixing * dielectric matrix)
  average eigenvalue GAMMA=   0.9704
  2.3690  1.1277  0.2603  0.5476  0.5476

 Free energy of the ion-electron system (eV)
  ---------------------------------------------------
  alpha Z        PSCENC =       210.94456856
  Ewald energy   TEWEN  =     -4471.48948065
  -Hartree energ DENC   =      -842.73951306
  -exchange      EXHF   =         0.00000000
  -V(xc)+E(xc)   XCENC  =     -5881.18402541
  PAW double counting   =     45441.71413210   -39563.77939922
  entropy T*S    EENTRO =        -0.00183900
  eigenvalues    EBANDS =        94.28488813
  atomic energy  EATOM  =      4516.12718286
  Solvation  Ediel_sol  =         0.00000000
  ---------------------------------------------------
  free energy    TOTEN  =      -496.12348569 eV

  energy without entropy =     -496.12164669  energy(sigma->0) =     -496.12256619


--------------------------------------------------------------------------------------------------------




--------------------------------------- Iteration      1(  11)  ---------------------------------------


    POTLOK:  cpu time      0.0867: real time      0.0876
    SETDIJ:  cpu time      0.7476: real time      0.7512
     EDDAV:  cpu time      9.4170: real time      9.4902
       DOS:  cpu time      0.0014: real time      0.0014
    CHARGE:  cpu time      0.5616: real time      0.5652
    MIXING:  cpu time      0.0052: real time      0.0052
    --------------------------------------------
      LOOP:  cpu time     10.8195: real time     10.9008

 eigenvalue-minimisations  :  8184
 total energy-change (2. order) :-0.9316343E+00  (-0.8652687E+00)
 number of electron     191.9999998 magnetization       1.0000000
 augmentation part      -47.0920584 magnetization      -0.0399940

 Broyden mixing:
  rms(total) = 0.70023E+00    rms(broyden)= 0.70023E+00
  rms(prec ) = 0.10215E+01
  weight for this iteration     100.00

 eigenvalues of (default mixing * dielectric matrix)
  average eigenvalue GAMMA=   0.8762
  2.2514  1.3202  0.6766  0.4987  0.2551  0.2551

 Free energy of the ion-electron system (eV)
  ---------------------------------------------------
  alpha Z        PSCENC =       210.94456856
  Ewald energy   TEWEN  =     -4471.48948065
  -Hartree energ DENC   =      -849.51622150
  -exchange      EXHF   =         0.00000000
  -V(xc)+E(xc)   XCENC  =     -5882.05267432
  PAW double counting   =     44152.80148629   -38271.39496104
  entropy T*S    EENTRO =        -0.00191256
  eigenvalues    EBANDS =        97.52689239
  atomic energy  EATOM  =      4516.12718286
  Solvation  Ediel_sol  =         0.00000000
  ---------------------------------------------------
  free energy    TOTEN  =      -497.05511997 eV

  energy without entropy =     -497.05320741  energy(sigma->0) =     -497.05416369


--------------------------------------------------------------------------------------------------------




--------------------------------------- Iteration      1(  12)  ---------------------------------------


    POTLOK:  cpu time      0.0868: real time      0.0881
    SETDIJ:  cpu time      0.7439: real time      0.7472
     EDDAV:  cpu time      8.3941: real time      8.4626
       DOS:  cpu time      0.0015: real time      0.0015
    CHARGE:  cpu time      0.5624: real time      0.5661
    MIXING:  cpu time      0.0055: real time      0.0055
    --------------------------------------------
      LOOP:  cpu time      9.7941: real time      9.8710

 eigenvalue-minimisations  :  7576
 total energy-change (2. order) : 0.1267131E+01  (-0.7614517E+00)
 number of electron     191.9999998 magnetization       1.0000000
 augmentation part      -47.4362635 magnetization      -0.0471082

 Broyden mixing:
  rms(total) = 0.23363E+00    rms(broyden)= 0.23363E+00
  rms(prec ) = 0.34662E+00
  weight for this iteration     100.00

 eigenvalues of (default mixing * dielectric matrix)
  average eigenvalue GAMMA=   0.8448
  1.9129  1.5242  0.9446  0.5516  0.5516  0.2607  0.1679

 Free energy of the ion-electron system (eV)
  ---------------------------------------------------
  alpha Z        PSCENC =       210.94456856
  Ewald energy   TEWEN  =     -4471.48948065
  -Hartree energ DENC   =      -851.84156421
  -exchange      EXHF   =         0.00000000
  -V(xc)+E(xc)   XCENC  =     -5882.58304306
  PAW double counting   =     43547.99440548   -37665.70135516
  entropy T*S    EENTRO =        -0.00174116
  eigenvalues    EBANDS =       100.76303874
  atomic energy  EATOM  =      4516.12718286
  Solvation  Ediel_sol  =         0.00000000
  ---------------------------------------------------
  free energy    TOTEN  =      -495.78798861 eV

  energy without entropy =     -495.78624744  energy(sigma->0) =     -495.78711802


--------------------------------------------------------------------------------------------------------




--------------------------------------- Iteration      1(  13)  ---------------------------------------


    POTLOK:  cpu time      0.0865: real time      0.0892
    SETDIJ:  cpu time      0.7455: real time      0.7489
     EDDAV:  cpu time      8.3082: real time      8.3740
       DOS:  cpu time      0.0016: real time      0.0016
    CHARGE:  cpu time      0.5635: real time      0.5671
    MIXING:  cpu time      0.0053: real time      0.0054
    --------------------------------------------
      LOOP:  cpu time      9.7106: real time      9.7862

 eigenvalue-minimisations  :  7456
 total energy-change (2. order) : 0.4169755E-01  (-0.1972450E+00)
 number of electron     191.9999998 magnetization       1.0000000
 augmentation part      -47.6431269 magnetization      -0.0453934

 Broyden mixing:
  rms(total) = 0.12803E+00    rms(broyden)= 0.12803E+00
  rms(prec ) = 0.16513E+00
  weight for this iteration     100.00

 eigenvalues of (default mixing * dielectric matrix)
  average eigenvalue GAMMA=   0.8241
  1.8656  1.4768  1.2163  0.5664  0.5664  0.4715  0.2607  0.1689

 Free energy of the ion-electron system (eV)
  ---------------------------------------------------
  alpha Z        PSCENC =       210.94456856
  Ewald energy   TEWEN  =     -4471.48948065
  -Hartree energ DENC   =      -852.26731169
  -exchange      EXHF   =         0.00000000
  -V(xc)+E(xc)   XCENC  =     -5883.07268555
  PAW double counting   =     42987.49574623   -37104.94806147
  entropy T*S    EENTRO =        -0.00215020
  eigenvalues    EBANDS =       101.46590085
  atomic energy  EATOM  =      4516.12718286
  Solvation  Ediel_sol  =         0.00000000
  ---------------------------------------------------
  free energy    TOTEN  =      -495.74629106 eV

  energy without entropy =     -495.74414086  energy(sigma->0) =     -495.74521596


--------------------------------------------------------------------------------------------------------




--------------------------------------- Iteration      1(  14)  ---------------------------------------


    POTLOK:  cpu time      0.0871: real time      0.0878
    SETDIJ:  cpu time      0.7474: real time      0.7511
     EDDAV:  cpu time      9.3767: real time      9.4537
       DOS:  cpu time      0.0014: real time      0.0014
    CHARGE:  cpu time      0.5636: real time      0.5673
    MIXING:  cpu time      0.0052: real time      0.0052
    --------------------------------------------
      LOOP:  cpu time     10.7814: real time     10.8665

 eigenvalue-minimisations  :  8744
 total energy-change (2. order) : 0.2927751E-01  (-0.3086832E-01)
 number of electron     191.9999998 magnetization       1.0000000
 augmentation part      -47.6303561 magnetization      -0.0450751

 Broyden mixing:
  rms(total) = 0.71891E-01    rms(broyden)= 0.71891E-01
  rms(prec ) = 0.92883E-01
  weight for this iteration     100.00

 eigenvalues of (default mixing * dielectric matrix)
  average eigenvalue GAMMA=   0.8468
  1.8459  1.8459  1.1845  0.6676  0.6676  0.4903  0.4903  0.2607  0.1680

 Free energy of the ion-electron system (eV)
  ---------------------------------------------------
  alpha Z        PSCENC =       210.94456856
  Ewald energy   TEWEN  =     -4471.48948065
  -Hartree energ DENC   =      -852.24033232
  -exchange      EXHF   =         0.00000000
  -V(xc)+E(xc)   XCENC  =     -5883.13219628
  PAW double counting   =     42892.18991748   -37009.44160423
  entropy T*S    EENTRO =        -0.00175040
  eigenvalues    EBANDS =       101.32668143
  atomic energy  EATOM  =      4516.12718286
  Solvation  Ediel_sol  =         0.00000000
  ---------------------------------------------------
  free energy    TOTEN  =      -495.71701355 eV

  energy without entropy =     -495.71526315  energy(sigma->0) =     -495.71613835


--------------------------------------------------------------------------------------------------------




--------------------------------------- Iteration      1(  15)  ---------------------------------------


    POTLOK:  cpu time      0.0865: real time      0.0882
    SETDIJ:  cpu time      0.7470: real time      0.7504
     EDDAV:  cpu time      9.6285: real time      9.7063
       DOS:  cpu time      0.0014: real time      0.0014
    CHARGE:  cpu time      0.5610: real time      0.5650
    MIXING:  cpu time      0.0055: real time      0.0055
    --------------------------------------------
      LOOP:  cpu time     11.0299: real time     11.1167

 eigenvalue-minimisations  :  9048
 total energy-change (2. order) : 0.1775126E-01  (-0.1066660E-01)
 number of electron     191.9999998 magnetization       1.0000000
 augmentation part      -47.5241303 magnetization      -0.0418459

 Broyden mixing:
  rms(total) = 0.18361E-01    rms(broyden)= 0.18361E-01
  rms(prec ) = 0.20125E-01
  weight for this iteration     100.00

 eigenvalues of (default mixing * dielectric matrix)
  average eigenvalue GAMMA=   0.8589
  1.8949  1.8949  1.2073  0.7556  0.7556  0.6769  0.2607  0.4876  0.4876  0.1681

 Free energy of the ion-electron system (eV)
  ---------------------------------------------------
  alpha Z        PSCENC =       210.94456856
  Ewald energy   TEWEN  =     -4471.48948065
  -Hartree energ DENC   =      -852.66605890
  -exchange      EXHF   =         0.00000000
  -V(xc)+E(xc)   XCENC  =     -5883.11780846
  PAW double counting   =     42825.45376885   -36942.37272675
  entropy T*S    EENTRO =        -0.00157692
  eigenvalues    EBANDS =       101.42286911
  atomic energy  EATOM  =      4516.12718286
  Solvation  Ediel_sol  =         0.00000000
  ---------------------------------------------------
  free energy    TOTEN  =      -495.69926229 eV

  energy without entropy =     -495.69768537  energy(sigma->0) =     -495.69847383


--------------------------------------------------------------------------------------------------------




--------------------------------------- Iteration      1(  16)  ---------------------------------------


    POTLOK:  cpu time      0.0855: real time      0.0869
    SETDIJ:  cpu time      0.7444: real time      0.7479
     EDDAV:  cpu time      9.6562: real time      9.7333
       DOS:  cpu time      0.0013: real time      0.0013
    CHARGE:  cpu time      0.5609: real time      0.5679
    MIXING:  cpu time      0.0097: real time      0.0101
    --------------------------------------------
      LOOP:  cpu time     11.0579: real time     11.1475

 eigenvalue-minimisations  :  9064
 total energy-change (2. order) :-0.4961913E-03  (-0.9876699E-03)
 number of electron     191.9999998 magnetization       1.0000000
 augmentation part      -47.5194441 magnetization      -0.0412014

 Broyden mixing:
  rms(total) = 0.13642E-01    rms(broyden)= 0.13642E-01
  rms(prec ) = 0.15748E-01
  weight for this iteration     100.00

 eigenvalues of (default mixing * dielectric matrix)
  average eigenvalue GAMMA=   0.8594
  1.7661  1.7462  1.7462  0.7804  0.7062  0.7062  0.2607  0.5411  0.5411  0.4914
  0.1681

 Free energy of the ion-electron system (eV)
  ---------------------------------------------------
  alpha Z        PSCENC =       210.94456856
  Ewald energy   TEWEN  =     -4471.48948065
  -Hartree energ DENC   =      -852.77686736
  -exchange      EXHF   =         0.00000000
  -V(xc)+E(xc)   XCENC  =     -5883.10562822
  PAW double counting   =     42825.97078764   -36942.87165236
  entropy T*S    EENTRO =        -0.00155750
  eigenvalues    EBANDS =       101.50288855
  atomic energy  EATOM  =      4516.12718286
  Solvation  Ediel_sol  =         0.00000000
  ---------------------------------------------------
  free energy    TOTEN  =      -495.69975848 eV

  energy without entropy =     -495.69820098  energy(sigma->0) =     -495.69897973


--------------------------------------------------------------------------------------------------------




--------------------------------------- Iteration      1(  17)  ---------------------------------------


    POTLOK:  cpu time      0.0914: real time      0.0938
    SETDIJ:  cpu time      0.7449: real time      0.7486
     EDDAV:  cpu time      8.3450: real time      8.4115
       DOS:  cpu time      0.0015: real time      0.0015
    CHARGE:  cpu time      0.5618: real time      0.5663
    MIXING:  cpu time      0.0059: real time      0.0059
    --------------------------------------------
      LOOP:  cpu time      9.7505: real time      9.8276

 eigenvalue-minimisations  :  7520
 total energy-change (2. order) : 0.3411030E-04  (-0.1335749E-03)
 number of electron     191.9999998 magnetization       1.0000000
 augmentation part      -47.5203213 magnetization      -0.0409228

 Broyden mixing:
  rms(total) = 0.70159E-02    rms(broyden)= 0.70159E-02
  rms(prec ) = 0.81194E-02
  weight for this iteration     100.00

 eigenvalues of (default mixing * dielectric matrix)
  average eigenvalue GAMMA=   0.9024
  1.9536  1.8756  1.8756  0.8931  0.8931  0.7110  0.7110  0.2607  0.1681  0.5117
  0.5117  0.4634

 Free energy of the ion-electron system (eV)
  ---------------------------------------------------
  alpha Z        PSCENC =       210.94456856
  Ewald energy   TEWEN  =     -4471.48948065
  -Hartree energ DENC   =      -852.79764460
  -exchange      EXHF   =         0.00000000
  -V(xc)+E(xc)   XCENC  =     -5883.10637102
  PAW double counting   =     42821.42616657   -36938.37144563
  entropy T*S    EENTRO =        -0.00157217
  eigenvalues    EBANDS =       101.56887172
  atomic energy  EATOM  =      4516.12718286
  Solvation  Ediel_sol  =         0.00000000
  ---------------------------------------------------
  free energy    TOTEN  =      -495.69972437 eV

  energy without entropy =     -495.69815220  energy(sigma->0) =     -495.69893828


--------------------------------------------------------------------------------------------------------




--------------------------------------- Iteration      1(  18)  ---------------------------------------


    POTLOK:  cpu time      0.0855: real time      0.0876
    SETDIJ:  cpu time      0.7474: real time      0.7510
     EDDAV:  cpu time      9.1671: real time      9.2401
       DOS:  cpu time      0.0014: real time      0.0014
    CHARGE:  cpu time      0.5623: real time      0.5662
    MIXING:  cpu time      0.0054: real time      0.0054
    --------------------------------------------
      LOOP:  cpu time     10.5691: real time     10.6518

 eigenvalue-minimisations  :  8520
 total energy-change (2. order) :-0.3633786E-04  (-0.6755463E-04)
 number of electron     191.9999998 magnetization       1.0000000
 augmentation part      -47.5135785 magnetization      -0.0406801

 Broyden mixing:
  rms(total) = 0.34234E-02    rms(broyden)= 0.34234E-02
  rms(prec ) = 0.42734E-02
  weight for this iteration     100.00

 eigenvalues of (default mixing * dielectric matrix)
  average eigenvalue GAMMA=   0.8962
  2.0490  1.8749  1.8749  0.9968  0.9968  0.7155  0.7155  0.2607  0.1681  0.5295
  0.5295  0.4700  0.4700

 Free energy of the ion-electron system (eV)
  ---------------------------------------------------
  alpha Z        PSCENC =       210.94456856
  Ewald energy   TEWEN  =     -4471.48948065
  -Hartree energ DENC   =      -852.83822599
  -exchange      EXHF   =         0.00000000
  -V(xc)+E(xc)   XCENC  =     -5883.10892450
  PAW double counting   =     42812.52911550   -36929.48163258
  entropy T*S    EENTRO =        -0.00157037
  eigenvalues    EBANDS =       101.61920646
  atomic energy  EATOM  =      4516.12718286
  Solvation  Ediel_sol  =         0.00000000
  ---------------------------------------------------
  free energy    TOTEN  =      -495.69976071 eV

  energy without entropy =     -495.69819034  energy(sigma->0) =     -495.69897552


--------------------------------------------------------------------------------------------------------




--------------------------------------- Iteration      1(  19)  ---------------------------------------


    POTLOK:  cpu time      0.0849: real time      0.0872
    SETDIJ:  cpu time      0.7481: real time      0.7517
     EDDAV:  cpu time      9.1960: real time      9.2714
       DOS:  cpu time      0.0013: real time      0.0013
    CHARGE:  cpu time      0.5643: real time      0.5682
    MIXING:  cpu time      0.0049: real time      0.0050
    --------------------------------------------
      LOOP:  cpu time     10.5995: real time     10.6848

 eigenvalue-minimisations  :  8464
 total energy-change (2. order) :-0.1556072E-04  (-0.1468198E-04)
 number of electron     191.9999998 magnetization       1.0000000
 augmentation part      -47.5122715 magnetization      -0.0406010

 Broyden mixing:
  rms(total) = 0.24626E-02    rms(broyden)= 0.24626E-02
  rms(prec ) = 0.30228E-02
  weight for this iteration     100.00

 eigenvalues of (default mixing * dielectric matrix)
  average eigenvalue GAMMA=   0.8892
  2.1981  1.8224  1.8224  1.0246  1.0246  0.6956  0.6956  0.7606  0.2607  0.1681
  0.5248  0.5248  0.4630  0.4630

 Free energy of the ion-electron system (eV)
  ---------------------------------------------------
  alpha Z        PSCENC =       210.94456856
  Ewald energy   TEWEN  =     -4471.48948065
  -Hartree energ DENC   =      -852.85215293
  -exchange      EXHF   =         0.00000000
  -V(xc)+E(xc)   XCENC  =     -5883.10725583
  PAW double counting   =     42816.18835096   -36933.14327369
  entropy T*S    EENTRO =        -0.00156581
  eigenvalues    EBANDS =       101.63385026
  atomic energy  EATOM  =      4516.12718286
  Solvation  Ediel_sol  =         0.00000000
  ---------------------------------------------------
  free energy    TOTEN  =      -495.69977627 eV

  energy without entropy =     -495.69821046  energy(sigma->0) =     -495.69899336


--------------------------------------------------------------------------------------------------------




--------------------------------------- Iteration      1(  20)  ---------------------------------------


    POTLOK:  cpu time      0.0856: real time      0.0871
    SETDIJ:  cpu time      0.7439: real time      0.7474
     EDDAV:  cpu time      9.1585: real time      9.2335
       DOS:  cpu time      0.0014: real time      0.0014
    CHARGE:  cpu time      0.5675: real time      0.5714
    MIXING:  cpu time      0.0066: real time      0.0066
    --------------------------------------------
      LOOP:  cpu time     10.5635: real time     10.6475

 eigenvalue-minimisations  :  8480
 total energy-change (2. order) :-0.3425659E-05  (-0.3138954E-05)
 number of electron     191.9999998 magnetization       1.0000000
 augmentation part      -47.5134902 magnetization      -0.0405883

 Broyden mixing:
  rms(total) = 0.14646E-02    rms(broyden)= 0.14646E-02
  rms(prec ) = 0.16876E-02
  weight for this iteration     100.00

 eigenvalues of (default mixing * dielectric matrix)
  average eigenvalue GAMMA=   0.9157
  2.2210  1.8422  1.8422  1.2918  1.0308  1.0308  0.6948  0.6948  0.2607  0.1681
  0.6107  0.6107  0.4988  0.4988  0.4389

 Free energy of the ion-electron system (eV)
  ---------------------------------------------------
  alpha Z        PSCENC =       210.94456856
  Ewald energy   TEWEN  =     -4471.48948065
  -Hartree energ DENC   =      -852.85621275
  -exchange      EXHF   =         0.00000000
  -V(xc)+E(xc)   XCENC  =     -5883.10604945
  PAW double counting   =     42820.79888500   -36937.75877073
  entropy T*S    EENTRO =        -0.00156591
  eigenvalues    EBANDS =       101.64166337
  atomic energy  EATOM  =      4516.12718286
  Solvation  Ediel_sol  =         0.00000000
  ---------------------------------------------------
  free energy    TOTEN  =      -495.69977969 eV

  energy without entropy =     -495.69821378  energy(sigma->0) =     -495.69899674


--------------------------------------------------------------------------------------------------------




--------------------------------------- Iteration      1(  21)  ---------------------------------------


    POTLOK:  cpu time      0.0870: real time      0.0877
    SETDIJ:  cpu time      0.7486: real time      0.7523
     EDDAV:  cpu time      9.2752: real time      9.3500
       DOS:  cpu time      0.0016: real time      0.0016
    CHARGE:  cpu time      0.5645: real time      0.5685
    MIXING:  cpu time      0.0062: real time      0.0062
    --------------------------------------------
      LOOP:  cpu time     10.6831: real time     10.7661

 eigenvalue-minimisations  :  8592
 total energy-change (2. order) :-0.4696209E-05  (-0.2992671E-05)
 number of electron     191.9999998 magnetization       1.0000000
 augmentation part      -47.5153401 magnetization      -0.0405993

 Broyden mixing:
  rms(total) = 0.78637E-03    rms(broyden)= 0.78637E-03
  rms(prec ) = 0.82250E-03
  weight for this iteration     100.00

 eigenvalues of (default mixing * dielectric matrix)
  average eigenvalue GAMMA=   0.9342
  2.2337  1.8626  1.8626  1.8162  1.0330  1.0330  0.6968  0.6968  0.1681  0.2607
  0.6894  0.5829  0.5829  0.4948  0.4948  0.4382

 Free energy of the ion-electron system (eV)
  ---------------------------------------------------
  alpha Z        PSCENC =       210.94456856
  Ewald energy   TEWEN  =     -4471.48948065
  -Hartree energ DENC   =      -852.86223638
  -exchange      EXHF   =         0.00000000
  -V(xc)+E(xc)   XCENC  =     -5883.10581651
  PAW double counting   =     42822.79897694   -36939.76122048
  entropy T*S    EENTRO =        -0.00156779
  eigenvalues    EBANDS =       101.64980907
  atomic energy  EATOM  =      4516.12718286
  Solvation  Ediel_sol  =         0.00000000
  ---------------------------------------------------
  free energy    TOTEN  =      -495.69978439 eV

  energy without entropy =     -495.69821660  energy(sigma->0) =     -495.69900050


--------------------------------------------------------------------------------------------------------




--------------------------------------- Iteration      1(  22)  ---------------------------------------


    POTLOK:  cpu time      0.0854: real time      0.0872
    SETDIJ:  cpu time      0.7450: real time      0.7486
     EDDAV:  cpu time      7.6699: real time      7.7358
       DOS:  cpu time      0.0014: real time      0.0014
    CHARGE:  cpu time      0.5644: real time      0.5683
    MIXING:  cpu time      0.0066: real time      0.0066
    --------------------------------------------
      LOOP:  cpu time      9.0727: real time      9.1480

 eigenvalue-minimisations  :  6680
 total energy-change (2. order) :-0.1893370E-05  (-0.4692632E-06)
 number of electron     191.9999998 magnetization       1.0000000
 augmentation part      -47.5152603 magnetization      -0.0405283

 Broyden mixing:
  rms(total) = 0.57387E-03    rms(broyden)= 0.57387E-03
  rms(prec ) = 0.58329E-03
  weight for this iteration     100.00

 eigenvalues of (default mixing * dielectric matrix)
  average eigenvalue GAMMA=   0.9848
  2.8385  2.1541  1.8693  1.8693  1.0694  1.0694  0.6953  0.6953  0.7536  0.7536
  0.2607  0.1681  0.6085  0.5103  0.5103  0.4767  0.4392

 Free energy of the ion-electron system (eV)
  ---------------------------------------------------
  alpha Z        PSCENC =       210.94456856
  Ewald energy   TEWEN  =     -4471.48948065
  -Hartree energ DENC   =      -852.86811581
  -exchange      EXHF   =         0.00000000
  -V(xc)+E(xc)   XCENC  =     -5883.10547556
  PAW double counting   =     42822.35905268   -36939.31825875
  entropy T*S    EENTRO =        -0.00156573
  eigenvalues    EBANDS =       101.65230613
  atomic energy  EATOM  =      4516.12718286
  Solvation  Ediel_sol  =         0.00000000
  ---------------------------------------------------
  free energy    TOTEN  =      -495.69978628 eV

  energy without entropy =     -495.69822055  energy(sigma->0) =     -495.69900341


--------------------------------------------------------------------------------------------------------




[...]
 total charge-density along one line
 
 pseudopotential strength for first ion, spin component:           1
 27.199 -21.735   0.003   0.022  -0.034   0.006   0.033  -0.053
-21.735  27.224  -0.006  -0.009   0.016  -0.008  -0.017   0.027
  0.003  -0.006   5.800  -0.005   0.003   8.972  -0.007   0.004
  0.022  -0.009  -0.005   5.815   0.010  -0.007   8.994   0.014
 -0.034   0.016   0.003   0.010   5.817   0.004   0.014   8.996
  0.006  -0.008   8.972  -0.007   0.004  13.946  -0.010   0.006
  0.033  -0.017  -0.007   8.994   0.014  -0.010  13.977   0.021
 -0.053   0.027   0.004   0.014   8.996   0.006   0.021  13.977
  0.005  -0.002  -0.009  -0.002  -0.012  -0.014  -0.002  -0.016
 -0.009  -0.001   0.005  -0.008  -0.002   0.007  -0.011  -0.002
  0.008  -0.002  -0.004   0.002   0.002  -0.005   0.002   0.004
  0.017  -0.005  -0.002  -0.015   0.032  -0.002  -0.022   0.045
  0.016   0.008  -0.010   0.013  -0.010  -0.014   0.019  -0.015
 pseudopotential strength for first ion, spin component:           2
 27.198 -21.735   0.003   0.022  -0.034   0.006   0.033  -0.053
-21.735  27.224  -0.006  -0.009   0.016  -0.008  -0.017   0.027
  0.003  -0.006   5.800  -0.005   0.003   8.972  -0.007   0.004
  0.022  -0.009  -0.005   5.815   0.009  -0.007   8.993   0.014
 -0.034   0.016   0.003   0.009   5.817   0.004   0.014   8.995
  0.006  -0.008   8.972  -0.007   0.004  13.945  -0.010   0.006
  0.033  -0.017  -0.007   8.993   0.014  -0.010  13.976   0.021
 -0.053   0.027   0.004   0.014   8.995   0.006   0.021  13.976
  0.005  -0.002  -0.009  -0.002  -0.012  -0.014  -0.002  -0.016
 -0.009  -0.001   0.005  -0.008  -0.002   0.007  -0.011  -0.002
  0.008  -0.002  -0.004   0.002   0.002  -0.005   0.003   0.004
  0.017  -0.005  -0.002  -0.015   0.032  -0.002  -0.022   0.045
  0.016   0.008  -0.010   0.013  -0.010  -0.014   0.019  -0.015
 total augmentation occupancy for first ion, spin component:           1
  1.814   0.082  -0.130   0.272  -0.018   0.042  -0.119   0.017   0.003  -0.042  -0.012   0.040   0.126
  0.082   0.008   0.004   0.020  -0.021  -0.001  -0.004   0.008   0.002  -0.003   0.004   0.005   0.002
 -0.130   0.004   2.785  -0.288   0.053  -0.750   0.099  -0.029  -0.022   0.032  -0.057  -0.036  -0.155
  0.272   0.020  -0.288   3.597   0.222   0.099  -0.988  -0.120  -0.016  -0.083   0.025  -0.188   0.130
 -0.018  -0.021   0.053   0.222   4.290  -0.029  -0.116  -1.158  -0.152  -0.025  -0.032   0.369  -0.043
  0.042  -0.001  -0.750   0.099  -0.029   0.214  -0.032   0.012   0.009  -0.000   0.021   0.011   0.051
 -0.119  -0.004   0.099  -0.988  -0.116  -0.032   0.293   0.051   0.008   0.026   0.000   0.050  -0.035
  0.017   0.008  -0.029  -0.120  -1.158   0.012   0.051   0.325   0.039   0.010   0.013  -0.081   0.012
  0.003   0.002  -0.022  -0.016  -0.152   0.009   0.008   0.039   0.082   0.012  -0.004  -0.004   0.003
 -0.042  -0.003   0.032  -0.083  -0.025  -0.000   0.026   0.010   0.012   0.067   0.002   0.010   0.030
 -0.012   0.004  -0.057   0.025  -0.032   0.021   0.000   0.013  -0.004   0.002   0.082   0.017  -0.014
  0.040   0.005  -0.036  -0.188   0.369   0.011   0.050  -0.081  -0.004   0.010   0.017   0.107  -0.001
  0.126   0.002  -0.155   0.130  -0.043   0.051  -0.035   0.012   0.003   0.030  -0.014  -0.001   0.086
 total augmentation occupancy for first ion, spin component:           2
  0.000  -0.000   0.000  -0.001   0.000   0.000   0.000  -0.000   0.000  -0.000   0.001   0.001  -0.000
 -0.000   0.000  -0.000   0.000   0.000   0.000  -0.000  -0.000  -0.000   0.000  -0.000  -0.000   0.000
  0.000  -0.000   0.004  -0.001  -0.001  -0.001   0.000   0.000   0.001  -0.001   0.001   0.000  -0.002
 -0.001   0.000  -0.001   0.007   0.003   0.000  -0.001  -0.000  -0.000  -0.001  -0.000   0.000   0.001
  0.000   0.000  -0.001   0.003   0.004   0.000  -0.000  -0.002   0.000  -0.001   0.001   0.002   0.000
  0.000   0.000  -0.001   0.000   0.000   0.000  -0.000  -0.000  -0.000   0.000  -0.000   0.000   0.000
  0.000  -0.000   0.000  -0.001  -0.000  -0.000   0.000   0.000   0.000   0.000  -0.000  -0.000  -0.000
 -0.000  -0.000   0.000  -0.000  -0.002  -0.000   0.000   0.001   0.000   0.000  -0.000  -0.000  -0.000
  0.000  -0.000   0.001  -0.000   0.000  -0.000   0.000   0.000   0.001   0.000   0.000   0.000  -0.000
 -0.000   0.000  -0.001  -0.001  -0.001   0.000   0.000   0.000   0.000   0.001  -0.000  -0.000   0.000
  0.001  -0.000   0.001  -0.000   0.001  -0.000  -0.000  -0.000   0.000  -0.000   0.001   0.001  -0.001
  0.001  -0.000   0.000   0.000   0.002   0.000  -0.000  -0.000   0.000  -0.000   0.001   0.001  -0.000
 -0.000   0.000  -0.002   0.001   0.000   0.000  -0.000  -0.000  -0.000   0.000  -0.001  -0.000   0.002


------------------------ aborting loop because EDIFF is reached ----------------------------------------


    CHARGE:  cpu time      0.5710: real time      0.5749
    FORLOC:  cpu time      0.0098: real time      0.0098
    FORNL :  cpu time      2.6479: real time      2.6696
    STRESS:  cpu time      8.1779: real time      8.2489
    FORCOR:  cpu time      0.0874: real time      0.0878
    FORHAR:  cpu time      0.0155: real time      0.0156
    MIXING:  cpu time      0.0050: real time      0.0050
    OFIELD:  cpu time      0.0000: real time      0.0000

  FORCE on cell =-STRESS in cart. coord.  units (eV):
  Direction    XX          YY          ZZ          XY          YZ          ZX
  --------------------------------------------------------------------------------------
  Alpha Z   210.94457   210.94457   210.94457
  Ewald   -1330.95377 -2128.43334 -1178.23127    -0.00025  -104.39395     0.00045
  Hartree   462.06055  -174.92226   565.73470    -0.00001    21.08075    -0.00003
  E(xc)    -923.37134  -916.01503  -901.46665     0.00002     7.48863    -0.00001
  Local   -1350.07751    11.34075 -1844.29026    -0.00000    77.36735    -0.00007
  n-local  2472.24747  2452.81869  2453.07516     0.43888   -63.19526    -0.62520
  augment  -459.63982  -482.31266  -531.91797    -0.00004     5.72953     0.00003
  Kinetic  1441.22771  1450.41207  1421.95511     0.03053    21.12771    -1.55724
  Fock        0.00000     0.00000     0.00000     0.00000     0.00000     0.00000
  -------------------------------------------------------------------------------------
  Total     522.43786   423.83278   195.80339     0.00000   -34.79524     0.00000
  in kB     612.63430   497.00552   229.60793     0.00000   -40.80247     0.00000
  external pressure =      446.42 kB  Pullay stress =        0.00 kB


 VOLUME and BASIS-vectors are now :
 -----------------------------------------------------------------------------
  energy-cutoff  :      700.00
  volume of cell :     1366.29
      direct lattice vectors                 reciprocal lattice vectors
     9.177114487  0.000000000  0.000000000     0.108966713  0.000000000  0.000000000
     0.000000000 19.467601776  0.000000000     0.000000000  0.051367396  0.000000000
     0.000000000  0.000000000  7.647602558     0.000000000  0.000000000  0.130759933

  length of vectors
     9.177114487 19.467601776  7.647602558     0.108966713  0.051367396  0.130759933


 FORCES acting on ions
    electron-ion (+dipol)            ewald-force                    non-local-force                 convergence-correction
 -----------------------------------------------------------------------------------------------
   0.221E+01 0.427E+02 0.303E+02   -.195E+01 -.440E+02 -.273E+02   0.710E+00 0.204E+01 -.389E+01   -.109E-04 0.201E-03 -.114E-03
   -.202E+02 0.435E+00 0.159E+01   0.495E+02 -.234E+02 -.123E+01   0.257E+02 -.223E+02 0.495E+00   0.102E-04 -.457E-04 -.218E-04
   -.358E+02 0.628E+01 0.133E+01   0.653E+02 -.298E+02 -.127E+01   0.261E+02 -.218E+02 0.715E+00   -.371E-04 -.231E-04 -.283E-04
   -.957E+01 -.131E+02 -.888E+01   0.110E+02 0.134E+02 0.968E+01   0.247E+00 -.206E+01 0.865E+00   0.437E-04 -.239E-04 0.997E-05
   0.233E+02 -.276E+02 -.409E+01   -.243E+02 0.284E+02 0.424E+01   -.991E+00 0.144E+01 -.181E+01   0.120E-04 -.874E-04 0.220E-04
   0.202E+02 0.345E+02 -.127E+02   -.208E+02 -.319E+02 0.119E+02   -.849E+00 -.198E+01 -.279E+00   0.531E-04 -.612E-04 0.204E-04
   -.351E+01 0.424E+02 0.722E+01   0.901E+00 -.440E+02 -.493E+01   0.378E+01 0.142E+01 -.337E+01   0.335E-04 0.143E-03 -.614E-05
   0.233E+02 0.276E+02 0.409E+01   -.243E+02 -.284E+02 -.424E+01   -.991E+00 -.144E+01 0.181E+01   0.120E-04 0.870E-04 -.220E-04
   0.376E+01 0.469E+02 -.613E+01   -.313E+02 -.728E+02 0.682E+01   -.236E+02 -.237E+02 0.990E+00   -.816E-05 0.108E-03 0.361E-04
   -.358E+02 -.628E+01 -.133E+01   0.653E+02 0.298E+02 0.127E+01   0.261E+02 0.218E+02 -.715E+00   -.371E-04 0.225E-04 0.283E-04
   -.133E+02 -.409E+02 -.266E+02   0.136E+02 0.420E+02 0.238E+02   0.907E+00 -.175E+01 0.366E+01   0.123E-04 -.187E-03 0.123E-03
   0.221E+01 -.427E+02 -.303E+02   -.195E+01 0.440E+02 0.273E+02   0.710E+00 -.204E+01 0.389E+01   -.109E-04 -.201E-03 0.114E-03
   0.202E+02 -.345E+02 0.127E+02   -.208E+02 0.319E+02 -.119E+02   -.849E+00 0.198E+01 0.279E+00   0.531E-04 0.619E-04 -.204E-04
   0.266E+02 0.430E+01 0.323E+01   -.560E+02 0.197E+02 -.372E+01   -.265E+02 0.208E+02 -.572E+00   0.157E-04 0.288E-04 -.197E-04
   -.957E+01 0.131E+02 0.888E+01   0.110E+02 -.134E+02 -.968E+01   0.247E+00 0.206E+01 -.865E+00   0.436E-04 0.246E-04 -.998E-05
   -.259E+02 0.505E+02 0.435E+01   0.534E+02 -.767E+02 -.413E+01   0.240E+02 -.226E+02 0.169E+01   -.180E-04 0.899E-04 -.247E-04
   -.202E+02 -.435E+00 -.159E+01   0.495E+02 0.234E+02 0.123E+01   0.257E+02 0.223E+02 -.495E+00   0.102E-04 0.451E-04 0.218E-04
   -.144E+02 0.459E+02 0.949E+01   0.118E+02 -.484E+02 -.725E+01   0.385E+01 0.243E+01 -.330E+01   -.385E-04 0.134E-03 0.878E-06
   -.144E+02 -.459E+02 -.949E+01   0.118E+02 0.484E+02 0.725E+01   0.385E+01 -.243E+01 0.330E+01   -.385E-04 -.134E-03 -.871E-06
   -.133E+02 0.409E+02 0.266E+02   0.136E+02 -.420E+02 -.238E+02   0.907E+00 0.175E+01 -.366E+01   0.122E-04 0.187E-03 -.123E-03
   -.259E+02 -.505E+02 -.435E+01   0.534E+02 0.767E+02 0.413E+01   0.240E+02 0.226E+02 -.169E+01   -.180E-04 -.902E-04 0.247E-04
   0.376E+01 -.469E+02 0.613E+01   -.313E+02 0.728E+02 -.682E+01   -.236E+02 0.237E+02 -.990E+00   -.818E-05 -.108E-03 -.361E-04
   0.266E+02 -.430E+01 -.323E+01   -.560E+02 -.197E+02 0.372E+01   -.265E+02 -.208E+02 0.572E+00   0.157E-04 -.293E-04 0.197E-04
   -.351E+01 -.424E+02 -.722E+01   0.901E+00 0.440E+02 0.493E+01   0.378E+01 -.142E+01 0.337E+01   0.335E-04 -.143E-03 0.614E-05
   -.108E+02 0.521E+02 -.291E+02   0.110E+02 -.509E+02 0.291E+02   -.107E+00 -.313E+01 0.818E+00   -.567E-04 -.332E-04 -.100E-04
   0.672E+01 0.474E+02 -.364E+02   -.572E+01 -.481E+02 0.339E+02   -.390E+01 0.116E+01 0.659E+01   -.565E-04 0.179E-03 0.106E-03
   0.349E+01 -.645E+02 0.238E+01   -.430E+01 0.664E+02 -.228E+01   0.106E+00 -.109E+01 0.950E+00   -.195E-04 -.183E-03 -.831E-07
   0.220E+02 -.797E+00 -.795E+01   -.223E+02 0.184E+01 0.969E+01   0.190E+00 0.249E+01 -.139E+01   0.250E-04 0.148E-04 -.644E-05
   -.924E+01 0.514E+01 -.428E+01   0.758E+01 -.698E+01 0.356E+01   0.237E-01 -.212E+01 0.154E+01   -.710E-05 0.577E-06 -.750E-05
   0.200E+02 -.776E+01 0.170E+02   -.223E+02 0.853E+01 -.184E+02   -.481E+00 0.226E+01 -.213E+01   0.135E-04 0.145E-04 0.132E-04
   0.217E+02 0.471E+02 -.630E+01   -.498E+02 -.728E+02 0.682E+01   -.229E+02 -.237E+02 0.106E+01   0.108E-04 0.121E-03 0.358E-04
   -.924E+01 -.514E+01 0.428E+01   0.758E+01 0.698E+01 -.356E+01   0.237E-01 0.212E+01 -.154E+01   -.710E-05 -.119E-05 0.749E-05
   -.258E+02 -.306E+00 0.881E+01   0.285E+02 -.184E+01 -.969E+01   0.129E+00 -.186E+01 0.139E+01   -.208E-04 -.185E-05 0.147E-04
   0.349E+01 0.645E+02 -.238E+01   -.430E+01 -.664E+02 0.228E+01   0.106E+00 0.109E+01 -.950E+00   -.195E-04 0.183E-03 0.781E-07
   0.228E+02 -.472E+02 0.365E+02   -.222E+02 0.481E+02 -.339E+02   -.370E+01 -.128E+01 -.659E+01   -.192E-04 -.192E-03 -.123E-03
   -.108E+02 -.521E+02 0.291E+02   0.110E+02 0.509E+02 -.291E+02   -.107E+00 0.313E+01 -.818E+00   -.568E-04 0.339E-04 0.101E-04
   0.200E+02 0.776E+01 -.170E+02   -.223E+02 -.853E+01 0.184E+02   -.481E+00 -.226E+01 0.213E+01   0.135E-04 -.151E-04 -.132E-04
   -.351E+01 0.424E+02 0.722E+01   0.901E+00 -.440E+02 -.493E+01   0.378E+01 0.142E+01 -.337E+01   0.335E-04 0.143E-03 -.614E-05
   0.220E+02 0.797E+00 0.795E+01   -.223E+02 -.184E+01 -.969E+01   0.190E+00 -.249E+01 0.139E+01   0.250E-04 -.155E-04 0.646E-05
   0.357E+01 0.459E+02 0.354E+01   -.430E+01 -.453E+02 -.337E+01   0.730E-01 -.840E+00 -.105E+01   0.454E-04 0.145E-03 0.163E-05
   0.672E+01 -.474E+02 0.364E+02   -.572E+01 0.481E+02 -.339E+02   -.390E+01 -.116E+01 -.659E+01   -.565E-04 -.179E-03 -.106E-03
   -.144E+02 0.459E+02 0.949E+01   0.118E+02 -.484E+02 -.725E+01   0.385E+01 0.243E+01 -.330E+01   -.385E-04 0.134E-03 0.878E-06
   -.144E+02 -.459E+02 -.949E+01   0.118E+02 0.484E+02 0.725E+01   0.385E+01 -.243E+01 0.330E+01   -.385E-04 -.134E-03 -.871E-06
   0.228E+02 0.472E+02 -.365E+02   -.222E+02 -.481E+02 0.339E+02   -.370E+01 0.128E+01 0.659E+01   -.192E-04 0.192E-03 0.123E-03
   0.357E+01 -.459E+02 -.354E+01   -.430E+01 0.453E+02 0.337E+01   0.730E-01 0.840E+00 0.105E+01   0.455E-04 -.145E-03 -.164E-05
   -.258E+02 0.306E+00 -.881E+01   0.285E+02 0.184E+01 0.969E+01   0.129E+00 0.186E+01 -.139E+01   -.208E-04 0.122E-05 -.147E-04
   -.351E+01 -.424E+02 -.722E+01   0.901E+00 0.440E+02 0.493E+01   0.378E+01 -.142E+01 0.337E+01   0.335E-04 -.143E-03 0.614E-05
   0.217E+02 -.471E+02 0.630E+01   -.498E+02 0.728E+02 -.682E+01   -.229E+02 0.237E+02 -.106E+01   0.108E-04 -.121E-03 -.358E-04
 -----------------------------------------------------------------------------------------------
   -.206E+02 -.323E-02 -.649E-03   -.426E-13 0.284E-13 0.409E-13   0.207E+02 -.142E-13 0.666E-15   -.446E-04 -.146E-05 0.347E-07
 
 
 POSITION                                       TOTAL-FORCE (eV/Angst)
 -----------------------------------------------------------------------------------
      6.36446     10.18631      0.76476         0.975329      0.700053     -0.895123
      8.65874     17.75704      0.00000        54.924363    -45.298135      0.846109
      4.07018     17.75704      0.00000        55.556232    -45.328423      0.772948
      0.51838      5.31940      4.58856         1.646452     -1.779797      1.659880
      6.36446     18.83857      3.82380        -1.994999      2.235603     -1.663669
      8.65873      6.94170      3.05904        -1.436262      0.661631     -1.094650
      8.65874      9.64553      2.29428         1.167450     -0.209205     -1.080101
      6.36446     12.89014      0.00000        -1.994999     -2.235603      1.663669
      2.81266     12.89014      3.82380       -51.122466    -49.585050      1.680513
      4.07018     13.97167      3.82380        55.556232     45.328423     -0.772948
      1.77590      2.07480      3.05904         1.140533     -0.679368      0.846881
      6.36446      2.07480      3.05904         0.975329     -0.700053      0.895123
      8.65874      5.31940      0.76476        -1.436262     -0.661631      1.094650
      0.51838     13.97167      7.64760       -55.951055     44.823030     -1.061856
      0.51838      6.94170      6.88284         1.646452      1.779797     -1.659880
      1.77590     12.89014      0.00000        51.535124    -48.835980      1.911722
      8.65873     13.97167      3.82380        54.924363     45.298135     -0.846109
      4.07018      9.64553      2.29428         1.178145     -0.068104     -1.058155
      4.07018      2.61557      1.52952         1.178145      0.068104      1.058155
      1.77590     10.18631      0.76476         1.140533      0.679368     -0.846881
      1.77590     18.83857      3.82380        51.535124     48.835980     -1.911722
      2.81266     18.83857      7.64760       -51.122466     49.585050     -1.680513
      0.51838     17.75704      3.82380       -55.951055    -44.823030      1.061856
      8.65874      2.61557      1.52952         1.167450      0.209205      1.080101
      4.07018      6.94170      3.05904         0.047941     -1.996732      0.843627
      2.81266     10.18631      4.58856        -2.913871      0.485180      4.142874
      5.10694      2.61557      5.35332        -0.711567      0.835713      1.050950
      7.40121     14.51244      6.11808        -0.112717      3.526991      0.350741
      1.77590     17.21627      1.52952        -1.632310     -3.955806      0.823520
      6.36446     14.51244      2.29428        -2.731219      3.022340     -3.450496
      7.40121     12.89014      3.82380       -50.964460    -49.338761      1.581710
      1.77590     14.51244      2.29428        -1.632310      3.955806     -0.823520
      2.81266     17.21627      5.35332         2.855330     -4.004331      0.511339
      5.10694      9.64553      6.11808        -0.711567     -0.835713     -1.050950
      7.40121      2.07480      6.88284        -3.140141     -0.466326     -4.006552
      4.07018      5.31940      0.76476         0.047941      1.996732     -0.843627
      6.36446     17.21627      1.52952        -2.731219     -3.022340      3.450496
      8.65874      9.64553      2.29428         1.167450     -0.209205     -1.080101
      7.40121     17.21627      5.35332        -0.112717     -3.526991     -0.350741
      0.51838      9.64553      6.11808        -0.661429     -0.248265     -0.884040
      2.81266      2.07480      6.88284        -2.913871     -0.485180     -4.142874
      4.07018      9.64553      2.29428         1.178145     -0.068104     -1.058155
      4.07018      2.61557      1.52952         1.178145      0.068104      1.058155
      7.40121     10.18631      4.58856        -3.140141      0.466326      4.006552
      0.51838      2.61557      5.35332        -0.661429      0.248265      0.884040
      2.81266     14.51244      6.11808         2.855330      4.004331     -0.511339
      8.65874      2.61557      1.52952         1.167450      0.209205      1.080101
      7.40122     18.83857      7.64760       -50.964460     49.338761     -1.581710
 -----------------------------------------------------------------------------------
    total drift:                                0.093988     -0.003235     -0.000649


--------------------------------------------------------------------------------------------------------



  FREE ENERGIE OF THE ION-ELECTRON SYSTEM (eV)
  ---------------------------------------------------
  free  energy   TOTEN  =      -495.69979004 eV

  energy  without entropy=     -495.69822693  energy(sigma->0) =     -495.69900849
 


--------------------------------------------------------------------------------------------------------


    POTLOK:  cpu time      0.8074: real time      0.8114


--------------------------------------------------------------------------------------------------------


     LOOP+:  cpu time    286.7139: real time    289.2660
    4ORBIT:  cpu time      0.0000: real time      0.0000

 total amount of memory used by VASP MPI-rank0    89839. kBytes
=======================================================================

   base      :      30000. kBytes
   nonlr-proj:       5495. kBytes
   fftplans  :       8089. kBytes
   grid      :       5717. kBytes
   one-center:         48. kBytes
   wavefun   :      40490. kBytes
 
  
  
 General timing and accounting informations for this job:
 ========================================================
  
                  Total CPU time used (sec):      310.488
                            User time (sec):      290.407
                          System time (sec):       20.081
                         Elapsed time (sec):      314.643
  
                   Maximum memory used (kb):      351504.
                   Average memory used (kb):          N/A
  
                          Minor page faults:       267557
                          Major page faults:           45
                 Voluntary context switches:         1621
