 264 264   0   0
  0.2770664E+02  0.1946760E-08  0.1946760E-08  0.1930025E-08  0.5000000E-15
  1.000000000000000E-004
  CAR 
 Si and Ge interface calculation         
      6.65728818     -8.90358523  301      4.06037370      1.00000000
     -8.904  0.0000E+00  0.0000E+00  0.0000E+00  0.0000E+00
     -8.852  0.0000E+00  0.0000E+00  0.0000E+00  0.0000E+00
     -8.800  0.0000E+00  0.0000E+00  0.0000E+00  0.0000E+00
     -8.748  0.0000E+00  0.0000E+00  0.0000E+00  0.0000E+00
     -8.696  0.0000E+00  0.0000E+00  0.0000E+00  0.0000E+00
     -8.644  0.0000E+00  0.0000E+00  0.0000E+00  0.0000E+00
     -8.592  0.0000E+00  0.0000E+00  0.0000E+00  0.0000E+00
     -8.540  0.0000E+00  0.0000E+00  0.0000E+00  0.0000E+00
     -8.489  0.0000E+00  0.0000E+00  0.0000E+00  0.0000E+00
     -8.437  0.0000E+00  0.0000E+00  0.0000E+00  0.0000E+00
     -8.385  0.0000E+00  0.0000E+00  0.0000E+00  0.0000E+00
     -8.333  0.0000E+00  0.0000E+00  0.0000E+00  0.0000E+00
     -8.281  0.0000E+00  0.0000E+00  0.0000E+00  0.0000E+00
     -8.229  0.1442E-04  0.3571E-05  0.7478E-06  0.1852E-06
     -8.177  0.9625E+01  0.9566E+01  0.4992E+00  0.4962E+00
     -8.126  0.2770E+02  0.2710E+02  0.1936E+01  0.1902E+01
     -8.074  0.5499E+01  0.4846E+01  0.2221E+01  0.2153E+01
     -8.022  0.1656E+02  0.1731E+02  0.3080E+01  0.3051E+01
     -7.970  0.1729E+02  0.1752E+02  0.3977E+01  0.3959E+01
     -7.918  0.1882E+02  0.1853E+02  0.4953E+01  0.4921E+01
     -7.866  0.1052E+02  0.1111E+02  0.5499E+01  0.5497E+01
     -7.814  0.1409E+02  0.1258E+02  0.6229E+01  0.6150E+01
     -7.762  0.1452E+02  0.1575E+02  0.6982E+01  0.6967E+01
     -7.711  0.4245E+02  0.4154E+02  0.9184E+01  0.9121E+01
     -7.659  0.2241E+02  0.2264E+02  0.1035E+02  0.1030E+02
     -7.607  0.2968E+01  0.3940E+01  0.1050E+02  0.1050E+02
     -7.555  0.1025E+02  0.1000E+02  0.1103E+02  0.1102E+02
     -7.503  0.9204E+01  0.9366E+01  0.1151E+02  0.1150E+02
     -7.451  0.1341E+02  0.1240E+02  0.1220E+02  0.1215E+02
     -7.399  0.4626E+02  0.4607E+02  0.1460E+02  0.1454E+02
     -7.347  0.2210E+02  0.2235E+02  0.1575E+02  0.1570E+02
     -7.296  0.3662E+02  0.3467E+02  0.1765E+02  0.1749E+02
     -7.244  0.4475E+02  0.4707E+02  0.1997E+02  0.1994E+02
     -7.192  0.1995E+02  0.2052E+02  0.2101E+02  0.2100E+02
     -7.140  0.1016E+02  0.9908E+01  0.2153E+02  0.2151E+02
     -7.088  0.4714E+02  0.4648E+02  0.2398E+02  0.2393E+02
     -7.036  0.5191E+02  0.5148E+02  0.2667E+02  0.2660E+02
     -6.984  0.1861E+02  0.1908E+02  0.2763E+02  0.2758E+02
     -6.933  0.4105E+02  0.3941E+02  0.2976E+02  0.2963E+02
     -6.881  0.2740E+02  0.2675E+02  0.3119E+02  0.3102E+02
     -6.829  0.4842E+02  0.5050E+02  0.3370E+02  0.3364E+02
     -6.777  0.4842E+02  0.4833E+02  0.3621E+02  0.3614E+02
     -6.725  0.3845E+02  0.3787E+02  0.3820E+02  0.3811E+02
     -6.673  0.4210E+02  0.4123E+02  0.4039E+02  0.4025E+02
     -6.621  0.6251E+02  0.6244E+02  0.4363E+02  0.4348E+02
     -6.569  0.4022E+02  0.4056E+02  0.4572E+02  0.4559E+02
     -6.518  0.5209E+02  0.5269E+02  0.4842E+02  0.4832E+02
     -6.466  0.2731E+02  0.2627E+02  0.4983E+02  0.4968E+02
     -6.414  0.6088E+02  0.6340E+02  0.5299E+02  0.5297E+02
     -6.362  0.4774E+02  0.4706E+02  0.5547E+02  0.5541E+02
     -6.310  0.1954E+02  0.1906E+02  0.5648E+02  0.5640E+02
     -6.258  0.4845E+02  0.4980E+02  0.5899E+02  0.5898E+02
     -6.206  0.2617E+02  0.2467E+02  0.6035E+02  0.6026E+02
     -6.154  0.7266E+02  0.7041E+02  0.6412E+02  0.6392E+02
     -6.103  0.7635E+02  0.7918E+02  0.6808E+02  0.6802E+02
     -6.051  0.6771E+02  0.6538E+02  0.7159E+02  0.7141E+02
     -5.999  0.7130E+02  0.7230E+02  0.7529E+02  0.7516E+02
     -5.947  0.5137E+02  0.5255E+02  0.7796E+02  0.7789E+02
     -5.895  0.7449E+02  0.7274E+02  0.8182E+02  0.8166E+02
     -5.843  0.6690E+02  0.6686E+02  0.8529E+02  0.8513E+02
     -5.791  0.6318E+02  0.6323E+02  0.8857E+02  0.8841E+02
     -5.740  0.7254E+02  0.7230E+02  0.9233E+02  0.9216E+02
     -5.688  0.8697E+02  0.8705E+02  0.9684E+02  0.9668E+02
     -5.636  0.8897E+02  0.8886E+02  0.1015E+03  0.1013E+03
     -5.584  0.8128E+02  0.7941E+02  0.1057E+03  0.1054E+03
     -5.532  0.7563E+02  0.7781E+02  0.1096E+03  0.1094E+03
     -5.480  0.6294E+02  0.6384E+02  0.1129E+03  0.1128E+03
     -5.428  0.6617E+02  0.6603E+02  0.1163E+03  0.1162E+03
     -5.376  0.6909E+02  0.6704E+02  0.1199E+03  0.1197E+03
     -5.325  0.9233E+02  0.9157E+02  0.1247E+03  0.1244E+03
     -5.273  0.8568E+02  0.8748E+02  0.1291E+03  0.1289E+03
     -5.221  0.5908E+02  0.5742E+02  0.1322E+03  0.1319E+03
     -5.169  0.6284E+02  0.6415E+02  0.1354E+03  0.1352E+03
     -5.117  0.6097E+02  0.6212E+02  0.1386E+03  0.1385E+03
     -5.065  0.8385E+02  0.7962E+02  0.1429E+03  0.1426E+03
     -5.013  0.7031E+02  0.7406E+02  0.1466E+03  0.1464E+03
     -4.961  0.7371E+02  0.7418E+02  0.1504E+03  0.1503E+03
     -4.910  0.6094E+02  0.5957E+02  0.1536E+03  0.1534E+03
     -4.858  0.9899E+02  0.9771E+02  0.1587E+03  0.1584E+03
     -4.806  0.1026E+03  0.1022E+03  0.1640E+03  0.1637E+03
     -4.754  0.9626E+02  0.9793E+02  0.1690E+03  0.1688E+03
     -4.702  0.9709E+02  0.9372E+02  0.1741E+03  0.1737E+03
     -4.650  0.1162E+03  0.1170E+03  0.1801E+03  0.1798E+03
     -4.598  0.1114E+03  0.1106E+03  0.1859E+03  0.1855E+03
     -4.547  0.1118E+03  0.1110E+03  0.1917E+03  0.1912E+03
     -4.495  0.1075E+03  0.1106E+03  0.1972E+03  0.1970E+03
     -4.443  0.1213E+03  0.1223E+03  0.2035E+03  0.2033E+03
     -4.391  0.6516E+02  0.6506E+02  0.2069E+03  0.2067E+03
     -4.339  0.8249E+02  0.8115E+02  0.2112E+03  0.2109E+03
     -4.287  0.7251E+02  0.7258E+02  0.2150E+03  0.2147E+03
     -4.235  0.7660E+02  0.7778E+02  0.2189E+03  0.2187E+03
     -4.183  0.7707E+02  0.7629E+02  0.2229E+03  0.2227E+03
     -4.132  0.7900E+02  0.8054E+02  0.2270E+03  0.2268E+03
     -4.080  0.6200E+02  0.6175E+02  0.2302E+03  0.2300E+03
     -4.028  0.6416E+02  0.6541E+02  0.2336E+03  0.2334E+03
     -3.976  0.5797E+02  0.5566E+02  0.2366E+03  0.2363E+03
     -3.924  0.7395E+02  0.7573E+02  0.2404E+03  0.2403E+03
     -3.872  0.8056E+02  0.7915E+02  0.2446E+03  0.2444E+03
     -3.820  0.7551E+02  0.7575E+02  0.2485E+03  0.2483E+03
     -3.768  0.7761E+02  0.7539E+02  0.2525E+03  0.2522E+03
     -3.717  0.6249E+02  0.6472E+02  0.2558E+03  0.2556E+03
     -3.665  0.7017E+02  0.7021E+02  0.2594E+03  0.2592E+03
     -3.613  0.6555E+02  0.6256E+02  0.2628E+03  0.2624E+03
     -3.561  0.4680E+02  0.5322E+02  0.2652E+03  0.2652E+03
     -3.509  0.5890E+02  0.5385E+02  0.2683E+03  0.2680E+03
     -3.457  0.8103E+02  0.8044E+02  0.2725E+03  0.2722E+03
     -3.405  0.7601E+02  0.7886E+02  0.2764E+03  0.2763E+03
     -3.354  0.8174E+02  0.7930E+02  0.2807E+03  0.2804E+03
     -3.302  0.6375E+02  0.6435E+02  0.2840E+03  0.2837E+03
     -3.250  0.7053E+02  0.7030E+02  0.2876E+03  0.2874E+03
     -3.198  0.7467E+02  0.7420E+02  0.2915E+03  0.2912E+03
     -3.146  0.8483E+02  0.8644E+02  0.2959E+03  0.2957E+03
     -3.094  0.8255E+02  0.8351E+02  0.3002E+03  0.3000E+03
     -3.042  0.6606E+02  0.6529E+02  0.3036E+03  0.3034E+03
     -2.990  0.7068E+02  0.7050E+02  0.3073E+03  0.3071E+03
     -2.939  0.9123E+02  0.8671E+02  0.3120E+03  0.3116E+03
     -2.887  0.9283E+02  0.9580E+02  0.3168E+03  0.3165E+03
     -2.835  0.7522E+02  0.7768E+02  0.3207E+03  0.3206E+03
     -2.783  0.7654E+02  0.7419E+02  0.3247E+03  0.3244E+03
     -2.731  0.1087E+03  0.1098E+03  0.3303E+03  0.3301E+03
     -2.679  0.9772E+02  0.9561E+02  0.3354E+03  0.3351E+03
     -2.627  0.9051E+02  0.9422E+02  0.3401E+03  0.3400E+03
     -2.575  0.1038E+03  0.9869E+02  0.3455E+03  0.3451E+03
     -2.524  0.1269E+03  0.1294E+03  0.3521E+03  0.3518E+03
     -2.472  0.1178E+03  0.1173E+03  0.3582E+03  0.3579E+03
     -2.420  0.8204E+02  0.8441E+02  0.3624E+03  0.3622E+03
     -2.368  0.1068E+03  0.1052E+03  0.3680E+03  0.3677E+03
     -2.316  0.8813E+02  0.8839E+02  0.3726E+03  0.3723E+03
     -2.264  0.9624E+02  0.9711E+02  0.3775E+03  0.3773E+03
     -2.212  0.6729E+02  0.6938E+02  0.3810E+03  0.3809E+03
     -2.161  0.5582E+02  0.5366E+02  0.3839E+03  0.3837E+03
     -2.109  0.6371E+02  0.6329E+02  0.3872E+03  0.3870E+03
     -2.057  0.5428E+02  0.5441E+02  0.3901E+03  0.3898E+03
     -2.005  0.7928E+02  0.7896E+02  0.3942E+03  0.3939E+03
     -1.953  0.9670E+02  0.9614E+02  0.3992E+03  0.3989E+03
     -1.901  0.8146E+02  0.8276E+02  0.4034E+03  0.4032E+03
     -1.849  0.1002E+03  0.9910E+02  0.4086E+03  0.4083E+03
     -1.797  0.7545E+02  0.7838E+02  0.4125E+03  0.4124E+03
     -1.746  0.8789E+02  0.8620E+02  0.4171E+03  0.4169E+03
     -1.694  0.8813E+02  0.8658E+02  0.4216E+03  0.4214E+03
     -1.642  0.8925E+02  0.8972E+02  0.4263E+03  0.4260E+03
     -1.590  0.8079E+02  0.7849E+02  0.4305E+03  0.4301E+03
     -1.538  0.7990E+02  0.8347E+02  0.4346E+03  0.4344E+03
     -1.486  0.7139E+02  0.7125E+02  0.4383E+03  0.4381E+03
     -1.434  0.5723E+02  0.5965E+02  0.4413E+03  0.4412E+03
     -1.382  0.3573E+02  0.3356E+02  0.4431E+03  0.4429E+03
     -1.331  0.7542E+02  0.7405E+02  0.4470E+03  0.4468E+03
     -1.279  0.6041E+02  0.6246E+02  0.4502E+03  0.4500E+03
     -1.227  0.4526E+02  0.4704E+02  0.4525E+03  0.4525E+03
     -1.175  0.5855E+02  0.5486E+02  0.4556E+03  0.4553E+03
     -1.123  0.5962E+02  0.6020E+02  0.4587E+03  0.4584E+03
     -1.071  0.4565E+02  0.4714E+02  0.4610E+03  0.4609E+03
     -1.019  0.6319E+02  0.6276E+02  0.4643E+03  0.4641E+03
     -0.968  0.4213E+02  0.4218E+02  0.4665E+03  0.4663E+03
     -0.916  0.4348E+02  0.4346E+02  0.4687E+03  0.4686E+03
     -0.864  0.6254E+02  0.6396E+02  0.4720E+03  0.4719E+03
     -0.812  0.5761E+02  0.5499E+02  0.4750E+03  0.4747E+03
     -0.760  0.6929E+02  0.7278E+02  0.4786E+03  0.4785E+03
     -0.708  0.5647E+02  0.5307E+02  0.4815E+03  0.4813E+03
     -0.656  0.6452E+02  0.6441E+02  0.4848E+03  0.4846E+03
     -0.604  0.3133E+02  0.3496E+02  0.4865E+03  0.4864E+03
     -0.553  0.3331E+02  0.3139E+02  0.4882E+03  0.4881E+03
     -0.501  0.2078E+02  0.2333E+02  0.4893E+03  0.4893E+03
     -0.449  0.4146E+02  0.3921E+02  0.4914E+03  0.4913E+03
     -0.397  0.4447E+02  0.4368E+02  0.4937E+03  0.4936E+03
     -0.345  0.5780E+02  0.5740E+02  0.4967E+03  0.4965E+03
     -0.293  0.7850E+02  0.8026E+02  0.5008E+03  0.5007E+03
     -0.241  0.7954E+02  0.7694E+02  0.5049E+03  0.5047E+03
     -0.189  0.7047E+02  0.7135E+02  0.5086E+03  0.5084E+03
     -0.138  0.1212E+03  0.1193E+03  0.5149E+03  0.5146E+03
     -0.086  0.1127E+03  0.1122E+03  0.5207E+03  0.5204E+03
     -0.034  0.1251E+03  0.1237E+03  0.5272E+03  0.5268E+03
      0.018  0.9485E+02  0.9635E+02  0.5321E+03  0.5318E+03
      0.070  0.1578E+03  0.1562E+03  0.5403E+03  0.5399E+03
      0.122  0.1458E+03  0.1493E+03  0.5479E+03  0.5477E+03
      0.174  0.6991E+02  0.7076E+02  0.5515E+03  0.5513E+03
      0.225  0.7697E+02  0.7531E+02  0.5555E+03  0.5552E+03
      0.277  0.1024E+03  0.1027E+03  0.5608E+03  0.5606E+03
      0.329  0.7375E+02  0.7457E+02  0.5646E+03  0.5644E+03
      0.381  0.8453E+02  0.8095E+02  0.5690E+03  0.5686E+03
      0.433  0.1032E+03  0.1070E+03  0.5744E+03  0.5742E+03
      0.485  0.6838E+02  0.6962E+02  0.5779E+03  0.5778E+03
      0.537  0.1216E+03  0.1202E+03  0.5842E+03  0.5840E+03
      0.589  0.1458E+03  0.1437E+03  0.5918E+03  0.5915E+03
      0.640  0.1382E+03  0.1369E+03  0.5990E+03  0.5986E+03
      0.692  0.1340E+03  0.1373E+03  0.6059E+03  0.6057E+03
      0.744  0.1158E+03  0.1156E+03  0.6119E+03  0.6117E+03
      0.796  0.1244E+03  0.1239E+03  0.6184E+03  0.6181E+03
      0.848  0.1151E+03  0.1127E+03  0.6243E+03  0.6240E+03
      0.900  0.7743E+02  0.8134E+02  0.6284E+03  0.6282E+03
      0.952  0.1081E+03  0.1058E+03  0.6340E+03  0.6337E+03
      1.004  0.1058E+03  0.1056E+03  0.6394E+03  0.6392E+03
      1.055  0.1684E+03  0.1641E+03  0.6482E+03  0.6477E+03
      1.107  0.1247E+03  0.1294E+03  0.6547E+03  0.6544E+03
      1.159  0.1278E+03  0.1230E+03  0.6613E+03  0.6608E+03
      1.211  0.1769E+03  0.1749E+03  0.6705E+03  0.6698E+03
      1.263  0.1734E+03  0.1769E+03  0.6794E+03  0.6790E+03
      1.315  0.1773E+03  0.1730E+03  0.6886E+03  0.6880E+03
      1.367  0.1903E+03  0.1939E+03  0.6985E+03  0.6980E+03
      1.418  0.1783E+03  0.1812E+03  0.7078E+03  0.7074E+03
      1.470  0.1395E+03  0.1371E+03  0.7150E+03  0.7145E+03
      1.522  0.2124E+03  0.2095E+03  0.7260E+03  0.7254E+03
      1.574  0.2029E+03  0.2015E+03  0.7365E+03  0.7359E+03
      1.626  0.1858E+03  0.1893E+03  0.7462E+03  0.7457E+03
      1.678  0.1679E+03  0.1681E+03  0.7549E+03  0.7544E+03
      1.730  0.1927E+03  0.1901E+03  0.7649E+03  0.7643E+03
      1.782  0.1789E+03  0.1817E+03  0.7742E+03  0.7737E+03
      1.833  0.1770E+03  0.1764E+03  0.7833E+03  0.7828E+03
      1.885  0.1523E+03  0.1527E+03  0.7912E+03  0.7908E+03
      1.937  0.1962E+03  0.1936E+03  0.8014E+03  0.8008E+03
      1.989  0.2026E+03  0.2074E+03  0.8119E+03  0.8116E+03
      2.041  0.1580E+03  0.1551E+03  0.8201E+03  0.8196E+03
      2.093  0.1975E+03  0.2000E+03  0.8304E+03  0.8300E+03
      2.145  0.1629E+03  0.1590E+03  0.8388E+03  0.8382E+03
      2.197  0.1994E+03  0.2001E+03  0.8492E+03  0.8486E+03
      2.248  0.1586E+03  0.1594E+03  0.8574E+03  0.8569E+03
      2.300  0.1773E+03  0.1772E+03  0.8666E+03  0.8661E+03
      2.352  0.1597E+03  0.1569E+03  0.8749E+03  0.8742E+03
      2.404  0.2005E+03  0.2032E+03  0.8853E+03  0.8847E+03
      2.456  0.1503E+03  0.1501E+03  0.8931E+03  0.8925E+03
      2.508  0.1507E+03  0.1506E+03  0.9009E+03  0.9003E+03
      2.560  0.1716E+03  0.1712E+03  0.9098E+03  0.9092E+03
      2.611  0.1362E+03  0.1373E+03  0.9169E+03  0.9163E+03
      2.663  0.1172E+03  0.1187E+03  0.9229E+03  0.9225E+03
      2.715  0.1451E+03  0.1426E+03  0.9305E+03  0.9299E+03
      2.767  0.1356E+03  0.1392E+03  0.9375E+03  0.9371E+03
      2.819  0.1423E+03  0.1383E+03  0.9449E+03  0.9443E+03
      2.871  0.1594E+03  0.1592E+03  0.9531E+03  0.9525E+03
      2.923  0.1271E+03  0.1295E+03  0.9597E+03  0.9593E+03
      2.975  0.9077E+02  0.9204E+02  0.9644E+03  0.9640E+03
      3.026  0.1430E+03  0.1402E+03  0.9719E+03  0.9713E+03
      3.078  0.1284E+03  0.1317E+03  0.9785E+03  0.9781E+03
      3.130  0.1264E+03  0.1238E+03  0.9851E+03  0.9846E+03
      3.182  0.9944E+02  0.9568E+02  0.9902E+03  0.9895E+03
      3.234  0.1090E+03  0.1121E+03  0.9959E+03  0.9953E+03
      3.286  0.1086E+03  0.1009E+03  0.1002E+04  0.1001E+04
      3.338  0.1066E+03  0.1177E+03  0.1007E+04  0.1007E+04
      3.390  0.6240E+02  0.6429E+02  0.1010E+04  0.1010E+04
      3.441  0.9626E+02  0.9303E+02  0.1015E+04  0.1015E+04
      3.493  0.8561E+02  0.8817E+02  0.1020E+04  0.1019E+04
      3.545  0.8512E+02  0.7913E+02  0.1024E+04  0.1024E+04
      3.597  0.7767E+02  0.8141E+02  0.1028E+04  0.1028E+04
      3.649  0.7154E+02  0.7579E+02  0.1032E+04  0.1032E+04
      3.701  0.4825E+02  0.4701E+02  0.1034E+04  0.1034E+04
      3.753  0.6030E+02  0.6085E+02  0.1038E+04  0.1037E+04
      3.804  0.5708E+02  0.4813E+02  0.1040E+04  0.1040E+04
      3.856  0.4339E+02  0.5388E+02  0.1043E+04  0.1043E+04
      3.908  0.4323E+02  0.4259E+02  0.1045E+04  0.1045E+04
      3.960  0.7694E+02  0.6922E+02  0.1049E+04  0.1048E+04
      4.012  0.6899E+02  0.6968E+02  0.1053E+04  0.1052E+04
      4.064  0.7664E+02  0.6552E+02  0.1057E+04  0.1055E+04
      4.116  0.9523E+02  0.1001E+03  0.1061E+04  0.1061E+04
      4.168  0.9889E+02  0.1050E+03  0.1067E+04  0.1066E+04
      4.219  0.9230E+02  0.9394E+02  0.1071E+04  0.1071E+04
      4.271  0.9880E+02  0.9033E+02  0.1076E+04  0.1076E+04
      4.323  0.8644E+02  0.8680E+02  0.1081E+04  0.1080E+04
      4.375  0.1225E+03  0.1186E+03  0.1087E+04  0.1086E+04
      4.427  0.1289E+03  0.1343E+03  0.1094E+04  0.1093E+04
      4.479  0.1117E+03  0.1162E+03  0.1100E+04  0.1099E+04
      4.531  0.1031E+03  0.9728E+02  0.1105E+04  0.1104E+04
      4.583  0.9646E+02  0.1003E+03  0.1110E+04  0.1109E+04
      4.634  0.9230E+02  0.9267E+02  0.1115E+04  0.1114E+04
      4.686  0.1276E+03  0.1269E+03  0.1122E+04  0.1121E+04
      4.738  0.1235E+03  0.1249E+03  0.1128E+04  0.1127E+04
      4.790  0.1273E+03  0.1262E+03  0.1135E+04  0.1134E+04
      4.842  0.1393E+03  0.1342E+03  0.1142E+04  0.1141E+04
      4.894  0.9764E+02  0.1034E+03  0.1147E+04  0.1146E+04
      4.946  0.1293E+03  0.1266E+03  0.1154E+04  0.1153E+04
      4.997  0.1250E+03  0.1337E+03  0.1160E+04  0.1160E+04
      5.049  0.1229E+03  0.1167E+03  0.1166E+04  0.1166E+04
      5.101  0.1221E+03  0.1249E+03  0.1173E+04  0.1172E+04
      5.153  0.9301E+02  0.9244E+02  0.1178E+04  0.1177E+04
      5.205  0.1038E+03  0.1040E+03  0.1183E+04  0.1182E+04
      5.257  0.1023E+03  0.1048E+03  0.1188E+04  0.1188E+04
      5.309  0.1206E+03  0.1180E+03  0.1195E+04  0.1194E+04
      5.361  0.1255E+03  0.1269E+03  0.1201E+04  0.1201E+04
      5.412  0.1492E+03  0.1462E+03  0.1209E+04  0.1208E+04
      5.464  0.1315E+03  0.1330E+03  0.1216E+04  0.1215E+04
      5.516  0.1476E+03  0.1455E+03  0.1223E+04  0.1223E+04
      5.568  0.1394E+03  0.1397E+03  0.1230E+04  0.1230E+04
      5.620  0.1311E+03  0.1336E+03  0.1237E+04  0.1237E+04
      5.672  0.1186E+03  0.1159E+03  0.1243E+04  0.1243E+04
      5.724  0.1414E+03  0.1448E+03  0.1251E+04  0.1250E+04
      5.776  0.1035E+03  0.1056E+03  0.1256E+04  0.1256E+04
      5.827  0.1362E+03  0.1346E+03  0.1263E+04  0.1263E+04
      5.879  0.1171E+03  0.1224E+03  0.1269E+04  0.1269E+04
      5.931  0.4670E+02  0.4830E+02  0.1272E+04  0.1272E+04
      5.983  0.5713E+01  0.7751E+01  0.1272E+04  0.1272E+04
      6.035  0.0000E+00  0.0000E+00  0.1272E+04  0.1272E+04
      6.087  0.0000E+00  0.0000E+00  0.1272E+04  0.1272E+04
      6.139  0.0000E+00  0.0000E+00  0.1272E+04  0.1272E+04
      6.190  0.0000E+00  0.0000E+00  0.1272E+04  0.1272E+04
      6.242  0.0000E+00  0.0000E+00  0.1272E+04  0.1272E+04
      6.294  0.0000E+00  0.0000E+00  0.1272E+04  0.1272E+04
      6.346  0.0000E+00  0.0000E+00  0.1272E+04  0.1272E+04
      6.398  0.0000E+00  0.0000E+00  0.1272E+04  0.1272E+04
      6.450  0.0000E+00  0.0000E+00  0.1272E+04  0.1272E+04
      6.502  0.0000E+00  0.0000E+00  0.1272E+04  0.1272E+04
      6.554  0.0000E+00  0.0000E+00  0.1272E+04  0.1272E+04
      6.605  0.0000E+00  0.0000E+00  0.1272E+04  0.1272E+04
      6.657  0.0000E+00  0.0000E+00  0.1272E+04  0.1272E+04
