 120 120   0   0
  0.2190039E+02  0.7680595E-09  0.1629300E-08  0.2100086E-08  0.5000000E-15
  1.000000000000000E-004
  CAR 
 Si and Ge interface calculation         
      7.78555350     -8.58049972  301      4.75434152      1.00000000
     -8.580  0.0000E+00  0.0000E+00  0.0000E+00  0.0000E+00
     -8.526  0.0000E+00  0.0000E+00  0.0000E+00  0.0000E+00
     -8.471  0.0000E+00  0.0000E+00  0.0000E+00  0.0000E+00
     -8.417  0.0000E+00  0.0000E+00  0.0000E+00  0.0000E+00
     -8.362  0.0000E+00  0.0000E+00  0.0000E+00  0.0000E+00
     -8.308  0.0000E+00  0.0000E+00  0.0000E+00  0.0000E+00
     -8.253  0.0000E+00  0.0000E+00  0.0000E+00  0.0000E+00
     -8.199  0.0000E+00  0.0000E+00  0.0000E+00  0.0000E+00
     -8.144  0.0000E+00  0.0000E+00  0.0000E+00  0.0000E+00
     -8.090  0.0000E+00  0.0000E+00  0.0000E+00  0.0000E+00
     -8.035  0.0000E+00  0.0000E+00  0.0000E+00  0.0000E+00
     -7.980  0.0000E+00  0.0000E+00  0.0000E+00  0.0000E+00
     -7.926  0.0000E+00  0.0000E+00  0.0000E+00  0.0000E+00
     -7.871  0.2091E-05  0.1279E-07  0.1141E-06  0.6977E-09
     -7.817  0.4571E+01  0.4447E+01  0.2494E+00  0.2426E+00
     -7.762  0.1152E-01  0.1358E+00  0.2500E+00  0.2500E+00
     -7.708  0.1014E+02  0.9137E+01  0.8034E+00  0.7484E+00
     -7.653  0.8187E+01  0.9194E+01  0.1250E+01  0.1250E+01
     -7.599  0.2632E+01  0.4390E+00  0.1394E+01  0.1274E+01
     -7.544  0.1858E+02  0.1988E+02  0.2407E+01  0.2358E+01
     -7.489  0.1697E+01  0.2597E+01  0.2500E+01  0.2500E+01
     -7.435  0.8045E+01  0.6379E+01  0.2939E+01  0.2848E+01
     -7.380  0.1945E+02  0.2110E+02  0.4000E+01  0.3999E+01
     -7.326  0.3081E+01  0.6393E+00  0.4168E+01  0.4034E+01
     -7.271  0.3970E+02  0.3823E+02  0.6334E+01  0.6119E+01
     -7.217  0.2140E+02  0.2447E+02  0.7502E+01  0.7455E+01
     -7.162  0.1386E+02  0.1099E+02  0.8258E+01  0.8054E+01
     -7.108  0.3005E+02  0.2755E+02  0.9897E+01  0.9558E+01
     -7.053  0.6568E+01  0.1265E+02  0.1026E+02  0.1025E+02
     -6.998  0.2152E+02  0.2009E+02  0.1143E+02  0.1134E+02
     -6.944  0.2303E+02  0.2254E+02  0.1269E+02  0.1257E+02
     -6.889  0.2387E+02  0.2447E+02  0.1399E+02  0.1391E+02
     -6.835  0.2885E+02  0.2191E+02  0.1556E+02  0.1510E+02
     -6.780  0.2637E+02  0.3467E+02  0.1700E+02  0.1699E+02
     -6.726  0.7453E+01  0.5808E+01  0.1741E+02  0.1731E+02
     -6.671  0.6528E+01  0.8051E+01  0.1776E+02  0.1775E+02
     -6.617  0.2689E+02  0.2553E+02  0.1923E+02  0.1914E+02
     -6.562  0.2583E+02  0.2442E+02  0.2064E+02  0.2048E+02
     -6.507  0.3795E+02  0.3689E+02  0.2271E+02  0.2249E+02
     -6.453  0.4664E+02  0.5010E+02  0.2525E+02  0.2522E+02
     -6.398  0.2464E+02  0.2225E+02  0.2660E+02  0.2644E+02
     -6.344  0.4674E+02  0.4496E+02  0.2915E+02  0.2889E+02
     -6.289  0.3277E+02  0.3440E+02  0.3094E+02  0.3076E+02
     -6.235  0.2882E+02  0.2961E+02  0.3251E+02  0.3238E+02
     -6.180  0.4285E+02  0.4245E+02  0.3485E+02  0.3470E+02
     -6.126  0.3231E+02  0.3130E+02  0.3661E+02  0.3640E+02
     -6.071  0.1890E+02  0.2128E+02  0.3764E+02  0.3756E+02
     -6.016  0.2554E+02  0.2255E+02  0.3903E+02  0.3879E+02
     -5.962  0.4984E+02  0.5254E+02  0.4175E+02  0.4166E+02
     -5.907  0.1883E+02  0.1710E+02  0.4278E+02  0.4259E+02
     -5.853  0.4237E+02  0.3940E+02  0.4509E+02  0.4474E+02
     -5.798  0.3153E+02  0.3306E+02  0.4681E+02  0.4655E+02
     -5.744  0.5674E+02  0.5554E+02  0.4991E+02  0.4958E+02
     -5.689  0.3413E+02  0.3319E+02  0.5177E+02  0.5139E+02
     -5.635  0.3632E+02  0.4071E+02  0.5375E+02  0.5361E+02
     -5.580  0.2548E+02  0.2451E+02  0.5514E+02  0.5495E+02
     -5.526  0.4383E+02  0.4397E+02  0.5753E+02  0.5734E+02
     -5.471  0.3067E+02  0.3156E+02  0.5920E+02  0.5907E+02
     -5.416  0.4209E+02  0.4363E+02  0.6150E+02  0.6145E+02
     -5.362  0.4537E+02  0.4021E+02  0.6397E+02  0.6364E+02
     -5.307  0.5082E+02  0.5314E+02  0.6675E+02  0.6654E+02
     -5.253  0.3669E+02  0.3520E+02  0.6875E+02  0.6846E+02
     -5.198  0.5223E+02  0.5326E+02  0.7160E+02  0.7136E+02
     -5.144  0.5336E+02  0.5217E+02  0.7451E+02  0.7421E+02
     -5.089  0.4856E+02  0.5122E+02  0.7716E+02  0.7701E+02
     -5.035  0.5202E+02  0.4810E+02  0.8000E+02  0.7963E+02
     -4.980  0.2367E+02  0.2973E+02  0.8129E+02  0.8125E+02
     -4.925  0.4507E+02  0.4024E+02  0.8375E+02  0.8345E+02
     -4.871  0.4786E+02  0.4678E+02  0.8636E+02  0.8600E+02
     -4.816  0.2320E+02  0.2615E+02  0.8762E+02  0.8742E+02
     -4.762  0.3756E+02  0.3574E+02  0.8967E+02  0.8937E+02
     -4.707  0.3260E+02  0.3100E+02  0.9145E+02  0.9107E+02
     -4.653  0.3241E+02  0.3712E+02  0.9322E+02  0.9309E+02
     -4.598  0.3742E+02  0.3954E+02  0.9526E+02  0.9525E+02
     -4.544  0.2577E+02  0.2346E+02  0.9667E+02  0.9653E+02
     -4.489  0.5084E+02  0.4832E+02  0.9944E+02  0.9916E+02
     -4.434  0.2525E+02  0.2692E+02  0.1008E+03  0.1006E+03
     -4.380  0.4578E+02  0.4087E+02  0.1033E+03  0.1029E+03
     -4.325  0.3261E+02  0.3641E+02  0.1051E+03  0.1048E+03
     -4.271  0.2705E+02  0.2983E+02  0.1066E+03  0.1065E+03
     -4.216  0.3428E+02  0.3034E+02  0.1084E+03  0.1081E+03
     -4.162  0.1260E+02  0.1528E+02  0.1091E+03  0.1090E+03
     -4.107  0.1590E+02  0.1569E+02  0.1100E+03  0.1098E+03
     -4.053  0.2197E+02  0.2320E+02  0.1112E+03  0.1111E+03
     -3.998  0.2113E+02  0.1523E+02  0.1123E+03  0.1119E+03
     -3.943  0.1957E+02  0.2519E+02  0.1134E+03  0.1133E+03
     -3.889  0.1689E+02  0.1430E+02  0.1143E+03  0.1141E+03
     -3.834  0.8976E+01  0.8599E+01  0.1148E+03  0.1145E+03
     -3.780  0.3656E+02  0.3986E+02  0.1168E+03  0.1167E+03
     -3.725  0.3397E+01  0.5239E+01  0.1170E+03  0.1170E+03
     -3.671  0.1043E+02  0.9290E+01  0.1176E+03  0.1175E+03
     -3.616  0.3061E+02  0.2535E+02  0.1192E+03  0.1189E+03
     -3.562  0.1846E+02  0.2457E+02  0.1203E+03  0.1202E+03
     -3.507  0.2274E+02  0.1834E+02  0.1215E+03  0.1212E+03
     -3.452  0.1789E+02  0.2111E+02  0.1225E+03  0.1224E+03
     -3.398  0.9746E+01  0.7624E+01  0.1230E+03  0.1228E+03
     -3.343  0.2182E+02  0.2096E+02  0.1242E+03  0.1239E+03
     -3.289  0.1575E+02  0.1744E+02  0.1250E+03  0.1249E+03
     -3.234  0.8290E+01  0.1108E+02  0.1255E+03  0.1255E+03
     -3.180  0.3961E+02  0.3218E+02  0.1277E+03  0.1273E+03
     -3.125  0.2401E+02  0.2809E+02  0.1290E+03  0.1288E+03
     -3.071  0.1120E+02  0.1090E+02  0.1296E+03  0.1294E+03
     -3.016  0.7675E+01  0.1115E+02  0.1300E+03  0.1300E+03
     -2.961  0.2223E+02  0.1881E+02  0.1312E+03  0.1310E+03
     -2.907  0.4309E+02  0.4059E+02  0.1336E+03  0.1332E+03
     -2.852  0.3294E+02  0.3357E+02  0.1354E+03  0.1351E+03
     -2.798  0.3731E+02  0.3446E+02  0.1374E+03  0.1369E+03
     -2.743  0.3138E+02  0.3689E+02  0.1391E+03  0.1390E+03
     -2.689  0.2985E+02  0.2926E+02  0.1407E+03  0.1405E+03
     -2.634  0.5058E+02  0.4496E+02  0.1435E+03  0.1430E+03
     -2.580  0.6749E+02  0.7104E+02  0.1472E+03  0.1469E+03
     -2.525  0.7164E+02  0.7141E+02  0.1511E+03  0.1508E+03
     -2.471  0.3626E+02  0.3699E+02  0.1531E+03  0.1528E+03
     -2.416  0.5842E+02  0.5803E+02  0.1563E+03  0.1560E+03
     -2.361  0.8695E+02  0.8451E+02  0.1610E+03  0.1606E+03
     -2.307  0.4185E+02  0.4710E+02  0.1633E+03  0.1631E+03
     -2.252  0.3600E+02  0.3517E+02  0.1652E+03  0.1651E+03
     -2.198  0.4691E+02  0.4297E+02  0.1678E+03  0.1674E+03
     -2.143  0.5462E+02  0.5640E+02  0.1708E+03  0.1705E+03
     -2.089  0.3870E+02  0.3981E+02  0.1729E+03  0.1726E+03
     -2.034  0.5086E+02  0.4974E+02  0.1757E+03  0.1754E+03
     -1.980  0.5615E+02  0.5871E+02  0.1787E+03  0.1786E+03
     -1.925  0.2287E+02  0.2398E+02  0.1800E+03  0.1799E+03
     -1.870  0.1115E+02  0.1158E+02  0.1806E+03  0.1805E+03
     -1.816  0.4219E+01  0.4590E+01  0.1808E+03  0.1808E+03
     -1.761  0.3533E+02  0.3507E+02  0.1827E+03  0.1827E+03
     -1.707  0.5690E+02  0.5087E+02  0.1858E+03  0.1854E+03
     -1.652  0.4393E+02  0.4675E+02  0.1882E+03  0.1880E+03
     -1.598  0.6625E+02  0.5840E+02  0.1919E+03  0.1912E+03
     -1.543  0.7505E+01  0.1963E+02  0.1923E+03  0.1923E+03
     -1.489  0.1801E+02  0.1826E+02  0.1933E+03  0.1932E+03
     -1.434  0.3522E+02  0.2856E+02  0.1952E+03  0.1948E+03
     -1.379  0.3070E+02  0.3338E+02  0.1968E+03  0.1966E+03
     -1.325  0.2568E+02  0.2938E+02  0.1982E+03  0.1982E+03
     -1.270  0.2256E+02  0.2228E+02  0.1995E+03  0.1994E+03
     -1.216  0.3992E+00  0.1026E+01  0.1995E+03  0.1995E+03
     -1.161  0.8717E+01  0.6218E+01  0.2000E+03  0.1998E+03
     -1.107  0.2873E+02  0.2477E+02  0.2015E+03  0.2012E+03
     -1.052  0.1681E+02  0.2137E+02  0.2025E+03  0.2024E+03
     -0.998  0.4059E+02  0.3793E+02  0.2047E+03  0.2044E+03
     -0.943  0.1169E+02  0.1468E+02  0.2053E+03  0.2052E+03
     -0.888  0.7880E+01  0.6278E+01  0.2057E+03  0.2056E+03
     -0.834  0.9383E+01  0.1248E+02  0.2063E+03  0.2062E+03
     -0.779  0.2036E+02  0.1825E+02  0.2074E+03  0.2072E+03
     -0.725  0.1721E+02  0.1852E+02  0.2083E+03  0.2083E+03
     -0.670  0.3754E+02  0.2871E+02  0.2104E+03  0.2098E+03
     -0.616  0.3768E+02  0.4381E+02  0.2124E+03  0.2122E+03
     -0.561  0.2076E+02  0.2198E+02  0.2135E+03  0.2134E+03
     -0.507  0.5404E+02  0.5541E+02  0.2165E+03  0.2164E+03
     -0.452  0.1011E+02  0.7299E+01  0.2170E+03  0.2168E+03
     -0.397  0.2179E+02  0.1460E+02  0.2182E+03  0.2176E+03
     -0.343  0.3248E+02  0.4323E+02  0.2200E+03  0.2200E+03
     -0.288  0.4072E+01  0.1216E+01  0.2202E+03  0.2201E+03
     -0.234  0.1554E+02  0.1175E+02  0.2211E+03  0.2207E+03
     -0.179  0.3009E+02  0.3459E+02  0.2227E+03  0.2226E+03
     -0.125  0.6323E+01  0.8158E+01  0.2231E+03  0.2230E+03
     -0.070  0.8026E+01  0.8333E+01  0.2235E+03  0.2235E+03
     -0.016  0.3001E+02  0.2397E+02  0.2251E+03  0.2248E+03
      0.039  0.6760E+01  0.1304E+02  0.2255E+03  0.2255E+03
      0.094  0.4433E+01  0.3572E+01  0.2257E+03  0.2257E+03
      0.148  0.2091E+02  0.1482E+02  0.2269E+03  0.2265E+03
      0.203  0.3886E+02  0.3842E+02  0.2290E+03  0.2286E+03
      0.257  0.8286E+02  0.7993E+02  0.2335E+03  0.2330E+03
      0.312  0.4641E+02  0.5499E+02  0.2361E+03  0.2360E+03
      0.366  0.4117E+02  0.3880E+02  0.2383E+03  0.2381E+03
      0.421  0.4030E+02  0.3626E+02  0.2405E+03  0.2401E+03
      0.475  0.4141E+02  0.4812E+02  0.2428E+03  0.2427E+03
      0.530  0.5198E+02  0.4782E+02  0.2456E+03  0.2453E+03
      0.584  0.3128E+02  0.3218E+02  0.2473E+03  0.2470E+03
      0.639  0.7634E+02  0.7191E+02  0.2515E+03  0.2510E+03
      0.694  0.3007E+02  0.3307E+02  0.2531E+03  0.2528E+03
      0.748  0.1010E+03  0.9428E+02  0.2586E+03  0.2579E+03
      0.803  0.9475E+02  0.9879E+02  0.2638E+03  0.2633E+03
      0.857  0.5966E+02  0.5945E+02  0.2670E+03  0.2665E+03
      0.912  0.5588E+02  0.5946E+02  0.2701E+03  0.2698E+03
      0.966  0.5856E+02  0.5588E+02  0.2733E+03  0.2728E+03
      1.021  0.3719E+02  0.4123E+02  0.2753E+03  0.2751E+03
      1.075  0.9043E+02  0.8240E+02  0.2802E+03  0.2796E+03
      1.130  0.6468E+02  0.7321E+02  0.2838E+03  0.2836E+03
      1.185  0.7603E+02  0.6395E+02  0.2879E+03  0.2871E+03
      1.239  0.6962E+02  0.8125E+02  0.2917E+03  0.2915E+03
      1.294  0.6757E+02  0.6022E+02  0.2954E+03  0.2948E+03
      1.348  0.9272E+02  0.9494E+02  0.3005E+03  0.3000E+03
      1.403  0.6456E+02  0.6736E+02  0.3040E+03  0.3036E+03
      1.457  0.9316E+02  0.8574E+02  0.3091E+03  0.3083E+03
      1.512  0.4516E+02  0.5339E+02  0.3115E+03  0.3112E+03
      1.566  0.5579E+02  0.5107E+02  0.3146E+03  0.3140E+03
      1.621  0.7966E+02  0.8069E+02  0.3189E+03  0.3184E+03
      1.676  0.8193E+02  0.8255E+02  0.3234E+03  0.3229E+03
      1.730  0.7151E+02  0.7170E+02  0.3273E+03  0.3268E+03
      1.785  0.9752E+02  0.9757E+02  0.3326E+03  0.3322E+03
      1.839  0.9719E+02  0.8773E+02  0.3379E+03  0.3369E+03
      1.894  0.8841E+02  0.9636E+02  0.3427E+03  0.3422E+03
      1.948  0.7668E+02  0.7829E+02  0.3469E+03  0.3465E+03
      2.003  0.4879E+02  0.5127E+02  0.3496E+03  0.3493E+03
      2.057  0.6380E+02  0.6313E+02  0.3531E+03  0.3527E+03
      2.112  0.6582E+02  0.5972E+02  0.3567E+03  0.3560E+03
      2.167  0.5504E+02  0.6194E+02  0.3597E+03  0.3593E+03
      2.221  0.7917E+02  0.7684E+02  0.3640E+03  0.3635E+03
      2.276  0.6606E+02  0.6516E+02  0.3676E+03  0.3671E+03
      2.330  0.9700E+02  0.9734E+02  0.3729E+03  0.3724E+03
      2.385  0.4963E+02  0.5098E+02  0.3756E+03  0.3752E+03
      2.439  0.7881E+02  0.7832E+02  0.3799E+03  0.3795E+03
      2.494  0.7909E+02  0.7377E+02  0.3842E+03  0.3835E+03
      2.548  0.7144E+02  0.7697E+02  0.3881E+03  0.3877E+03
      2.603  0.6523E+02  0.6142E+02  0.3916E+03  0.3910E+03
      2.658  0.5473E+02  0.5622E+02  0.3946E+03  0.3941E+03
      2.712  0.7929E+02  0.7918E+02  0.3990E+03  0.3984E+03
      2.767  0.5738E+02  0.6060E+02  0.4021E+03  0.4017E+03
      2.821  0.4198E+02  0.4621E+02  0.4044E+03  0.4042E+03
      2.876  0.5520E+02  0.4695E+02  0.4074E+03  0.4068E+03
      2.930  0.8359E+02  0.8110E+02  0.4120E+03  0.4112E+03
      2.985  0.5209E+02  0.5778E+02  0.4148E+03  0.4144E+03
      3.039  0.5029E+02  0.4573E+02  0.4175E+03  0.4169E+03
      3.094  0.8981E+02  0.8968E+02  0.4224E+03  0.4218E+03
      3.149  0.5158E+02  0.5356E+02  0.4252E+03  0.4247E+03
      3.203  0.6913E+02  0.6881E+02  0.4290E+03  0.4284E+03
      3.258  0.9376E+02  0.9415E+02  0.4341E+03  0.4336E+03
      3.312  0.5994E+02  0.6282E+02  0.4374E+03  0.4370E+03
      3.367  0.6948E+02  0.6622E+02  0.4412E+03  0.4406E+03
      3.421  0.5550E+02  0.5151E+02  0.4442E+03  0.4434E+03
      3.476  0.6461E+02  0.7129E+02  0.4477E+03  0.4473E+03
      3.530  0.2217E+02  0.2629E+02  0.4490E+03  0.4488E+03
      3.585  0.6236E+02  0.5436E+02  0.4524E+03  0.4517E+03
      3.639  0.2348E+02  0.3206E+02  0.4536E+03  0.4535E+03
      3.694  0.3052E+02  0.3024E+02  0.4553E+03  0.4551E+03
      3.749  0.3501E+02  0.3090E+02  0.4572E+03  0.4568E+03
      3.803  0.2985E+02  0.3431E+02  0.4588E+03  0.4587E+03
      3.858  0.2679E+02  0.2898E+02  0.4603E+03  0.4603E+03
      3.912  0.2901E+02  0.2328E+02  0.4619E+03  0.4615E+03
      3.967  0.2839E+02  0.3108E+02  0.4634E+03  0.4632E+03
      4.021  0.4030E+02  0.4108E+02  0.4656E+03  0.4655E+03
      4.076  0.2605E+02  0.2817E+02  0.4671E+03  0.4670E+03
      4.130  0.1489E+02  0.1189E+02  0.4679E+03  0.4676E+03
      4.185  0.2342E+02  0.1366E+02  0.4691E+03  0.4684E+03
      4.240  0.2000E+02  0.2949E+02  0.4702E+03  0.4700E+03
      4.294  0.2323E+02  0.2193E+02  0.4715E+03  0.4712E+03
      4.349  0.1824E+02  0.2386E+02  0.4725E+03  0.4725E+03
      4.403  0.5523E+01  0.2018E+01  0.4728E+03  0.4726E+03
      4.458  0.2020E+02  0.7497E+01  0.4739E+03  0.4730E+03
      4.512  0.3131E+02  0.2651E+02  0.4756E+03  0.4745E+03
      4.567  0.1508E+02  0.2646E+02  0.4764E+03  0.4759E+03
      4.621  0.5788E+01  0.8395E+01  0.4767E+03  0.4764E+03
      4.676  0.1459E+02  0.7057E+01  0.4775E+03  0.4768E+03
      4.731  0.3536E+02  0.1766E+02  0.4795E+03  0.4777E+03
      4.785  0.3760E+02  0.4329E+02  0.4815E+03  0.4801E+03
      4.840  0.2410E+02  0.4361E+02  0.4828E+03  0.4825E+03
      4.894  0.3046E+02  0.2035E+02  0.4845E+03  0.4836E+03
      4.949  0.3179E+02  0.2708E+02  0.4862E+03  0.4850E+03
      5.003  0.2086E+02  0.2217E+02  0.4874E+03  0.4863E+03
      5.058  0.4391E+02  0.3294E+02  0.4898E+03  0.4880E+03
      5.112  0.2990E+02  0.5397E+02  0.4914E+03  0.4910E+03
      5.167  0.2472E+02  0.1577E+02  0.4928E+03  0.4919E+03
      5.222  0.2615E+02  0.2882E+02  0.4942E+03  0.4934E+03
      5.276  0.5904E+02  0.5135E+02  0.4974E+03  0.4962E+03
      5.331  0.2372E+02  0.3873E+02  0.4987E+03  0.4983E+03
      5.385  0.3980E+02  0.3498E+02  0.5009E+03  0.5002E+03
      5.440  0.4916E+02  0.5560E+02  0.5035E+03  0.5033E+03
      5.494  0.2541E+02  0.2617E+02  0.5049E+03  0.5047E+03
      5.549  0.5227E+02  0.4171E+02  0.5078E+03  0.5070E+03
      5.603  0.3720E+02  0.4398E+02  0.5098E+03  0.5094E+03
      5.658  0.5528E+02  0.4187E+02  0.5128E+03  0.5117E+03
      5.713  0.5097E+02  0.6506E+02  0.5156E+03  0.5152E+03
      5.767  0.5099E+02  0.4404E+02  0.5184E+03  0.5176E+03
      5.822  0.4472E+02  0.5066E+02  0.5208E+03  0.5204E+03
      5.876  0.6051E+02  0.4776E+02  0.5241E+03  0.5230E+03
      5.931  0.6126E+02  0.6275E+02  0.5275E+03  0.5264E+03
      5.985  0.5329E+02  0.6787E+02  0.5304E+03  0.5301E+03
      6.040  0.4107E+02  0.3322E+02  0.5326E+03  0.5319E+03
      6.094  0.4810E+02  0.4883E+02  0.5352E+03  0.5346E+03
      6.149  0.6117E+02  0.6284E+02  0.5386E+03  0.5380E+03
      6.204  0.5729E+02  0.5774E+02  0.5417E+03  0.5412E+03
      6.258  0.4252E+02  0.5143E+02  0.5440E+03  0.5440E+03
      6.313  0.1974E+02  0.1897E+02  0.5451E+03  0.5450E+03
      6.367  0.5486E+02  0.4791E+02  0.5481E+03  0.5476E+03
      6.422  0.6846E+02  0.6945E+02  0.5518E+03  0.5514E+03
      6.476  0.7158E+02  0.6182E+02  0.5557E+03  0.5548E+03
      6.531  0.6499E+02  0.7038E+02  0.5593E+03  0.5586E+03
      6.585  0.2911E+02  0.3642E+02  0.5609E+03  0.5606E+03
      6.640  0.3906E+02  0.3667E+02  0.5630E+03  0.5626E+03
      6.694  0.5783E+02  0.5450E+02  0.5662E+03  0.5656E+03
      6.749  0.2974E+02  0.3350E+02  0.5678E+03  0.5674E+03
      6.804  0.5268E+02  0.5053E+02  0.5707E+03  0.5702E+03
      6.858  0.4516E+02  0.4873E+02  0.5731E+03  0.5728E+03
      6.913  0.2169E+02  0.2613E+02  0.5743E+03  0.5743E+03
      6.967  0.4431E+01  0.4706E+01  0.5745E+03  0.5745E+03
      7.022  0.1716E+02  0.1310E+02  0.5755E+03  0.5752E+03
      7.076  0.9605E+01  0.1421E+02  0.5760E+03  0.5760E+03
      7.131  0.0000E+00  0.0000E+00  0.5760E+03  0.5760E+03
      7.185  0.0000E+00  0.0000E+00  0.5760E+03  0.5760E+03
      7.240  0.0000E+00  0.0000E+00  0.5760E+03  0.5760E+03
      7.295  0.0000E+00  0.0000E+00  0.5760E+03  0.5760E+03
      7.349  0.0000E+00  0.0000E+00  0.5760E+03  0.5760E+03
      7.404  0.0000E+00  0.0000E+00  0.5760E+03  0.5760E+03
      7.458  0.0000E+00  0.0000E+00  0.5760E+03  0.5760E+03
      7.513  0.0000E+00  0.0000E+00  0.5760E+03  0.5760E+03
      7.567  0.0000E+00  0.0000E+00  0.5760E+03  0.5760E+03
      7.622  0.0000E+00  0.0000E+00  0.5760E+03  0.5760E+03
      7.676  0.0000E+00  0.0000E+00  0.5760E+03  0.5760E+03
      7.731  0.0000E+00  0.0000E+00  0.5760E+03  0.5760E+03
      7.786  0.0000E+00  0.0000E+00  0.5760E+03  0.5760E+03
