       N       E                     dE             d eps       ncg     rms          rms(c)
DAV:   1     0.196394530911E+04    0.19639E+04   -0.21422E+05  6912   0.173E+03
DAV:   2    -0.361031254872E+03   -0.23250E+04   -0.22429E+04  8104   0.214E+02
DAV:   3    -0.576833698548E+03   -0.21580E+03   -0.20944E+03  8488   0.572E+01
DAV:   4    -0.584743977356E+03   -0.79103E+01   -0.77787E+01  8176   0.117E+01
DAV:   5    -0.585050309425E+03   -0.30633E+00   -0.30438E+00  9192   0.225E+00    0.316E+01
DAV:   6    -0.576085992132E+03    0.89643E+01   -0.14498E+01  8336   0.815E+00    0.144E+01
DAV:   7    -0.576256578822E+03   -0.17059E+00   -0.15129E+01  8456   0.912E+00    0.658E+00
DAV:   8    -0.575152990338E+03    0.11036E+01   -0.44781E+00  8432   0.539E+00    0.159E+00
DAV:   9    -0.575222267013E+03   -0.69277E-01   -0.14478E+00  8024   0.173E+00    0.125E+00
DAV:  10    -0.575211067250E+03    0.11200E-01   -0.16325E-01  8096   0.684E-01    0.782E-01
DAV:  11    -0.575214790384E+03   -0.37231E-02   -0.72345E-02  8568   0.495E-01    0.548E-01
DAV:  12    -0.575208751435E+03    0.60389E-02   -0.43135E-02  8664   0.393E-01    0.308E-01
DAV:  13    -0.575208484444E+03    0.26699E-03   -0.10277E-02  7968   0.168E-01    0.179E-01
DAV:  14    -0.575208657622E+03   -0.17318E-03   -0.21747E-03  7800   0.732E-02    0.108E-01
DAV:  15    -0.575208649237E+03    0.83853E-05   -0.55320E-04  7944   0.395E-02    0.592E-02
DAV:  16    -0.575208666748E+03   -0.17511E-04   -0.28079E-04  7944   0.262E-02    0.358E-02
DAV:  17    -0.575208675931E+03   -0.91833E-05   -0.10399E-04  7864   0.170E-02    0.201E-02
DAV:  18    -0.575208683503E+03   -0.75714E-05   -0.30249E-05  7928   0.860E-03    0.148E-02
DAV:  19    -0.575208687499E+03   -0.39964E-05   -0.10590E-05  7912   0.491E-03    0.105E-02
DAV:  20    -0.575208689546E+03   -0.20467E-05   -0.53757E-06  8256   0.313E-03    0.620E-03
DAV:  21    -0.575208690892E+03   -0.13464E-05   -0.22349E-06  8224   0.209E-03    0.388E-03
DAV:  22    -0.575208692407E+03   -0.15148E-05   -0.21475E-06  8104   0.184E-03    0.270E-03
DAV:  23    -0.575208693012E+03   -0.60484E-06   -0.23770E-06  8128   0.178E-03    0.227E-03
DAV:  24    -0.575208692744E+03    0.26767E-06   -0.56542E-07  7440   0.961E-04    0.176E-03
DAV:  25    -0.575208692692E+03    0.52823E-07   -0.11995E-07  4352   0.527E-04
   1 F= -.57520869E+03 E0= -.57520753E+03  d E =-.232460E-02  mag=     1.0000
