  48  48   0   0
  0.2323126E+02  0.8001338E-09  0.1265123E-08  0.1161174E-08  0.5000000E-15
  1.000000000000000E-004
  CAR 
 Si and Ge interface calculation         
      6.67912653    -12.04008317  301      3.47188016      1.00000000
    -12.040  0.0000E+00  0.0000E+00  0.0000E+00  0.0000E+00
    -11.978  0.0000E+00  0.0000E+00  0.0000E+00  0.0000E+00
    -11.915  0.0000E+00  0.0000E+00  0.0000E+00  0.0000E+00
    -11.853  0.0000E+00  0.0000E+00  0.0000E+00  0.0000E+00
    -11.790  0.0000E+00  0.0000E+00  0.0000E+00  0.0000E+00
    -11.728  0.0000E+00  0.0000E+00  0.0000E+00  0.0000E+00
    -11.666  0.0000E+00  0.0000E+00  0.0000E+00  0.0000E+00
    -11.603  0.0000E+00  0.0000E+00  0.0000E+00  0.0000E+00
    -11.541  0.0000E+00  0.0000E+00  0.0000E+00  0.0000E+00
    -11.479  0.0000E+00  0.0000E+00  0.0000E+00  0.0000E+00
    -11.416  0.0000E+00  0.0000E+00  0.0000E+00  0.0000E+00
    -11.354  0.0000E+00  0.0000E+00  0.0000E+00  0.0000E+00
    -11.291  0.0000E+00  0.0000E+00  0.0000E+00  0.0000E+00
    -11.229  0.4018E-07  0.1404E-11  0.2507E-08  0.8759E-13
    -11.167  0.8005E+01  0.7512E+01  0.4995E+00  0.4688E+00
    -11.104  0.8034E+00  0.5120E+00  0.5501E+00  0.5007E+00
    -11.042  0.1522E+02  0.1602E+02  0.1500E+01  0.1500E+01
    -10.979  0.0000E+00  0.0000E+00  0.1500E+01  0.1500E+01
    -10.917  0.0000E+00  0.0000E+00  0.1500E+01  0.1500E+01
    -10.855  0.1618E-01  0.2622E-04  0.1501E+01  0.1500E+01
    -10.792  0.1601E+02  0.1603E+02  0.2500E+01  0.2500E+01
    -10.730  0.0000E+00  0.0000E+00  0.2500E+01  0.2500E+01
    -10.667  0.0000E+00  0.0000E+00  0.2500E+01  0.2500E+01
    -10.605  0.0000E+00  0.0000E+00  0.2500E+01  0.2500E+01
    -10.543  0.6607E-03  0.2569E-06  0.2500E+01  0.2500E+01
    -10.480  0.1603E+02  0.1602E+02  0.3500E+01  0.3499E+01
    -10.418  0.0000E+00  0.0000E+00  0.3500E+01  0.3500E+01
    -10.355  0.4528E+01  0.5939E+00  0.3783E+01  0.3537E+01
    -10.293  0.3485E+01  0.7419E+01  0.4000E+01  0.4000E+01
    -10.231  0.0000E+00  0.0000E+00  0.4000E+01  0.4000E+01
    -10.168  0.0000E+00  0.0000E+00  0.4000E+01  0.4000E+01
    -10.106  0.0000E+00  0.0000E+00  0.4000E+01  0.4000E+01
    -10.043  0.0000E+00  0.0000E+00  0.4000E+01  0.4000E+01
     -9.981  0.0000E+00  0.0000E+00  0.4000E+01  0.4000E+01
     -9.919  0.0000E+00  0.0000E+00  0.4000E+01  0.4000E+01
     -9.856  0.1868E-03  0.0000E+00  0.4000E+01  0.4000E+01
     -9.794  0.8013E+01  0.3461E+00  0.4500E+01  0.4022E+01
     -9.731  0.2793E-05  0.7667E+01  0.4500E+01  0.4500E+01
     -9.669  0.1601E+02  0.6646E-01  0.5499E+01  0.4504E+01
     -9.607  0.0000E+00  0.1596E+02  0.5500E+01  0.5500E+01
     -9.544  0.0000E+00  0.0000E+00  0.5500E+01  0.5500E+01
     -9.482  0.0000E+00  0.0000E+00  0.5500E+01  0.5500E+01
     -9.419  0.0000E+00  0.0000E+00  0.5500E+01  0.5500E+01
     -9.357  0.3833E-10  0.0000E+00  0.5500E+01  0.5500E+01
     -9.295  0.1466E+02  0.2071E-03  0.6415E+01  0.5500E+01
     -9.232  0.1367E+01  0.1603E+02  0.6500E+01  0.6500E+01
     -9.170  0.0000E+00  0.0000E+00  0.6500E+01  0.6500E+01
     -9.107  0.0000E+00  0.0000E+00  0.6500E+01  0.6500E+01
     -9.045  0.0000E+00  0.0000E+00  0.6500E+01  0.6500E+01
     -8.983  0.0000E+00  0.0000E+00  0.6500E+01  0.6500E+01
     -8.920  0.0000E+00  0.0000E+00  0.6500E+01  0.6500E+01
     -8.858  0.0000E+00  0.0000E+00  0.6500E+01  0.6500E+01
     -8.795  0.1277E+01  0.1198E+00  0.6580E+01  0.6507E+01
     -8.733  0.5571E+01  0.5151E+01  0.6927E+01  0.6829E+01
     -8.671  0.2220E+02  0.1501E+02  0.8313E+01  0.7766E+01
     -8.608  0.1123E+02  0.1662E+02  0.9014E+01  0.8802E+01
     -8.546  0.9000E+01  0.9945E+01  0.9576E+01  0.9423E+01
     -8.483  0.5793E+01  0.6619E+01  0.9938E+01  0.9836E+01
     -8.421  0.3669E+01  0.5291E+01  0.1017E+02  0.1017E+02
     -8.359  0.5340E+01  0.5314E+01  0.1050E+02  0.1050E+02
     -8.296  0.1148E+02  0.8307E+01  0.1122E+02  0.1102E+02
     -8.234  0.1793E+02  0.1560E+02  0.1234E+02  0.1199E+02
     -8.171  0.7485E+01  0.1240E+02  0.1280E+02  0.1276E+02
     -8.109  0.1382E+02  0.1339E+02  0.1367E+02  0.1360E+02
     -8.047  0.7124E+01  0.6991E+01  0.1411E+02  0.1404E+02
     -7.984  0.5860E+01  0.5183E+01  0.1448E+02  0.1436E+02
     -7.922  0.3057E+01  0.4869E+01  0.1467E+02  0.1466E+02
     -7.859  0.3547E+01  0.2770E+01  0.1489E+02  0.1484E+02
     -7.797  0.6751E+01  0.5372E+01  0.1531E+02  0.1517E+02
     -7.735  0.1799E+02  0.1769E+02  0.1643E+02  0.1628E+02
     -7.672  0.1198E+02  0.1228E+02  0.1718E+02  0.1704E+02
     -7.610  0.1651E+02  0.1570E+02  0.1821E+02  0.1802E+02
     -7.547  0.1532E+02  0.1815E+02  0.1917E+02  0.1916E+02
     -7.485  0.5213E+01  0.2824E+01  0.1949E+02  0.1933E+02
     -7.423  0.1477E+02  0.1348E+02  0.2041E+02  0.2017E+02
     -7.360  0.1281E+02  0.1435E+02  0.2121E+02  0.2107E+02
     -7.298  0.1145E+02  0.1065E+02  0.2193E+02  0.2173E+02
     -7.235  0.1484E+02  0.1757E+02  0.2285E+02  0.2283E+02
     -7.173  0.1730E+02  0.1499E+02  0.2393E+02  0.2377E+02
     -7.111  0.1579E+02  0.1491E+02  0.2492E+02  0.2470E+02
     -7.048  0.1620E+02  0.1674E+02  0.2593E+02  0.2574E+02
     -6.986  0.1464E+02  0.1084E+02  0.2684E+02  0.2642E+02
     -6.923  0.2248E+02  0.2464E+02  0.2825E+02  0.2796E+02
     -6.861  0.1421E+02  0.1690E+02  0.2913E+02  0.2901E+02
     -6.799  0.1767E+02  0.1660E+02  0.3024E+02  0.3005E+02
     -6.736  0.9141E+01  0.8601E+01  0.3081E+02  0.3059E+02
     -6.674  0.8172E+01  0.7786E+01  0.3132E+02  0.3107E+02
     -6.612  0.1559E+02  0.1696E+02  0.3229E+02  0.3213E+02
     -6.549  0.1211E+02  0.1170E+02  0.3305E+02  0.3286E+02
     -6.487  0.1587E+02  0.1458E+02  0.3404E+02  0.3377E+02
     -6.424  0.4756E+01  0.8987E+01  0.3433E+02  0.3433E+02
     -6.362  0.4273E+01  0.3614E+01  0.3460E+02  0.3456E+02
     -6.300  0.7303E+01  0.7372E+01  0.3506E+02  0.3502E+02
     -6.237  0.1320E+02  0.1231E+02  0.3588E+02  0.3578E+02
     -6.175  0.8438E+01  0.2848E+01  0.3641E+02  0.3596E+02
     -6.112  0.3521E+02  0.3709E+02  0.3860E+02  0.3828E+02
     -6.050  0.1713E+02  0.1861E+02  0.3967E+02  0.3944E+02
     -5.988  0.2351E+02  0.2522E+02  0.4114E+02  0.4101E+02
     -5.925  0.1925E+02  0.1614E+02  0.4234E+02  0.4202E+02
     -5.863  0.7093E+01  0.1032E+02  0.4279E+02  0.4266E+02
     -5.800  0.5934E+01  0.6896E+01  0.4316E+02  0.4309E+02
     -5.738  0.5051E+01  0.4467E+01  0.4347E+02  0.4337E+02
     -5.676  0.3942E+01  0.3762E+01  0.4372E+02  0.4361E+02
     -5.613  0.6645E+01  0.5918E+01  0.4413E+02  0.4398E+02
     -5.551  0.1662E+02  0.1655E+02  0.4517E+02  0.4501E+02
     -5.488  0.9247E+01  0.8753E+01  0.4575E+02  0.4556E+02
     -5.426  0.1011E+02  0.9416E+01  0.4638E+02  0.4614E+02
     -5.364  0.1371E+02  0.1155E+02  0.4723E+02  0.4687E+02
     -5.301  0.2028E+02  0.2142E+02  0.4850E+02  0.4820E+02
     -5.239  0.1008E+02  0.1212E+02  0.4913E+02  0.4896E+02
     -5.176  0.7823E+01  0.7110E+01  0.4962E+02  0.4940E+02
     -5.114  0.8370E+01  0.6917E+01  0.5014E+02  0.4983E+02
     -5.052  0.1524E+02  0.1582E+02  0.5109E+02  0.5082E+02
     -4.989  0.1181E+02  0.1334E+02  0.5183E+02  0.5165E+02
     -4.927  0.2193E+02  0.1911E+02  0.5320E+02  0.5285E+02
     -4.864  0.1131E+02  0.1380E+02  0.5390E+02  0.5371E+02
     -4.802  0.1683E+02  0.1282E+02  0.5495E+02  0.5451E+02
     -4.740  0.1630E+02  0.1763E+02  0.5597E+02  0.5561E+02
     -4.677  0.7955E+01  0.1185E+02  0.5646E+02  0.5635E+02
     -4.615  0.5909E+01  0.7713E+01  0.5683E+02  0.5683E+02
     -4.552  0.1148E+02  0.6602E+01  0.5755E+02  0.5724E+02
     -4.490  0.2394E+02  0.2171E+02  0.5904E+02  0.5860E+02
     -4.428  0.1889E+02  0.2125E+02  0.6022E+02  0.5992E+02
     -4.365  0.6298E+01  0.1077E+02  0.6062E+02  0.6059E+02
     -4.303  0.1103E+02  0.8006E+01  0.6131E+02  0.6109E+02
     -4.240  0.1257E+02  0.1300E+02  0.6209E+02  0.6191E+02
     -4.178  0.8031E+01  0.8485E+01  0.6259E+02  0.6244E+02
     -4.116  0.1589E+02  0.1123E+02  0.6358E+02  0.6314E+02
     -4.053  0.1644E+02  0.2144E+02  0.6461E+02  0.6447E+02
     -3.991  0.1745E+02  0.1513E+02  0.6570E+02  0.6542E+02
     -3.928  0.8302E+01  0.1197E+02  0.6622E+02  0.6617E+02
     -3.866  0.1794E+02  0.1278E+02  0.6734E+02  0.6696E+02
     -3.804  0.1703E+02  0.1905E+02  0.6840E+02  0.6815E+02
     -3.741  0.8840E+01  0.1139E+02  0.6895E+02  0.6886E+02
     -3.679  0.1660E+02  0.1260E+02  0.6999E+02  0.6965E+02
     -3.616  0.2147E+02  0.1674E+02  0.7133E+02  0.7070E+02
     -3.554  0.1769E+02  0.2443E+02  0.7243E+02  0.7222E+02
     -3.492  0.1063E+02  0.9765E+01  0.7309E+02  0.7283E+02
     -3.429  0.1209E+02  0.1424E+02  0.7385E+02  0.7372E+02
     -3.367  0.1168E+02  0.1176E+02  0.7458E+02  0.7445E+02
     -3.304  0.9162E+01  0.1047E+02  0.7515E+02  0.7511E+02
     -3.242  0.1419E+02  0.1260E+02  0.7604E+02  0.7589E+02
     -3.180  0.6732E+01  0.7819E+01  0.7646E+02  0.7638E+02
     -3.117  0.1044E+02  0.5774E+01  0.7711E+02  0.7674E+02
     -3.055  0.1307E+02  0.1272E+02  0.7792E+02  0.7753E+02
     -2.992  0.1007E+02  0.1547E+02  0.7855E+02  0.7850E+02
     -2.930  0.7129E+01  0.5346E+01  0.7900E+02  0.7883E+02
     -2.868  0.7860E+01  0.8879E+01  0.7949E+02  0.7939E+02
     -2.805  0.1205E+02  0.1066E+02  0.8024E+02  0.8005E+02
     -2.743  0.8904E+01  0.1017E+02  0.8080E+02  0.8069E+02
     -2.680  0.1984E+02  0.1635E+02  0.8203E+02  0.8171E+02
     -2.618  0.1192E+02  0.1482E+02  0.8278E+02  0.8263E+02
     -2.556  0.6328E+01  0.7672E+01  0.8317E+02  0.8311E+02
     -2.493  0.9099E+01  0.8639E+01  0.8374E+02  0.8365E+02
     -2.431  0.1024E+02  0.8490E+01  0.8438E+02  0.8418E+02
     -2.368  0.1071E+02  0.1127E+02  0.8505E+02  0.8488E+02
     -2.306  0.1342E+02  0.1298E+02  0.8589E+02  0.8569E+02
     -2.244  0.8933E+01  0.8979E+01  0.8644E+02  0.8625E+02
     -2.181  0.1254E+02  0.1066E+02  0.8723E+02  0.8692E+02
     -2.119  0.7742E+01  0.1110E+02  0.8771E+02  0.8761E+02
     -2.057  0.4531E+01  0.4074E+01  0.8799E+02  0.8787E+02
     -1.994  0.1026E+02  0.8666E+01  0.8863E+02  0.8841E+02
     -1.932  0.1030E+02  0.1049E+02  0.8928E+02  0.8906E+02
     -1.869  0.9279E+01  0.1166E+02  0.8986E+02  0.8979E+02
     -1.807  0.9114E+01  0.8022E+01  0.9042E+02  0.9029E+02
     -1.745  0.4913E+01  0.5250E+01  0.9073E+02  0.9062E+02
     -1.682  0.3478E+01  0.4366E+01  0.9095E+02  0.9089E+02
     -1.620  0.9770E+01  0.8934E+01  0.9156E+02  0.9145E+02
     -1.557  0.2367E+02  0.2106E+02  0.9304E+02  0.9276E+02
     -1.495  0.1290E+02  0.1613E+02  0.9384E+02  0.9377E+02
     -1.433  0.4450E+01  0.4021E+01  0.9412E+02  0.9402E+02
     -1.370  0.7942E+01  0.6946E+01  0.9461E+02  0.9446E+02
     -1.308  0.1073E+02  0.1317E+02  0.9528E+02  0.9528E+02
     -1.245  0.8739E+01  0.7496E+01  0.9583E+02  0.9575E+02
     -1.183  0.8375E+01  0.5146E+01  0.9635E+02  0.9607E+02
     -1.121  0.9660E+01  0.1181E+02  0.9695E+02  0.9680E+02
     -1.058  0.7920E+01  0.8491E+01  0.9745E+02  0.9733E+02
     -0.996  0.1041E+02  0.7342E+01  0.9810E+02  0.9779E+02
     -0.933  0.1607E+02  0.1767E+02  0.9910E+02  0.9890E+02
     -0.871  0.9303E+01  0.1228E+02  0.9968E+02  0.9966E+02
     -0.809  0.1345E+02  0.1164E+02  0.1005E+03  0.1004E+03
     -0.746  0.1487E+02  0.8994E+01  0.1014E+03  0.1009E+03
     -0.684  0.1457E+02  0.2006E+02  0.1024E+03  0.1022E+03
     -0.621  0.2061E+02  0.1793E+02  0.1036E+03  0.1033E+03
     -0.559  0.1204E+02  0.1190E+02  0.1044E+03  0.1041E+03
     -0.497  0.1760E+02  0.1873E+02  0.1055E+03  0.1052E+03
     -0.434  0.3516E+02  0.3199E+02  0.1077E+03  0.1072E+03
     -0.372  0.2228E+02  0.2360E+02  0.1091E+03  0.1087E+03
     -0.309  0.3066E+02  0.2455E+02  0.1110E+03  0.1102E+03
     -0.247  0.1295E+02  0.2076E+02  0.1118E+03  0.1115E+03
     -0.185  0.2454E+02  0.2017E+02  0.1133E+03  0.1128E+03
     -0.122  0.3631E+02  0.3165E+02  0.1156E+03  0.1148E+03
     -0.060  0.2049E+02  0.3105E+02  0.1169E+03  0.1167E+03
      0.003  0.2549E+02  0.2202E+02  0.1185E+03  0.1181E+03
      0.065  0.2613E+02  0.2474E+02  0.1201E+03  0.1196E+03
      0.127  0.2177E+02  0.2486E+02  0.1215E+03  0.1212E+03
      0.190  0.2471E+02  0.2410E+02  0.1230E+03  0.1227E+03
      0.252  0.2375E+02  0.2270E+02  0.1245E+03  0.1241E+03
      0.315  0.2842E+02  0.2806E+02  0.1263E+03  0.1258E+03
      0.377  0.2701E+02  0.2789E+02  0.1279E+03  0.1276E+03
      0.439  0.3014E+02  0.2688E+02  0.1298E+03  0.1293E+03
      0.502  0.2369E+02  0.2980E+02  0.1313E+03  0.1311E+03
      0.564  0.2773E+02  0.2426E+02  0.1330E+03  0.1326E+03
      0.627  0.3104E+02  0.3204E+02  0.1350E+03  0.1346E+03
      0.689  0.1775E+02  0.2042E+02  0.1361E+03  0.1359E+03
      0.751  0.1563E+02  0.1620E+02  0.1371E+03  0.1369E+03
      0.814  0.2214E+02  0.1927E+02  0.1384E+03  0.1381E+03
      0.876  0.2066E+02  0.1961E+02  0.1397E+03  0.1393E+03
      0.939  0.2835E+02  0.2951E+02  0.1415E+03  0.1412E+03
      1.001  0.3011E+02  0.2908E+02  0.1434E+03  0.1430E+03
      1.063  0.2455E+02  0.2317E+02  0.1449E+03  0.1445E+03
      1.126  0.2137E+02  0.2373E+02  0.1462E+03  0.1459E+03
      1.188  0.2991E+02  0.2715E+02  0.1481E+03  0.1476E+03
      1.251  0.2424E+02  0.2302E+02  0.1496E+03  0.1491E+03
      1.313  0.2927E+02  0.3433E+02  0.1514E+03  0.1512E+03
      1.375  0.2364E+02  0.2288E+02  0.1529E+03  0.1526E+03
      1.438  0.2868E+02  0.2650E+02  0.1547E+03  0.1543E+03
      1.500  0.2141E+02  0.2369E+02  0.1560E+03  0.1558E+03
      1.563  0.2400E+02  0.2197E+02  0.1575E+03  0.1571E+03
      1.625  0.2581E+02  0.2831E+02  0.1592E+03  0.1589E+03
      1.687  0.2581E+02  0.2107E+02  0.1608E+03  0.1602E+03
      1.750  0.2324E+02  0.2852E+02  0.1622E+03  0.1620E+03
      1.812  0.2403E+02  0.2235E+02  0.1637E+03  0.1634E+03
      1.875  0.2731E+02  0.2817E+02  0.1654E+03  0.1652E+03
      1.937  0.9725E+01  0.1157E+02  0.1660E+03  0.1659E+03
      1.999  0.1709E+02  0.1568E+02  0.1671E+03  0.1669E+03
      2.062  0.1991E+02  0.1559E+02  0.1683E+03  0.1678E+03
      2.124  0.2347E+02  0.2455E+02  0.1698E+03  0.1694E+03
      2.187  0.1603E+02  0.1569E+02  0.1708E+03  0.1703E+03
      2.249  0.2397E+02  0.2592E+02  0.1723E+03  0.1720E+03
      2.311  0.1968E+02  0.1897E+02  0.1735E+03  0.1731E+03
      2.374  0.8944E+01  0.1435E+02  0.1741E+03  0.1740E+03
      2.436  0.2074E+02  0.1545E+02  0.1754E+03  0.1750E+03
      2.499  0.1485E+02  0.1576E+02  0.1763E+03  0.1760E+03
      2.561  0.2126E+02  0.1970E+02  0.1776E+03  0.1772E+03
      2.623  0.1744E+02  0.1927E+02  0.1787E+03  0.1784E+03
      2.686  0.2176E+02  0.9355E+01  0.1801E+03  0.1790E+03
      2.748  0.9516E+01  0.2336E+02  0.1807E+03  0.1805E+03
      2.810  0.1435E+02  0.1221E+02  0.1816E+03  0.1812E+03
      2.873  0.1748E+02  0.1276E+02  0.1827E+03  0.1820E+03
      2.935  0.1665E+02  0.1616E+02  0.1837E+03  0.1830E+03
      2.998  0.1571E+02  0.1985E+02  0.1847E+03  0.1843E+03
      3.060  0.1218E+02  0.1246E+02  0.1854E+03  0.1850E+03
      3.122  0.2056E+02  0.1898E+02  0.1867E+03  0.1862E+03
      3.185  0.1541E+02  0.1098E+02  0.1877E+03  0.1869E+03
      3.247  0.1601E+02  0.2107E+02  0.1887E+03  0.1882E+03
      3.310  0.1008E+02  0.1570E+02  0.1893E+03  0.1892E+03
      3.372  0.1133E+02  0.7676E+01  0.1900E+03  0.1897E+03
      3.434  0.1669E+02  0.1133E+02  0.1911E+03  0.1904E+03
      3.497  0.1443E+02  0.1661E+02  0.1920E+03  0.1914E+03
      3.559  0.2328E+02  0.1174E+02  0.1934E+03  0.1922E+03
      3.622  0.1128E+02  0.2710E+02  0.1941E+03  0.1939E+03
      3.684  0.1767E+02  0.1646E+02  0.1952E+03  0.1949E+03
      3.746  0.2208E+02  0.1448E+02  0.1966E+03  0.1958E+03
      3.809  0.1422E+02  0.2427E+02  0.1975E+03  0.1973E+03
      3.871  0.6602E+01  0.4065E+01  0.1979E+03  0.1976E+03
      3.934  0.2477E+02  0.1902E+02  0.1994E+03  0.1987E+03
      3.996  0.1826E+02  0.2156E+02  0.2006E+03  0.2001E+03
      4.058  0.2422E+02  0.2275E+02  0.2021E+03  0.2015E+03
      4.121  0.1857E+02  0.2264E+02  0.2033E+03  0.2029E+03
      4.183  0.1170E+02  0.1189E+02  0.2040E+03  0.2037E+03
      4.246  0.1232E+02  0.9094E+01  0.2048E+03  0.2042E+03
      4.308  0.3950E+02  0.3079E+02  0.2072E+03  0.2062E+03
      4.370  0.1613E+02  0.2711E+02  0.2082E+03  0.2078E+03
      4.433  0.9284E+01  0.1294E+02  0.2088E+03  0.2087E+03
      4.495  0.1212E+02  0.9609E+01  0.2096E+03  0.2093E+03
      4.558  0.3121E+02  0.2176E+02  0.2115E+03  0.2106E+03
      4.620  0.2042E+02  0.2339E+02  0.2128E+03  0.2121E+03
      4.682  0.2346E+02  0.2676E+02  0.2142E+03  0.2137E+03
      4.745  0.2362E+02  0.2137E+02  0.2157E+03  0.2151E+03
      4.807  0.2137E+02  0.2282E+02  0.2171E+03  0.2165E+03
      4.870  0.2398E+02  0.2612E+02  0.2186E+03  0.2181E+03
      4.932  0.8159E+01  0.1185E+02  0.2191E+03  0.2189E+03
      4.994  0.2230E+02  0.1851E+02  0.2205E+03  0.2200E+03
      5.057  0.2298E+02  0.2171E+02  0.2219E+03  0.2214E+03
      5.119  0.2549E+02  0.2775E+02  0.2235E+03  0.2231E+03
      5.182  0.2698E+02  0.2334E+02  0.2252E+03  0.2246E+03
      5.244  0.2147E+02  0.2665E+02  0.2265E+03  0.2262E+03
      5.306  0.2280E+02  0.2205E+02  0.2279E+03  0.2276E+03
      5.369  0.1249E+02  0.1248E+02  0.2287E+03  0.2284E+03
      5.431  0.1443E+02  0.1464E+02  0.2296E+03  0.2293E+03
      5.494  0.1520E+02  0.1264E+02  0.2306E+03  0.2301E+03
      5.556  0.1001E+02  0.1228E+02  0.2312E+03  0.2309E+03
      5.618  0.7578E+01  0.1284E+02  0.2317E+03  0.2317E+03
      5.681  0.2020E+01  0.1885E+01  0.2318E+03  0.2318E+03
      5.743  0.3121E+00  0.1282E-08  0.2318E+03  0.2318E+03
      5.806  0.2800E+01  0.1777E+01  0.2320E+03  0.2319E+03
      5.868  0.4497E+00  0.1780E+01  0.2320E+03  0.2320E+03
      5.930  0.0000E+00  0.0000E+00  0.2320E+03  0.2320E+03
      5.993  0.0000E+00  0.0000E+00  0.2320E+03  0.2320E+03
      6.055  0.0000E+00  0.0000E+00  0.2320E+03  0.2320E+03
      6.118  0.0000E+00  0.0000E+00  0.2320E+03  0.2320E+03
      6.180  0.0000E+00  0.0000E+00  0.2320E+03  0.2320E+03
      6.242  0.0000E+00  0.0000E+00  0.2320E+03  0.2320E+03
      6.305  0.0000E+00  0.0000E+00  0.2320E+03  0.2320E+03
      6.367  0.0000E+00  0.0000E+00  0.2320E+03  0.2320E+03
      6.430  0.0000E+00  0.0000E+00  0.2320E+03  0.2320E+03
      6.492  0.0000E+00  0.0000E+00  0.2320E+03  0.2320E+03
      6.554  0.0000E+00  0.0000E+00  0.2320E+03  0.2320E+03
      6.617  0.0000E+00  0.0000E+00  0.2320E+03  0.2320E+03
      6.679  0.0000E+00  0.0000E+00  0.2320E+03  0.2320E+03
