 168 168   0   0
  0.2759767E+02  0.1131560E-08  0.1600268E-08  0.2560422E-08  0.5000000E-15
  1.000000000000000E-004
  CAR 
 Si and Ge interface calculation         
      6.44804161     -9.87187470  301      3.41958973      1.00000000
     -9.872  0.0000E+00  0.0000E+00  0.0000E+00  0.0000E+00
     -9.817  0.0000E+00  0.0000E+00  0.0000E+00  0.0000E+00
     -9.763  0.0000E+00  0.0000E+00  0.0000E+00  0.0000E+00
     -9.709  0.0000E+00  0.0000E+00  0.0000E+00  0.0000E+00
     -9.654  0.0000E+00  0.0000E+00  0.0000E+00  0.0000E+00
     -9.600  0.0000E+00  0.0000E+00  0.0000E+00  0.0000E+00
     -9.545  0.0000E+00  0.0000E+00  0.0000E+00  0.0000E+00
     -9.491  0.0000E+00  0.0000E+00  0.0000E+00  0.0000E+00
     -9.437  0.0000E+00  0.0000E+00  0.0000E+00  0.0000E+00
     -9.382  0.0000E+00  0.0000E+00  0.0000E+00  0.0000E+00
     -9.328  0.0000E+00  0.0000E+00  0.0000E+00  0.0000E+00
     -9.273  0.0000E+00  0.0000E+00  0.0000E+00  0.0000E+00
     -9.219  0.0000E+00  0.0000E+00  0.0000E+00  0.0000E+00
     -9.165  0.3001E-05  0.2705E-07  0.1632E-06  0.1471E-08
     -9.110  0.6112E+01  0.5968E+01  0.3325E+00  0.3246E+00
     -9.056  0.8784E-01  0.1641E+00  0.3373E+00  0.3336E+00
     -9.001  0.2344E+02  0.2088E+02  0.1612E+01  0.1469E+01
     -8.947  0.1064E+01  0.3629E+01  0.1670E+01  0.1667E+01
     -8.893  0.3057E+02  0.3061E+02  0.3333E+01  0.3332E+01
     -8.838  0.1226E+02  0.1226E+02  0.4000E+01  0.3999E+01
     -8.784  0.1240E+02  0.1228E+02  0.4675E+01  0.4668E+01
     -8.729  0.3664E+02  0.3674E+02  0.6668E+01  0.6666E+01
     -8.675  0.3420E+02  0.2452E+02  0.8528E+01  0.8000E+01
     -8.621  0.3972E+02  0.4434E+02  0.1069E+02  0.1041E+02
     -8.566  0.3464E+02  0.3543E+02  0.1257E+02  0.1234E+02
     -8.512  0.3004E+02  0.3155E+02  0.1421E+02  0.1406E+02
     -8.457  0.8741E+01  0.1093E+02  0.1468E+02  0.1465E+02
     -8.403  0.2565E+02  0.2395E+02  0.1608E+02  0.1595E+02
     -8.349  0.1694E+02  0.1921E+02  0.1700E+02  0.1700E+02
     -8.294  0.2833E+02  0.2326E+02  0.1854E+02  0.1826E+02
     -8.240  0.2398E+02  0.2586E+02  0.1985E+02  0.1967E+02
     -8.185  0.1513E+02  0.1831E+02  0.2067E+02  0.2067E+02
     -8.131  0.3675E+02  0.3595E+02  0.2267E+02  0.2262E+02
     -8.077  0.6115E+01  0.6938E+01  0.2300E+02  0.2300E+02
     -8.022  0.1225E+02  0.1224E+02  0.2367E+02  0.2367E+02
     -7.968  0.9164E-06  0.1208E-01  0.2367E+02  0.2367E+02
     -7.913  0.3078E+02  0.2309E+02  0.2534E+02  0.2492E+02
     -7.859  0.1611E+02  0.2031E+02  0.2622E+02  0.2603E+02
     -7.805  0.4020E+02  0.3839E+02  0.2840E+02  0.2812E+02
     -7.750  0.2206E+02  0.2573E+02  0.2960E+02  0.2952E+02
     -7.696  0.1234E+02  0.1108E+02  0.3028E+02  0.3012E+02
     -7.641  0.5616E+02  0.5872E+02  0.3333E+02  0.3331E+02
     -7.587  0.2388E+02  0.1981E+02  0.3463E+02  0.3439E+02
     -7.533  0.3752E+02  0.3618E+02  0.3667E+02  0.3636E+02
     -7.478  0.3256E+02  0.3556E+02  0.3844E+02  0.3829E+02
     -7.424  0.2231E+02  0.2238E+02  0.3966E+02  0.3951E+02
     -7.369  0.1865E+02  0.2117E+02  0.4067E+02  0.4066E+02
     -7.315  0.1872E+02  0.1434E+02  0.4169E+02  0.4144E+02
     -7.261  0.4142E+02  0.4282E+02  0.4394E+02  0.4377E+02
     -7.206  0.5014E+02  0.4770E+02  0.4667E+02  0.4637E+02
     -7.152  0.3917E+02  0.3615E+02  0.4880E+02  0.4833E+02
     -7.097  0.5252E+02  0.5476E+02  0.5166E+02  0.5131E+02
     -7.043  0.2209E+02  0.2595E+02  0.5286E+02  0.5272E+02
     -6.989  0.6994E+02  0.6581E+02  0.5666E+02  0.5630E+02
     -6.934  0.3727E+02  0.4345E+02  0.5869E+02  0.5867E+02
     -6.880  0.3673E+02  0.3674E+02  0.6069E+02  0.6067E+02
     -6.825  0.4658E+02  0.4032E+02  0.6322E+02  0.6286E+02
     -6.771  0.4495E+02  0.5154E+02  0.6567E+02  0.6566E+02
     -6.717  0.5222E+02  0.4744E+02  0.6851E+02  0.6824E+02
     -6.662  0.3333E+02  0.3694E+02  0.7032E+02  0.7025E+02
     -6.608  0.6472E+02  0.5981E+02  0.7384E+02  0.7351E+02
     -6.553  0.2126E+02  0.2743E+02  0.7500E+02  0.7500E+02
     -6.499  0.7515E+01  0.4040E+01  0.7541E+02  0.7522E+02
     -6.445  0.3434E+02  0.2953E+02  0.7728E+02  0.7683E+02
     -6.390  0.4287E+02  0.4551E+02  0.7961E+02  0.7930E+02
     -6.336  0.5157E+02  0.4870E+02  0.8241E+02  0.8195E+02
     -6.281  0.6681E+02  0.6487E+02  0.8605E+02  0.8548E+02
     -6.227  0.6477E+02  0.6974E+02  0.8957E+02  0.8927E+02
     -6.173  0.7597E+02  0.7791E+02  0.9370E+02  0.9351E+02
     -6.118  0.3730E+02  0.3985E+02  0.9573E+02  0.9568E+02
     -6.064  0.4858E+02  0.4410E+02  0.9838E+02  0.9808E+02
     -6.009  0.2336E+02  0.2605E+02  0.9965E+02  0.9950E+02
     -5.955  0.3232E+02  0.3032E+02  0.1014E+03  0.1011E+03
     -5.901  0.2316E+02  0.2778E+02  0.1027E+03  0.1027E+03
     -5.846  0.3936E+02  0.3338E+02  0.1048E+03  0.1045E+03
     -5.792  0.2362E+02  0.2659E+02  0.1061E+03  0.1059E+03
     -5.737  0.3384E+02  0.3134E+02  0.1079E+03  0.1076E+03
     -5.683  0.6783E+02  0.7079E+02  0.1116E+03  0.1115E+03
     -5.629  0.3045E+02  0.3141E+02  0.1133E+03  0.1132E+03
     -5.574  0.2938E+02  0.2460E+02  0.1149E+03  0.1145E+03
     -5.520  0.3530E+02  0.3883E+02  0.1168E+03  0.1166E+03
     -5.465  0.4561E+02  0.4510E+02  0.1193E+03  0.1191E+03
     -5.411  0.6733E+02  0.6803E+02  0.1229E+03  0.1228E+03
     -5.357  0.4704E+02  0.4289E+02  0.1255E+03  0.1251E+03
     -5.302  0.5206E+02  0.5900E+02  0.1283E+03  0.1283E+03
     -5.248  0.6385E+02  0.5613E+02  0.1318E+03  0.1314E+03
     -5.193  0.7969E+02  0.7511E+02  0.1361E+03  0.1355E+03
     -5.139  0.6355E+02  0.7285E+02  0.1396E+03  0.1394E+03
     -5.085  0.3276E+02  0.3216E+02  0.1414E+03  0.1412E+03
     -5.030  0.5826E+02  0.5790E+02  0.1446E+03  0.1443E+03
     -4.976  0.5124E+02  0.4691E+02  0.1473E+03  0.1469E+03
     -4.922  0.3380E+02  0.3901E+02  0.1492E+03  0.1490E+03
     -4.867  0.5757E+02  0.5027E+02  0.1523E+03  0.1517E+03
     -4.813  0.7069E+02  0.7331E+02  0.1562E+03  0.1557E+03
     -4.758  0.6189E+02  0.6241E+02  0.1595E+03  0.1591E+03
     -4.704  0.5639E+02  0.6046E+02  0.1626E+03  0.1624E+03
     -4.650  0.1240E+02  0.1331E+02  0.1633E+03  0.1631E+03
     -4.595  0.6080E+02  0.5598E+02  0.1666E+03  0.1662E+03
     -4.541  0.6438E+02  0.6892E+02  0.1701E+03  0.1699E+03
     -4.486  0.5390E+02  0.5567E+02  0.1730E+03  0.1730E+03
     -4.432  0.6022E+02  0.5827E+02  0.1763E+03  0.1761E+03
     -4.378  0.2609E+02  0.2425E+02  0.1777E+03  0.1775E+03
     -4.323  0.7474E+02  0.7197E+02  0.1818E+03  0.1814E+03
     -4.269  0.5232E+02  0.5702E+02  0.1846E+03  0.1845E+03
     -4.214  0.3770E+02  0.3263E+02  0.1867E+03  0.1862E+03
     -4.160  0.4654E+02  0.4313E+02  0.1892E+03  0.1886E+03
     -4.106  0.2878E+02  0.3765E+02  0.1908E+03  0.1906E+03
     -4.051  0.5040E+02  0.4600E+02  0.1935E+03  0.1931E+03
     -3.997  0.5510E+02  0.5949E+02  0.1965E+03  0.1964E+03
     -3.942  0.5575E+02  0.4941E+02  0.1995E+03  0.1991E+03
     -3.888  0.5800E+02  0.6225E+02  0.2027E+03  0.2025E+03
     -3.834  0.7380E+02  0.7729E+02  0.2067E+03  0.2067E+03
     -3.779  0.1694E+02  0.1424E+02  0.2076E+03  0.2074E+03
     -3.725  0.5731E+02  0.5181E+02  0.2107E+03  0.2102E+03
     -3.670  0.6745E+02  0.7311E+02  0.2144E+03  0.2142E+03
     -3.616  0.4103E+02  0.4085E+02  0.2166E+03  0.2164E+03
     -3.562  0.8428E+02  0.8146E+02  0.2212E+03  0.2209E+03
     -3.507  0.3257E+02  0.3896E+02  0.2230E+03  0.2230E+03
     -3.453  0.1839E+02  0.1549E+02  0.2240E+03  0.2238E+03
     -3.398  0.6120E+02  0.6372E+02  0.2273E+03  0.2273E+03
     -3.344  0.5808E+02  0.5314E+02  0.2305E+03  0.2302E+03
     -3.290  0.3444E+02  0.3859E+02  0.2324E+03  0.2323E+03
     -3.235  0.3059E+02  0.2736E+02  0.2340E+03  0.2338E+03
     -3.181  0.5713E+02  0.5645E+02  0.2371E+03  0.2369E+03
     -3.126  0.3618E+02  0.3946E+02  0.2391E+03  0.2390E+03
     -3.072  0.3055E+02  0.3094E+02  0.2408E+03  0.2407E+03
     -3.018  0.4206E+02  0.3811E+02  0.2431E+03  0.2428E+03
     -2.963  0.6217E+02  0.6044E+02  0.2464E+03  0.2460E+03
     -2.909  0.8579E+02  0.8617E+02  0.2511E+03  0.2507E+03
     -2.854  0.2291E+02  0.2941E+02  0.2523E+03  0.2523E+03
     -2.800  0.3683E+02  0.3063E+02  0.2544E+03  0.2540E+03
     -2.746  0.3983E+02  0.4244E+02  0.2565E+03  0.2563E+03
     -2.691  0.4404E+02  0.4505E+02  0.2589E+03  0.2588E+03
     -2.637  0.3422E+02  0.3525E+02  0.2608E+03  0.2607E+03
     -2.582  0.8349E+02  0.7631E+02  0.2653E+03  0.2648E+03
     -2.528  0.6674E+02  0.6722E+02  0.2689E+03  0.2685E+03
     -2.474  0.4623E+02  0.4977E+02  0.2715E+03  0.2712E+03
     -2.419  0.3059E+02  0.2887E+02  0.2731E+03  0.2728E+03
     -2.365  0.5904E+02  0.6477E+02  0.2763E+03  0.2763E+03
     -2.310  0.5279E+02  0.5134E+02  0.2792E+03  0.2791E+03
     -2.256  0.3056E+02  0.2890E+02  0.2809E+03  0.2807E+03
     -2.202  0.5226E+02  0.5305E+02  0.2837E+03  0.2835E+03
     -2.147  0.3634E+02  0.3915E+02  0.2857E+03  0.2857E+03
     -2.093  0.1475E+02  0.1335E+02  0.2865E+03  0.2864E+03
     -2.038  0.4588E+02  0.4678E+02  0.2890E+03  0.2889E+03
     -1.984  0.4848E+02  0.4769E+02  0.2916E+03  0.2915E+03
     -1.930  0.7067E+01  0.8189E+01  0.2920E+03  0.2920E+03
     -1.875  0.3083E+02  0.3107E+02  0.2937E+03  0.2937E+03
     -1.821  0.5341E+02  0.4830E+02  0.2966E+03  0.2963E+03
     -1.766  0.3557E+02  0.3916E+02  0.2985E+03  0.2984E+03
     -1.712  0.4555E+02  0.4435E+02  0.3010E+03  0.3008E+03
     -1.658  0.3424E+02  0.3067E+02  0.3029E+03  0.3025E+03
     -1.603  0.3113E+02  0.3433E+02  0.3046E+03  0.3044E+03
     -1.549  0.2732E+02  0.3001E+02  0.3061E+03  0.3060E+03
     -1.494  0.4181E+02  0.4211E+02  0.3083E+03  0.3083E+03
     -1.440  0.3014E+02  0.2628E+02  0.3100E+03  0.3097E+03
     -1.386  0.3715E+02  0.4064E+02  0.3120E+03  0.3119E+03
     -1.331  0.6431E+01  0.7195E+01  0.3123E+03  0.3123E+03
     -1.277  0.1930E+02  0.1846E+02  0.3134E+03  0.3133E+03
     -1.222  0.1128E+02  0.1220E+02  0.3140E+03  0.3140E+03
     -1.168  0.1975E+02  0.1309E+02  0.3151E+03  0.3147E+03
     -1.114  0.2338E+02  0.2985E+02  0.3163E+03  0.3163E+03
     -1.059  0.8777E+01  0.6913E+01  0.3168E+03  0.3167E+03
     -1.005  0.2166E+02  0.2308E+02  0.3180E+03  0.3180E+03
     -0.950  0.2194E+02  0.1863E+02  0.3192E+03  0.3190E+03
     -0.896  0.3802E+02  0.3847E+02  0.3213E+03  0.3211E+03
     -0.842  0.2193E+01  0.4999E+01  0.3214E+03  0.3213E+03
     -0.787  0.2168E+02  0.1679E+02  0.3226E+03  0.3223E+03
     -0.733  0.2914E+02  0.3008E+02  0.3241E+03  0.3239E+03
     -0.678  0.4169E+02  0.4059E+02  0.3264E+03  0.3261E+03
     -0.624  0.3527E+02  0.4099E+02  0.3283E+03  0.3283E+03
     -0.570  0.6934E+02  0.5914E+02  0.3321E+03  0.3316E+03
     -0.515  0.5149E+02  0.5325E+02  0.3349E+03  0.3344E+03
     -0.461  0.7132E+02  0.6738E+02  0.3388E+03  0.3381E+03
     -0.406  0.6891E+02  0.7862E+02  0.3425E+03  0.3424E+03
     -0.352  0.6201E+02  0.5936E+02  0.3459E+03  0.3456E+03
     -0.298  0.8823E+02  0.9073E+02  0.3507E+03  0.3506E+03
     -0.243  0.5648E+02  0.5366E+02  0.3538E+03  0.3535E+03
     -0.189  0.9389E+02  0.9247E+02  0.3589E+03  0.3585E+03
     -0.134  0.5427E+02  0.5884E+02  0.3618E+03  0.3617E+03
     -0.080  0.6687E+02  0.6581E+02  0.3655E+03  0.3653E+03
     -0.026  0.7461E+02  0.7312E+02  0.3695E+03  0.3693E+03
      0.029  0.9204E+02  0.8722E+02  0.3745E+03  0.3740E+03
      0.083  0.5866E+02  0.6237E+02  0.3777E+03  0.3774E+03
      0.138  0.9627E+02  0.9624E+02  0.3830E+03  0.3826E+03
      0.192  0.6866E+02  0.6272E+02  0.3867E+03  0.3860E+03
      0.246  0.8924E+02  0.9278E+02  0.3916E+03  0.3911E+03
      0.301  0.8051E+02  0.7786E+02  0.3959E+03  0.3953E+03
      0.355  0.9839E+02  0.9777E+02  0.4013E+03  0.4006E+03
      0.410  0.9753E+02  0.9931E+02  0.4066E+03  0.4061E+03
      0.464  0.1048E+03  0.1076E+03  0.4123E+03  0.4119E+03
      0.518  0.9845E+02  0.9425E+02  0.4177E+03  0.4170E+03
      0.573  0.1317E+03  0.1315E+03  0.4248E+03  0.4242E+03
      0.627  0.1102E+03  0.1091E+03  0.4308E+03  0.4301E+03
      0.682  0.1358E+03  0.1283E+03  0.4382E+03  0.4371E+03
      0.736  0.1643E+03  0.1747E+03  0.4471E+03  0.4466E+03
      0.790  0.7406E+02  0.7742E+02  0.4512E+03  0.4508E+03
      0.845  0.1041E+03  0.9631E+02  0.4568E+03  0.4561E+03
      0.899  0.1139E+03  0.1161E+03  0.4630E+03  0.4624E+03
      0.954  0.1086E+03  0.1088E+03  0.4689E+03  0.4683E+03
      1.008  0.8306E+02  0.9007E+02  0.4735E+03  0.4732E+03
      1.062  0.7482E+02  0.7265E+02  0.4775E+03  0.4771E+03
      1.117  0.1285E+03  0.1269E+03  0.4845E+03  0.4841E+03
      1.171  0.1060E+03  0.1065E+03  0.4903E+03  0.4898E+03
      1.226  0.1051E+03  0.1002E+03  0.4960E+03  0.4953E+03
      1.280  0.1564E+03  0.1571E+03  0.5045E+03  0.5038E+03
      1.334  0.1164E+03  0.1152E+03  0.5108E+03  0.5101E+03
      1.389  0.8905E+02  0.9653E+02  0.5157E+03  0.5154E+03
      1.443  0.1114E+03  0.1066E+03  0.5217E+03  0.5212E+03
      1.498  0.1198E+03  0.1174E+03  0.5283E+03  0.5276E+03
      1.552  0.1242E+03  0.1232E+03  0.5350E+03  0.5343E+03
      1.606  0.1057E+03  0.1132E+03  0.5408E+03  0.5404E+03
      1.661  0.1049E+03  0.9862E+02  0.5465E+03  0.5458E+03
      1.715  0.1080E+03  0.1097E+03  0.5523E+03  0.5517E+03
      1.770  0.1009E+03  0.1013E+03  0.5578E+03  0.5573E+03
      1.824  0.1319E+03  0.1358E+03  0.5650E+03  0.5646E+03
      1.878  0.9786E+02  0.9637E+02  0.5703E+03  0.5699E+03
      1.933  0.6738E+02  0.6866E+02  0.5740E+03  0.5736E+03
      1.987  0.1129E+03  0.1105E+03  0.5801E+03  0.5796E+03
      2.042  0.9293E+02  0.8442E+02  0.5852E+03  0.5842E+03
      2.096  0.1015E+03  0.1111E+03  0.5907E+03  0.5903E+03
      2.150  0.7342E+02  0.7232E+02  0.5947E+03  0.5942E+03
      2.205  0.9348E+02  0.8441E+02  0.5998E+03  0.5988E+03
      2.259  0.8986E+02  0.9930E+02  0.6047E+03  0.6042E+03
      2.314  0.8078E+02  0.7958E+02  0.6091E+03  0.6085E+03
      2.368  0.6616E+02  0.6801E+02  0.6127E+03  0.6122E+03
      2.422  0.5858E+02  0.6088E+02  0.6159E+03  0.6155E+03
      2.477  0.6742E+02  0.6729E+02  0.6195E+03  0.6192E+03
      2.531  0.9412E+02  0.8348E+02  0.6247E+03  0.6237E+03
      2.586  0.8923E+02  0.1017E+03  0.6295E+03  0.6293E+03
      2.640  0.4473E+02  0.4042E+02  0.6319E+03  0.6315E+03
      2.694  0.6380E+02  0.6162E+02  0.6354E+03  0.6348E+03
      2.749  0.8416E+02  0.8429E+02  0.6400E+03  0.6394E+03
      2.803  0.5656E+02  0.6278E+02  0.6431E+03  0.6428E+03
      2.858  0.6780E+02  0.6691E+02  0.6468E+03  0.6465E+03
      2.912  0.3976E+02  0.3503E+02  0.6489E+03  0.6484E+03
      2.966  0.4779E+02  0.4608E+02  0.6515E+03  0.6509E+03
      3.021  0.4571E+02  0.4659E+02  0.6540E+03  0.6534E+03
      3.075  0.5887E+02  0.6214E+02  0.6572E+03  0.6568E+03
      3.130  0.3018E+02  0.3377E+02  0.6589E+03  0.6586E+03
      3.184  0.3206E+02  0.2595E+02  0.6606E+03  0.6600E+03
      3.238  0.6331E+02  0.6259E+02  0.6640E+03  0.6634E+03
      3.293  0.5259E+02  0.5189E+02  0.6669E+03  0.6663E+03
      3.347  0.4526E+02  0.4421E+02  0.6694E+03  0.6687E+03
      3.402  0.2548E+02  0.2741E+02  0.6708E+03  0.6702E+03
      3.456  0.2969E+02  0.3409E+02  0.6724E+03  0.6720E+03
      3.510  0.2657E+02  0.1934E+02  0.6738E+03  0.6731E+03
      3.565  0.2444E+02  0.2471E+02  0.6751E+03  0.6744E+03
      3.619  0.5504E+02  0.6600E+02  0.6781E+03  0.6780E+03
      3.674  0.4689E+02  0.2652E+02  0.6807E+03  0.6794E+03
      3.728  0.3678E+02  0.4738E+02  0.6827E+03  0.6820E+03
      3.782  0.5780E+01  0.1796E+02  0.6830E+03  0.6830E+03
      3.837  0.1837E+02  0.1793E+02  0.6840E+03  0.6840E+03
      3.891  0.9114E+01  0.3833E+01  0.6845E+03  0.6842E+03
      3.946  0.3378E+02  0.3951E+02  0.6863E+03  0.6863E+03
      4.000  0.1592E-02  0.3395E-02  0.6863E+03  0.6863E+03
      4.054  0.2844E+02  0.2452E+02  0.6879E+03  0.6877E+03
      4.109  0.1374E+02  0.1370E+02  0.6886E+03  0.6884E+03
      4.163  0.4185E+02  0.3859E+02  0.6909E+03  0.6905E+03
      4.218  0.5286E+02  0.5701E+02  0.6938E+03  0.6936E+03
      4.272  0.2820E+02  0.3019E+02  0.6953E+03  0.6953E+03
      4.326  0.3986E+00  0.1435E+01  0.6953E+03  0.6953E+03
      4.381  0.4472E+02  0.4141E+02  0.6978E+03  0.6976E+03
      4.435  0.5300E+02  0.5534E+02  0.7007E+03  0.7006E+03
      4.490  0.6655E+02  0.5821E+02  0.7043E+03  0.7038E+03
      4.544  0.5331E+02  0.5365E+02  0.7072E+03  0.7067E+03
      4.598  0.8231E+02  0.8418E+02  0.7117E+03  0.7113E+03
      4.653  0.7329E+02  0.7846E+02  0.7156E+03  0.7155E+03
      4.707  0.5688E+02  0.5169E+02  0.7187E+03  0.7183E+03
      4.762  0.1073E+03  0.1070E+03  0.7246E+03  0.7242E+03
      4.816  0.7457E+02  0.7821E+02  0.7286E+03  0.7284E+03
      4.870  0.6507E+02  0.5949E+02  0.7322E+03  0.7317E+03
      4.925  0.9791E+02  0.1009E+03  0.7375E+03  0.7371E+03
      4.979  0.9840E+02  0.9440E+02  0.7428E+03  0.7423E+03
      5.034  0.9802E+02  0.1033E+03  0.7482E+03  0.7479E+03
      5.088  0.1086E+03  0.9886E+02  0.7541E+03  0.7533E+03
      5.142  0.1180E+03  0.1269E+03  0.7605E+03  0.7602E+03
      5.197  0.8777E+02  0.8319E+02  0.7653E+03  0.7647E+03
      5.251  0.1101E+03  0.1163E+03  0.7713E+03  0.7710E+03
      5.306  0.7817E+02  0.7834E+02  0.7755E+03  0.7753E+03
      5.360  0.9692E+02  0.9127E+02  0.7808E+03  0.7803E+03
      5.414  0.1299E+03  0.1231E+03  0.7879E+03  0.7869E+03
      5.469  0.1039E+03  0.1084E+03  0.7935E+03  0.7928E+03
      5.523  0.1288E+03  0.1315E+03  0.8005E+03  0.8000E+03
      5.578  0.6641E+02  0.7141E+02  0.8041E+03  0.8039E+03
      5.632  0.3906E+02  0.3886E+02  0.8063E+03  0.8060E+03
      5.686  0.3212E+02  0.2466E+02  0.8080E+03  0.8073E+03
      5.741  0.0000E+00  0.1222E+02  0.8080E+03  0.8080E+03
      5.795  0.0000E+00  0.0000E+00  0.8080E+03  0.8080E+03
      5.850  0.0000E+00  0.0000E+00  0.8080E+03  0.8080E+03
      5.904  0.0000E+00  0.0000E+00  0.8080E+03  0.8080E+03
      5.958  0.0000E+00  0.0000E+00  0.8080E+03  0.8080E+03
      6.013  0.0000E+00  0.0000E+00  0.8080E+03  0.8080E+03
      6.067  0.0000E+00  0.0000E+00  0.8080E+03  0.8080E+03
      6.122  0.0000E+00  0.0000E+00  0.8080E+03  0.8080E+03
      6.176  0.0000E+00  0.0000E+00  0.8080E+03  0.8080E+03
      6.230  0.0000E+00  0.0000E+00  0.8080E+03  0.8080E+03
      6.285  0.0000E+00  0.0000E+00  0.8080E+03  0.8080E+03
      6.339  0.0000E+00  0.0000E+00  0.8080E+03  0.8080E+03
      6.394  0.0000E+00  0.0000E+00  0.8080E+03  0.8080E+03
      6.448  0.0000E+00  0.0000E+00  0.8080E+03  0.8080E+03
