       N       E                     dE             d eps       ncg     rms          rms(c)
DAV:   1     0.760910556153E+04    0.76091E+04   -0.29496E+05 12032   0.178E+03
DAV:   2     0.435594309719E+04   -0.32532E+04   -0.31356E+04 14280   0.235E+02
DAV:   3     0.401723518012E+04   -0.33871E+03   -0.32496E+03 15632   0.663E+01
DAV:   4     0.400006660555E+04   -0.17169E+02   -0.16691E+02 14576   0.163E+01
DAV:   5     0.399926728027E+04   -0.79933E+00   -0.79023E+00 17336   0.364E+00    0.442E+02
DAV:   6     0.396817007095E+04   -0.31097E+02   -0.13544E+03 14784   0.772E+01    0.193E+02
DAV:   7     0.375089287998E+04   -0.21728E+03   -0.24083E+03 22336   0.484E+01    0.195E+02
DAV:   8     0.414235443304E+04    0.39146E+03   -0.16873E+03 17328   0.694E+01    0.686E+01
DAV:   9     0.411239228469E+04   -0.29962E+02   -0.56766E+02 14624   0.329E+01    0.452E+01
DAV:  10     0.410609502049E+04   -0.62973E+01   -0.11197E+02 13160   0.129E+01    0.396E+01
DAV:  11     0.411008048946E+04    0.39855E+01   -0.23663E+01 14320   0.723E+00    0.283E+01
DAV:  12     0.410847699461E+04   -0.16035E+01   -0.86821E+00 16336   0.334E+00    0.240E+01
DAV:  13     0.410047451165E+04   -0.80025E+01   -0.60571E+01 18024   0.840E+00    0.239E+01
DAV:  14     0.410105593864E+04    0.58143E+00   -0.11814E+01 14192   0.366E+00    0.192E+01
DAV:  15     0.410895417245E+04    0.78982E+01   -0.76795E+00 15016   0.281E+00    0.965E+00
DAV:  16     0.410997999947E+04    0.10258E+01   -0.18744E+00 14288   0.180E+00    0.133E+01
DAV:  17     0.410975396511E+04   -0.22603E+00   -0.32258E-01 13448   0.928E-01    0.109E+01
DAV:  18     0.410979502343E+04    0.41058E-01   -0.95741E-02 14936   0.369E-01    0.991E+00
DAV:  19     0.411031212124E+04    0.51710E+00   -0.33646E-01 15984   0.486E-01    0.687E+00
DAV:  20     0.411043432375E+04    0.12220E+00   -0.15579E-01 14616   0.428E-01    0.423E+00
DAV:  21     0.411046120100E+04    0.26877E-01   -0.77564E-02 16360   0.262E-01    0.276E+00
DAV:  22     0.411045337848E+04   -0.78225E-02   -0.17128E-02 14264   0.170E-01    0.309E+00
DAV:  23     0.411045356762E+04    0.18914E-03   -0.25301E-03 14384   0.594E-02    0.310E+00
DAV:  24     0.411045196215E+04   -0.16055E-02   -0.37434E-03 14984   0.787E-02    0.306E+00
DAV:  25     0.411045810865E+04    0.61465E-02   -0.25040E-02 15560   0.115E-01    0.300E+00
DAV:  26     0.411044105905E+04   -0.17050E-01   -0.19275E-02 15744   0.124E-01    0.307E+00
DAV:  27     0.411044404043E+04    0.29814E-02   -0.85724E-03 14440   0.892E-02    0.317E+00
DAV:  28     0.411046128987E+04    0.17249E-01   -0.10535E-01 15760   0.229E-01    0.302E+00
DAV:  29     0.411047269802E+04    0.11408E-01   -0.19514E-02 14624   0.156E-01    0.296E+00
DAV:  30     0.411047133104E+04   -0.13670E-02   -0.51318E-02 14800   0.189E-01    0.301E+00
DAV:  31     0.411047111953E+04   -0.21151E-03   -0.42561E-02 15304   0.177E-01    0.303E+00
DAV:  32     0.411047195485E+04    0.83531E-03   -0.50876E-03 13440   0.764E-02    0.304E+00
DAV:  33     0.411047229361E+04    0.33876E-03   -0.34869E-04 16296   0.159E-02    0.303E+00
DAV:  34     0.411047214559E+04   -0.14802E-03   -0.88729E-05 14120   0.105E-02    0.300E+00
DAV:  35     0.411047487832E+04    0.27327E-02   -0.22846E-02 15152   0.124E-01    0.215E+00
DAV:  36     0.411047690381E+04    0.20255E-02   -0.55355E-03 13616   0.877E-02    0.139E+00
DAV:  37     0.411047583696E+04   -0.10668E-02   -0.22680E-03 15152   0.474E-02    0.106E+00
DAV:  38     0.411047739933E+04    0.15624E-02   -0.77449E-04 14768   0.255E-02    0.941E-01
DAV:  39     0.411047922816E+04    0.18288E-02   -0.18403E-03 15952   0.326E-02    0.653E-01
DAV:  40     0.411047990194E+04    0.67378E-03   -0.11782E-03 16704   0.305E-02    0.323E-01
DAV:  41     0.411047980788E+04   -0.94059E-04   -0.21172E-04 14424   0.168E-02    0.238E-01
DAV:  42     0.411048002711E+04    0.21923E-03   -0.23282E-04 15032   0.157E-02    0.116E-01
DAV:  43     0.411047999509E+04   -0.32016E-04   -0.60730E-05 14296   0.882E-03    0.830E-02
DAV:  44     0.411047986927E+04   -0.12582E-03   -0.16164E-04 15064   0.919E-03    0.118E-01
DAV:  45     0.411048002486E+04    0.15559E-03   -0.17277E-04 16672   0.961E-03    0.479E-02
DAV:  46     0.411048003473E+04    0.98715E-05   -0.35467E-05 14208   0.576E-03    0.285E-02
DAV:  47     0.411048003255E+04   -0.21893E-05   -0.51288E-05 15928   0.478E-03    0.346E-02
DAV:  48     0.411048003098E+04   -0.15674E-05   -0.44519E-06 13568   0.268E-03    0.331E-02
DAV:  49     0.411048003644E+04    0.54646E-05   -0.68798E-06 15256   0.224E-03    0.214E-02
DAV:  50     0.411048003720E+04    0.76168E-06   -0.39496E-06 15112   0.172E-03    0.177E-02
DAV:  51     0.411048003568E+04   -0.15287E-05   -0.42754E-06 14752   0.152E-03    0.179E-02
DAV:  52     0.411048003632E+04    0.64606E-06   -0.45419E-07 10312   0.816E-04    0.144E-02
DAV:  53     0.411048003705E+04    0.72632E-06   -0.57913E-07 11120   0.625E-04    0.103E-02
DAV:  54     0.411048003737E+04    0.32168E-06   -0.31438E-07  9640   0.570E-04    0.634E-03
DAV:  55     0.411048003749E+04    0.11809E-06   -0.82090E-08  7040   0.351E-04    0.504E-03
DAV:  56     0.411048003761E+04    0.12644E-06   -0.13663E-07  8800   0.321E-04    0.333E-03
DAV:  57     0.411048003765E+04    0.39583E-07   -0.54443E-08  6760   0.261E-04
   1 F= 0.41104800E+04 E0= 0.41104818E+04  d E =-.356837E-02  mag=     1.0000
