Si and Ge interface calculation         
           1
    16.002676    0.000000    0.000000
     0.000000   16.973402    0.000000
     0.000000    0.000000   10.122650
   Ge   Si
    48   108
Direct configuration=     1
   0.91323775  0.91002428  0.00000003
   0.53823775  0.52113539  0.06587008
   0.16323781  0.13224649  0.13174008
   0.78823781  0.74335742  0.19761021
   0.41323781  0.35446858  0.26348022
   0.03823769  0.96557951  0.32935026
   0.41323769  0.91002428  0.00000003
   0.03823772  0.52113533  0.06587008
   0.66323775  0.13224643  0.13174008
   0.28823769  0.74335742  0.19761014
   0.91323781  0.35446846  0.26348022
   0.53823781  0.96557975  0.32935038
   0.03823773  0.66002423  0.00000003
   0.66323775  0.27113530  0.06587005
   0.28823781  0.88224638  0.13174009
   0.91323781  0.49335742  0.19761014
   0.53823769  0.10446840  0.26348019
   0.16323769  0.71557963  0.32935026
   0.53823769  0.66002423  0.00000003
   0.16323771  0.27113530  0.06587005
   0.78823775  0.88224638  0.13174009
   0.41323769  0.49335748  0.19761014
   0.03823775  0.10446846  0.26348025
   0.66323769  0.71557963  0.32935029
   0.28823775  0.66002423  0.00000003
   0.91323775  0.27113530  0.06587005
   0.53823781  0.88224638  0.13174009
   0.16323781  0.49335742  0.19761014
   0.78823781  0.10446846  0.26348019
   0.41323781  0.71557951  0.32935026
   0.78823769  0.66002417  0.00000000
   0.41323772  0.27113530  0.06587005
   0.03823778  0.88224638  0.13174009
   0.66323775  0.49335742  0.19761012
   0.28823769  0.10446846  0.26348019
   0.91323781  0.71557963  0.32935029
   0.16323772  0.91002428  0.00000003
   0.78823769  0.52113533  0.06587008
   0.41323781  0.13224649  0.13174012
   0.03823775  0.74335742  0.19761021
   0.66323781  0.35446858  0.26348016
   0.28823769  0.96557951  0.32935026
   0.66323769  0.91002428  0.00000003
   0.28823775  0.52113533  0.06587005
   0.91323775  0.13224649  0.13174012
   0.53823781  0.74335742  0.19761021
   0.16323769  0.35446846  0.26348016
   0.78823781  0.96557975  0.32935026
   0.00000000  0.99406773  0.32935035
   0.00000000  0.82740104  0.59761023
   0.00000000  0.66073430  0.86587000
   0.33333334  0.99406773  0.32935035
   0.33333334  0.82740104  0.59761023
   0.33333334  0.66073430  0.86587000
   0.66666669  0.99406773  0.32935035
   0.66666669  0.82740104  0.59761023
   0.66666669  0.66073430  0.86587000
   0.00000000  0.32740104  0.32935035
   0.00000000  0.16073437  0.59761023
   0.00000000  0.99406767  0.86587000
   0.33333334  0.32740104  0.32935035
   0.33333334  0.16073437  0.59761023
   0.33333334  0.99406767  0.86587000
   0.66666669  0.32740104  0.32935035
   0.66666669  0.16073437  0.59761023
   0.66666669  0.99406767  0.86587000
   0.00000000  0.66073442  0.32935035
   0.00000000  0.49406770  0.59761023
   0.00000000  0.32740104  0.86587000
   0.33333334  0.66073442  0.32935035
   0.33333334  0.49406770  0.59761023
   0.33333334  0.32740104  0.86587000
   0.66666669  0.66073442  0.32935035
   0.66666669  0.49406770  0.59761023
   0.66666669  0.32740104  0.86587000
   0.08333334  0.07740105  0.46348029
   0.08333334  0.91073436  0.73174000
   0.08333334  0.74406767  0.99999988
   0.41666669  0.07740105  0.46348029
   0.41666669  0.91073436  0.73174000
   0.41666669  0.74406767  0.99999988
   0.75000000  0.07740105  0.46348029
   0.75000000  0.91073436  0.73174000
   0.75000000  0.74406767  0.99999988
   0.08333334  0.41073436  0.46348029
   0.08333334  0.24406767  0.73174000
   0.08333334  0.07740098  0.99999988
   0.41666669  0.41073436  0.46348029
   0.41666669  0.24406767  0.73174000
   0.41666669  0.07740098  0.99999988
   0.75000000  0.41073436  0.46348029
   0.75000000  0.24406767  0.73174000
   0.75000000  0.07740098  0.99999988
   0.08333334  0.74406773  0.46348029
   0.08333334  0.57740104  0.73174000
   0.08333334  0.41073436  0.99999988
   0.41666669  0.74406773  0.46348029
   0.41666669  0.57740104  0.73174000
   0.41666669  0.41073436  0.99999988
   0.75000000  0.74406773  0.46348029
   0.75000000  0.57740104  0.73174000
   0.75000000  0.41073436  0.99999988
   0.16666667  0.16073438  0.32935035
   0.16666667  0.99406767  0.59761023
   0.16666667  0.82740098  0.86587000
   0.50000000  0.16073438  0.32935035
   0.50000000  0.99406767  0.59761023
   0.50000000  0.82740098  0.86587000
   0.83333337  0.16073438  0.32935035
   0.83333337  0.99406767  0.59761023
   0.83333337  0.82740098  0.86587000
   0.16666667  0.49406770  0.32935035
   0.16666667  0.32740104  0.59761023
   0.16666667  0.16073431  0.86587000
   0.50000000  0.49406770  0.32935035
   0.50000000  0.32740104  0.59761023
   0.50000000  0.16073431  0.86587000
   0.83333337  0.49406770  0.32935035
   0.83333337  0.32740104  0.59761023
   0.83333337  0.16073431  0.86587000
   0.16666667  0.82740104  0.32935035
   0.16666667  0.66073436  0.59761023
   0.16666667  0.49406764  0.86587000
   0.50000000  0.82740104  0.32935035
   0.50000000  0.66073436  0.59761023
   0.50000000  0.49406764  0.86587000
   0.83333337  0.82740104  0.32935035
   0.83333337  0.66073436  0.59761023
   0.83333337  0.49406764  0.86587000
   0.25000000  0.24406771  0.46348029
   0.25000000  0.07740103  0.73174000
   0.25000000  0.91073436  0.99999988
   0.58333337  0.24406771  0.46348029
   0.58333337  0.07740103  0.73174000
   0.58333337  0.91073436  0.99999988
   0.91666669  0.24406771  0.46348029
   0.91666669  0.07740103  0.73174000
   0.91666669  0.91073436  0.99999988
   0.25000000  0.57740116  0.46348029
   0.25000000  0.41073445  0.73174000
   0.25000000  0.24406774  0.99999988
   0.58333337  0.57740116  0.46348029
   0.58333337  0.41073445  0.73174000
   0.58333337  0.24406774  0.99999988
   0.91666669  0.57740116  0.46348029
   0.91666669  0.41073445  0.73174000
   0.91666669  0.24406774  0.99999988
   0.25000000  0.91073436  0.46348029
   0.25000000  0.74406767  0.73174000
   0.25000000  0.57740104  0.99999988
   0.58333337  0.91073436  0.46348029
   0.58333337  0.74406767  0.73174000
   0.58333337  0.57740104  0.99999988
   0.91666669  0.91073436  0.46348029
   0.91666669  0.74406767  0.73174000
   0.91666669  0.57740104  0.99999988
