<?xml version="1.0" encoding="ISO-8859-1"?>
<modeling>
 <generator>
  <i name="program" type="string">vasp </i>
  <i name="version" type="string">6.4.3  </i>
  <i name="subversion" type="string">19Mar24 (build Oct 22 2024 11:23:12) complex                          parallel </i>
  <i name="platform" type="string">LinuxIFC </i>
  <i name="date" type="string">2025 06 04 </i>
  <i name="time" type="string">06:44:46 </i>
 </generator>
 <incar>
  <i type="string" name="SYSTEM">Si and Ge interface calculation</i>
  <i type="int" name="ISTART">     0</i>
  <i type="logical" name="ADDGRID"> T  </i>
  <i type="int" name="ISPIN">     2</i>
  <i name="AMIX">      0.60000000</i>
  <i type="int" name="ICHARG">     2</i>
  <i type="int" name="NELM">   100</i>
  <i name="EDIFF">      0.00000010</i>
  <i name="ENCUT">    700.00000000</i>
  <i name="ENAUG">    900.00000000</i>
  <i type="int" name="NBANDS">   231</i>
  <i name="NUPDOWN">      1.00000000</i>
  <i name="NELECT">    384.00000000</i>
  <i type="string" name="LREAL">AUTO</i>
  <i type="int" name="ISMEAR">     0</i>
  <i name="SIGMA">      0.01000000</i>
  <i type="int" name="LMAXMIX">     6</i>
  <i type="logical" name="LWAVE"> F  </i>
  <i type="logical" name="LVTOT"> F  </i>
  <i type="logical" name="LVHAR"> T  </i>
  <i type="logical" name="LASPH"> T  </i>
  <i type="logical" name="LMIXTAU"> T  </i>
 </incar>
 <primitive_cell>
  <structure name="primitive_cell" >
   <crystal>
    <varray name="basis" >
     <v>      12.65122604       0.00000000       0.00000000 </v>
     <v>       2.53024530      12.39562035       0.00000000 </v>
     <v>       0.00000000       0.00000000      13.93391037 </v>
    </varray>
    <i name="volume">   2185.11296711 </i>
    <varray name="rec_basis" >
     <v>       0.07904372      -0.01613473       0.00000000 </v>
     <v>       0.00000000       0.08067366       0.00000000 </v>
     <v>       0.00000000       0.00000000       0.07176736 </v>
    </varray>
   </crystal>
   <varray name="positions" >
    <v>       0.74376750       0.16917777       0.50000000 </v>
    <v>       0.99259037       0.94813251       0.00000002 </v>
    <v>       0.95092356       0.65646577       0.08288376 </v>
    <v>       0.90925682       0.36479890       0.16576751 </v>
    <v>       0.86759007       0.07313222       0.24865122 </v>
    <v>       0.61876744       0.04417777       0.50000000 </v>
    <v>       0.24376750       0.66917771       0.50000000 </v>
    <v>       0.49259037       0.44813251       0.00000003 </v>
    <v>       0.45092362       0.15646577       0.08288376 </v>
    <v>       0.40925688       0.86479896       0.16576751 </v>
    <v>       0.36759013       0.57313228       0.24865122 </v>
    <v>       0.32592338       0.28146553       0.33153492 </v>
    <v>       0.49376744       0.41917768       0.50000000 </v>
    <v>       0.36759040       0.82313263       0.00000001 </v>
    <v>       0.32592362       0.53146583       0.08288376 </v>
    <v>       0.28425688       0.23979901       0.16576754 </v>
    <v>       0.24259017       0.94813240       0.24865119 </v>
    <v>       0.20092338       0.65646565       0.33153492 </v>
    <v>       0.11876750       0.54417765       0.50000000 </v>
    <v>       0.86759049       0.32313258       0.00000001 </v>
    <v>       0.82592368       0.03146578       0.08288376 </v>
    <v>       0.78425688       0.73979890       0.16576751 </v>
    <v>       0.57710064       0.75251091       0.58288372 </v>
    <v>       0.86876744       0.79417765       0.50000000 </v>
    <v>       0.91043395       0.33584419       0.66576755 </v>
    <v>       0.24259035       0.69813263       0.00000000 </v>
    <v>       0.20092359       0.40646580       0.08288375 </v>
    <v>       0.15925685       0.11479896       0.16576751 </v>
    <v>       0.99376750       0.91917777       0.50000000 </v>
    <v>       0.07592334       0.53146553       0.33153489 </v>
    <v>       0.86876744       0.79417765       0.50000000 </v>
    <v>       0.74259043       0.19813251       0.00000002 </v>
    <v>       0.70092362       0.90646571       0.08288377 </v>
    <v>       0.65925688       0.61479890       0.16576751 </v>
    <v>       0.61876744       0.04417777       0.50000000 </v>
    <v>       0.57592344       0.03146547       0.33153489 </v>
    <v>       0.36876750       0.29417765       0.50000000 </v>
    <v>       0.11759036       0.07313251       0.00000002 </v>
    <v>       0.07592360       0.78146577       0.08288376 </v>
    <v>       0.03425685       0.48979896       0.16576751 </v>
    <v>       0.99259007       0.19813222       0.24865122 </v>
    <v>       0.95092338       0.90646553       0.33153492 </v>
    <v>       0.41043401       0.83584428       0.66576755 </v>
    <v>       0.61759049       0.57313258       0.00000001 </v>
    <v>       0.57592362       0.28146583       0.08288375 </v>
    <v>       0.53425694       0.98979902       0.16576754 </v>
    <v>       0.49259019       0.69813228       0.24865125 </v>
    <v>       0.28543401       0.71084422       0.66576755 </v>
    <v>       0.91043359       0.08584392       0.91441870 </v>
    <v>       0.90925658       0.61479878       0.41441870 </v>
    <v>       0.07710051       0.25251091       0.58288372 </v>
    <v>       0.78543389       0.21084416       0.66576755 </v>
    <v>       0.49376714       0.16917741       0.74865127 </v>
    <v>       0.20210051       0.12751067       0.83153498 </v>
    <v>       0.41043353       0.58584392       0.91441870 </v>
    <v>       0.53425670       0.73979867       0.41441870 </v>
    <v>       0.74259013       0.44813234       0.24865119 </v>
    <v>       0.45092344       0.40646553       0.33153495 </v>
    <v>       0.99376720       0.66917741       0.74865127 </v>
    <v>       0.70210040       0.62751067       0.83153498 </v>
    <v>       0.78543371       0.46084398       0.91441870 </v>
    <v>       0.28425661       0.98979878       0.41441870 </v>
    <v>       0.95210075       0.62751091       0.58288372 </v>
    <v>       0.66043401       0.58584422       0.66576755 </v>
    <v>       0.36876726       0.54417747       0.74865127 </v>
    <v>       0.07710051       0.50251073       0.83153498 </v>
    <v>       0.28543353       0.96084392       0.91441858 </v>
    <v>       0.78425658       0.48979867       0.41441864 </v>
    <v>       0.45210069       0.12751102       0.58288372 </v>
    <v>       0.16043401       0.08584416       0.66576755 </v>
    <v>       0.86876726       0.04417753       0.74865127 </v>
    <v>       0.57710046       0.00251067       0.83153498 </v>
    <v>       0.66043365       0.33584389       0.91441870 </v>
    <v>       0.65925658       0.86479867       0.41441864 </v>
    <v>       0.82710075       0.50251091       0.58288372 </v>
    <v>       0.53543395       0.46084416       0.66576755 </v>
    <v>       0.24376726       0.41917741       0.74865115 </v>
    <v>       0.95210046       0.37751067       0.83153486 </v>
    <v>       0.16043353       0.83584404       0.91441870 </v>
    <v>       0.61759025       0.32313234       0.24865122 </v>
    <v>       0.15925664       0.36479878       0.41441870 </v>
    <v>       0.03543389       0.96084416       0.66576755 </v>
    <v>       0.74376720       0.91917753       0.74865127 </v>
    <v>       0.45210040       0.87751079       0.83153498 </v>
    <v>       0.03543353       0.21084392       0.91441870 </v>
    <v>       0.15925664       0.36479878       0.41441870 </v>
    <v>       0.40925661       0.11479884       0.41441870 </v>
    <v>       0.03425656       0.23979878       0.41441864 </v>
    <v>       0.61876714       0.29417741       0.74865115 </v>
    <v>       0.32710051       0.25251067       0.83153498 </v>
    <v>       0.53543371       0.71084404       0.91441870 </v>
    <v>       0.11759009       0.82313240       0.24865118 </v>
    <v>       0.70210069       0.87751091       0.58288372 </v>
    <v>       0.40925661       0.11479884       0.41441870 </v>
    <v>       0.11876726       0.79417753       0.74865127 </v>
    <v>       0.82710046       0.75251079       0.83153498 </v>
   </varray>
  </structure>
  <varray name="primitive_index" >
   <v type="int" >        1 </v>
   <v type="int" >        2 </v>
   <v type="int" >        3 </v>
   <v type="int" >        4 </v>
   <v type="int" >        5 </v>
   <v type="int" >        6 </v>
   <v type="int" >        7 </v>
   <v type="int" >        8 </v>
   <v type="int" >        9 </v>
   <v type="int" >       10 </v>
   <v type="int" >       11 </v>
   <v type="int" >       12 </v>
   <v type="int" >       13 </v>
   <v type="int" >       14 </v>
   <v type="int" >       15 </v>
   <v type="int" >       16 </v>
   <v type="int" >       17 </v>
   <v type="int" >       18 </v>
   <v type="int" >       19 </v>
   <v type="int" >       20 </v>
   <v type="int" >       21 </v>
   <v type="int" >       22 </v>
   <v type="int" >       23 </v>
   <v type="int" >       24 </v>
   <v type="int" >       25 </v>
   <v type="int" >       26 </v>
   <v type="int" >       27 </v>
   <v type="int" >       28 </v>
   <v type="int" >       29 </v>
   <v type="int" >       30 </v>
   <v type="int" >       31 </v>
   <v type="int" >       32 </v>
   <v type="int" >       33 </v>
   <v type="int" >       34 </v>
   <v type="int" >       35 </v>
   <v type="int" >       36 </v>
   <v type="int" >       37 </v>
   <v type="int" >       38 </v>
   <v type="int" >       39 </v>
   <v type="int" >       40 </v>
   <v type="int" >       41 </v>
   <v type="int" >       42 </v>
   <v type="int" >       43 </v>
   <v type="int" >       44 </v>
   <v type="int" >       45 </v>
   <v type="int" >       46 </v>
   <v type="int" >       47 </v>
   <v type="int" >       48 </v>
   <v type="int" >       49 </v>
   <v type="int" >       50 </v>
   <v type="int" >       51 </v>
   <v type="int" >       52 </v>
   <v type="int" >       53 </v>
   <v type="int" >       54 </v>
   <v type="int" >       55 </v>
   <v type="int" >       56 </v>
   <v type="int" >       57 </v>
   <v type="int" >       58 </v>
   <v type="int" >       59 </v>
   <v type="int" >       60 </v>
   <v type="int" >       61 </v>
   <v type="int" >       62 </v>
   <v type="int" >       63 </v>
   <v type="int" >       64 </v>
   <v type="int" >       65 </v>
   <v type="int" >       66 </v>
   <v type="int" >       67 </v>
   <v type="int" >       68 </v>
   <v type="int" >       69 </v>
   <v type="int" >       70 </v>
   <v type="int" >       71 </v>
   <v type="int" >       72 </v>
   <v type="int" >       73 </v>
   <v type="int" >       74 </v>
   <v type="int" >       75 </v>
   <v type="int" >       76 </v>
   <v type="int" >       77 </v>
   <v type="int" >       78 </v>
   <v type="int" >       79 </v>
   <v type="int" >       80 </v>
   <v type="int" >       81 </v>
   <v type="int" >       82 </v>
   <v type="int" >       83 </v>
   <v type="int" >       84 </v>
   <v type="int" >       85 </v>
   <v type="int" >       86 </v>
   <v type="int" >       87 </v>
   <v type="int" >       88 </v>
   <v type="int" >       89 </v>
   <v type="int" >       90 </v>
   <v type="int" >       91 </v>
   <v type="int" >       92 </v>
   <v type="int" >       93 </v>
   <v type="int" >       94 </v>
   <v type="int" >       95 </v>
   <v type="int" >       96 </v>
  </varray>
 </primitive_cell>
 <kpoints>
  <generation param="Gamma">
   <v type="int" name="divisions">       3        3        2 </v>
   <v name="usershift">      0.00000000       0.00000000       0.00000000 </v>
   <v name="genvec1">      0.33333333      -0.00000000       0.00000000 </v>
   <v name="genvec2">      0.00000000       0.33333333       0.00000000 </v>
   <v name="genvec3">      0.00000000       0.00000000       0.50000000 </v>
   <v name="shift">      0.00000000       0.00000000       0.00000000 </v>
  </generation>
  <varray name="kpointlist" >
   <v>       0.00000000       0.00000000       0.00000000 </v>
   <v>       0.33333333       0.00000000       0.00000000 </v>
   <v>       0.00000000      -0.33333333       0.00000000 </v>
   <v>       0.33333333       0.33333333       0.00000000 </v>
   <v>      -0.33333333       0.33333333       0.00000000 </v>
   <v>       0.00000000       0.00000000       0.50000000 </v>
   <v>       0.33333333       0.00000000       0.50000000 </v>
   <v>       0.00000000      -0.33333333       0.50000000 </v>
   <v>       0.33333333       0.33333333       0.50000000 </v>
   <v>      -0.33333333       0.33333333       0.50000000 </v>
  </varray>
  <varray name="weights" >
   <v>       0.05555556 </v>
   <v>       0.11111111 </v>
   <v>       0.11111111 </v>
   <v>       0.11111111 </v>
   <v>       0.11111111 </v>
   <v>       0.05555556 </v>
   <v>       0.11111111 </v>
   <v>       0.11111111 </v>
   <v>       0.11111111 </v>
   <v>       0.11111111 </v>
  </varray>
 </kpoints>
 <parameters>
  <separator name="general" >
   <i type="string" name="SYSTEM">Si and Ge interface calculation</i>
   <i type="logical" name="LCOMPAT"> F  </i>
  </separator>
  <separator name="electronic" >
   <i type="string" name="PREC">normal</i>
   <i name="ENMAX">    700.00000000</i>
   <i name="ENAUG">    900.00000000</i>
   <i name="EDIFF">      0.00000010</i>
   <i type="int" name="IALGO">    38</i>
   <i type="int" name="IWAVPR">    10</i>
   <i type="int" name="NBANDS">   232</i>
   <i type="int" name="NBANDSLOW">    -1</i>
   <i type="int" name="NBANDSHIGH">    -1</i>
   <i name="NELECT">    384.00000000</i>
   <i type="int" name="TURBO">     0</i>
   <i type="int" name="IRESTART">     0</i>
   <i type="int" name="NREBOOT">     0</i>
   <i type="int" name="NMIN">     0</i>
   <i name="EREF">      0.00000000</i>
   <separator name="electronic smearing" >
    <i type="int" name="ISMEAR">     0</i>
    <i name="SIGMA">      0.01000000</i>
    <i name="KSPACING">      0.50000000</i>
    <i type="logical" name="KGAMMA"> T  </i>
    <i type="logical" name="KBLOWUP"> T  </i>
   </separator>
   <separator name="electronic projectors" >
    <i type="logical" name="LREAL"> T  </i>
    <v name="ROPT">     -0.00050000</v>
    <i type="int" name="LMAXPAW">  -100</i>
    <i type="int" name="LMAXMIX">     6</i>
    <i type="logical" name="NLSPLINE"> F  </i>
   </separator>
   <separator name="electronic startup" >
    <i type="int" name="ISTART">     0</i>
    <i type="int" name="ICHARG">     2</i>
    <i type="int" name="INIWAV">     1</i>
   </separator>
   <separator name="electronic spin" >
    <i type="int" name="ISPIN">     2</i>
    <i type="logical" name="LNONCOLLINEAR"> F  </i>
    <v name="MAGMOM">      0.01041667      0.01041667      0.01041667      0.01041667      0.01041667      0.01041667      0.01041667      0.01041667      0.01041667      0.01041667      0.01041667      0.01041667      0.01041667      0.01041667      0.01041667      0.01041667      0.01041667      0.01041667      0.01041667      0.01041667
      0.01041667      0.01041667      0.01041667      0.01041667      0.01041667      0.01041667      0.01041667      0.01041667      0.01041667      0.01041667      0.01041667      0.01041667      0.01041667      0.01041667      0.01041667      0.01041667      0.01041667      0.01041667      0.01041667      0.01041667
      0.01041667      0.01041667      0.01041667      0.01041667      0.01041667      0.01041667      0.01041667      0.01041667      0.01041667      0.01041667      0.01041667      0.01041667      0.01041667      0.01041667      0.01041667      0.01041667      0.01041667      0.01041667      0.01041667      0.01041667
      0.01041667      0.01041667      0.01041667      0.01041667      0.01041667      0.01041667      0.01041667      0.01041667      0.01041667      0.01041667      0.01041667      0.01041667      0.01041667      0.01041667      0.01041667      0.01041667      0.01041667      0.01041667      0.01041667      0.01041667
      0.01041667      0.01041667      0.01041667      0.01041667      0.01041667      0.01041667      0.01041667      0.01041667      0.01041667      0.01041667      0.01041667      0.01041667      0.01041667      0.01041667      0.01041667      0.01041667</v>
    <i name="NUPDOWN">      1.00000000</i>
    <i type="logical" name="LSORBIT"> F  </i>
    <v name="SAXIS">      0.00000000      0.00000000      1.00000000</v>
    <i type="logical" name="LSPIRAL"> F  </i>
    <v name="QSPIRAL">      0.00000000      0.00000000      0.00000000</v>
    <i type="logical" name="LZEROZ"> F  </i>
   </separator>
   <separator name="electronic exchange-correlation" >
    <i type="logical" name="LASPH"> T  </i>
   </separator>
   <separator name="electronic convergence" >
    <i type="int" name="NELM">   100</i>
    <i type="int" name="NELMDL">    -5</i>
    <i type="int" name="NELMIN">     2</i>
    <i name="ENINI">    700.00000000</i>
    <separator name="electronic convergence detail" >
     <i type="logical" name="LDIAG"> T  </i>
     <i type="logical" name="LSUBROT"> F  </i>
     <i name="WEIMIN">      0.00000000</i>
     <i name="EBREAK">      0.00000000</i>
     <i name="DEPER">      0.30000000</i>
     <i type="int" name="NRMM">     4</i>
     <i name="TIME">      0.40000000</i>
    </separator>
   </separator>
   <separator name="electronic mixer" >
    <i name="AMIX">      0.60000000</i>
    <i name="BMIX">      1.00000000</i>
    <i name="AMIN">      0.10000000</i>
    <i name="AMIX_MAG">      2.40000000</i>
    <i name="BMIX_MAG">      1.00000000</i>
    <separator name="electronic mixer details" >
     <i type="int" name="IMIX">     4</i>
     <i type="logical" name="MIXFIRST"> F  </i>
     <i type="int" name="MAXMIX">   -45</i>
     <i name="WC">    100.00000000</i>
     <i type="int" name="INIMIX">     1</i>
     <i type="int" name="MIXPRE">     1</i>
     <i type="int" name="MREMOVE">     5</i>
    </separator>
   </separator>
   <separator name="electronic dipolcorrection" >
    <i type="logical" name="LDIPOL"> F  </i>
    <i type="logical" name="LMONO"> F  </i>
    <i type="int" name="IDIPOL">     0</i>
    <i name="EPSILON">      1.00000000</i>
    <v name="DIPOL">   -100.00000000   -100.00000000   -100.00000000</v>
    <i name="EFIELD">      0.00000000</i>
    <i type="logical" name="LVACPOTAV"> F  </i>
   </separator>
  </separator>
  <separator name="grids" >
   <i type="int" name="NGX">    84</i>
   <i type="int" name="NGY">    84</i>
   <i type="int" name="NGZ">    90</i>
   <i type="int" name="NGXF">   168</i>
   <i type="int" name="NGYF">   168</i>
   <i type="int" name="NGZF">   180</i>
   <i type="logical" name="ADDGRID"> T  </i>
  </separator>
  <separator name="ionic" >
   <i type="int" name="NSW">     0</i>
   <i type="int" name="IBRION">    -1</i>
   <i type="int" name="MDALGO">     0</i>
   <i type="int" name="ISIF">     2</i>
   <i name="PSTRESS">      0.00000000</i>
   <i name="EDIFFG">      0.00000100</i>
   <i type="int" name="NFREE">     0</i>
   <i name="POTIM">      0.50000000</i>
   <i name="SMASS">     -3.00000000</i>
   <i name="SCALEE">      1.00000000</i>
  </separator>
  <separator name="ionic md" >
   <i name="TEBEG">      0.00010000</i>
   <i name="TEEND">      0.00010000</i>
   <i type="int" name="NBLOCK">     1</i>
   <i type="int" name="KBLOCK">     1</i>
   <i type="int" name="NPACO">   256</i>
   <i name="APACO">     10.00000000</i>
  </separator>
  <separator name="symmetry" >
   <i type="int" name="ISYM">     2</i>
   <i name="SYMPREC">      0.00001000</i>
  </separator>
  <separator name="dos" >
   <i type="int" name="LORBIT">     0</i>
   <v name="RWIGS">     -1.00000000</v>
   <i type="int" name="NEDOS">   301</i>
   <i name="EMIN">     10.00000000</i>
   <i name="EMAX">    -10.00000000</i>
   <i name="EFERMI">      0.00000000</i>
  </separator>
  <separator name="writing" >
   <i type="int" name="NWRITE">     2</i>
   <i type="logical" name="LWAVE"> F  </i>
   <i type="logical" name="LDOWNSAMPLE"> F  </i>
   <i type="logical" name="LCHARG"> T  </i>
   <i type="logical" name="LPARD"> F  </i>
   <i type="logical" name="LVTOT"> F  </i>
   <i type="logical" name="LVHAR"> T  </i>
   <i type="logical" name="LELF"> F  </i>
   <i type="logical" name="LOPTICS"> F  </i>
   <v name="STM">      0.00000000      0.00000000      0.00000000      0.00000000      0.00000000      0.00000000      0.00000000</v>
  </separator>
  <separator name="performance" >
   <i type="int" name="NPAR">     4</i>
   <i type="int" name="NSIM">     4</i>
   <i type="int" name="NBLK">    -1</i>
   <i type="logical" name="LPLANE"> T  </i>
   <i type="logical" name="LSCALAPACK"> T  </i>
   <i type="logical" name="LSCAAWARE"> F  </i>
   <i type="logical" name="LSCALU"> F  </i>
   <i type="logical" name="LASYNC"> F  </i>
   <i type="logical" name="LORBITALREAL"> F  </i>
  </separator>
  <separator name="miscellaneous" >
   <i type="int" name="IDIOT">     3</i>
   <i type="int" name="PHON_NSTRUCT">    -1</i>
   <i type="logical" name="LMUSIC"> F  </i>
   <v name="POMASS">     72.61000000</v>
   <v name="DARWINR">      0.00000000</v>
   <v name="DARWINV">      1.00000000</v>
   <i type="logical" name="LCORR"> T  </i>
  </separator>
  <i type="logical" name="GGA_COMPAT"> T  </i>
  <i type="logical" name="LBERRY"> F  </i>
  <i type="int" name="ICORELEVEL">     0</i>
  <i type="logical" name="LDAU"> F  </i>
  <i type="int" name="I_CONSTRAINED_M">     0</i>
  <separator name="electronic exchange-correlation" >
   <i type="string" name="GGA    ">PE</i>
   <i type="string" name="XC_C">1</i>
   <i type="int" name="VOSKOWN">     0</i>
   <i type="logical" name="LHFCALC"> F  </i>
   <i type="string" name="PRECFOCK"></i>
   <i type="logical" name="LSYMGRAD"> F  </i>
   <i type="logical" name="LHFONE"> F  </i>
   <i type="logical" name="LRHFCALC"> F  </i>
   <i type="logical" name="LTHOMAS"> F  </i>
   <i type="logical" name="LMODELHF"> F  </i>
   <i type="logical" name="LFOCKACE"> F  </i>
   <i name="ENCUT4O">     -1.00000000</i>
   <i type="int" name="EXXOEP">     0</i>
   <i type="int" name="FOURORBIT">     0</i>
   <i name="AEXX">      0.00000000</i>
   <i name="HFALPHA">      0.00000000</i>
   <i name="MCALPHA">      0.00000000</i>
   <i name="ALDAX">      1.00000000</i>
   <i name="AGGAX">      1.00000000</i>
   <i name="AMGGAX">      1.00000000</i>
   <i name="ALDAC">      1.00000000</i>
   <i name="AGGAC">      1.00000000</i>
   <i name="AMGGAC">      1.00000000</i>
   <i type="int" name="NKREDX">     1</i>
   <i type="int" name="NKREDY">     1</i>
   <i type="int" name="NKREDZ">     1</i>
   <i type="logical" name="SHIFTRED"> F  </i>
   <i type="logical" name="ODDONLY"> F  </i>
   <i type="logical" name="EVENONLY"> F  </i>
   <i type="int" name="LMAXFOCK">     0</i>
   <i type="int" name="NMAXFOCKAE">     0</i>
   <i type="logical" name="LFOCKAEDFT"> F  </i>
   <i name="HFSCREEN">      0.00000000</i>
   <i name="HFSCREENC">      0.00000000</i>
   <i type="int" name="NBANDSGWLOW">     0</i>
  </separator>
  <separator name="vdW DFT" >
   <i type="logical" name="LUSE_VDW"> F  </i>
   <i type="int" name="IVDW_NL">    -1</i>
   <i type="logical" name="LSPIN_VDW"> F  </i>
   <i name="ZAB_VDW">     -0.84910000</i>
   <i name="GAMMA_VDW">      1.39626340</i>
   <i name="ALPHA_VDW">      0.00000000</i>
   <i name="PARAM1">      0.12340000</i>
   <i name="PARAM2">      1.00000000</i>
   <i name="BPARAM">      6.30000000</i>
   <i name="CPARAM">      0.00930000</i>
  </separator>
  <separator name="model GW" >
   <i type="int" name="MODEL_GW">     0</i>
   <i name="MODEL_EPS0">     13.65695604</i>
   <i name="MODEL_ALPHA">      1.00000000</i>
  </separator>
  <separator name="linear response parameters" >
   <i type="logical" name="LEPSILON"> F  </i>
   <i type="logical" name="LRPA"> F  </i>
   <i type="logical" name="LNABLA"> F  </i>
   <i type="logical" name="LVEL"> F  </i>
   <i name="CSHIFT">      0.10000000</i>
   <i name="OMEGAMAX">     -1.00000000</i>
   <i name="DEG_THRESHOLD">      0.00200000</i>
   <i name="RTIME">     -0.10000000</i>
   <i name="WPLASMAI">      0.00000000</i>
   <v name="DFIELD">      0.00000000      0.00000000      0.00000000</v>
   <v name="WPLASMA">      0.00000000      0.00000000      0.00000000      0.00000000      0.00000000      0.00000000      0.00000000      0.00000000      0.00000000</v>
  </separator>
  <separator name="orbital magnetization" >
   <i type="logical" name="NUCIND"> F  </i>
   <v name="MAGPOS">      0.00000000      0.00000000      0.00000000</v>
   <i type="logical" name="LNICSALL"> T  </i>
   <i type="logical" name="ORBITALMAG"> F  </i>
   <i type="logical" name="LMAGBLOCH"> F  </i>
   <i type="logical" name="LCHIMAG"> F  </i>
   <i type="logical" name="LGAUGE"> T  </i>
   <i type="int" name="MAGATOM">     0</i>
   <v name="MAGDIPOL">      0.00000000      0.00000000      0.00000000</v>
   <v name="AVECCONST">      0.00000000      0.00000000      0.00000000</v>
  </separator>
  <separator name="response functions" >
   <i type="logical" name="LALL_IN_ONE"> F  </i>
   <i type="int" name="IALL_IN_ONE">    -1</i>
   <i type="int" name="NBANDS_WAVE">    -1</i>
   <i type="logical" name="LFINITE_TEMPERATURE"> F  </i>
   <i type="logical" name="LADDER"> F  </i>
   <i type="logical" name="LRPAFORCE"> F  </i>
   <i type="logical" name="LFXC"> F  </i>
   <i type="logical" name="LHARTREE"> T  </i>
   <i type="int" name="IBSE">     0</i>
   <v type="int" name="KPOINT">    -1     0     0     0</v>
   <i type="logical" name="LTCTC"> F  </i>
   <i type="logical" name="LTCTE"> F  </i>
   <i type="logical" name="LTETE"> F  </i>
   <i type="logical" name="LTRIPLET"> F  </i>
   <i type="logical" name="LFXCEPS"> F  </i>
   <i type="logical" name="LFXHEG"> F  </i>
   <i type="int" name="NATURALO">     2</i>
   <i type="logical" name="LHOLEGF"> F  </i>
   <i type="logical" name="L2ORDER"> F  </i>
   <i type="logical" name="LDMP1"> F  </i>
   <i type="logical" name="LMP2LT"> F  </i>
   <i type="logical" name="LSMP2LT"> F  </i>
   <i type="logical" name="LGWLF"> F  </i>
   <i name="ENCUTGW">     -1.60000002</i>
   <i name="ENCUTGWSOFT">     -1.60000002</i>
   <i name="ENCUTLF">     -1.00000000</i>
   <i type="logical" name="ESF_SPLINES"> F  </i>
   <i name="ESF_CONV">      0.01000000</i>
   <i type="int" name="ESF_NINTER">    15</i>
   <i type="int" name="LMAXMP2">    -1</i>
   <i name="SCISSOR">      0.00000000</i>
   <i type="int" name="NOMEGA">     0</i>
   <i type="int" name="NOMEGAR">     0</i>
   <i type="int" name="NBANDSGW">    -1</i>
   <i type="int" name="NBANDSO">    -1</i>
   <i type="int" name="NBANDSV">    -1</i>
   <i type="int" name="NELMGW">     1</i>
   <i type="int" name="NELMHF">     1</i>
   <i type="int" name="DIM">     3</i>
   <i type="int" name="IESPILON">     4</i>
   <i type="int" name="ANTIRES">     0</i>
   <i name="OMEGAMAX">    -30.00000000</i>
   <i name="OMEGAMIN">    -30.00000000</i>
   <i name="OMEGATL">   -200.00000000</i>
   <i type="int" name="OMEGAGRID">     0</i>
   <i name="CSHIFT">     -0.10000000</i>
   <i type="logical" name="LSELFENERGY"> F  </i>
   <i type="logical" name="LSPECTRAL"> F  </i>
   <i type="logical" name="LSPECTRALGW"> F  </i>
   <i type="logical" name="LSINGLES"> F  </i>
   <i type="logical" name="LFERMIGW"> F  </i>
   <i type="logical" name="ODDONLYGW"> F  </i>
   <i type="logical" name="EVENONLYGW"> F  </i>
   <i type="int" name="NKREDLFX">     1</i>
   <i type="int" name="NKREDLFY">     1</i>
   <i type="int" name="NKREDLFZ">     1</i>
   <i type="int" name="MAXMEM">  2800</i>
   <i type="int" name="TELESCOPE">     0</i>
   <i type="int" name="NTAUPAR">    -1</i>
   <i type="int" name="NOMEGAPAR">    -1</i>
   <i name="DAMP_NEWTON">      0.80000001</i>
   <i name="LAMBDA">      1.00000000</i>
  </separator>
  <separator name="External order field" >
   <i name="OFIELD_KAPPA">      0.00000000</i>
   <v name="OFIELD_K">      0.00000000      0.00000000      0.00000000</v>
   <i name="OFIELD_Q6_NEAR">      0.00000000</i>
   <i name="OFIELD_Q6_FAR">      0.00000000</i>
   <i name="OFIELD_A">      0.00000000</i>
  </separator>
  <separator name="optional k-points parameters" >
   <i type="int" name="KPOINTS_OPT_MODE">     1</i>
   <i type="logical" name="LKPOINTS_OPT"> F  </i>
  </separator>
 </parameters>
 <atominfo>
  <atoms>      96 </atoms>
  <types>       1 </types>
  <array name="atoms" >
   <dimension dim="1">ion</dimension>
   <field type="string">element</field>
   <field type="int">atomtype</field>
   <set>
    <rc><c>Ge</c><c>   1</c></rc>
    <rc><c>Ge</c><c>   1</c></rc>
    <rc><c>Ge</c><c>   1</c></rc>
    <rc><c>Ge</c><c>   1</c></rc>
    <rc><c>Ge</c><c>   1</c></rc>
    <rc><c>Ge</c><c>   1</c></rc>
    <rc><c>Ge</c><c>   1</c></rc>
    <rc><c>Ge</c><c>   1</c></rc>
    <rc><c>Ge</c><c>   1</c></rc>
    <rc><c>Ge</c><c>   1</c></rc>
    <rc><c>Ge</c><c>   1</c></rc>
    <rc><c>Ge</c><c>   1</c></rc>
    <rc><c>Ge</c><c>   1</c></rc>
    <rc><c>Ge</c><c>   1</c></rc>
    <rc><c>Ge</c><c>   1</c></rc>
    <rc><c>Ge</c><c>   1</c></rc>
    <rc><c>Ge</c><c>   1</c></rc>
    <rc><c>Ge</c><c>   1</c></rc>
    <rc><c>Ge</c><c>   1</c></rc>
    <rc><c>Ge</c><c>   1</c></rc>
    <rc><c>Ge</c><c>   1</c></rc>
    <rc><c>Ge</c><c>   1</c></rc>
    <rc><c>Ge</c><c>   1</c></rc>
    <rc><c>Ge</c><c>   1</c></rc>
    <rc><c>Ge</c><c>   1</c></rc>
    <rc><c>Ge</c><c>   1</c></rc>
    <rc><c>Ge</c><c>   1</c></rc>
    <rc><c>Ge</c><c>   1</c></rc>
    <rc><c>Ge</c><c>   1</c></rc>
    <rc><c>Ge</c><c>   1</c></rc>
    <rc><c>Ge</c><c>   1</c></rc>
    <rc><c>Ge</c><c>   1</c></rc>
    <rc><c>Ge</c><c>   1</c></rc>
    <rc><c>Ge</c><c>   1</c></rc>
    <rc><c>Ge</c><c>   1</c></rc>
    <rc><c>Ge</c><c>   1</c></rc>
    <rc><c>Ge</c><c>   1</c></rc>
    <rc><c>Ge</c><c>   1</c></rc>
    <rc><c>Ge</c><c>   1</c></rc>
    <rc><c>Ge</c><c>   1</c></rc>
    <rc><c>Ge</c><c>   1</c></rc>
    <rc><c>Ge</c><c>   1</c></rc>
    <rc><c>Ge</c><c>   1</c></rc>
    <rc><c>Ge</c><c>   1</c></rc>
    <rc><c>Ge</c><c>   1</c></rc>
    <rc><c>Ge</c><c>   1</c></rc>
    <rc><c>Ge</c><c>   1</c></rc>
    <rc><c>Ge</c><c>   1</c></rc>
    <rc><c>Ge</c><c>   1</c></rc>
    <rc><c>Ge</c><c>   1</c></rc>
    <rc><c>Ge</c><c>   1</c></rc>
    <rc><c>Ge</c><c>   1</c></rc>
    <rc><c>Ge</c><c>   1</c></rc>
    <rc><c>Ge</c><c>   1</c></rc>
    <rc><c>Ge</c><c>   1</c></rc>
    <rc><c>Ge</c><c>   1</c></rc>
    <rc><c>Ge</c><c>   1</c></rc>
    <rc><c>Ge</c><c>   1</c></rc>
    <rc><c>Ge</c><c>   1</c></rc>
    <rc><c>Ge</c><c>   1</c></rc>
    <rc><c>Ge</c><c>   1</c></rc>
    <rc><c>Ge</c><c>   1</c></rc>
    <rc><c>Ge</c><c>   1</c></rc>
    <rc><c>Ge</c><c>   1</c></rc>
    <rc><c>Ge</c><c>   1</c></rc>
    <rc><c>Ge</c><c>   1</c></rc>
    <rc><c>Ge</c><c>   1</c></rc>
    <rc><c>Ge</c><c>   1</c></rc>
    <rc><c>Ge</c><c>   1</c></rc>
    <rc><c>Ge</c><c>   1</c></rc>
    <rc><c>Ge</c><c>   1</c></rc>
    <rc><c>Ge</c><c>   1</c></rc>
    <rc><c>Ge</c><c>   1</c></rc>
    <rc><c>Ge</c><c>   1</c></rc>
    <rc><c>Ge</c><c>   1</c></rc>
    <rc><c>Ge</c><c>   1</c></rc>
    <rc><c>Ge</c><c>   1</c></rc>
    <rc><c>Ge</c><c>   1</c></rc>
    <rc><c>Ge</c><c>   1</c></rc>
    <rc><c>Ge</c><c>   1</c></rc>
    <rc><c>Ge</c><c>   1</c></rc>
    <rc><c>Ge</c><c>   1</c></rc>
    <rc><c>Ge</c><c>   1</c></rc>
    <rc><c>Ge</c><c>   1</c></rc>
    <rc><c>Ge</c><c>   1</c></rc>
    <rc><c>Ge</c><c>   1</c></rc>
    <rc><c>Ge</c><c>   1</c></rc>
    <rc><c>Ge</c><c>   1</c></rc>
    <rc><c>Ge</c><c>   1</c></rc>
    <rc><c>Ge</c><c>   1</c></rc>
    <rc><c>Ge</c><c>   1</c></rc>
    <rc><c>Ge</c><c>   1</c></rc>
    <rc><c>Ge</c><c>   1</c></rc>
    <rc><c>Ge</c><c>   1</c></rc>
    <rc><c>Ge</c><c>   1</c></rc>
    <rc><c>Ge</c><c>   1</c></rc>
   </set>
  </array>
  <array name="atomtypes" >
   <dimension dim="1">type</dimension>
   <field type="int">atomspertype</field>
   <field type="string">element</field>
   <field>mass</field>
   <field>valence</field>
   <field type="string">pseudopotential</field>
   <set>
    <rc><c>  96</c><c>Ge</c><c>     72.61000000</c><c>      4.00000000</c><c>  PAW_PBE Ge 05Jan2001                  </c></rc>
   </set>
  </array>
 </atominfo>
 <structure name="initialpos" >
  <crystal>
   <varray name="basis" >
    <v>      12.65122604       0.00000000       0.00000000 </v>
    <v>       2.53024530      12.39562035       0.00000000 </v>
    <v>       0.00000000       0.00000000      13.93391037 </v>
   </varray>
   <i name="volume">   2185.11296711 </i>
   <varray name="rec_basis" >
    <v>       0.07904372      -0.01613473       0.00000000 </v>
    <v>       0.00000000       0.08067366       0.00000000 </v>
    <v>       0.00000000       0.00000000       0.07176736 </v>
   </varray>
  </crystal>
  <varray name="positions" >
   <v>       0.74376750       0.16917777       0.50000000 </v>
   <v>       0.99259037       0.94813251       0.00000002 </v>
   <v>       0.95092356       0.65646577       0.08288376 </v>
   <v>       0.90925682       0.36479890       0.16576751 </v>
   <v>       0.86759007       0.07313222       0.24865122 </v>
   <v>       0.61876744       0.04417777       0.50000000 </v>
   <v>       0.24376750       0.66917771       0.50000000 </v>
   <v>       0.49259037       0.44813251       0.00000003 </v>
   <v>       0.45092362       0.15646577       0.08288376 </v>
   <v>       0.40925688       0.86479896       0.16576751 </v>
   <v>       0.36759013       0.57313228       0.24865122 </v>
   <v>       0.32592338       0.28146553       0.33153492 </v>
   <v>       0.49376744       0.41917768       0.50000000 </v>
   <v>       0.36759040       0.82313263       0.00000001 </v>
   <v>       0.32592362       0.53146583       0.08288376 </v>
   <v>       0.28425688       0.23979901       0.16576754 </v>
   <v>       0.24259017       0.94813240       0.24865119 </v>
   <v>       0.20092338       0.65646565       0.33153492 </v>
   <v>       0.11876750       0.54417765       0.50000000 </v>
   <v>       0.86759049       0.32313258       0.00000001 </v>
   <v>       0.82592368       0.03146578       0.08288376 </v>
   <v>       0.78425688       0.73979890       0.16576751 </v>
   <v>       0.57710064       0.75251091       0.58288372 </v>
   <v>       0.86876744       0.79417765       0.50000000 </v>
   <v>       0.91043395       0.33584419       0.66576755 </v>
   <v>       0.24259035       0.69813263       0.00000000 </v>
   <v>       0.20092359       0.40646580       0.08288375 </v>
   <v>       0.15925685       0.11479896       0.16576751 </v>
   <v>       0.99376750       0.91917777       0.50000000 </v>
   <v>       0.07592334       0.53146553       0.33153489 </v>
   <v>       0.86876744       0.79417765       0.50000000 </v>
   <v>       0.74259043       0.19813251       0.00000002 </v>
   <v>       0.70092362       0.90646571       0.08288377 </v>
   <v>       0.65925688       0.61479890       0.16576751 </v>
   <v>       0.61876744       0.04417777       0.50000000 </v>
   <v>       0.57592344       0.03146547       0.33153489 </v>
   <v>       0.36876750       0.29417765       0.50000000 </v>
   <v>       0.11759036       0.07313251       0.00000002 </v>
   <v>       0.07592360       0.78146577       0.08288376 </v>
   <v>       0.03425685       0.48979896       0.16576751 </v>
   <v>       0.99259007       0.19813222       0.24865122 </v>
   <v>       0.95092338       0.90646553       0.33153492 </v>
   <v>       0.41043401       0.83584428       0.66576755 </v>
   <v>       0.61759049       0.57313258       0.00000001 </v>
   <v>       0.57592362       0.28146583       0.08288375 </v>
   <v>       0.53425694       0.98979902       0.16576754 </v>
   <v>       0.49259019       0.69813228       0.24865125 </v>
   <v>       0.28543401       0.71084422       0.66576755 </v>
   <v>       0.91043359       0.08584392       0.91441870 </v>
   <v>       0.90925658       0.61479878       0.41441870 </v>
   <v>       0.07710051       0.25251091       0.58288372 </v>
   <v>       0.78543389       0.21084416       0.66576755 </v>
   <v>       0.49376714       0.16917741       0.74865127 </v>
   <v>       0.20210051       0.12751067       0.83153498 </v>
   <v>       0.41043353       0.58584392       0.91441870 </v>
   <v>       0.53425670       0.73979867       0.41441870 </v>
   <v>       0.74259013       0.44813234       0.24865119 </v>
   <v>       0.45092344       0.40646553       0.33153495 </v>
   <v>       0.99376720       0.66917741       0.74865127 </v>
   <v>       0.70210040       0.62751067       0.83153498 </v>
   <v>       0.78543371       0.46084398       0.91441870 </v>
   <v>       0.28425661       0.98979878       0.41441870 </v>
   <v>       0.95210075       0.62751091       0.58288372 </v>
   <v>       0.66043401       0.58584422       0.66576755 </v>
   <v>       0.36876726       0.54417747       0.74865127 </v>
   <v>       0.07710051       0.50251073       0.83153498 </v>
   <v>       0.28543353       0.96084392       0.91441858 </v>
   <v>       0.78425658       0.48979867       0.41441864 </v>
   <v>       0.45210069       0.12751102       0.58288372 </v>
   <v>       0.16043401       0.08584416       0.66576755 </v>
   <v>       0.86876726       0.04417753       0.74865127 </v>
   <v>       0.57710046       0.00251067       0.83153498 </v>
   <v>       0.66043365       0.33584389       0.91441870 </v>
   <v>       0.65925658       0.86479867       0.41441864 </v>
   <v>       0.82710075       0.50251091       0.58288372 </v>
   <v>       0.53543395       0.46084416       0.66576755 </v>
   <v>       0.24376726       0.41917741       0.74865115 </v>
   <v>       0.95210046       0.37751067       0.83153486 </v>
   <v>       0.16043353       0.83584404       0.91441870 </v>
   <v>       0.61759025       0.32313234       0.24865122 </v>
   <v>       0.15925664       0.36479878       0.41441870 </v>
   <v>       0.03543389       0.96084416       0.66576755 </v>
   <v>       0.74376720       0.91917753       0.74865127 </v>
   <v>       0.45210040       0.87751079       0.83153498 </v>
   <v>       0.03543353       0.21084392       0.91441870 </v>
   <v>       0.15925664       0.36479878       0.41441870 </v>
   <v>       0.40925661       0.11479884       0.41441870 </v>
   <v>       0.03425656       0.23979878       0.41441864 </v>
   <v>       0.61876714       0.29417741       0.74865115 </v>
   <v>       0.32710051       0.25251067       0.83153498 </v>
   <v>       0.53543371       0.71084404       0.91441870 </v>
   <v>       0.11759009       0.82313240       0.24865118 </v>
   <v>       0.70210069       0.87751091       0.58288372 </v>
   <v>       0.40925661       0.11479884       0.41441870 </v>
   <v>       0.11876726       0.79417753       0.74865127 </v>
   <v>       0.82710046       0.75251079       0.83153498 </v>
  </varray>
 </structure>
 <calculation>
  <scstep>
   <time name="dav">   19.38   19.54</time>
   <time name="total">   21.05   21.22</time>
   <energy>
    <i name="alphaZ">    806.12556457 </i>
    <i name="ewald"> -10117.07203003 </i>
    <i name="hartreedc">  -1419.80153260 </i>
    <i name="XCdc">   -736.30466534 </i>
    <i name="pawpsdc">   8461.93788731 </i>
    <i name="pawaedc">  -7071.13096423 </i>
    <i name="eentropy">     -0.00124269 </i>
    <i name="bandstr">   1408.04419896 </i>
    <i name="atom">  10079.60734648 </i>
    <i name="e_fr_energy">   1411.40456242 </i>
    <i name="e_wo_entrp">   1411.40580512 </i>
    <i name="e_0_energy">   1411.40518377 </i>
   </energy>
  </scstep>
  <scstep>
   <time name="dav">   21.74   21.93</time>
   <time name="total">   21.75   21.93</time>
   <energy>
    <i name="e_fr_energy">   -720.45827025 </i>
    <i name="e_wo_entrp">   -720.45589562 </i>
    <i name="e_0_energy">   -720.45708293 </i>
   </energy>
  </scstep>
  <scstep>
   <time name="dav">   22.72   22.91</time>
   <time name="total">   22.72   22.91</time>
   <energy>
    <i name="e_fr_energy">   -948.88983319 </i>
    <i name="e_wo_entrp">   -948.88772897 </i>
    <i name="e_0_energy">   -948.88878108 </i>
   </energy>
  </scstep>
  <scstep>
   <time name="dav">   22.47   22.65</time>
   <time name="total">   22.47   22.65</time>
   <energy>
    <i name="e_fr_energy">   -959.66483014 </i>
    <i name="e_wo_entrp">   -959.66252299 </i>
    <i name="e_0_energy">   -959.66367657 </i>
   </energy>
  </scstep>
  <scstep>
   <time name="dav">   23.79   23.99</time>
   <time name="total">   24.90   25.10</time>
   <energy>
    <i name="e_fr_energy">   -960.17775755 </i>
    <i name="e_wo_entrp">   -960.17525045 </i>
    <i name="e_0_energy">   -960.17650400 </i>
   </energy>
  </scstep>
  <scstep>
   <time name="dav">   21.07   21.25</time>
   <time name="total">   23.80   23.99</time>
   <energy>
    <i name="e_fr_energy">   -976.50615795 </i>
    <i name="e_wo_entrp">   -976.50344549 </i>
    <i name="e_0_energy">   -976.50480172 </i>
   </energy>
  </scstep>
  <scstep>
   <time name="dav">   23.19   23.38</time>
   <time name="total">   25.93   26.13</time>
   <energy>
    <i name="e_fr_energy">   -928.82312994 </i>
    <i name="e_wo_entrp">   -928.82114431 </i>
    <i name="e_0_energy">   -928.82213713 </i>
   </energy>
  </scstep>
  <scstep>
   <time name="dav">   22.77   22.95</time>
   <time name="total">   25.50   25.70</time>
   <energy>
    <i name="e_fr_energy">   -935.54247609 </i>
    <i name="e_wo_entrp">   -935.54066083 </i>
    <i name="e_0_energy">   -935.54156846 </i>
   </energy>
  </scstep>
  <scstep>
   <time name="dav">   20.76   20.93</time>
   <time name="total">   23.48   23.67</time>
   <energy>
    <i name="e_fr_energy">   -927.68524384 </i>
    <i name="e_wo_entrp">   -927.68297051 </i>
    <i name="e_0_energy">   -927.68410717 </i>
   </energy>
  </scstep>
  <scstep>
   <time name="dav">   22.16   22.34</time>
   <time name="total">   24.89   25.09</time>
   <energy>
    <i name="e_fr_energy">   -926.24868797 </i>
    <i name="e_wo_entrp">   -926.24589573 </i>
    <i name="e_0_energy">   -926.24729185 </i>
   </energy>
  </scstep>
  <scstep>
   <time name="dav">   21.56   21.73</time>
   <time name="total">   24.29   24.48</time>
   <energy>
    <i name="e_fr_energy">   -925.61268890 </i>
    <i name="e_wo_entrp">   -925.61012568 </i>
    <i name="e_0_energy">   -925.61140729 </i>
   </energy>
  </scstep>
  <scstep>
   <time name="dav">   20.90   21.07</time>
   <time name="total">   23.66   23.85</time>
   <energy>
    <i name="e_fr_energy">   -925.06732816 </i>
    <i name="e_wo_entrp">   -925.06540259 </i>
    <i name="e_0_energy">   -925.06636537 </i>
   </energy>
  </scstep>
  <scstep>
   <time name="dav">   22.22   22.40</time>
   <time name="total">   24.96   25.15</time>
   <energy>
    <i name="e_fr_energy">   -924.95591033 </i>
    <i name="e_wo_entrp">   -924.95408597 </i>
    <i name="e_0_energy">   -924.95499815 </i>
   </energy>
  </scstep>
  <scstep>
   <time name="dav">   21.61   21.79</time>
   <time name="total">   24.36   24.55</time>
   <energy>
    <i name="e_fr_energy">   -924.94460254 </i>
    <i name="e_wo_entrp">   -924.94272381 </i>
    <i name="e_0_energy">   -924.94366318 </i>
   </energy>
  </scstep>
  <scstep>
   <time name="dav">   23.11   23.30</time>
   <time name="total">   25.83   26.03</time>
   <energy>
    <i name="e_fr_energy">   -924.94330860 </i>
    <i name="e_wo_entrp">   -924.94148385 </i>
    <i name="e_0_energy">   -924.94239622 </i>
   </energy>
  </scstep>
  <scstep>
   <time name="dav">   22.23   22.41</time>
   <time name="total">   24.95   25.15</time>
   <energy>
    <i name="e_fr_energy">   -924.94322489 </i>
    <i name="e_wo_entrp">   -924.94139858 </i>
    <i name="e_0_energy">   -924.94231174 </i>
   </energy>
  </scstep>
  <scstep>
   <time name="dav">   21.99   22.17</time>
   <time name="total">   24.72   24.92</time>
   <energy>
    <i name="e_fr_energy">   -924.94314206 </i>
    <i name="e_wo_entrp">   -924.94130484 </i>
    <i name="e_0_energy">   -924.94222345 </i>
   </energy>
  </scstep>
  <scstep>
   <time name="dav">   21.33   21.52</time>
   <time name="total">   24.06   24.27</time>
   <energy>
    <i name="e_fr_energy">   -924.94300890 </i>
    <i name="e_wo_entrp">   -924.94116926 </i>
    <i name="e_0_energy">   -924.94208908 </i>
   </energy>
  </scstep>
  <scstep>
   <time name="dav">   22.19   22.37</time>
   <time name="total">   24.92   25.11</time>
   <energy>
    <i name="e_fr_energy">   -924.94301331 </i>
    <i name="e_wo_entrp">   -924.94117310 </i>
    <i name="e_0_energy">   -924.94209320 </i>
   </energy>
  </scstep>
  <scstep>
   <time name="dav">   21.75   21.93</time>
   <time name="total">   24.49   24.69</time>
   <energy>
    <i name="e_fr_energy">   -924.94300986 </i>
    <i name="e_wo_entrp">   -924.94116825 </i>
    <i name="e_0_energy">   -924.94208905 </i>
   </energy>
  </scstep>
  <scstep>
   <time name="dav">   22.00   22.18</time>
   <time name="total">   24.72   24.92</time>
   <energy>
    <i name="e_fr_energy">   -924.94300847 </i>
    <i name="e_wo_entrp">   -924.94116594 </i>
    <i name="e_0_energy">   -924.94208721 </i>
   </energy>
  </scstep>
  <scstep>
   <time name="dav">   22.23   22.42</time>
   <time name="total">   24.98   25.18</time>
   <energy>
    <i name="e_fr_energy">   -924.94300903 </i>
    <i name="e_wo_entrp">   -924.94116612 </i>
    <i name="e_0_energy">   -924.94208758 </i>
   </energy>
  </scstep>
  <scstep>
   <time name="dav">   22.65   22.83</time>
   <time name="total">   25.37   25.58</time>
   <energy>
    <i name="e_fr_energy">   -924.94300952 </i>
    <i name="e_wo_entrp">   -924.94116644 </i>
    <i name="e_0_energy">   -924.94208798 </i>
   </energy>
  </scstep>
  <scstep>
   <time name="dav">   13.95   14.07</time>
   <time name="total">   15.57   15.71</time>
   <energy>
    <i name="alphaZ">    806.12556457 </i>
    <i name="ewald"> -10117.07203003 </i>
    <i name="hartreedc">  -1538.57553507 </i>
    <i name="XCdc">   -708.19091359 </i>
    <i name="pawpsdc">  33513.68689762 </i>
    <i name="pawaedc"> -32167.76759919 </i>
    <i name="eentropy">     -0.00184310 </i>
    <i name="bandstr">   -792.75489723 </i>
    <i name="atom">  10079.60734648 </i>
    <i name="e_fr_energy">   -924.94300955 </i>
    <i name="e_wo_entrp">   -924.94116645 </i>
    <i name="e_0_energy">   -924.94208800 </i>
   </energy>
  </scstep>
  <structure>
   <crystal>
    <varray name="basis" >
     <v>      12.65122604       0.00000000       0.00000000 </v>
     <v>       2.53024530      12.39562035       0.00000000 </v>
     <v>       0.00000000       0.00000000      13.93391037 </v>
    </varray>
    <i name="volume">   2185.11296711 </i>
    <varray name="rec_basis" >
     <v>       0.07904372      -0.01613473       0.00000000 </v>
     <v>       0.00000000       0.08067366       0.00000000 </v>
     <v>       0.00000000       0.00000000       0.07176736 </v>
    </varray>
   </crystal>
   <varray name="positions" >
    <v>       0.74376750       0.16917777       0.50000000 </v>
    <v>       0.99259037       0.94813251       0.00000002 </v>
    <v>       0.95092356       0.65646577       0.08288376 </v>
    <v>       0.90925682       0.36479890       0.16576751 </v>
    <v>       0.86759007       0.07313222       0.24865122 </v>
    <v>       0.61876744       0.04417777       0.50000000 </v>
    <v>       0.24376750       0.66917771       0.50000000 </v>
    <v>       0.49259037       0.44813251       0.00000003 </v>
    <v>       0.45092362       0.15646577       0.08288376 </v>
    <v>       0.40925688       0.86479896       0.16576751 </v>
    <v>       0.36759013       0.57313228       0.24865122 </v>
    <v>       0.32592338       0.28146553       0.33153492 </v>
    <v>       0.49376744       0.41917768       0.50000000 </v>
    <v>       0.36759040       0.82313263       0.00000001 </v>
    <v>       0.32592362       0.53146583       0.08288376 </v>
    <v>       0.28425688       0.23979901       0.16576754 </v>
    <v>       0.24259017       0.94813240       0.24865119 </v>
    <v>       0.20092338       0.65646565       0.33153492 </v>
    <v>       0.11876750       0.54417765       0.50000000 </v>
    <v>       0.86759049       0.32313258       0.00000001 </v>
    <v>       0.82592368       0.03146578       0.08288376 </v>
    <v>       0.78425688       0.73979890       0.16576751 </v>
    <v>       0.57710064       0.75251091       0.58288372 </v>
    <v>       0.86876744       0.79417765       0.50000000 </v>
    <v>       0.91043395       0.33584419       0.66576755 </v>
    <v>       0.24259035       0.69813263       0.00000000 </v>
    <v>       0.20092359       0.40646580       0.08288375 </v>
    <v>       0.15925685       0.11479896       0.16576751 </v>
    <v>       0.99376750       0.91917777       0.50000000 </v>
    <v>       0.07592334       0.53146553       0.33153489 </v>
    <v>       0.86876744       0.79417765       0.50000000 </v>
    <v>       0.74259043       0.19813251       0.00000002 </v>
    <v>       0.70092362       0.90646571       0.08288377 </v>
    <v>       0.65925688       0.61479890       0.16576751 </v>
    <v>       0.61876744       0.04417777       0.50000000 </v>
    <v>       0.57592344       0.03146547       0.33153489 </v>
    <v>       0.36876750       0.29417765       0.50000000 </v>
    <v>       0.11759036       0.07313251       0.00000002 </v>
    <v>       0.07592360       0.78146577       0.08288376 </v>
    <v>       0.03425685       0.48979896       0.16576751 </v>
    <v>       0.99259007       0.19813222       0.24865122 </v>
    <v>       0.95092338       0.90646553       0.33153492 </v>
    <v>       0.41043401       0.83584428       0.66576755 </v>
    <v>       0.61759049       0.57313258       0.00000001 </v>
    <v>       0.57592362       0.28146583       0.08288375 </v>
    <v>       0.53425694       0.98979902       0.16576754 </v>
    <v>       0.49259019       0.69813228       0.24865125 </v>
    <v>       0.28543401       0.71084422       0.66576755 </v>
    <v>       0.91043359       0.08584392       0.91441870 </v>
    <v>       0.90925658       0.61479878       0.41441870 </v>
    <v>       0.07710051       0.25251091       0.58288372 </v>
    <v>       0.78543389       0.21084416       0.66576755 </v>
    <v>       0.49376714       0.16917741       0.74865127 </v>
    <v>       0.20210051       0.12751067       0.83153498 </v>
    <v>       0.41043353       0.58584392       0.91441870 </v>
    <v>       0.53425670       0.73979867       0.41441870 </v>
    <v>       0.74259013       0.44813234       0.24865119 </v>
    <v>       0.45092344       0.40646553       0.33153495 </v>
    <v>       0.99376720       0.66917741       0.74865127 </v>
    <v>       0.70210040       0.62751067       0.83153498 </v>
    <v>       0.78543371       0.46084398       0.91441870 </v>
    <v>       0.28425661       0.98979878       0.41441870 </v>
    <v>       0.95210075       0.62751091       0.58288372 </v>
    <v>       0.66043401       0.58584422       0.66576755 </v>
    <v>       0.36876726       0.54417747       0.74865127 </v>
    <v>       0.07710051       0.50251073       0.83153498 </v>
    <v>       0.28543353       0.96084392       0.91441858 </v>
    <v>       0.78425658       0.48979867       0.41441864 </v>
    <v>       0.45210069       0.12751102       0.58288372 </v>
    <v>       0.16043401       0.08584416       0.66576755 </v>
    <v>       0.86876726       0.04417753       0.74865127 </v>
    <v>       0.57710046       0.00251067       0.83153498 </v>
    <v>       0.66043365       0.33584389       0.91441870 </v>
    <v>       0.65925658       0.86479867       0.41441864 </v>
    <v>       0.82710075       0.50251091       0.58288372 </v>
    <v>       0.53543395       0.46084416       0.66576755 </v>
    <v>       0.24376726       0.41917741       0.74865115 </v>
    <v>       0.95210046       0.37751067       0.83153486 </v>
    <v>       0.16043353       0.83584404       0.91441870 </v>
    <v>       0.61759025       0.32313234       0.24865122 </v>
    <v>       0.15925664       0.36479878       0.41441870 </v>
    <v>       0.03543389       0.96084416       0.66576755 </v>
    <v>       0.74376720       0.91917753       0.74865127 </v>
    <v>       0.45210040       0.87751079       0.83153498 </v>
    <v>       0.03543353       0.21084392       0.91441870 </v>
    <v>       0.15925664       0.36479878       0.41441870 </v>
    <v>       0.40925661       0.11479884       0.41441870 </v>
    <v>       0.03425656       0.23979878       0.41441864 </v>
    <v>       0.61876714       0.29417741       0.74865115 </v>
    <v>       0.32710051       0.25251067       0.83153498 </v>
    <v>       0.53543371       0.71084404       0.91441870 </v>
    <v>       0.11759009       0.82313240       0.24865118 </v>
    <v>       0.70210069       0.87751091       0.58288372 </v>
    <v>       0.40925661       0.11479884       0.41441870 </v>
    <v>       0.11876726       0.79417753       0.74865127 </v>
    <v>       0.82710046       0.75251079       0.83153498 </v>
   </varray>
  </structure>
  <varray name="forces" >
   <v>       1.13324579       0.95093966      -1.01082738 </v>
   <v>       0.99902646      -3.01046356       1.42556194 </v>
   <v>      -0.73635561      -0.26466491      -0.64352890 </v>
   <v>       0.27246982       0.12374854       0.27635576 </v>
   <v>      -0.72552576       0.59785940       0.46001064 </v>
   <v>       1.09354484       1.23532884       0.97459402 </v>
   <v>       0.58312478      -0.10596313       0.16225252 </v>
   <v>       0.62645120      -2.71663880       1.33608609 </v>
   <v>      -0.50881581      -0.42360455      -0.85212261 </v>
   <v>       0.18383020       0.08935330       0.15481034 </v>
   <v>       0.12152770       0.12391647       0.11511777 </v>
   <v>       0.40893977       0.74032024      -4.01856912 </v>
   <v>       0.29667967       0.32090518       0.05574824 </v>
   <v>       1.61354219      -2.03994614       3.47399888 </v>
   <v>      -0.62424203      -0.22109466       1.32367363 </v>
   <v>       0.21318014       0.17566640      -0.55001190 </v>
   <v>       0.06796975       0.12481490      -0.13523975 </v>
   <v>       0.37008007       0.39342121      -0.67338542 </v>
   <v>       0.94937629       0.28177510       2.74468418 </v>
   <v>       1.57596323      -2.08245182       3.54964630 </v>
   <v>      -0.73450402       0.01483843       1.43623411 </v>
   <v>       0.51093133       0.46071547       0.27104342 </v>
   <v>      -0.41021693      -0.73572858       0.63941287 </v>
   <v>       0.16628914       0.68492262      -1.26826937 </v>
   <v>      -0.09952236      -0.21896971      -0.14922481 </v>
   <v>       0.80671389      -2.81953695       1.40115607 </v>
   <v>      -0.63013751      -0.42918549      -0.87806436 </v>
   <v>       0.16698783       0.04943914       0.22624096 </v>
   <v>       1.03165106       0.64560191       0.52562986 </v>
   <v>      -0.64762793       1.66068748      -2.77548455 </v>
   <v>       0.16628914       0.68492262      -1.26826937 </v>
   <v>       0.85711046      -2.91380631       1.43551987 </v>
   <v>      -0.45841528      -0.58078558      -0.55344604 </v>
   <v>       0.37866455       0.19722156       0.32579414 </v>
   <v>       1.09354484       1.23532884       0.97459402 </v>
   <v>       1.45210914       0.43061608      -3.97338828 </v>
   <v>      -0.15383686       2.43108428       3.10463693 </v>
   <v>       1.50630041      -2.06132396       3.43361182 </v>
   <v>      -0.67496698      -0.16432159       1.31334647 </v>
   <v>       0.09586473       0.12239085      -0.44353452 </v>
   <v>      -0.23482487      -0.23976444      -0.17639482 </v>
   <v>      -0.71069424      -0.51093781      -0.42938246 </v>
   <v>      -0.35398186       1.09782773      -0.31126072 </v>
   <v>       1.37909585      -2.04253381       3.45192998 </v>
   <v>      -0.59000584      -0.04286442       1.56209314 </v>
   <v>       0.12137947       0.19660690      -0.67589718 </v>
   <v>      -0.09091611      -0.13158232       0.04047446 </v>
   <v>       0.18211167       0.10713657      -0.09508717 </v>
   <v>      -1.50630041       2.06132396      -3.43361182 </v>
   <v>      -0.94937629      -0.28177510      -2.74468418 </v>
   <v>       0.71069424       0.51093781       0.42938246 </v>
   <v>      -0.06796975      -0.12481490       0.13523975 </v>
   <v>      -0.12137947      -0.19660690       0.67589718 </v>
   <v>       0.73450402      -0.01483843      -1.43623411 </v>
   <v>      -1.37909585       2.04253381      -3.45192998 </v>
   <v>      -0.29667967      -0.32090518      -0.05574824 </v>
   <v>      -0.18211167      -0.10713657       0.09508717 </v>
   <v>       0.41021693       0.73572858      -0.63941287 </v>
   <v>      -0.09586473      -0.12239085       0.44353452 </v>
   <v>       0.62424203       0.22109466      -1.32367363 </v>
   <v>      -0.80671389       2.81953695      -1.40115607 </v>
   <v>      -1.13324579      -0.95093966       1.01082738 </v>
   <v>       0.64762793      -1.66068748       2.77548455 </v>
   <v>      -0.12152770      -0.12391647      -0.11511777 </v>
   <v>      -0.37866455      -0.19722156      -0.32579414 </v>
   <v>       0.73635561       0.26466491       0.64352890 </v>
   <v>      -0.85711046       2.91380631      -1.43551987 </v>
   <v>      -0.58312478       0.10596313      -0.16225252 </v>
   <v>      -1.45210914      -0.43061608       3.97338828 </v>
   <v>       0.72552576      -0.59785940      -0.46001064 </v>
   <v>      -0.16698783      -0.04943914      -0.22624096 </v>
   <v>       0.50881581       0.42360455       0.85212261 </v>
   <v>      -1.61354219       2.03994614      -3.47399888 </v>
   <v>       0.15383686      -2.43108428      -3.10463693 </v>
   <v>      -0.37008007      -0.39342121       0.67338542 </v>
   <v>       0.09091611       0.13158232      -0.04047446 </v>
   <v>      -0.51093133      -0.46071547      -0.27104342 </v>
   <v>       0.67496698       0.16432159      -1.31334647 </v>
   <v>      -1.57596323       2.08245182      -3.54964630 </v>
   <v>       0.35398186      -1.09782773       0.31126072 </v>
   <v>      -0.16628914      -0.68492262       1.26826937 </v>
   <v>       0.23482487       0.23976444       0.17639482 </v>
   <v>      -0.21318014      -0.17566640       0.55001190 </v>
   <v>       0.59000584       0.04286442      -1.56209314 </v>
   <v>      -0.99902646       3.01046356      -1.42556194 </v>
   <v>      -0.16628914      -0.68492262       1.26826937 </v>
   <v>      -1.09354484      -1.23532884      -0.97459402 </v>
   <v>      -1.03165106      -0.64560191      -0.52562986 </v>
   <v>      -0.18383020      -0.08935330      -0.15481034 </v>
   <v>       0.45841528       0.58078558       0.55344604 </v>
   <v>      -0.62645120       2.71663880      -1.33608609 </v>
   <v>       0.09952236       0.21896971       0.14922481 </v>
   <v>      -0.40893977      -0.74032024       4.01856912 </v>
   <v>      -1.09354484      -1.23532884      -0.97459402 </v>
   <v>      -0.27246982      -0.12374854      -0.27635576 </v>
   <v>       0.63013751       0.42918549       0.87806436 </v>
  </varray>
  <varray name="stress" >
   <v>      86.60988936     -17.06696588       6.70137363 </v>
   <v>     -17.06696134     108.28103103     -14.69795791 </v>
   <v>       6.70136496     -14.69794563     119.23494688 </v>
  </varray>
  <energy>
   <i name="e_fr_energy">   -924.94300955 </i>
   <i name="e_wo_entrp">   -924.94116645 </i>
   <i name="e_0_energy">   -924.94208800 </i>
  </energy>
  <time name="totalsc">  608.33  613.42</time>
  <eigenvalues>
   <array>
    <dimension dim="1">band</dimension>
    <dimension dim="2">kpoint</dimension>
    <dimension dim="3">spin</dimension>
    <field>eigene</field>
    <field>occ</field>
    <set>
     <set comment="spin 1">
      <set comment="kpoint 1">
       <r>  -10.6759    1.0000 </r>
       <r>  -10.1583    1.0000 </r>
       <r>  -10.0945    1.0000 </r>
       <r>   -9.9452    1.0000 </r>
       <r>   -9.6114    1.0000 </r>
       <r>   -9.6093    1.0000 </r>
       <r>   -9.2110    1.0000 </r>
       <r>   -8.8765    1.0000 </r>
       <r>   -8.5563    1.0000 </r>
       <r>   -8.5268    1.0000 </r>
       <r>   -8.4375    1.0000 </r>
       <r>   -8.1457    1.0000 </r>
       <r>   -8.1197    1.0000 </r>
       <r>   -8.0724    1.0000 </r>
       <r>   -8.0106    1.0000 </r>
       <r>   -7.9578    1.0000 </r>
       <r>   -7.9280    1.0000 </r>
       <r>   -7.6526    1.0000 </r>
       <r>   -7.6018    1.0000 </r>
       <r>   -7.5276    1.0000 </r>
       <r>   -7.4890    1.0000 </r>
       <r>   -7.4624    1.0000 </r>
       <r>   -7.2372    1.0000 </r>
       <r>   -7.1514    1.0000 </r>
       <r>   -7.1035    1.0000 </r>
       <r>   -7.0301    1.0000 </r>
       <r>   -6.9747    1.0000 </r>
       <r>   -6.8273    1.0000 </r>
       <r>   -6.6801    1.0000 </r>
       <r>   -6.6794    1.0000 </r>
       <r>   -6.5960    1.0000 </r>
       <r>   -6.5777    1.0000 </r>
       <r>   -6.4759    1.0000 </r>
       <r>   -6.4198    1.0000 </r>
       <r>   -6.4077    1.0000 </r>
       <r>   -6.2898    1.0000 </r>
       <r>   -6.2166    1.0000 </r>
       <r>   -6.1545    1.0000 </r>
       <r>   -6.1344    1.0000 </r>
       <r>   -5.9942    1.0000 </r>
       <r>   -5.9538    1.0000 </r>
       <r>   -5.8047    1.0000 </r>
       <r>   -5.7668    1.0000 </r>
       <r>   -5.6728    1.0000 </r>
       <r>   -5.6536    1.0000 </r>
       <r>   -5.5811    1.0000 </r>
       <r>   -5.5548    1.0000 </r>
       <r>   -5.4605    1.0000 </r>
       <r>   -5.2815    1.0000 </r>
       <r>   -5.2122    1.0000 </r>
       <r>   -5.1663    1.0000 </r>
       <r>   -5.0569    1.0000 </r>
       <r>   -4.9396    1.0000 </r>
       <r>   -4.8561    1.0000 </r>
       <r>   -4.7784    1.0000 </r>
       <r>   -4.7312    1.0000 </r>
       <r>   -4.6969    1.0000 </r>
       <r>   -4.6548    1.0000 </r>
       <r>   -4.6243    1.0000 </r>
       <r>   -4.5899    1.0000 </r>
       <r>   -4.5380    1.0000 </r>
       <r>   -4.4281    1.0000 </r>
       <r>   -4.3602    1.0000 </r>
       <r>   -4.2435    1.0000 </r>
       <r>   -4.1296    1.0000 </r>
       <r>   -4.1048    1.0000 </r>
       <r>   -4.0545    1.0000 </r>
       <r>   -3.8064    1.0000 </r>
       <r>   -3.7298    1.0000 </r>
       <r>   -3.5660    1.0000 </r>
       <r>   -3.4829    1.0000 </r>
       <r>   -3.3573    1.0000 </r>
       <r>   -3.2704    1.0000 </r>
       <r>   -3.2283    1.0000 </r>
       <r>   -3.0783    1.0000 </r>
       <r>   -2.8645    1.0000 </r>
       <r>   -2.8104    1.0000 </r>
       <r>   -2.7413    1.0000 </r>
       <r>   -2.7313    1.0000 </r>
       <r>   -2.6518    1.0000 </r>
       <r>   -2.6470    1.0000 </r>
       <r>   -2.6037    1.0000 </r>
       <r>   -2.4538    1.0000 </r>
       <r>   -2.3249    1.0000 </r>
       <r>   -2.3066    1.0000 </r>
       <r>   -2.1617    1.0000 </r>
       <r>   -2.1237    1.0000 </r>
       <r>   -1.9693    1.0000 </r>
       <r>   -1.9400    1.0000 </r>
       <r>   -1.8243    1.0000 </r>
       <r>   -1.8197    1.0000 </r>
       <r>   -1.7893    1.0000 </r>
       <r>   -1.7659    1.0000 </r>
       <r>   -1.5621    1.0000 </r>
       <r>   -1.5139    1.0000 </r>
       <r>   -1.4780    1.0000 </r>
       <r>   -1.3342    1.0000 </r>
       <r>   -1.1992    1.0000 </r>
       <r>   -1.1406    1.0000 </r>
       <r>   -1.1019    1.0000 </r>
       <r>   -0.9561    1.0000 </r>
       <r>   -0.8853    1.0000 </r>
       <r>   -0.7459    1.0000 </r>
       <r>   -0.6891    1.0000 </r>
       <r>   -0.6093    1.0000 </r>
       <r>   -0.5547    1.0000 </r>
       <r>   -0.5480    1.0000 </r>
       <r>   -0.4902    1.0000 </r>
       <r>   -0.4810    1.0000 </r>
       <r>   -0.4453    1.0000 </r>
       <r>   -0.4006    1.0000 </r>
       <r>   -0.2490    1.0000 </r>
       <r>   -0.1985    1.0000 </r>
       <r>   -0.1453    1.0000 </r>
       <r>   -0.0355    1.0000 </r>
       <r>   -0.0299    1.0000 </r>
       <r>    0.0083    1.0000 </r>
       <r>    0.0109    1.0000 </r>
       <r>    0.1020    1.0000 </r>
       <r>    0.1302    1.0000 </r>
       <r>    0.2035    1.0000 </r>
       <r>    0.2414    1.0000 </r>
       <r>    0.2810    1.0000 </r>
       <r>    0.3454    1.0000 </r>
       <r>    0.3767    1.0000 </r>
       <r>    0.3837    1.0000 </r>
       <r>    0.4762    1.0000 </r>
       <r>    0.5388    1.0000 </r>
       <r>    0.5769    1.0000 </r>
       <r>    0.6428    1.0000 </r>
       <r>    0.6580    1.0000 </r>
       <r>    0.6811    1.0000 </r>
       <r>    0.7091    1.0000 </r>
       <r>    0.7228    1.0000 </r>
       <r>    0.7710    1.0000 </r>
       <r>    0.8878    1.0000 </r>
       <r>    0.9016    1.0000 </r>
       <r>    0.9689    1.0000 </r>
       <r>    0.9977    1.0000 </r>
       <r>    1.0000    1.0000 </r>
       <r>    1.0712    1.0000 </r>
       <r>    1.1622    1.0000 </r>
       <r>    1.2069    1.0000 </r>
       <r>    1.2381    1.0000 </r>
       <r>    1.2702    1.0000 </r>
       <r>    1.3533    1.0000 </r>
       <r>    1.3638    1.0000 </r>
       <r>    1.3829    1.0000 </r>
       <r>    1.4371    1.0000 </r>
       <r>    1.4974    1.0000 </r>
       <r>    1.5198    1.0000 </r>
       <r>    1.5439    1.0000 </r>
       <r>    1.5670    1.0000 </r>
       <r>    1.6407    1.0000 </r>
       <r>    1.6482    1.0000 </r>
       <r>    1.7651    1.0000 </r>
       <r>    1.8102    1.0000 </r>
       <r>    1.8345    1.0000 </r>
       <r>    1.8744    1.0000 </r>
       <r>    1.9543    1.0000 </r>
       <r>    1.9779    1.0000 </r>
       <r>    1.9972    1.0000 </r>
       <r>    2.1201    1.0000 </r>
       <r>    2.1356    1.0000 </r>
       <r>    2.1968    1.0000 </r>
       <r>    2.2003    1.0000 </r>
       <r>    2.2400    1.0000 </r>
       <r>    2.3208    1.0000 </r>
       <r>    2.3414    1.0000 </r>
       <r>    2.3519    1.0000 </r>
       <r>    2.4434    1.0000 </r>
       <r>    2.4744    1.0000 </r>
       <r>    2.5683    1.0000 </r>
       <r>    2.5800    1.0000 </r>
       <r>    2.6006    1.0000 </r>
       <r>    2.7108    1.0000 </r>
       <r>    2.7648    1.0000 </r>
       <r>    2.8492    1.0000 </r>
       <r>    2.8946    1.0000 </r>
       <r>    2.9848    1.0000 </r>
       <r>    2.9939    1.0000 </r>
       <r>    3.0234    1.0000 </r>
       <r>    3.1340    1.0000 </r>
       <r>    3.1691    1.0000 </r>
       <r>    3.2307    1.0000 </r>
       <r>    3.3394    1.0000 </r>
       <r>    3.3428    1.0000 </r>
       <r>    3.4486    1.0000 </r>
       <r>    3.4581    1.0000 </r>
       <r>    3.4787    1.0000 </r>
       <r>    3.5343    1.0000 </r>
       <r>    3.5533    1.0000 </r>
       <r>    3.5898    1.0000 </r>
       <r>    3.6250    0.5422 </r>
       <r>    3.7333    0.0000 </r>
       <r>    3.7825    0.0000 </r>
       <r>    3.7828    0.0000 </r>
       <r>    3.8643    0.0000 </r>
       <r>    3.8845    0.0000 </r>
       <r>    3.9871    0.0000 </r>
       <r>    4.0420    0.0000 </r>
       <r>    4.1030    0.0000 </r>
       <r>    4.1094    0.0000 </r>
       <r>    4.1712    0.0000 </r>
       <r>    4.2536    0.0000 </r>
       <r>    4.2672    0.0000 </r>
       <r>    4.3222    0.0000 </r>
       <r>    4.3504    0.0000 </r>
       <r>    4.4172    0.0000 </r>
       <r>    4.4181    0.0000 </r>
       <r>    4.5364    0.0000 </r>
       <r>    4.5938    0.0000 </r>
       <r>    4.5996    0.0000 </r>
       <r>    4.6118    0.0000 </r>
       <r>    4.6667    0.0000 </r>
       <r>    4.6934    0.0000 </r>
       <r>    4.7465    0.0000 </r>
       <r>    4.7708    0.0000 </r>
       <r>    4.8125    0.0000 </r>
       <r>    4.8360    0.0000 </r>
       <r>    4.9526    0.0000 </r>
       <r>    5.0523    0.0000 </r>
       <r>    5.0767    0.0000 </r>
       <r>    5.1883    0.0000 </r>
       <r>    5.2020    0.0000 </r>
       <r>    5.2395    0.0000 </r>
       <r>    5.2795    0.0000 </r>
       <r>    5.3616    0.0000 </r>
       <r>    5.3693    0.0000 </r>
       <r>    5.3923    0.0000 </r>
       <r>    5.4147    0.0000 </r>
       <r>    5.4947    0.0000 </r>
      </set>
      <set comment="kpoint 2">
       <r>  -10.6731    1.0000 </r>
       <r>  -10.1477    1.0000 </r>
       <r>  -10.0867    1.0000 </r>
       <r>   -9.9063    1.0000 </r>
       <r>   -9.8721    1.0000 </r>
       <r>   -9.3011    1.0000 </r>
       <r>   -9.2221    1.0000 </r>
       <r>   -8.7902    1.0000 </r>
       <r>   -8.7691    1.0000 </r>
       <r>   -8.5530    1.0000 </r>
       <r>   -8.4681    1.0000 </r>
       <r>   -8.3549    1.0000 </r>
       <r>   -8.1018    1.0000 </r>
       <r>   -8.0873    1.0000 </r>
       <r>   -8.0041    1.0000 </r>
       <r>   -7.8872    1.0000 </r>
       <r>   -7.7318    1.0000 </r>
       <r>   -7.7125    1.0000 </r>
       <r>   -7.5400    1.0000 </r>
       <r>   -7.4288    1.0000 </r>
       <r>   -7.3937    1.0000 </r>
       <r>   -7.3225    1.0000 </r>
       <r>   -7.2599    1.0000 </r>
       <r>   -7.1770    1.0000 </r>
       <r>   -7.0929    1.0000 </r>
       <r>   -7.0310    1.0000 </r>
       <r>   -6.9663    1.0000 </r>
       <r>   -6.8377    1.0000 </r>
       <r>   -6.8045    1.0000 </r>
       <r>   -6.7297    1.0000 </r>
       <r>   -6.6645    1.0000 </r>
       <r>   -6.5394    1.0000 </r>
       <r>   -6.4901    1.0000 </r>
       <r>   -6.4533    1.0000 </r>
       <r>   -6.3898    1.0000 </r>
       <r>   -6.3407    1.0000 </r>
       <r>   -6.2483    1.0000 </r>
       <r>   -6.1974    1.0000 </r>
       <r>   -6.1548    1.0000 </r>
       <r>   -5.9891    1.0000 </r>
       <r>   -5.9230    1.0000 </r>
       <r>   -5.8370    1.0000 </r>
       <r>   -5.7888    1.0000 </r>
       <r>   -5.7554    1.0000 </r>
       <r>   -5.6930    1.0000 </r>
       <r>   -5.5913    1.0000 </r>
       <r>   -5.5202    1.0000 </r>
       <r>   -5.4398    1.0000 </r>
       <r>   -5.3819    1.0000 </r>
       <r>   -5.2452    1.0000 </r>
       <r>   -5.1045    1.0000 </r>
       <r>   -4.9809    1.0000 </r>
       <r>   -4.8660    1.0000 </r>
       <r>   -4.8309    1.0000 </r>
       <r>   -4.7876    1.0000 </r>
       <r>   -4.7590    1.0000 </r>
       <r>   -4.7512    1.0000 </r>
       <r>   -4.6910    1.0000 </r>
       <r>   -4.6645    1.0000 </r>
       <r>   -4.5499    1.0000 </r>
       <r>   -4.5242    1.0000 </r>
       <r>   -4.2733    1.0000 </r>
       <r>   -4.2576    1.0000 </r>
       <r>   -4.1546    1.0000 </r>
       <r>   -4.0996    1.0000 </r>
       <r>   -3.9897    1.0000 </r>
       <r>   -3.9265    1.0000 </r>
       <r>   -3.7554    1.0000 </r>
       <r>   -3.6963    1.0000 </r>
       <r>   -3.5608    1.0000 </r>
       <r>   -3.4983    1.0000 </r>
       <r>   -3.4428    1.0000 </r>
       <r>   -3.3722    1.0000 </r>
       <r>   -3.2706    1.0000 </r>
       <r>   -3.1093    1.0000 </r>
       <r>   -3.0365    1.0000 </r>
       <r>   -3.0058    1.0000 </r>
       <r>   -2.9441    1.0000 </r>
       <r>   -2.6947    1.0000 </r>
       <r>   -2.6653    1.0000 </r>
       <r>   -2.5995    1.0000 </r>
       <r>   -2.5439    1.0000 </r>
       <r>   -2.4836    1.0000 </r>
       <r>   -2.3346    1.0000 </r>
       <r>   -2.2975    1.0000 </r>
       <r>   -2.1938    1.0000 </r>
       <r>   -2.1309    1.0000 </r>
       <r>   -1.9966    1.0000 </r>
       <r>   -1.9113    1.0000 </r>
       <r>   -1.8260    1.0000 </r>
       <r>   -1.7605    1.0000 </r>
       <r>   -1.7251    1.0000 </r>
       <r>   -1.6401    1.0000 </r>
       <r>   -1.5334    1.0000 </r>
       <r>   -1.4329    1.0000 </r>
       <r>   -1.3936    1.0000 </r>
       <r>   -1.2315    1.0000 </r>
       <r>   -1.1214    1.0000 </r>
       <r>   -1.1015    1.0000 </r>
       <r>   -1.0484    1.0000 </r>
       <r>   -0.9528    1.0000 </r>
       <r>   -0.8791    1.0000 </r>
       <r>   -0.7562    1.0000 </r>
       <r>   -0.7218    1.0000 </r>
       <r>   -0.6259    1.0000 </r>
       <r>   -0.6185    1.0000 </r>
       <r>   -0.5676    1.0000 </r>
       <r>   -0.4884    1.0000 </r>
       <r>   -0.4577    1.0000 </r>
       <r>   -0.4094    1.0000 </r>
       <r>   -0.3904    1.0000 </r>
       <r>   -0.2998    1.0000 </r>
       <r>   -0.2831    1.0000 </r>
       <r>   -0.1868    1.0000 </r>
       <r>   -0.1757    1.0000 </r>
       <r>   -0.0958    1.0000 </r>
       <r>   -0.0632    1.0000 </r>
       <r>   -0.0554    1.0000 </r>
       <r>    0.0461    1.0000 </r>
       <r>    0.0809    1.0000 </r>
       <r>    0.1890    1.0000 </r>
       <r>    0.1989    1.0000 </r>
       <r>    0.2597    1.0000 </r>
       <r>    0.2896    1.0000 </r>
       <r>    0.3513    1.0000 </r>
       <r>    0.4258    1.0000 </r>
       <r>    0.4990    1.0000 </r>
       <r>    0.5125    1.0000 </r>
       <r>    0.5380    1.0000 </r>
       <r>    0.5708    1.0000 </r>
       <r>    0.6360    1.0000 </r>
       <r>    0.6854    1.0000 </r>
       <r>    0.7087    1.0000 </r>
       <r>    0.8408    1.0000 </r>
       <r>    0.8623    1.0000 </r>
       <r>    0.8954    1.0000 </r>
       <r>    0.9471    1.0000 </r>
       <r>    0.9532    1.0000 </r>
       <r>    1.0281    1.0000 </r>
       <r>    1.0556    1.0000 </r>
       <r>    1.0808    1.0000 </r>
       <r>    1.0954    1.0000 </r>
       <r>    1.1411    1.0000 </r>
       <r>    1.2269    1.0000 </r>
       <r>    1.2544    1.0000 </r>
       <r>    1.2719    1.0000 </r>
       <r>    1.3561    1.0000 </r>
       <r>    1.3915    1.0000 </r>
       <r>    1.4150    1.0000 </r>
       <r>    1.4510    1.0000 </r>
       <r>    1.5098    1.0000 </r>
       <r>    1.6097    1.0000 </r>
       <r>    1.6229    1.0000 </r>
       <r>    1.6862    1.0000 </r>
       <r>    1.6977    1.0000 </r>
       <r>    1.7320    1.0000 </r>
       <r>    1.7904    1.0000 </r>
       <r>    1.8243    1.0000 </r>
       <r>    1.8789    1.0000 </r>
       <r>    1.9219    1.0000 </r>
       <r>    2.0025    1.0000 </r>
       <r>    2.0595    1.0000 </r>
       <r>    2.0812    1.0000 </r>
       <r>    2.1510    1.0000 </r>
       <r>    2.2184    1.0000 </r>
       <r>    2.2404    1.0000 </r>
       <r>    2.3140    1.0000 </r>
       <r>    2.3463    1.0000 </r>
       <r>    2.3844    1.0000 </r>
       <r>    2.4165    1.0000 </r>
       <r>    2.4491    1.0000 </r>
       <r>    2.5224    1.0000 </r>
       <r>    2.5786    1.0000 </r>
       <r>    2.6672    1.0000 </r>
       <r>    2.6850    1.0000 </r>
       <r>    2.7614    1.0000 </r>
       <r>    2.8565    1.0000 </r>
       <r>    2.8768    1.0000 </r>
       <r>    2.8999    1.0000 </r>
       <r>    2.9647    1.0000 </r>
       <r>    3.0234    1.0000 </r>
       <r>    3.0808    1.0000 </r>
       <r>    3.1045    1.0000 </r>
       <r>    3.1538    1.0000 </r>
       <r>    3.2020    1.0000 </r>
       <r>    3.2630    1.0000 </r>
       <r>    3.3015    1.0000 </r>
       <r>    3.3809    1.0000 </r>
       <r>    3.4619    1.0000 </r>
       <r>    3.4902    1.0000 </r>
       <r>    3.5985    0.9999 </r>
       <r>    3.6342    0.1166 </r>
       <r>    3.6472    0.0012 </r>
       <r>    3.7069    0.0000 </r>
       <r>    3.7512    0.0000 </r>
       <r>    3.7830    0.0000 </r>
       <r>    3.8131    0.0000 </r>
       <r>    3.8533    0.0000 </r>
       <r>    3.8791    0.0000 </r>
       <r>    3.9354    0.0000 </r>
       <r>    4.0391    0.0000 </r>
       <r>    4.0960    0.0000 </r>
       <r>    4.0980    0.0000 </r>
       <r>    4.2025    0.0000 </r>
       <r>    4.2340    0.0000 </r>
       <r>    4.2513    0.0000 </r>
       <r>    4.2812    0.0000 </r>
       <r>    4.3162    0.0000 </r>
       <r>    4.3475    0.0000 </r>
       <r>    4.3864    0.0000 </r>
       <r>    4.4072    0.0000 </r>
       <r>    4.4859    0.0000 </r>
       <r>    4.5463    0.0000 </r>
       <r>    4.5719    0.0000 </r>
       <r>    4.6366    0.0000 </r>
       <r>    4.7026    0.0000 </r>
       <r>    4.7445    0.0000 </r>
       <r>    4.7625    0.0000 </r>
       <r>    4.7850    0.0000 </r>
       <r>    4.8534    0.0000 </r>
       <r>    4.8921    0.0000 </r>
       <r>    4.9303    0.0000 </r>
       <r>    5.0103    0.0000 </r>
       <r>    5.0854    0.0000 </r>
       <r>    5.1899    0.0000 </r>
       <r>    5.2265    0.0000 </r>
       <r>    5.3156    0.0000 </r>
       <r>    5.3378    0.0000 </r>
       <r>    5.4222    0.0000 </r>
       <r>    5.4947    0.0000 </r>
       <r>    5.5574    0.0000 </r>
       <r>    5.6414    0.0000 </r>
      </set>
      <set comment="kpoint 3">
       <r>  -10.6724    1.0000 </r>
       <r>  -10.1552    1.0000 </r>
       <r>  -10.0826    1.0000 </r>
       <r>   -9.9058    1.0000 </r>
       <r>   -9.8697    1.0000 </r>
       <r>   -9.3008    1.0000 </r>
       <r>   -9.2220    1.0000 </r>
       <r>   -8.7890    1.0000 </r>
       <r>   -8.7692    1.0000 </r>
       <r>   -8.5315    1.0000 </r>
       <r>   -8.4635    1.0000 </r>
       <r>   -8.3768    1.0000 </r>
       <r>   -8.1822    1.0000 </r>
       <r>   -8.0181    1.0000 </r>
       <r>   -7.9787    1.0000 </r>
       <r>   -7.8410    1.0000 </r>
       <r>   -7.7843    1.0000 </r>
       <r>   -7.7454    1.0000 </r>
       <r>   -7.5660    1.0000 </r>
       <r>   -7.4479    1.0000 </r>
       <r>   -7.3650    1.0000 </r>
       <r>   -7.2893    1.0000 </r>
       <r>   -7.2581    1.0000 </r>
       <r>   -7.1987    1.0000 </r>
       <r>   -7.1163    1.0000 </r>
       <r>   -7.0180    1.0000 </r>
       <r>   -6.9223    1.0000 </r>
       <r>   -6.9061    1.0000 </r>
       <r>   -6.8248    1.0000 </r>
       <r>   -6.7183    1.0000 </r>
       <r>   -6.6398    1.0000 </r>
       <r>   -6.5690    1.0000 </r>
       <r>   -6.4557    1.0000 </r>
       <r>   -6.3843    1.0000 </r>
       <r>   -6.3502    1.0000 </r>
       <r>   -6.3350    1.0000 </r>
       <r>   -6.2078    1.0000 </r>
       <r>   -6.1746    1.0000 </r>
       <r>   -6.0939    1.0000 </r>
       <r>   -6.0221    1.0000 </r>
       <r>   -5.9113    1.0000 </r>
       <r>   -5.8506    1.0000 </r>
       <r>   -5.8482    1.0000 </r>
       <r>   -5.7603    1.0000 </r>
       <r>   -5.6566    1.0000 </r>
       <r>   -5.6362    1.0000 </r>
       <r>   -5.5045    1.0000 </r>
       <r>   -5.4837    1.0000 </r>
       <r>   -5.3828    1.0000 </r>
       <r>   -5.2843    1.0000 </r>
       <r>   -5.1630    1.0000 </r>
       <r>   -5.1075    1.0000 </r>
       <r>   -5.0252    1.0000 </r>
       <r>   -4.9876    1.0000 </r>
       <r>   -4.8394    1.0000 </r>
       <r>   -4.7554    1.0000 </r>
       <r>   -4.7276    1.0000 </r>
       <r>   -4.6732    1.0000 </r>
       <r>   -4.4463    1.0000 </r>
       <r>   -4.4140    1.0000 </r>
       <r>   -4.3498    1.0000 </r>
       <r>   -4.2652    1.0000 </r>
       <r>   -4.2385    1.0000 </r>
       <r>   -4.1748    1.0000 </r>
       <r>   -4.0583    1.0000 </r>
       <r>   -3.8976    1.0000 </r>
       <r>   -3.8850    1.0000 </r>
       <r>   -3.7752    1.0000 </r>
       <r>   -3.7644    1.0000 </r>
       <r>   -3.6089    1.0000 </r>
       <r>   -3.5422    1.0000 </r>
       <r>   -3.4657    1.0000 </r>
       <r>   -3.3634    1.0000 </r>
       <r>   -3.2789    1.0000 </r>
       <r>   -3.0739    1.0000 </r>
       <r>   -3.0503    1.0000 </r>
       <r>   -2.9894    1.0000 </r>
       <r>   -2.8894    1.0000 </r>
       <r>   -2.7140    1.0000 </r>
       <r>   -2.6196    1.0000 </r>
       <r>   -2.5663    1.0000 </r>
       <r>   -2.4838    1.0000 </r>
       <r>   -2.4488    1.0000 </r>
       <r>   -2.3538    1.0000 </r>
       <r>   -2.3299    1.0000 </r>
       <r>   -2.2609    1.0000 </r>
       <r>   -2.1730    1.0000 </r>
       <r>   -2.0810    1.0000 </r>
       <r>   -1.9912    1.0000 </r>
       <r>   -1.8892    1.0000 </r>
       <r>   -1.8174    1.0000 </r>
[...]
       <r>    -9.6352     0.0053     9.3336 </r>
       <r>    -9.5753    22.2372    10.6664 </r>
       <r>    -9.5154     0.0000    10.6667 </r>
       <r>    -9.4554     0.0000    10.6667 </r>
       <r>    -9.3955     0.0000    10.6667 </r>
       <r>    -9.3356     0.0000    10.6667 </r>
       <r>    -9.2756    21.7615    11.9709 </r>
       <r>    -9.2157    10.4141    12.5951 </r>
       <r>    -9.1557    23.4408    14.0000 </r>
       <r>    -9.0958     0.0000    14.0000 </r>
       <r>    -9.0359     0.0000    14.0000 </r>
       <r>    -8.9759     0.0000    14.0000 </r>
       <r>    -8.9160     0.0000    14.0000 </r>
       <r>    -8.8561     4.6954    14.2814 </r>
       <r>    -8.7961     7.2080    14.7134 </r>
       <r>    -8.7362    42.2630    17.2464 </r>
       <r>    -8.6763     1.4468    17.3333 </r>
       <r>    -8.6163     0.0065    17.3337 </r>
       <r>    -8.5564    15.1168    18.2397 </r>
       <r>    -8.4965    32.9904    20.2170 </r>
       <r>    -8.4365    28.0537    21.8987 </r>
       <r>    -8.3766     1.9598    22.0167 </r>
       <r>    -8.3167    16.4926    23.0052 </r>
       <r>    -8.2567     5.7371    23.3490 </r>
       <r>    -8.1968    18.7863    24.4750 </r>
       <r>    -8.1369    10.3918    25.0982 </r>
       <r>    -8.0769    23.8631    26.5284 </r>
       <r>    -8.0170    21.4889    27.8163 </r>
       <r>    -7.9571    20.0517    29.0181 </r>
       <r>    -7.8971    16.3150    29.9959 </r>
       <r>    -7.8372    20.5691    31.2289 </r>
       <r>    -7.7773    21.6273    32.5251 </r>
       <r>    -7.7173    20.0340    33.7258 </r>
       <r>    -7.6574    33.4823    35.7326 </r>
       <r>    -7.5975    14.7501    36.6172 </r>
       <r>    -7.5375    17.5767    37.6707 </r>
       <r>    -7.4776    17.5716    38.7243 </r>
       <r>    -7.4177    40.3276    41.1413 </r>
       <r>    -7.3577    25.9275    42.6959 </r>
       <r>    -7.2978    10.6432    43.3338 </r>
       <r>    -7.2378    27.4018    44.9762 </r>
       <r>    -7.1779    14.1403    45.8236 </r>
       <r>    -7.1180    25.4269    47.3476 </r>
       <r>    -7.0580    23.5333    48.7581 </r>
       <r>    -6.9981    33.9272    50.7915 </r>
       <r>    -6.9382    20.9271    52.0464 </r>
       <r>    -6.8782    39.0128    54.3846 </r>
       <r>    -6.8183    25.4935    55.9127 </r>
       <r>    -6.7584    34.3876    57.9737 </r>
       <r>    -6.6984    25.9888    59.5313 </r>
       <r>    -6.6385    33.7824    61.5563 </r>
       <r>    -6.5786    29.1679    63.3045 </r>
       <r>    -6.5186    32.2226    65.2358 </r>
       <r>    -6.4587    20.4263    66.4601 </r>
       <r>    -6.3988    35.3046    68.5763 </r>
       <r>    -6.3388    26.9264    70.1907 </r>
       <r>    -6.2789    36.3856    72.3715 </r>
       <r>    -6.2190    33.6445    74.3880 </r>
       <r>    -6.1590    36.6907    76.5875 </r>
       <r>    -6.0991    16.5709    77.5812 </r>
       <r>    -6.0392    18.4552    78.6873 </r>
       <r>    -5.9792    19.0638    79.8303 </r>
       <r>    -5.9193    20.7428    81.0737 </r>
       <r>    -5.8594    33.1633    83.0613 </r>
       <r>    -5.7994    26.7111    84.6624 </r>
       <r>    -5.7395    37.1141    86.8868 </r>
       <r>    -5.6796    23.2921    88.2829 </r>
       <r>    -5.6196    33.7260    90.3044 </r>
       <r>    -5.5597    25.9102    91.8575 </r>
       <r>    -5.4998    27.4488    93.5028 </r>
       <r>    -5.4398    19.8348    94.6917 </r>
       <r>    -5.3799    23.6982    96.1120 </r>
       <r>    -5.3199    16.2336    97.0849 </r>
       <r>    -5.2600    28.5238    98.7946 </r>
       <r>    -5.2001    15.9014    99.7476 </r>
       <r>    -5.1401    27.6261   101.4034 </r>
       <r>    -5.0802    21.6241   102.6995 </r>
       <r>    -5.0203    18.4288   103.8040 </r>
       <r>    -4.9603    30.7757   105.6485 </r>
       <r>    -4.9004    20.6430   106.8861 </r>
       <r>    -4.8405    19.0771   108.0295 </r>
       <r>    -4.7805    29.5978   109.8034 </r>
       <r>    -4.7206    41.7602   112.3065 </r>
       <r>    -4.6607    35.6068   114.4407 </r>
       <r>    -4.6007    28.0188   116.1205 </r>
       <r>    -4.5408    22.5850   117.4746 </r>
       <r>    -4.4809    16.3128   118.4523 </r>
       <r>    -4.4209    23.9983   119.8909 </r>
       <r>    -4.3610    19.3261   121.0492 </r>
       <r>    -4.3011    22.9138   122.4226 </r>
       <r>    -4.2411    27.7031   124.0830 </r>
       <r>    -4.1812    14.3246   124.9420 </r>
       <r>    -4.1213    24.6978   126.4223 </r>
       <r>    -4.0613    27.9669   128.0986 </r>
       <r>    -4.0014    24.9197   129.5923 </r>
       <r>    -3.9415    13.2440   130.3862 </r>
       <r>    -3.8815    28.1479   132.0732 </r>
       <r>    -3.8216    21.3703   133.3540 </r>
       <r>    -3.7617    16.4794   134.3417 </r>
       <r>    -3.7017    24.2057   135.7929 </r>
       <r>    -3.6418    13.2317   136.5859 </r>
       <r>    -3.5819    26.8221   138.1936 </r>
       <r>    -3.5219    26.5862   139.7871 </r>
       <r>    -3.4620    22.7883   141.1531 </r>
       <r>    -3.4020    27.3160   142.7903 </r>
       <r>    -3.3421    35.0483   144.8909 </r>
       <r>    -3.2822    14.3196   145.7498 </r>
       <r>    -3.2222    30.9585   147.6053 </r>
       <r>    -3.1623    18.9336   148.7403 </r>
       <r>    -3.1024    14.7518   149.6246 </r>
       <r>    -3.0424    33.4843   151.6315 </r>
       <r>    -2.9825    28.1883   153.3212 </r>
       <r>    -2.9226    28.8639   155.0512 </r>
       <r>    -2.8626    25.7827   156.5965 </r>
       <r>    -2.8027    20.2414   157.8098 </r>
       <r>    -2.7428    20.0944   159.0142 </r>
       <r>    -2.6828    26.5619   160.6062 </r>
       <r>    -2.6229    25.1710   162.1151 </r>
       <r>    -2.5630    16.9603   163.1317 </r>
       <r>    -2.5030    32.3805   165.0724 </r>
       <r>    -2.4431    26.7926   166.6782 </r>
       <r>    -2.3832    23.9565   168.1145 </r>
       <r>    -2.3232    23.6803   169.5338 </r>
       <r>    -2.2633    25.8037   171.0808 </r>
       <r>    -2.2034    17.8735   172.1521 </r>
       <r>    -2.1434    22.0114   173.4713 </r>
       <r>    -2.0835    12.6587   174.2304 </r>
       <r>    -2.0236    18.8198   175.3583 </r>
       <r>    -1.9636    22.3485   176.6980 </r>
       <r>    -1.9037    16.2497   177.6720 </r>
       <r>    -1.8438    12.1053   178.3975 </r>
       <r>    -1.7838    26.0926   179.9614 </r>
       <r>    -1.7239    40.6869   182.4000 </r>
       <r>    -1.6640    20.0820   183.6041 </r>
       <r>    -1.6040    27.9539   185.2795 </r>
       <r>    -1.5441    24.7367   186.7622 </r>
       <r>    -1.4841    20.1579   187.9703 </r>
       <r>    -1.4242    24.5383   189.4412 </r>
       <r>    -1.3643    31.7555   191.3449 </r>
       <r>    -1.3043    17.3798   192.3870 </r>
       <r>    -1.2444    13.4797   193.1951 </r>
       <r>    -1.1845    20.2265   194.4074 </r>
       <r>    -1.1245    20.8681   195.6582 </r>
       <r>    -1.0646    29.9091   197.4508 </r>
       <r>    -1.0047    25.2297   198.9630 </r>
       <r>    -0.9447    14.1217   199.8097 </r>
       <r>    -0.8848    26.9101   201.4225 </r>
       <r>    -0.8249    22.6313   202.7793 </r>
       <r>    -0.7649    26.1461   204.3463 </r>
       <r>    -0.7050    39.5948   206.7196 </r>
       <r>    -0.6451    36.5613   208.9109 </r>
       <r>    -0.5851    48.9473   211.8445 </r>
       <r>    -0.5252    35.3752   213.9648 </r>
       <r>    -0.4653    37.9759   216.2411 </r>
       <r>    -0.4053    32.7764   218.2059 </r>
       <r>    -0.3454    28.5439   219.9168 </r>
       <r>    -0.2855    35.7308   222.0584 </r>
       <r>    -0.2255    46.5107   224.8460 </r>
       <r>    -0.1656    26.7316   226.4482 </r>
       <r>    -0.1057    32.8488   228.4171 </r>
       <r>    -0.0457    48.4982   231.3238 </r>
       <r>     0.0142    41.5971   233.8170 </r>
       <r>     0.0741    42.9255   236.3897 </r>
       <r>     0.1341    37.9374   238.6635 </r>
       <r>     0.1940    32.9857   240.6406 </r>
       <r>     0.2539    49.3941   243.6010 </r>
       <r>     0.3139    37.0259   245.8203 </r>
       <r>     0.3738    48.0872   248.7028 </r>
       <r>     0.4337    40.2618   251.1162 </r>
       <r>     0.4937    30.6793   252.9550 </r>
       <r>     0.5536    46.8857   255.7651 </r>
       <r>     0.6136    49.4442   258.7285 </r>
       <r>     0.6735    44.6187   261.4028 </r>
       <r>     0.7334    54.5861   264.6748 </r>
       <r>     0.7934    43.2163   267.2652 </r>
       <r>     0.8533    40.6050   269.6989 </r>
       <r>     0.9132    55.7575   273.0407 </r>
       <r>     0.9732    52.6532   276.1966 </r>
       <r>     1.0331    43.2096   278.7865 </r>
       <r>     1.0930    51.4792   281.8719 </r>
       <r>     1.1530    38.4002   284.1734 </r>
       <r>     1.2129    40.6694   286.6109 </r>
       <r>     1.2728    51.1740   289.6782 </r>
       <r>     1.3328    51.3015   292.7534 </r>
       <r>     1.3927    36.6575   294.9505 </r>
       <r>     1.4526    56.4463   298.3336 </r>
       <r>     1.5126    37.6758   300.5919 </r>
       <r>     1.5725    43.9822   303.2280 </r>
       <r>     1.6324    39.3415   305.5860 </r>
       <r>     1.6924    37.3976   307.8277 </r>
       <r>     1.7523    48.3477   310.7253 </r>
       <r>     1.8122    31.7091   312.6260 </r>
       <r>     1.8722    52.7487   315.7878 </r>
       <r>     1.9321    36.4061   317.9703 </r>
       <r>     1.9920    42.9306   320.5440 </r>
       <r>     2.0520    47.1330   323.3688 </r>
       <r>     2.1119    43.0845   325.9514 </r>
       <r>     2.1718    47.1901   328.7802 </r>
       <r>     2.2318    38.7379   331.1022 </r>
       <r>     2.2917    44.1156   333.7467 </r>
       <r>     2.3516    45.1135   336.4510 </r>
       <r>     2.4116    45.2222   339.1614 </r>
       <r>     2.4715    36.6025   341.3555 </r>
       <r>     2.5315    31.2262   343.2271 </r>
       <r>     2.5914    37.5687   345.4787 </r>
       <r>     2.6513    43.5401   348.0883 </r>
       <r>     2.7113    38.1574   350.3753 </r>
       <r>     2.7712    29.3797   352.1364 </r>
       <r>     2.8311    30.4617   353.9626 </r>
       <r>     2.8911    34.7534   356.0459 </r>
       <r>     2.9510    37.6261   358.3022 </r>
       <r>     3.0109    46.0507   361.0624 </r>
       <r>     3.0709    43.4746   363.6680 </r>
       <r>     3.1308    35.3521   365.7868 </r>
       <r>     3.1907    42.5363   368.3362 </r>
       <r>     3.2507    35.3672   370.4560 </r>
       <r>     3.3106    38.2296   372.7479 </r>
       <r>     3.3705    37.3902   374.9892 </r>
       <r>     3.4305    32.6069   376.9435 </r>
       <r>     3.4904    36.6770   379.1418 </r>
       <r>     3.5503    36.4062   381.3238 </r>
       <r>     3.6103    37.7409   383.5858 </r>
       <r>     3.6702    46.9615   386.4005 </r>
       <r>     3.7301    43.1608   388.9877 </r>
       <r>     3.7901    36.9183   391.2004 </r>
       <r>     3.8500    40.5365   393.6299 </r>
       <r>     3.9099    47.9596   396.5044 </r>
       <r>     3.9699    37.8481   398.7728 </r>
       <r>     4.0298    37.5875   401.0256 </r>
       <r>     4.0897    37.3237   403.2628 </r>
       <r>     4.1497    44.5266   405.9315 </r>
       <r>     4.2096    34.4184   407.9944 </r>
       <r>     4.2695    46.7400   410.7958 </r>
       <r>     4.3295    46.3852   413.5759 </r>
       <r>     4.3894    58.9514   417.1096 </r>
       <r>     4.4494    32.8782   419.0803 </r>
       <r>     4.5093    44.3471   421.7385 </r>
       <r>     4.5692    37.0628   423.9598 </r>
       <r>     4.6292    44.1341   426.6052 </r>
       <r>     4.6891    30.4094   428.4280 </r>
       <r>     4.7490    33.1167   430.4130 </r>
       <r>     4.8090    42.8430   432.9808 </r>
       <r>     4.8689    42.3707   435.5203 </r>
       <r>     4.9288    41.6067   438.0146 </r>
       <r>     4.9888    29.4726   439.7810 </r>
       <r>     5.0487    34.6593   441.8584 </r>
       <r>     5.1086    41.5815   444.3509 </r>
       <r>     5.1686    31.4802   446.2378 </r>
       <r>     5.2285    44.9186   448.9299 </r>
       <r>     5.2884    35.1107   451.0345 </r>
       <r>     5.3484    46.9508   453.8488 </r>
       <r>     5.4083    40.1349   456.2546 </r>
       <r>     5.4682    44.1653   458.9018 </r>
       <r>     5.5282    39.2979   461.2572 </r>
       <r>     5.5881    27.3075   462.8941 </r>
       <r>     5.6480    14.7479   463.7780 </r>
       <r>     5.7080     3.7040   464.0000 </r>
       <r>     5.7679     0.0000   464.0000 </r>
       <r>     5.8278     0.0000   464.0000 </r>
       <r>     5.8878     0.0000   464.0000 </r>
       <r>     5.9477     0.0000   464.0000 </r>
       <r>     6.0076     0.0000   464.0000 </r>
       <r>     6.0676     0.0000   464.0000 </r>
       <r>     6.1275     0.0000   464.0000 </r>
       <r>     6.1874     0.0000   464.0000 </r>
       <r>     6.2474     0.0000   464.0000 </r>
       <r>     6.3073     0.0000   464.0000 </r>
       <r>     6.3673     0.0000   464.0000 </r>
       <r>     6.4272     0.0000   464.0000 </r>
       <r>     6.4871     0.0000   464.0000 </r>
      </set>
     </set>
    </array>
   </total>
  </dos>
 </calculation>
 <structure name="finalpos" >
  <crystal>
   <varray name="basis" >
    <v>      12.65122604       0.00000000       0.00000000 </v>
    <v>       2.53024530      12.39562035       0.00000000 </v>
    <v>       0.00000000       0.00000000      13.93391037 </v>
   </varray>
   <i name="volume">   2185.11296711 </i>
   <varray name="rec_basis" >
    <v>       0.07904372      -0.01613473       0.00000000 </v>
    <v>       0.00000000       0.08067366       0.00000000 </v>
    <v>       0.00000000       0.00000000       0.07176736 </v>
   </varray>
  </crystal>
  <varray name="positions" >
   <v>       0.74376750       0.16917777       0.50000000 </v>
   <v>       0.99259037       0.94813251       0.00000002 </v>
   <v>       0.95092356       0.65646577       0.08288376 </v>
   <v>       0.90925682       0.36479890       0.16576751 </v>
   <v>       0.86759007       0.07313222       0.24865122 </v>
   <v>       0.61876744       0.04417777       0.50000000 </v>
   <v>       0.24376750       0.66917771       0.50000000 </v>
   <v>       0.49259037       0.44813251       0.00000003 </v>
   <v>       0.45092362       0.15646577       0.08288376 </v>
   <v>       0.40925688       0.86479896       0.16576751 </v>
   <v>       0.36759013       0.57313228       0.24865122 </v>
   <v>       0.32592338       0.28146553       0.33153492 </v>
   <v>       0.49376744       0.41917768       0.50000000 </v>
   <v>       0.36759040       0.82313263       0.00000001 </v>
   <v>       0.32592362       0.53146583       0.08288376 </v>
   <v>       0.28425688       0.23979901       0.16576754 </v>
   <v>       0.24259017       0.94813240       0.24865119 </v>
   <v>       0.20092338       0.65646565       0.33153492 </v>
   <v>       0.11876750       0.54417765       0.50000000 </v>
   <v>       0.86759049       0.32313258       0.00000001 </v>
   <v>       0.82592368       0.03146578       0.08288376 </v>
   <v>       0.78425688       0.73979890       0.16576751 </v>
   <v>       0.57710064       0.75251091       0.58288372 </v>
   <v>       0.86876744       0.79417765       0.50000000 </v>
   <v>       0.91043395       0.33584419       0.66576755 </v>
   <v>       0.24259035       0.69813263       0.00000000 </v>
   <v>       0.20092359       0.40646580       0.08288375 </v>
   <v>       0.15925685       0.11479896       0.16576751 </v>
   <v>       0.99376750       0.91917777       0.50000000 </v>
   <v>       0.07592334       0.53146553       0.33153489 </v>
   <v>       0.86876744       0.79417765       0.50000000 </v>
   <v>       0.74259043       0.19813251       0.00000002 </v>
   <v>       0.70092362       0.90646571       0.08288377 </v>
   <v>       0.65925688       0.61479890       0.16576751 </v>
   <v>       0.61876744       0.04417777       0.50000000 </v>
   <v>       0.57592344       0.03146547       0.33153489 </v>
   <v>       0.36876750       0.29417765       0.50000000 </v>
   <v>       0.11759036       0.07313251       0.00000002 </v>
   <v>       0.07592360       0.78146577       0.08288376 </v>
   <v>       0.03425685       0.48979896       0.16576751 </v>
   <v>       0.99259007       0.19813222       0.24865122 </v>
   <v>       0.95092338       0.90646553       0.33153492 </v>
   <v>       0.41043401       0.83584428       0.66576755 </v>
   <v>       0.61759049       0.57313258       0.00000001 </v>
   <v>       0.57592362       0.28146583       0.08288375 </v>
   <v>       0.53425694       0.98979902       0.16576754 </v>
   <v>       0.49259019       0.69813228       0.24865125 </v>
   <v>       0.28543401       0.71084422       0.66576755 </v>
   <v>       0.91043359       0.08584392       0.91441870 </v>
   <v>       0.90925658       0.61479878       0.41441870 </v>
   <v>       0.07710051       0.25251091       0.58288372 </v>
   <v>       0.78543389       0.21084416       0.66576755 </v>
   <v>       0.49376714       0.16917741       0.74865127 </v>
   <v>       0.20210051       0.12751067       0.83153498 </v>
   <v>       0.41043353       0.58584392       0.91441870 </v>
   <v>       0.53425670       0.73979867       0.41441870 </v>
   <v>       0.74259013       0.44813234       0.24865119 </v>
   <v>       0.45092344       0.40646553       0.33153495 </v>
   <v>       0.99376720       0.66917741       0.74865127 </v>
   <v>       0.70210040       0.62751067       0.83153498 </v>
   <v>       0.78543371       0.46084398       0.91441870 </v>
   <v>       0.28425661       0.98979878       0.41441870 </v>
   <v>       0.95210075       0.62751091       0.58288372 </v>
   <v>       0.66043401       0.58584422       0.66576755 </v>
   <v>       0.36876726       0.54417747       0.74865127 </v>
   <v>       0.07710051       0.50251073       0.83153498 </v>
   <v>       0.28543353       0.96084392       0.91441858 </v>
   <v>       0.78425658       0.48979867       0.41441864 </v>
   <v>       0.45210069       0.12751102       0.58288372 </v>
   <v>       0.16043401       0.08584416       0.66576755 </v>
   <v>       0.86876726       0.04417753       0.74865127 </v>
   <v>       0.57710046       0.00251067       0.83153498 </v>
   <v>       0.66043365       0.33584389       0.91441870 </v>
   <v>       0.65925658       0.86479867       0.41441864 </v>
   <v>       0.82710075       0.50251091       0.58288372 </v>
   <v>       0.53543395       0.46084416       0.66576755 </v>
   <v>       0.24376726       0.41917741       0.74865115 </v>
   <v>       0.95210046       0.37751067       0.83153486 </v>
   <v>       0.16043353       0.83584404       0.91441870 </v>
   <v>       0.61759025       0.32313234       0.24865122 </v>
   <v>       0.15925664       0.36479878       0.41441870 </v>
   <v>       0.03543389       0.96084416       0.66576755 </v>
   <v>       0.74376720       0.91917753       0.74865127 </v>
   <v>       0.45210040       0.87751079       0.83153498 </v>
   <v>       0.03543353       0.21084392       0.91441870 </v>
   <v>       0.15925664       0.36479878       0.41441870 </v>
   <v>       0.40925661       0.11479884       0.41441870 </v>
   <v>       0.03425656       0.23979878       0.41441864 </v>
   <v>       0.61876714       0.29417741       0.74865115 </v>
   <v>       0.32710051       0.25251067       0.83153498 </v>
   <v>       0.53543371       0.71084404       0.91441870 </v>
   <v>       0.11759009       0.82313240       0.24865118 </v>
   <v>       0.70210069       0.87751091       0.58288372 </v>
   <v>       0.40925661       0.11479884       0.41441870 </v>
   <v>       0.11876726       0.79417753       0.74865127 </v>
   <v>       0.82710046       0.75251079       0.83153498 </v>
  </varray>
 </structure>
</modeling>
