 264 264   0   0
  0.2774202E+02  0.1958175E-08  0.1958175E-08  0.1910025E-08  0.5000000E-15
  1.000000000000000E-004
  CAR 
 Si and Ge interface calculation         
      6.63875937     -9.19352658  301      4.06482077      1.00000000
     -9.194  0.0000E+00  0.0000E+00  0.0000E+00  0.0000E+00
     -9.141  0.0000E+00  0.0000E+00  0.0000E+00  0.0000E+00
     -9.088  0.0000E+00  0.0000E+00  0.0000E+00  0.0000E+00
     -9.035  0.0000E+00  0.0000E+00  0.0000E+00  0.0000E+00
     -8.982  0.0000E+00  0.0000E+00  0.0000E+00  0.0000E+00
     -8.930  0.0000E+00  0.0000E+00  0.0000E+00  0.0000E+00
     -8.877  0.0000E+00  0.0000E+00  0.0000E+00  0.0000E+00
     -8.824  0.0000E+00  0.0000E+00  0.0000E+00  0.0000E+00
     -8.771  0.0000E+00  0.0000E+00  0.0000E+00  0.0000E+00
     -8.719  0.0000E+00  0.0000E+00  0.0000E+00  0.0000E+00
     -8.666  0.0000E+00  0.0000E+00  0.0000E+00  0.0000E+00
     -8.613  0.0000E+00  0.0000E+00  0.0000E+00  0.0000E+00
     -8.560  0.0000E+00  0.0000E+00  0.0000E+00  0.0000E+00
     -8.507  0.9605E-05  0.2801E-05  0.5069E-06  0.1478E-06
     -8.455  0.2401E+02  0.2219E+02  0.1267E+01  0.1171E+01
     -8.402  0.1389E+02  0.1570E+02  0.2000E+01  0.2000E+01
     -8.349  0.0000E+00  0.0000E+00  0.2000E+01  0.2000E+01
     -8.296  0.1183E-04  0.3418E-05  0.2000E+01  0.2000E+01
     -8.244  0.1351E+02  0.1260E+02  0.2713E+01  0.2665E+01
     -8.191  0.1258E+02  0.1265E+02  0.3377E+01  0.3332E+01
     -8.138  0.2603E+02  0.2592E+02  0.4751E+01  0.4700E+01
     -8.085  0.1407E+02  0.1493E+02  0.5494E+01  0.5488E+01
     -8.032  0.9556E+01  0.9619E+01  0.5998E+01  0.5996E+01
     -7.980  0.3750E+02  0.3722E+02  0.7977E+01  0.7960E+01
     -7.927  0.7819E+01  0.7407E+01  0.8390E+01  0.8351E+01
     -7.874  0.3049E+01  0.3435E+01  0.8551E+01  0.8532E+01
     -7.821  0.2725E+02  0.2745E+02  0.9989E+01  0.9981E+01
     -7.769  0.3793E+01  0.3137E+01  0.1019E+02  0.1015E+02
     -7.716  0.2479E+02  0.2555E+02  0.1150E+02  0.1149E+02
     -7.663  0.6394E-01  0.1068E+00  0.1150E+02  0.1150E+02
     -7.610  0.1858E+02  0.1812E+02  0.1248E+02  0.1246E+02
     -7.558  0.1967E+02  0.1995E+02  0.1352E+02  0.1351E+02
     -7.505  0.4184E+02  0.4106E+02  0.1573E+02  0.1568E+02
     -7.452  0.5168E+01  0.6127E+01  0.1600E+02  0.1600E+02
     -7.399  0.1552E+02  0.1439E+02  0.1682E+02  0.1676E+02
     -7.346  0.1295E+02  0.1406E+02  0.1750E+02  0.1750E+02
     -7.294  0.2818E+02  0.2743E+02  0.1899E+02  0.1895E+02
     -7.241  0.3345E+02  0.3238E+02  0.2075E+02  0.2066E+02
     -7.188  0.3662E+02  0.3642E+02  0.2269E+02  0.2258E+02
     -7.135  0.3165E+02  0.3127E+02  0.2436E+02  0.2423E+02
     -7.083  0.2184E+02  0.2356E+02  0.2551E+02  0.2547E+02
     -7.030  0.3698E+02  0.3613E+02  0.2746E+02  0.2738E+02
     -6.977  0.3745E+02  0.3681E+02  0.2944E+02  0.2932E+02
     -6.924  0.3171E+02  0.3311E+02  0.3111E+02  0.3107E+02
     -6.871  0.2837E+02  0.2847E+02  0.3261E+02  0.3257E+02
     -6.819  0.4164E+02  0.4066E+02  0.3481E+02  0.3472E+02
     -6.766  0.3735E+02  0.3728E+02  0.3678E+02  0.3669E+02
     -6.713  0.6573E+02  0.6516E+02  0.4025E+02  0.4013E+02
     -6.660  0.5015E+02  0.5123E+02  0.4289E+02  0.4283E+02
     -6.608  0.1868E+02  0.1847E+02  0.4388E+02  0.4380E+02
     -6.555  0.3503E+02  0.3353E+02  0.4573E+02  0.4557E+02
     -6.502  0.3688E+02  0.3784E+02  0.4767E+02  0.4757E+02
     -6.449  0.5269E+02  0.5389E+02  0.5045E+02  0.5041E+02
     -6.396  0.5608E+02  0.5552E+02  0.5341E+02  0.5334E+02
     -6.344  0.2852E+02  0.2772E+02  0.5492E+02  0.5481E+02
     -6.291  0.3065E+02  0.3055E+02  0.5654E+02  0.5642E+02
     -6.238  0.7790E+02  0.7816E+02  0.6065E+02  0.6054E+02
     -6.185  0.7515E+02  0.7288E+02  0.6461E+02  0.6439E+02
     -6.133  0.4168E+02  0.4482E+02  0.6681E+02  0.6676E+02
     -6.080  0.7841E+02  0.7632E+02  0.7095E+02  0.7078E+02
     -6.027  0.6739E+02  0.6846E+02  0.7451E+02  0.7440E+02
     -5.974  0.6869E+02  0.6843E+02  0.7813E+02  0.7801E+02
     -5.922  0.7111E+02  0.6993E+02  0.8189E+02  0.8170E+02
     -5.869  0.5920E+02  0.5906E+02  0.8501E+02  0.8481E+02
     -5.816  0.6650E+02  0.6705E+02  0.8852E+02  0.8835E+02
     -5.763  0.7874E+02  0.7589E+02  0.9268E+02  0.9236E+02
     -5.710  0.7916E+02  0.8116E+02  0.9685E+02  0.9664E+02
     -5.658  0.9953E+02  0.9802E+02  0.1021E+03  0.1018E+03
     -5.605  0.6729E+02  0.6909E+02  0.1057E+03  0.1055E+03
     -5.552  0.7702E+02  0.7683E+02  0.1097E+03  0.1095E+03
     -5.499  0.7325E+02  0.7439E+02  0.1136E+03  0.1134E+03
     -5.447  0.7677E+02  0.7648E+02  0.1176E+03  0.1175E+03
     -5.394  0.7413E+02  0.7262E+02  0.1216E+03  0.1213E+03
     -5.341  0.7022E+02  0.7018E+02  0.1253E+03  0.1250E+03
     -5.288  0.9415E+02  0.9464E+02  0.1302E+03  0.1300E+03
     -5.235  0.7649E+02  0.7690E+02  0.1343E+03  0.1341E+03
     -5.183  0.5611E+02  0.5654E+02  0.1372E+03  0.1371E+03
     -5.130  0.6951E+02  0.6913E+02  0.1409E+03  0.1407E+03
     -5.077  0.6075E+02  0.6067E+02  0.1441E+03  0.1439E+03
     -5.024  0.7440E+02  0.7479E+02  0.1480E+03  0.1478E+03
     -4.972  0.7852E+02  0.7658E+02  0.1522E+03  0.1519E+03
     -4.919  0.6239E+02  0.6421E+02  0.1555E+03  0.1553E+03
     -4.866  0.7655E+02  0.7624E+02  0.1595E+03  0.1593E+03
     -4.813  0.8698E+02  0.8471E+02  0.1641E+03  0.1638E+03
     -4.760  0.1006E+03  0.1015E+03  0.1694E+03  0.1691E+03
     -4.708  0.1103E+03  0.1088E+03  0.1752E+03  0.1749E+03
     -4.655  0.1191E+03  0.1200E+03  0.1815E+03  0.1812E+03
     -4.602  0.1111E+03  0.1102E+03  0.1874E+03  0.1870E+03
     -4.549  0.9162E+02  0.9022E+02  0.1922E+03  0.1918E+03
     -4.497  0.1196E+03  0.1204E+03  0.1985E+03  0.1981E+03
     -4.444  0.1043E+03  0.1040E+03  0.2040E+03  0.2036E+03
     -4.391  0.1043E+03  0.1039E+03  0.2095E+03  0.2091E+03
     -4.338  0.6641E+02  0.7028E+02  0.2130E+03  0.2128E+03
     -4.286  0.8115E+02  0.7972E+02  0.2173E+03  0.2170E+03
     -4.233  0.7837E+02  0.7711E+02  0.2214E+03  0.2211E+03
     -4.180  0.8161E+02  0.8441E+02  0.2258E+03  0.2256E+03
     -4.127  0.9842E+02  0.9682E+02  0.2309E+03  0.2307E+03
     -4.074  0.5050E+02  0.5257E+02  0.2336E+03  0.2334E+03
     -4.022  0.9213E+02  0.9165E+02  0.2385E+03  0.2383E+03
     -3.969  0.4106E+02  0.4139E+02  0.2406E+03  0.2405E+03
     -3.916  0.4488E+02  0.4560E+02  0.2430E+03  0.2429E+03
     -3.863  0.4241E+02  0.4188E+02  0.2452E+03  0.2451E+03
     -3.811  0.6918E+02  0.6828E+02  0.2489E+03  0.2487E+03
     -3.758  0.5297E+02  0.5146E+02  0.2517E+03  0.2514E+03
     -3.705  0.7694E+02  0.7821E+02  0.2558E+03  0.2555E+03
     -3.652  0.7237E+02  0.7110E+02  0.2596E+03  0.2593E+03
     -3.599  0.6256E+02  0.6286E+02  0.2629E+03  0.2626E+03
     -3.547  0.5368E+02  0.5594E+02  0.2657E+03  0.2655E+03
     -3.494  0.8113E+02  0.8037E+02  0.2700E+03  0.2698E+03
     -3.441  0.7258E+02  0.7278E+02  0.2738E+03  0.2736E+03
     -3.388  0.7172E+02  0.6919E+02  0.2776E+03  0.2773E+03
     -3.336  0.8552E+02  0.8604E+02  0.2821E+03  0.2818E+03
     -3.283  0.7432E+02  0.7438E+02  0.2860E+03  0.2857E+03
     -3.230  0.7238E+02  0.7144E+02  0.2899E+03  0.2895E+03
     -3.177  0.7059E+02  0.7407E+02  0.2936E+03  0.2934E+03
     -3.124  0.7307E+02  0.7004E+02  0.2974E+03  0.2971E+03
     -3.072  0.7567E+02  0.7566E+02  0.3014E+03  0.3011E+03
     -3.019  0.7070E+02  0.7369E+02  0.3052E+03  0.3050E+03
     -2.966  0.7685E+02  0.7582E+02  0.3092E+03  0.3090E+03
     -2.913  0.1061E+03  0.1054E+03  0.3148E+03  0.3146E+03
     -2.861  0.8376E+02  0.8470E+02  0.3192E+03  0.3190E+03
     -2.808  0.9239E+02  0.8858E+02  0.3241E+03  0.3237E+03
     -2.755  0.1102E+03  0.1128E+03  0.3299E+03  0.3297E+03
     -2.702  0.8291E+02  0.8374E+02  0.3343E+03  0.3341E+03
     -2.650  0.9938E+02  0.9786E+02  0.3396E+03  0.3392E+03
     -2.597  0.1084E+03  0.1072E+03  0.3453E+03  0.3449E+03
     -2.544  0.1222E+03  0.1227E+03  0.3517E+03  0.3514E+03
     -2.491  0.1068E+03  0.1069E+03  0.3574E+03  0.3570E+03
     -2.438  0.9993E+02  0.1028E+03  0.3626E+03  0.3624E+03
     -2.386  0.9613E+02  0.9223E+02  0.3677E+03  0.3673E+03
     -2.333  0.9541E+02  0.9768E+02  0.3727E+03  0.3725E+03
     -2.280  0.1098E+03  0.1087E+03  0.3785E+03  0.3782E+03
     -2.227  0.8093E+02  0.8471E+02  0.3828E+03  0.3827E+03
     -2.175  0.3799E+02  0.3965E+02  0.3848E+03  0.3848E+03
     -2.122  0.4344E+02  0.4056E+02  0.3871E+03  0.3869E+03
     -2.069  0.6509E+02  0.6426E+02  0.3905E+03  0.3903E+03
     -2.016  0.8306E+02  0.8106E+02  0.3949E+03  0.3946E+03
     -1.963  0.1020E+03  0.1029E+03  0.4003E+03  0.4000E+03
     -1.911  0.1030E+03  0.1043E+03  0.4057E+03  0.4055E+03
     -1.858  0.6232E+02  0.6311E+02  0.4090E+03  0.4088E+03
     -1.805  0.6824E+02  0.6649E+02  0.4126E+03  0.4123E+03
     -1.752  0.1073E+03  0.1065E+03  0.4183E+03  0.4180E+03
     -1.700  0.9419E+02  0.9562E+02  0.4233E+03  0.4230E+03
     -1.647  0.9671E+02  0.9765E+02  0.4284E+03  0.4282E+03
     -1.594  0.7557E+02  0.7189E+02  0.4324E+03  0.4320E+03
     -1.541  0.8729E+02  0.9258E+02  0.4370E+03  0.4368E+03
     -1.488  0.5714E+02  0.5566E+02  0.4400E+03  0.4398E+03
     -1.436  0.4022E+02  0.4171E+02  0.4421E+03  0.4420E+03
     -1.383  0.8329E+02  0.8211E+02  0.4465E+03  0.4463E+03
     -1.330  0.6640E+02  0.6787E+02  0.4500E+03  0.4499E+03
     -1.277  0.2781E+02  0.2650E+02  0.4515E+03  0.4513E+03
     -1.225  0.6397E+02  0.6306E+02  0.4548E+03  0.4546E+03
     -1.172  0.5108E+02  0.5405E+02  0.4575E+03  0.4575E+03
     -1.119  0.5697E+02  0.5472E+02  0.4605E+03  0.4604E+03
     -1.066  0.4127E+02  0.4135E+02  0.4627E+03  0.4626E+03
     -1.014  0.6119E+02  0.6058E+02  0.4660E+03  0.4657E+03
     -0.961  0.3265E+02  0.3498E+02  0.4677E+03  0.4676E+03
     -0.908  0.4062E+02  0.3916E+02  0.4698E+03  0.4697E+03
     -0.855  0.7550E+02  0.7371E+02  0.4738E+03  0.4736E+03
     -0.802  0.6391E+02  0.6565E+02  0.4772E+03  0.4770E+03
     -0.750  0.4137E+02  0.4067E+02  0.4794E+03  0.4792E+03
     -0.697  0.7886E+02  0.7606E+02  0.4835E+03  0.4832E+03
     -0.644  0.5768E+02  0.6137E+02  0.4866E+03  0.4864E+03
     -0.591  0.3948E+02  0.3969E+02  0.4887E+03  0.4885E+03
     -0.539  0.1934E+02  0.1958E+02  0.4897E+03  0.4895E+03
     -0.486  0.2314E+02  0.2413E+02  0.4909E+03  0.4908E+03
     -0.433  0.2758E+02  0.2791E+02  0.4924E+03  0.4923E+03
     -0.380  0.3413E+02  0.3236E+02  0.4942E+03  0.4940E+03
     -0.327  0.6095E+02  0.6009E+02  0.4974E+03  0.4972E+03
     -0.275  0.6970E+02  0.7121E+02  0.5010E+03  0.5009E+03
     -0.222  0.9557E+02  0.9224E+02  0.5061E+03  0.5058E+03
     -0.169  0.9319E+02  0.9365E+02  0.5110E+03  0.5107E+03
     -0.116  0.1242E+03  0.1244E+03  0.5176E+03  0.5173E+03
     -0.064  0.1072E+03  0.1080E+03  0.5232E+03  0.5230E+03
     -0.011  0.1070E+03  0.1053E+03  0.5289E+03  0.5286E+03
      0.042  0.1371E+03  0.1348E+03  0.5361E+03  0.5357E+03
      0.095  0.1301E+03  0.1323E+03  0.5430E+03  0.5427E+03
      0.148  0.1082E+03  0.1089E+03  0.5487E+03  0.5484E+03
      0.200  0.7809E+02  0.7946E+02  0.5528E+03  0.5526E+03
      0.253  0.7664E+02  0.7944E+02  0.5568E+03  0.5568E+03
      0.306  0.9712E+02  0.9117E+02  0.5620E+03  0.5616E+03
      0.359  0.6979E+02  0.7236E+02  0.5657E+03  0.5654E+03
      0.411  0.1112E+03  0.1093E+03  0.5715E+03  0.5712E+03
      0.464  0.9827E+02  0.1012E+03  0.5767E+03  0.5765E+03
      0.517  0.8971E+02  0.8624E+02  0.5814E+03  0.5811E+03
      0.570  0.1260E+03  0.1280E+03  0.5881E+03  0.5878E+03
      0.622  0.1135E+03  0.1132E+03  0.5941E+03  0.5938E+03
      0.675  0.1330E+03  0.1306E+03  0.6011E+03  0.6007E+03
      0.728  0.1576E+03  0.1591E+03  0.6094E+03  0.6091E+03
      0.781  0.1272E+03  0.1269E+03  0.6161E+03  0.6158E+03
      0.834  0.9885E+02  0.1017E+03  0.6213E+03  0.6212E+03
      0.886  0.1112E+03  0.1081E+03  0.6272E+03  0.6269E+03
      0.939  0.1168E+03  0.1174E+03  0.6334E+03  0.6331E+03
      0.992  0.1083E+03  0.1086E+03  0.6391E+03  0.6388E+03
      1.045  0.1322E+03  0.1281E+03  0.6461E+03  0.6455E+03
      1.097  0.1560E+03  0.1572E+03  0.6543E+03  0.6538E+03
      1.150  0.1680E+03  0.1696E+03  0.6632E+03  0.6628E+03
      1.203  0.1937E+03  0.1903E+03  0.6734E+03  0.6728E+03
      1.256  0.1712E+03  0.1733E+03  0.6824E+03  0.6820E+03
      1.309  0.1786E+03  0.1764E+03  0.6919E+03  0.6913E+03
      1.361  0.1839E+03  0.1854E+03  0.7016E+03  0.7011E+03
      1.414  0.1661E+03  0.1675E+03  0.7103E+03  0.7099E+03
      1.467  0.1355E+03  0.1320E+03  0.7175E+03  0.7169E+03
      1.520  0.2169E+03  0.2196E+03  0.7289E+03  0.7285E+03
      1.572  0.1880E+03  0.1857E+03  0.7388E+03  0.7383E+03
      1.625  0.1888E+03  0.1906E+03  0.7488E+03  0.7483E+03
      1.678  0.1767E+03  0.1756E+03  0.7581E+03  0.7576E+03
      1.731  0.1894E+03  0.1900E+03  0.7681E+03  0.7676E+03
      1.784  0.1853E+03  0.1879E+03  0.7779E+03  0.7775E+03
      1.836  0.1728E+03  0.1707E+03  0.7870E+03  0.7865E+03
      1.889  0.1492E+03  0.1472E+03  0.7949E+03  0.7943E+03
      1.942  0.2032E+03  0.2037E+03  0.8056E+03  0.8051E+03
      1.995  0.1894E+03  0.1890E+03  0.8156E+03  0.8150E+03
      2.047  0.1676E+03  0.1674E+03  0.8245E+03  0.8239E+03
      2.100  0.1980E+03  0.1967E+03  0.8349E+03  0.8343E+03
      2.153  0.2009E+03  0.2021E+03  0.8455E+03  0.8449E+03
      2.206  0.1421E+03  0.1455E+03  0.8530E+03  0.8526E+03
      2.258  0.1543E+03  0.1532E+03  0.8611E+03  0.8607E+03
      2.311  0.1472E+03  0.1451E+03  0.8689E+03  0.8683E+03
      2.364  0.1823E+03  0.1801E+03  0.8785E+03  0.8778E+03
      2.417  0.1890E+03  0.1936E+03  0.8885E+03  0.8881E+03
      2.470  0.1402E+03  0.1388E+03  0.8959E+03  0.8954E+03
      2.522  0.1381E+03  0.1356E+03  0.9032E+03  0.9025E+03
      2.575  0.1342E+03  0.1336E+03  0.9103E+03  0.9096E+03
      2.628  0.1366E+03  0.1386E+03  0.9175E+03  0.9169E+03
      2.681  0.1183E+03  0.1216E+03  0.9237E+03  0.9233E+03
      2.733  0.1653E+03  0.1580E+03  0.9325E+03  0.9317E+03
      2.786  0.1448E+03  0.1553E+03  0.9401E+03  0.9399E+03
      2.839  0.1366E+03  0.1256E+03  0.9473E+03  0.9465E+03
      2.892  0.1514E+03  0.1553E+03  0.9553E+03  0.9547E+03
      2.945  0.1043E+03  0.1056E+03  0.9608E+03  0.9603E+03
      2.997  0.1243E+03  0.1237E+03  0.9674E+03  0.9668E+03
      3.050  0.1215E+03  0.1165E+03  0.9738E+03  0.9729E+03
      3.103  0.1145E+03  0.1208E+03  0.9798E+03  0.9793E+03
      3.156  0.1046E+03  0.1048E+03  0.9853E+03  0.9848E+03
      3.208  0.1210E+03  0.1191E+03  0.9917E+03  0.9911E+03
      3.261  0.1085E+03  0.1067E+03  0.9975E+03  0.9968E+03
      3.314  0.1203E+03  0.1248E+03  0.1004E+04  0.1003E+04
      3.367  0.8742E+02  0.8292E+02  0.1008E+04  0.1008E+04
      3.420  0.5467E+02  0.6085E+02  0.1011E+04  0.1011E+04
      3.472  0.9480E+02  0.9270E+02  0.1016E+04  0.1016E+04
      3.525  0.1042E+03  0.1025E+03  0.1022E+04  0.1021E+04
      3.578  0.7771E+02  0.8249E+02  0.1026E+04  0.1026E+04
      3.631  0.8439E+02  0.8716E+02  0.1030E+04  0.1030E+04
      3.683  0.7108E+02  0.6490E+02  0.1034E+04  0.1034E+04
      3.736  0.5592E+02  0.6317E+02  0.1037E+04  0.1037E+04
      3.789  0.5260E+02  0.4353E+02  0.1040E+04  0.1039E+04
      3.842  0.4871E+02  0.5526E+02  0.1042E+04  0.1042E+04
      3.894  0.3016E+02  0.3495E+02  0.1044E+04  0.1044E+04
      3.947  0.4956E+02  0.4430E+02  0.1047E+04  0.1046E+04
      4.000  0.6436E+02  0.6259E+02  0.1050E+04  0.1050E+04
      4.053  0.8621E+02  0.7450E+02  0.1055E+04  0.1054E+04
      4.106  0.1238E+03  0.1199E+03  0.1061E+04  0.1060E+04
      4.158  0.9104E+02  0.9963E+02  0.1066E+04  0.1065E+04
      4.211  0.8746E+02  0.8901E+02  0.1071E+04  0.1070E+04
      4.264  0.1062E+03  0.1025E+03  0.1076E+04  0.1075E+04
      4.317  0.1003E+03  0.1036E+03  0.1081E+04  0.1081E+04
      4.369  0.1212E+03  0.1162E+03  0.1088E+04  0.1087E+04
      4.422  0.1400E+03  0.1422E+03  0.1095E+04  0.1094E+04
      4.475  0.1202E+03  0.1199E+03  0.1102E+04  0.1101E+04
      4.528  0.1201E+03  0.1282E+03  0.1108E+04  0.1107E+04
      4.581  0.8297E+02  0.8230E+02  0.1112E+04  0.1112E+04
      4.633  0.9913E+02  0.9091E+02  0.1117E+04  0.1117E+04
      4.686  0.1289E+03  0.1335E+03  0.1124E+04  0.1124E+04
      4.739  0.1128E+03  0.1112E+03  0.1130E+04  0.1130E+04
      4.792  0.1172E+03  0.1175E+03  0.1136E+04  0.1136E+04
      4.844  0.1290E+03  0.1324E+03  0.1143E+04  0.1143E+04
      4.897  0.1242E+03  0.1230E+03  0.1150E+04  0.1149E+04
      4.950  0.9977E+02  0.1004E+03  0.1155E+04  0.1154E+04
      5.003  0.1257E+03  0.1272E+03  0.1162E+04  0.1161E+04
      5.056  0.1540E+03  0.1473E+03  0.1170E+04  0.1169E+04
      5.108  0.1182E+03  0.1239E+03  0.1176E+04  0.1176E+04
      5.161  0.1053E+03  0.1040E+03  0.1182E+04  0.1181E+04
      5.214  0.1029E+03  0.1044E+03  0.1187E+04  0.1187E+04
      5.267  0.1054E+03  0.1068E+03  0.1193E+04  0.1192E+04
      5.319  0.1134E+03  0.1096E+03  0.1199E+04  0.1198E+04
      5.372  0.1263E+03  0.1305E+03  0.1205E+04  0.1205E+04
      5.425  0.1423E+03  0.1400E+03  0.1213E+04  0.1212E+04
      5.478  0.1476E+03  0.1464E+03  0.1221E+04  0.1220E+04
      5.530  0.1561E+03  0.1538E+03  0.1229E+04  0.1228E+04
      5.583  0.1527E+03  0.1542E+03  0.1237E+04  0.1236E+04
      5.636  0.1215E+03  0.1270E+03  0.1243E+04  0.1243E+04
      5.689  0.9954E+02  0.9900E+02  0.1249E+04  0.1248E+04
      5.742  0.1309E+03  0.1297E+03  0.1255E+04  0.1255E+04
      5.794  0.1256E+03  0.1249E+03  0.1262E+04  0.1262E+04
      5.847  0.9165E+02  0.9656E+02  0.1267E+04  0.1267E+04
      5.900  0.8338E+02  0.8968E+02  0.1271E+04  0.1271E+04
      5.953  0.1337E+02  0.1165E+02  0.1272E+04  0.1272E+04
      6.005  0.0000E+00  0.0000E+00  0.1272E+04  0.1272E+04
      6.058  0.0000E+00  0.0000E+00  0.1272E+04  0.1272E+04
      6.111  0.0000E+00  0.0000E+00  0.1272E+04  0.1272E+04
      6.164  0.0000E+00  0.0000E+00  0.1272E+04  0.1272E+04
      6.217  0.0000E+00  0.0000E+00  0.1272E+04  0.1272E+04
      6.269  0.0000E+00  0.0000E+00  0.1272E+04  0.1272E+04
      6.322  0.0000E+00  0.0000E+00  0.1272E+04  0.1272E+04
      6.375  0.0000E+00  0.0000E+00  0.1272E+04  0.1272E+04
      6.428  0.0000E+00  0.0000E+00  0.1272E+04  0.1272E+04
      6.480  0.0000E+00  0.0000E+00  0.1272E+04  0.1272E+04
      6.533  0.0000E+00  0.0000E+00  0.1272E+04  0.1272E+04
      6.586  0.0000E+00  0.0000E+00  0.1272E+04  0.1272E+04
      6.639  0.0000E+00  0.0000E+00  0.1272E+04  0.1272E+04
