Si and Ge interface calculation         
           1
    13.303180    0.000000    0.000000
     6.651589   14.873406    0.000000
     0.000000    0.000000    7.994752
   Si   C 
    36    84
Direct configuration=     1
   0.28324950  0.64162475  0.00000005
   0.81658280  0.40829128  0.15190083
   0.34991598  0.17495777  0.30380166
   0.61658275  0.30829138  0.00000006
   0.14991605  0.07495793  0.15190083
   0.68324923  0.84162444  0.30380163
   0.94991612  0.97495806  0.00000004
   0.48324949  0.74162459  0.15190083
   0.01658267  0.50829112  0.30380163
   0.79991627  0.77495801  0.07595029
   0.33324951  0.54162455  0.22785109
   0.86658275  0.30829108  0.37975195
   0.13324969  0.44162476  0.07595030
   0.66658294  0.20829128  0.22785109
   0.19991624  0.97495776  0.37975195
   0.46658289  0.10829154  0.07595030
   0.99991614  0.87495804  0.22785109
   0.53324938  0.64162457  0.37975195
   0.78324956  0.64162475  0.00000000
   0.31658283  0.40829128  0.15190081
   0.84991604  0.17495778  0.30380166
   0.11658280  0.30829140  0.00000006
   0.64991605  0.07495795  0.15190086
   0.18324930  0.84162450  0.30380166
   0.44991612  0.97495806  0.00000006
   0.98324943  0.74162459  0.15190086
   0.51658267  0.50829112  0.30380166
   0.29991618  0.77495813  0.07595030
   0.83324945  0.54162467  0.22785115
   0.36658269  0.30829120  0.37975192
   0.63324940  0.44162473  0.07595032
   0.16658264  0.20829126  0.22785115
   0.69991595  0.97495782  0.37975189
   0.96658272  0.10829155  0.07595030
   0.49991596  0.87495804  0.22785115
   0.03324926  0.64162463  0.37975195
   0.25673318  0.88266706  0.76469648
   0.59959024  0.91123873  0.56517530
   0.92816174  0.89695293  0.66493589
   0.54244733  0.73980999  0.76469648
   0.88530457  0.76838160  0.56517530
   0.21387601  0.75409579  0.66493589
   0.82816160  0.59695286  0.76469648
   0.17101872  0.62552446  0.56517530
   0.49959019  0.61123866  0.66493589
   0.11387598  0.45409566  0.76469648
   0.45673311  0.48266727  0.56517523
   0.78530455  0.46838149  0.66493589
   0.39959028  0.31123853  0.76469648
   0.74244738  0.33981013  0.56517523
   0.07101882  0.32552436  0.66493589
   0.68530452  0.16838141  0.76469648
   0.02816164  0.19695301  0.56517523
   0.35673311  0.18266724  0.66493589
   0.97101891  0.02552426  0.76469654
   0.31387597  0.05409586  0.56517523
   0.64244747  0.03981006  0.66493589
   0.70673299  0.98266709  0.81457668
   0.04959011  0.01123869  0.61505550
   0.37816158  0.99695283  0.71481615
   0.99244726  0.83980995  0.81457668
   0.33530441  0.86838156  0.61505550
   0.66387582  0.85409570  0.71481615
   0.27816153  0.69695282  0.81457681
   0.62101871  0.72552443  0.61505544
   0.94959021  0.71123862  0.71481609
   0.56387591  0.55409574  0.81457668
   0.90673304  0.58266729  0.61505544
   0.23530447  0.56838155  0.71481615
   0.84959030  0.41123861  0.81457681
   0.19244742  0.43981019  0.61505544
   0.52101874  0.42552441  0.71481609
   0.13530445  0.26838142  0.81457681
   0.47816163  0.29695302  0.61505550
   0.80673313  0.28266722  0.71481615
   0.42101887  0.12552428  0.81457668
   0.76387596  0.15409587  0.61505550
   0.09244740  0.13981009  0.71481609
   0.75673306  0.88266712  0.76469648
   0.09959018  0.91123861  0.56517523
   0.42816153  0.89695293  0.66493595
   0.04244757  0.73980999  0.76469654
   0.38530457  0.76838160  0.56517523
   0.71387601  0.75409579  0.66493589
   0.32816186  0.59695286  0.76469654
   0.67101884  0.62552446  0.56517523
   0.99959028  0.61123866  0.66493589
   0.61387598  0.45409572  0.76469654
   0.95673311  0.48266730  0.56517523
   0.28530446  0.46838152  0.66493589
   0.89959013  0.31123865  0.76469654
   0.24244738  0.33981016  0.56517523
   0.57101882  0.32552436  0.66493589
   0.18530464  0.16838144  0.76469654
   0.52816164  0.19695298  0.56517530
   0.85673320  0.18266720  0.66493589
   0.47101882  0.02552438  0.76469654
   0.81387591  0.05409586  0.56517530
   0.14244735  0.03981006  0.66493589
   0.20673311  0.98266721  0.81457668
   0.54959023  0.01123869  0.61505550
   0.87816155  0.99695289  0.71481609
   0.49244741  0.83981001  0.81457668
   0.83530450  0.86838162  0.61505550
   0.16387594  0.85409576  0.71481609
   0.77816164  0.69695282  0.81457668
   0.12101889  0.72552443  0.61505550
   0.44959035  0.71123856  0.71481609
   0.06387579  0.55409574  0.81457663
   0.40673307  0.58266723  0.61505544
   0.73530447  0.56838149  0.71481609
   0.34959033  0.41123855  0.81457668
   0.69244748  0.43981013  0.61505544
   0.02101886  0.42552435  0.71481609
   0.63530433  0.26838139  0.81457668
   0.97816157  0.29695299  0.61505544
   0.30673292  0.28266722  0.71481609
   0.92101872  0.12552436  0.81457668
   0.26387596  0.15409586  0.61505550
   0.59244728  0.13981009  0.71481615
