<?xml version="1.0" encoding="ISO-8859-1"?>
<modeling>
 <generator>
  <i name="program" type="string">vasp </i>
  <i name="version" type="string">6.4.3  </i>
  <i name="subversion" type="string">19Mar24 (build Oct 22 2024 11:23:12) complex                          parallel </i>
  <i name="platform" type="string">LinuxIFC </i>
  <i name="date" type="string">2025 04 30 </i>
  <i name="time" type="string">08:47:48 </i>
 </generator>
 <incar>
  <i type="string" name="SYSTEM">Si001 and Ge011 interface calculation</i>
  <i type="int" name="ISTART">     0</i>
  <i type="logical" name="ADDGRID"> T  </i>
  <i type="int" name="ISPIN">     2</i>
  <i name="AMIX">      0.60000000</i>
  <i type="int" name="ICHARG">     2</i>
  <i type="int" name="NELM">   100</i>
  <i name="EDIFF">      0.00000010</i>
  <i name="ENCUT">    700.00000000</i>
  <i name="ENAUG">    900.00000000</i>
  <i type="int" name="NBANDS">   274</i>
  <i name="NUPDOWN">      1.00000000</i>
  <i name="NELECT">    456.00000000</i>
  <i type="string" name="LREAL">AUTO</i>
  <i type="int" name="ISMEAR">     0</i>
  <i name="SIGMA">      0.01000000</i>
  <i type="int" name="LMAXMIX">     6</i>
  <i type="logical" name="LWAVE"> F  </i>
  <i type="logical" name="LVTOT"> F  </i>
  <i type="logical" name="LVHAR"> T  </i>
  <i type="logical" name="LASPH"> T  </i>
  <i type="logical" name="LMIXTAU"> T  </i>
 </incar>
 <primitive_cell>
  <structure name="primitive_cell" >
   <crystal>
    <varray name="basis" >
     <v>       5.48000000       0.00000000       0.00000000 </v>
     <v>       0.00000000      16.44000000       0.00000000 </v>
     <v>       0.00000000       0.00000000      27.70556095 </v>
    </varray>
    <i name="volume">   2496.02723302 </i>
    <varray name="rec_basis" >
     <v>       0.18248175       0.00000000       0.00000000 </v>
     <v>       0.00000000       0.06082725       0.00000000 </v>
     <v>       0.00000000       0.00000000       0.03609384 </v>
    </varray>
   </crystal>
   <varray name="positions" >
    <v>       0.25000000       0.00000000       0.04944856 </v>
    <v>       0.75000000       0.00000000       0.14834567 </v>
    <v>       0.25000000       0.00000000       0.24724278 </v>
    <v>       0.75000000       0.00000000       0.34613990 </v>
    <v>       0.25000000       0.00000000       0.44503701 </v>
    <v>       0.25000000       0.33333333       0.04944856 </v>
    <v>       0.75000000       0.33333333       0.14834567 </v>
    <v>       0.25000000       0.33333333       0.24724278 </v>
    <v>       0.75000000       0.33333333       0.34613990 </v>
    <v>       0.25000000       0.33333333       0.44503701 </v>
    <v>       0.25000000       0.66666667       0.04944856 </v>
    <v>       0.75000000       0.66666667       0.14834567 </v>
    <v>       0.25000000       0.66666667       0.24724278 </v>
    <v>       0.75000000       0.66666667       0.34613990 </v>
    <v>       0.25000000       0.66666667       0.44503701 </v>
    <v>       0.75000000       0.16666667       0.04944856 </v>
    <v>       0.25000000       0.16666667       0.14834567 </v>
    <v>       0.75000000       0.16666667       0.24724278 </v>
    <v>       0.25000000       0.16666667       0.34613990 </v>
    <v>       0.75000000       0.16666667       0.44503701 </v>
    <v>       0.75000000       0.50000000       0.04944856 </v>
    <v>       0.25000000       0.50000000       0.14834567 </v>
    <v>       0.75000000       0.50000000       0.24724278 </v>
    <v>       0.25000000       0.50000000       0.34613990 </v>
    <v>       0.75000000       0.50000000       0.44503701 </v>
    <v>       0.75000000       0.83333333       0.04944856 </v>
    <v>       0.25000000       0.83333333       0.14834567 </v>
    <v>       0.75000000       0.83333333       0.24724278 </v>
    <v>       0.25000000       0.83333333       0.34613990 </v>
    <v>       0.75000000       0.83333333       0.44503701 </v>
    <v>       0.00000000       0.08333333       0.00000000 </v>
    <v>       0.50000000       0.08333333       0.09889711 </v>
    <v>       0.00000000       0.08333333       0.19779423 </v>
    <v>       0.50000000       0.08333333       0.29669134 </v>
    <v>       0.00000000       0.08333333       0.39558845 </v>
    <v>       0.50000000       0.08333333       0.49448557 </v>
    <v>       0.00000000       0.41666667       0.00000000 </v>
    <v>       0.50000000       0.41666667       0.09889711 </v>
    <v>       0.00000000       0.41666667       0.19779423 </v>
    <v>       0.50000000       0.41666667       0.29669134 </v>
    <v>       0.00000000       0.41666667       0.39558845 </v>
    <v>       0.50000000       0.41666667       0.49448557 </v>
    <v>       0.00000000       0.75000000       0.00000000 </v>
    <v>       0.50000000       0.75000000       0.09889711 </v>
    <v>       0.00000000       0.75000000       0.19779423 </v>
    <v>       0.50000000       0.75000000       0.29669134 </v>
    <v>       0.00000000       0.75000000       0.39558845 </v>
    <v>       0.50000000       0.75000000       0.49448557 </v>
    <v>       0.50000000       0.25000000       0.00000000 </v>
    <v>       0.00000000       0.25000000       0.09889711 </v>
    <v>       0.50000000       0.25000000       0.19779423 </v>
    <v>       0.00000000       0.25000000       0.29669134 </v>
    <v>       0.50000000       0.25000000       0.39558845 </v>
    <v>       0.00000000       0.25000000       0.49448557 </v>
    <v>       0.50000000       0.58333333       0.00000000 </v>
    <v>       0.00000000       0.58333333       0.09889711 </v>
    <v>       0.50000000       0.58333333       0.19779423 </v>
    <v>       0.00000000       0.58333333       0.29669134 </v>
    <v>       0.50000000       0.58333333       0.39558845 </v>
    <v>       0.00000000       0.58333333       0.49448557 </v>
    <v>       0.50000000       0.91666667       0.00000000 </v>
    <v>       0.00000000       0.91666667       0.09889711 </v>
    <v>       0.50000000       0.91666667       0.19779423 </v>
    <v>       0.00000000       0.91666667       0.29669134 </v>
    <v>       0.50000000       0.91666667       0.39558845 </v>
    <v>       0.00000000       0.91666667       0.49448557 </v>
    <v>       0.00000000       0.00000000       0.56667324 </v>
    <v>       0.50000000       0.62500000       0.63890106 </v>
    <v>       0.00000000       0.25000000       0.71112887 </v>
    <v>       0.50000000       0.87500000       0.78335669 </v>
    <v>       0.00000000       0.50000000       0.85558451 </v>
    <v>       0.50000000       0.12500000       0.92781233 </v>
    <v>       0.00000000       0.50000000       0.56667324 </v>
    <v>       0.50000000       0.12500000       0.63890106 </v>
    <v>       0.00000000       0.75000000       0.71112887 </v>
    <v>       0.50000000       0.37500000       0.78335669 </v>
    <v>       0.00000000       0.00000000       0.85558451 </v>
    <v>       0.50000000       0.62500000       0.92781233 </v>
    <v>       0.00000000       0.25000000       0.56667324 </v>
    <v>       0.50000000       0.87500000       0.63890106 </v>
    <v>       0.00000000       0.50000000       0.71112887 </v>
    <v>       0.50000000       0.12500000       0.78335669 </v>
    <v>       0.00000000       0.75000000       0.85558451 </v>
    <v>       0.50000000       0.37500000       0.92781233 </v>
    <v>       0.00000000       0.75000000       0.56667324 </v>
    <v>       0.50000000       0.37500000       0.63890106 </v>
    <v>       0.00000000       0.00000000       0.71112887 </v>
    <v>       0.50000000       0.62500000       0.78335669 </v>
    <v>       0.00000000       0.25000000       0.85558451 </v>
    <v>       0.50000000       0.87500000       0.92781233 </v>
    <v>       0.75000000       0.37500000       0.56667324 </v>
    <v>       0.25000000       0.00000000       0.63890106 </v>
    <v>       0.75000000       0.62500000       0.71112887 </v>
    <v>       0.25000000       0.25000000       0.78335669 </v>
    <v>       0.75000000       0.87500000       0.85558451 </v>
    <v>       0.25000000       0.50000000       0.92781233 </v>
    <v>       0.75000000       0.87500000       0.56667324 </v>
    <v>       0.25000000       0.50000000       0.63890106 </v>
    <v>       0.75000000       0.12500000       0.71112887 </v>
    <v>       0.25000000       0.75000000       0.78335669 </v>
    <v>       0.75000000       0.37500000       0.85558451 </v>
    <v>       0.25000000       0.00000000       0.92781233 </v>
    <v>       0.75000000       0.12500000       0.56667324 </v>
    <v>       0.25000000       0.75000000       0.63890106 </v>
    <v>       0.75000000       0.37500000       0.71112887 </v>
    <v>       0.25000000       0.00000000       0.78335669 </v>
    <v>       0.75000000       0.62500000       0.85558451 </v>
    <v>       0.25000000       0.25000000       0.92781233 </v>
    <v>       0.75000000       0.62500000       0.56667324 </v>
    <v>       0.25000000       0.25000000       0.63890106 </v>
    <v>       0.75000000       0.87500000       0.71112887 </v>
    <v>       0.25000000       0.50000000       0.78335669 </v>
    <v>       0.75000000       0.12500000       0.85558451 </v>
    <v>       0.25000000       0.75000000       0.92781233 </v>
   </varray>
  </structure>
  <varray name="primitive_index" >
   <v type="int" >        1 </v>
   <v type="int" >        2 </v>
   <v type="int" >        3 </v>
   <v type="int" >        4 </v>
   <v type="int" >        5 </v>
   <v type="int" >        6 </v>
   <v type="int" >        7 </v>
   <v type="int" >        8 </v>
   <v type="int" >        9 </v>
   <v type="int" >       10 </v>
   <v type="int" >       11 </v>
   <v type="int" >       12 </v>
   <v type="int" >       13 </v>
   <v type="int" >       14 </v>
   <v type="int" >       15 </v>
   <v type="int" >       16 </v>
   <v type="int" >       17 </v>
   <v type="int" >       18 </v>
   <v type="int" >       19 </v>
   <v type="int" >       20 </v>
   <v type="int" >       21 </v>
   <v type="int" >       22 </v>
   <v type="int" >       23 </v>
   <v type="int" >       24 </v>
   <v type="int" >       25 </v>
   <v type="int" >       26 </v>
   <v type="int" >       27 </v>
   <v type="int" >       28 </v>
   <v type="int" >       29 </v>
   <v type="int" >       30 </v>
   <v type="int" >       31 </v>
   <v type="int" >       32 </v>
   <v type="int" >       33 </v>
   <v type="int" >       34 </v>
   <v type="int" >       35 </v>
   <v type="int" >       36 </v>
   <v type="int" >       37 </v>
   <v type="int" >       38 </v>
   <v type="int" >       39 </v>
   <v type="int" >       40 </v>
   <v type="int" >       41 </v>
   <v type="int" >       42 </v>
   <v type="int" >       43 </v>
   <v type="int" >       44 </v>
   <v type="int" >       45 </v>
   <v type="int" >       46 </v>
   <v type="int" >       47 </v>
   <v type="int" >       48 </v>
   <v type="int" >       49 </v>
   <v type="int" >       50 </v>
   <v type="int" >       51 </v>
   <v type="int" >       52 </v>
   <v type="int" >       53 </v>
   <v type="int" >       54 </v>
   <v type="int" >       55 </v>
   <v type="int" >       56 </v>
   <v type="int" >       57 </v>
   <v type="int" >       58 </v>
   <v type="int" >       59 </v>
   <v type="int" >       60 </v>
   <v type="int" >       61 </v>
   <v type="int" >       62 </v>
   <v type="int" >       63 </v>
   <v type="int" >       64 </v>
   <v type="int" >       65 </v>
   <v type="int" >       66 </v>
   <v type="int" >       67 </v>
   <v type="int" >       68 </v>
   <v type="int" >       69 </v>
   <v type="int" >       70 </v>
   <v type="int" >       71 </v>
   <v type="int" >       72 </v>
   <v type="int" >       73 </v>
   <v type="int" >       74 </v>
   <v type="int" >       75 </v>
   <v type="int" >       76 </v>
   <v type="int" >       77 </v>
   <v type="int" >       78 </v>
   <v type="int" >       79 </v>
   <v type="int" >       80 </v>
   <v type="int" >       81 </v>
   <v type="int" >       82 </v>
   <v type="int" >       83 </v>
   <v type="int" >       84 </v>
   <v type="int" >       85 </v>
   <v type="int" >       86 </v>
   <v type="int" >       87 </v>
   <v type="int" >       88 </v>
   <v type="int" >       89 </v>
   <v type="int" >       90 </v>
   <v type="int" >       91 </v>
   <v type="int" >       92 </v>
   <v type="int" >       93 </v>
   <v type="int" >       94 </v>
   <v type="int" >       95 </v>
   <v type="int" >       96 </v>
   <v type="int" >       97 </v>
   <v type="int" >       98 </v>
   <v type="int" >       99 </v>
   <v type="int" >      100 </v>
   <v type="int" >      101 </v>
   <v type="int" >      102 </v>
   <v type="int" >      103 </v>
   <v type="int" >      104 </v>
   <v type="int" >      105 </v>
   <v type="int" >      106 </v>
   <v type="int" >      107 </v>
   <v type="int" >      108 </v>
   <v type="int" >      109 </v>
   <v type="int" >      110 </v>
   <v type="int" >      111 </v>
   <v type="int" >      112 </v>
   <v type="int" >      113 </v>
   <v type="int" >      114 </v>
  </varray>
 </primitive_cell>
 <kpoints>
  <generation param="Gamma">
   <v type="int" name="divisions">       6        2        1 </v>
   <v name="usershift">      0.00000000       0.00000000       0.00000000 </v>
   <v name="genvec1">      0.16666667       0.00000000       0.00000000 </v>
   <v name="genvec2">      0.00000000       0.50000000       0.00000000 </v>
   <v name="genvec3">      0.00000000       0.00000000       1.00000000 </v>
   <v name="shift">      0.00000000       0.00000000       0.00000000 </v>
  </generation>
  <varray name="kpointlist" >
   <v>       0.00000000       0.00000000       0.00000000 </v>
   <v>       0.16666667       0.00000000       0.00000000 </v>
   <v>       0.33333333       0.00000000       0.00000000 </v>
   <v>       0.50000000       0.00000000       0.00000000 </v>
   <v>       0.00000000       0.50000000       0.00000000 </v>
   <v>       0.16666667       0.50000000       0.00000000 </v>
   <v>       0.33333333       0.50000000       0.00000000 </v>
   <v>       0.50000000       0.50000000       0.00000000 </v>
  </varray>
  <varray name="weights" >
   <v>       0.08333333 </v>
   <v>       0.16666667 </v>
   <v>       0.16666667 </v>
   <v>       0.08333333 </v>
   <v>       0.08333333 </v>
   <v>       0.16666667 </v>
   <v>       0.16666667 </v>
   <v>       0.08333333 </v>
  </varray>
 </kpoints>
 <parameters>
  <separator name="general" >
   <i type="string" name="SYSTEM">Si001 and Ge011 interface calculation</i>
   <i type="logical" name="LCOMPAT"> F  </i>
  </separator>
  <separator name="electronic" >
   <i type="string" name="PREC">normal</i>
   <i name="ENMAX">    700.00000000</i>
   <i name="ENAUG">    900.00000000</i>
   <i name="EDIFF">      0.00000010</i>
   <i type="int" name="IALGO">    38</i>
   <i type="int" name="IWAVPR">    10</i>
   <i type="int" name="NBANDS">   274</i>
   <i type="int" name="NBANDSLOW">    -1</i>
   <i type="int" name="NBANDSHIGH">    -1</i>
   <i name="NELECT">    456.00000000</i>
   <i type="int" name="TURBO">     0</i>
   <i type="int" name="IRESTART">     0</i>
   <i type="int" name="NREBOOT">     0</i>
   <i type="int" name="NMIN">     0</i>
   <i name="EREF">      0.00000000</i>
   <separator name="electronic smearing" >
    <i type="int" name="ISMEAR">     0</i>
    <i name="SIGMA">      0.01000000</i>
    <i name="KSPACING">      0.50000000</i>
    <i type="logical" name="KGAMMA"> T  </i>
    <i type="logical" name="KBLOWUP"> T  </i>
   </separator>
   <separator name="electronic projectors" >
    <i type="logical" name="LREAL"> T  </i>
    <v name="ROPT">     -0.00050000     -0.00050000</v>
    <i type="int" name="LMAXPAW">  -100</i>
    <i type="int" name="LMAXMIX">     6</i>
    <i type="logical" name="NLSPLINE"> F  </i>
   </separator>
   <separator name="electronic startup" >
    <i type="int" name="ISTART">     0</i>
    <i type="int" name="ICHARG">     2</i>
    <i type="int" name="INIWAV">     1</i>
   </separator>
   <separator name="electronic spin" >
    <i type="int" name="ISPIN">     2</i>
    <i type="logical" name="LNONCOLLINEAR"> F  </i>
    <v name="MAGMOM">      0.00877193      0.00877193      0.00877193      0.00877193      0.00877193      0.00877193      0.00877193      0.00877193      0.00877193      0.00877193      0.00877193      0.00877193      0.00877193      0.00877193      0.00877193      0.00877193      0.00877193      0.00877193      0.00877193      0.00877193
      0.00877193      0.00877193      0.00877193      0.00877193      0.00877193      0.00877193      0.00877193      0.00877193      0.00877193      0.00877193      0.00877193      0.00877193      0.00877193      0.00877193      0.00877193      0.00877193      0.00877193      0.00877193      0.00877193      0.00877193
      0.00877193      0.00877193      0.00877193      0.00877193      0.00877193      0.00877193      0.00877193      0.00877193      0.00877193      0.00877193      0.00877193      0.00877193      0.00877193      0.00877193      0.00877193      0.00877193      0.00877193      0.00877193      0.00877193      0.00877193
      0.00877193      0.00877193      0.00877193      0.00877193      0.00877193      0.00877193      0.00877193      0.00877193      0.00877193      0.00877193      0.00877193      0.00877193      0.00877193      0.00877193      0.00877193      0.00877193      0.00877193      0.00877193      0.00877193      0.00877193
      0.00877193      0.00877193      0.00877193      0.00877193      0.00877193      0.00877193      0.00877193      0.00877193      0.00877193      0.00877193      0.00877193      0.00877193      0.00877193      0.00877193      0.00877193      0.00877193      0.00877193      0.00877193      0.00877193      0.00877193
      0.00877193      0.00877193      0.00877193      0.00877193      0.00877193      0.00877193      0.00877193      0.00877193      0.00877193      0.00877193      0.00877193      0.00877193      0.00877193      0.00877193</v>
    <i name="NUPDOWN">      1.00000000</i>
    <i type="logical" name="LSORBIT"> F  </i>
    <v name="SAXIS">      0.00000000      0.00000000      1.00000000</v>
    <i type="logical" name="LSPIRAL"> F  </i>
    <v name="QSPIRAL">      0.00000000      0.00000000      0.00000000</v>
    <i type="logical" name="LZEROZ"> F  </i>
   </separator>
   <separator name="electronic exchange-correlation" >
    <i type="logical" name="LASPH"> T  </i>
   </separator>
   <separator name="electronic convergence" >
    <i type="int" name="NELM">   100</i>
    <i type="int" name="NELMDL">    -5</i>
    <i type="int" name="NELMIN">     2</i>
    <i name="ENINI">    700.00000000</i>
    <separator name="electronic convergence detail" >
     <i type="logical" name="LDIAG"> T  </i>
     <i type="logical" name="LSUBROT"> F  </i>
     <i name="WEIMIN">      0.00000000</i>
     <i name="EBREAK">      0.00000000</i>
     <i name="DEPER">      0.30000000</i>
     <i type="int" name="NRMM">     4</i>
     <i name="TIME">      0.40000000</i>
    </separator>
   </separator>
   <separator name="electronic mixer" >
    <i name="AMIX">      0.60000000</i>
    <i name="BMIX">      1.00000000</i>
    <i name="AMIN">      0.10000000</i>
    <i name="AMIX_MAG">      2.40000000</i>
    <i name="BMIX_MAG">      1.00000000</i>
    <separator name="electronic mixer details" >
     <i type="int" name="IMIX">     4</i>
     <i type="logical" name="MIXFIRST"> F  </i>
     <i type="int" name="MAXMIX">   -45</i>
     <i name="WC">    100.00000000</i>
     <i type="int" name="INIMIX">     1</i>
     <i type="int" name="MIXPRE">     1</i>
     <i type="int" name="MREMOVE">     5</i>
    </separator>
   </separator>
   <separator name="electronic dipolcorrection" >
    <i type="logical" name="LDIPOL"> F  </i>
    <i type="logical" name="LMONO"> F  </i>
    <i type="int" name="IDIPOL">     0</i>
    <i name="EPSILON">      1.00000000</i>
    <v name="DIPOL">   -100.00000000   -100.00000000   -100.00000000</v>
    <i name="EFIELD">      0.00000000</i>
    <i type="logical" name="LVACPOTAV"> F  </i>
   </separator>
  </separator>
  <separator name="grids" >
   <i type="int" name="NGX">    36</i>
   <i type="int" name="NGY">   108</i>
   <i type="int" name="NGZ">   180</i>
   <i type="int" name="NGXF">    72</i>
   <i type="int" name="NGYF">   216</i>
   <i type="int" name="NGZF">   360</i>
   <i type="logical" name="ADDGRID"> T  </i>
  </separator>
  <separator name="ionic" >
   <i type="int" name="NSW">     0</i>
   <i type="int" name="IBRION">    -1</i>
   <i type="int" name="MDALGO">     0</i>
   <i type="int" name="ISIF">     2</i>
   <i name="PSTRESS">      0.00000000</i>
   <i name="EDIFFG">      0.00000100</i>
   <i type="int" name="NFREE">     0</i>
   <i name="POTIM">      0.50000000</i>
   <i name="SMASS">     -3.00000000</i>
   <i name="SCALEE">      1.00000000</i>
  </separator>
  <separator name="ionic md" >
   <i name="TEBEG">      0.00010000</i>
   <i name="TEEND">      0.00010000</i>
   <i type="int" name="NBLOCK">     1</i>
   <i type="int" name="KBLOCK">     1</i>
   <i type="int" name="NPACO">   256</i>
   <i name="APACO">     10.00000000</i>
  </separator>
  <separator name="symmetry" >
   <i type="int" name="ISYM">     2</i>
   <i name="SYMPREC">      0.00001000</i>
  </separator>
  <separator name="dos" >
   <i type="int" name="LORBIT">     0</i>
   <v name="RWIGS">     -1.00000000     -1.00000000</v>
   <i type="int" name="NEDOS">   301</i>
   <i name="EMIN">     10.00000000</i>
   <i name="EMAX">    -10.00000000</i>
   <i name="EFERMI">      0.00000000</i>
  </separator>
  <separator name="writing" >
   <i type="int" name="NWRITE">     2</i>
   <i type="logical" name="LWAVE"> F  </i>
   <i type="logical" name="LDOWNSAMPLE"> F  </i>
   <i type="logical" name="LCHARG"> T  </i>
   <i type="logical" name="LPARD"> F  </i>
   <i type="logical" name="LVTOT"> F  </i>
   <i type="logical" name="LVHAR"> T  </i>
   <i type="logical" name="LELF"> F  </i>
   <i type="logical" name="LOPTICS"> F  </i>
   <v name="STM">      0.00000000      0.00000000      0.00000000      0.00000000      0.00000000      0.00000000      0.00000000</v>
  </separator>
  <separator name="performance" >
   <i type="int" name="NPAR">     1</i>
   <i type="int" name="NSIM">     4</i>
   <i type="int" name="NBLK">    -1</i>
   <i type="logical" name="LPLANE"> T  </i>
   <i type="logical" name="LSCALAPACK"> T  </i>
   <i type="logical" name="LSCAAWARE"> F  </i>
   <i type="logical" name="LSCALU"> F  </i>
   <i type="logical" name="LASYNC"> F  </i>
   <i type="logical" name="LORBITALREAL"> F  </i>
  </separator>
  <separator name="miscellaneous" >
   <i type="int" name="IDIOT">     3</i>
   <i type="int" name="PHON_NSTRUCT">    -1</i>
   <i type="logical" name="LMUSIC"> F  </i>
   <v name="POMASS">     28.08500000     72.61000000</v>
   <v name="DARWINR">      0.00000000      0.00000000</v>
   <v name="DARWINV">      1.00000000      1.00000000</v>
   <i type="logical" name="LCORR"> T  </i>
  </separator>
  <i type="logical" name="GGA_COMPAT"> T  </i>
  <i type="logical" name="LBERRY"> F  </i>
  <i type="int" name="ICORELEVEL">     0</i>
  <i type="logical" name="LDAU"> F  </i>
  <i type="int" name="I_CONSTRAINED_M">     0</i>
  <separator name="electronic exchange-correlation" >
   <i type="string" name="GGA    ">PE</i>
   <i type="string" name="XC_C">1</i>
   <i type="int" name="VOSKOWN">     0</i>
   <i type="logical" name="LHFCALC"> F  </i>
   <i type="string" name="PRECFOCK"></i>
   <i type="logical" name="LSYMGRAD"> F  </i>
   <i type="logical" name="LHFONE"> F  </i>
   <i type="logical" name="LRHFCALC"> F  </i>
   <i type="logical" name="LTHOMAS"> F  </i>
   <i type="logical" name="LMODELHF"> F  </i>
   <i type="logical" name="LFOCKACE"> F  </i>
   <i name="ENCUT4O">     -1.00000000</i>
   <i type="int" name="EXXOEP">     0</i>
   <i type="int" name="FOURORBIT">     0</i>
   <i name="AEXX">      0.00000000</i>
   <i name="HFALPHA">      0.00000000</i>
   <i name="MCALPHA">      0.00000000</i>
   <i name="ALDAX">      1.00000000</i>
   <i name="AGGAX">      1.00000000</i>
   <i name="AMGGAX">      1.00000000</i>
   <i name="ALDAC">      1.00000000</i>
   <i name="AGGAC">      1.00000000</i>
   <i name="AMGGAC">      1.00000000</i>
   <i type="int" name="NKREDX">     1</i>
   <i type="int" name="NKREDY">     1</i>
   <i type="int" name="NKREDZ">     1</i>
   <i type="logical" name="SHIFTRED"> F  </i>
   <i type="logical" name="ODDONLY"> F  </i>
   <i type="logical" name="EVENONLY"> F  </i>
   <i type="int" name="LMAXFOCK">     0</i>
   <i type="int" name="NMAXFOCKAE">     0</i>
   <i type="logical" name="LFOCKAEDFT"> F  </i>
   <i name="HFSCREEN">      0.00000000</i>
   <i name="HFSCREENC">      0.00000000</i>
   <i type="int" name="NBANDSGWLOW">     0</i>
  </separator>
  <separator name="vdW DFT" >
   <i type="logical" name="LUSE_VDW"> F  </i>
   <i type="int" name="IVDW_NL">    -1</i>
   <i type="logical" name="LSPIN_VDW"> F  </i>
   <i name="ZAB_VDW">     -0.84910000</i>
   <i name="GAMMA_VDW">      1.39626340</i>
   <i name="ALPHA_VDW">      0.00000000</i>
   <i name="PARAM1">      0.12340000</i>
   <i name="PARAM2">      1.00000000</i>
   <i name="BPARAM">      6.30000000</i>
   <i name="CPARAM">      0.00930000</i>
  </separator>
  <separator name="model GW" >
   <i type="int" name="MODEL_GW">     0</i>
   <i name="MODEL_EPS0">     13.13698544</i>
   <i name="MODEL_ALPHA">      1.00000000</i>
  </separator>
  <separator name="linear response parameters" >
   <i type="logical" name="LEPSILON"> F  </i>
   <i type="logical" name="LRPA"> F  </i>
   <i type="logical" name="LNABLA"> F  </i>
   <i type="logical" name="LVEL"> F  </i>
   <i name="CSHIFT">      0.10000000</i>
   <i name="OMEGAMAX">     -1.00000000</i>
   <i name="DEG_THRESHOLD">      0.00200000</i>
   <i name="RTIME">     -0.10000000</i>
   <i name="WPLASMAI">      0.00000000</i>
   <v name="DFIELD">      0.00000000      0.00000000      0.00000000</v>
   <v name="WPLASMA">      0.00000000      0.00000000      0.00000000      0.00000000      0.00000000      0.00000000      0.00000000      0.00000000      0.00000000</v>
  </separator>
  <separator name="orbital magnetization" >
   <i type="logical" name="NUCIND"> F  </i>
   <v name="MAGPOS">      0.00000000      0.00000000      0.00000000</v>
   <i type="logical" name="LNICSALL"> T  </i>
   <i type="logical" name="ORBITALMAG"> F  </i>
   <i type="logical" name="LMAGBLOCH"> F  </i>
   <i type="logical" name="LCHIMAG"> F  </i>
   <i type="logical" name="LGAUGE"> T  </i>
   <i type="int" name="MAGATOM">     0</i>
   <v name="MAGDIPOL">      0.00000000      0.00000000      0.00000000</v>
   <v name="AVECCONST">      0.00000000      0.00000000      0.00000000</v>
  </separator>
  <separator name="response functions" >
   <i type="logical" name="LALL_IN_ONE"> F  </i>
   <i type="int" name="IALL_IN_ONE">    -1</i>
   <i type="int" name="NBANDS_WAVE">    -1</i>
   <i type="logical" name="LFINITE_TEMPERATURE"> F  </i>
   <i type="logical" name="LADDER"> F  </i>
   <i type="logical" name="LRPAFORCE"> F  </i>
   <i type="logical" name="LFXC"> F  </i>
   <i type="logical" name="LHARTREE"> T  </i>
   <i type="int" name="IBSE">     0</i>
   <v type="int" name="KPOINT">    -1     0     0     0</v>
   <i type="logical" name="LTCTC"> F  </i>
   <i type="logical" name="LTCTE"> F  </i>
   <i type="logical" name="LTETE"> F  </i>
   <i type="logical" name="LTRIPLET"> F  </i>
   <i type="logical" name="LFXCEPS"> F  </i>
   <i type="logical" name="LFXHEG"> F  </i>
   <i type="int" name="NATURALO">     2</i>
   <i type="logical" name="LHOLEGF"> F  </i>
   <i type="logical" name="L2ORDER"> F  </i>
   <i type="logical" name="LDMP1"> F  </i>
   <i type="logical" name="LMP2LT"> F  </i>
   <i type="logical" name="LSMP2LT"> F  </i>
   <i type="logical" name="LGWLF"> F  </i>
   <i name="ENCUTGW">     -1.60000002</i>
   <i name="ENCUTGWSOFT">     -1.60000002</i>
   <i name="ENCUTLF">     -1.00000000</i>
   <i type="logical" name="ESF_SPLINES"> F  </i>
   <i name="ESF_CONV">      0.01000000</i>
   <i type="int" name="ESF_NINTER">    15</i>
   <i type="int" name="LMAXMP2">    -1</i>
   <i name="SCISSOR">      0.00000000</i>
   <i type="int" name="NOMEGA">     0</i>
   <i type="int" name="NOMEGAR">     0</i>
   <i type="int" name="NBANDSGW">    -1</i>
   <i type="int" name="NBANDSO">    -1</i>
   <i type="int" name="NBANDSV">    -1</i>
   <i type="int" name="NELMGW">     1</i>
   <i type="int" name="NELMHF">     1</i>
   <i type="int" name="DIM">     3</i>
   <i type="int" name="IESPILON">     4</i>
   <i type="int" name="ANTIRES">     0</i>
   <i name="OMEGAMAX">    -30.00000000</i>
   <i name="OMEGAMIN">    -30.00000000</i>
   <i name="OMEGATL">   -200.00000000</i>
   <i type="int" name="OMEGAGRID">     0</i>
   <i name="CSHIFT">     -0.10000000</i>
   <i type="logical" name="LSELFENERGY"> F  </i>
   <i type="logical" name="LSPECTRAL"> F  </i>
   <i type="logical" name="LSPECTRALGW"> F  </i>
   <i type="logical" name="LSINGLES"> F  </i>
   <i type="logical" name="LFERMIGW"> F  </i>
   <i type="logical" name="ODDONLYGW"> F  </i>
   <i type="logical" name="EVENONLYGW"> F  </i>
   <i type="int" name="NKREDLFX">     1</i>
   <i type="int" name="NKREDLFY">     1</i>
   <i type="int" name="NKREDLFZ">     1</i>
   <i type="int" name="MAXMEM">  2800</i>
   <i type="int" name="TELESCOPE">     0</i>
   <i type="int" name="NTAUPAR">    -1</i>
   <i type="int" name="NOMEGAPAR">    -1</i>
   <i name="DAMP_NEWTON">      0.80000001</i>
   <i name="LAMBDA">      1.00000000</i>
  </separator>
  <separator name="External order field" >
   <i name="OFIELD_KAPPA">      0.00000000</i>
   <v name="OFIELD_K">      0.00000000      0.00000000      0.00000000</v>
   <i name="OFIELD_Q6_NEAR">      0.00000000</i>
   <i name="OFIELD_Q6_FAR">      0.00000000</i>
   <i name="OFIELD_A">      0.00000000</i>
  </separator>
  <separator name="optional k-points parameters" >
   <i type="int" name="KPOINTS_OPT_MODE">     1</i>
   <i type="logical" name="LKPOINTS_OPT"> F  </i>
  </separator>
 </parameters>
 <atominfo>
  <atoms>     114 </atoms>
  <types>       2 </types>
  <array name="atoms" >
   <dimension dim="1">ion</dimension>
   <field type="string">element</field>
   <field type="int">atomtype</field>
   <set>
    <rc><c>Si</c><c>   1</c></rc>
    <rc><c>Si</c><c>   1</c></rc>
    <rc><c>Si</c><c>   1</c></rc>
    <rc><c>Si</c><c>   1</c></rc>
    <rc><c>Si</c><c>   1</c></rc>
    <rc><c>Si</c><c>   1</c></rc>
    <rc><c>Si</c><c>   1</c></rc>
    <rc><c>Si</c><c>   1</c></rc>
    <rc><c>Si</c><c>   1</c></rc>
    <rc><c>Si</c><c>   1</c></rc>
    <rc><c>Si</c><c>   1</c></rc>
    <rc><c>Si</c><c>   1</c></rc>
    <rc><c>Si</c><c>   1</c></rc>
    <rc><c>Si</c><c>   1</c></rc>
    <rc><c>Si</c><c>   1</c></rc>
    <rc><c>Si</c><c>   1</c></rc>
    <rc><c>Si</c><c>   1</c></rc>
    <rc><c>Si</c><c>   1</c></rc>
    <rc><c>Si</c><c>   1</c></rc>
    <rc><c>Si</c><c>   1</c></rc>
    <rc><c>Si</c><c>   1</c></rc>
    <rc><c>Si</c><c>   1</c></rc>
    <rc><c>Si</c><c>   1</c></rc>
    <rc><c>Si</c><c>   1</c></rc>
    <rc><c>Si</c><c>   1</c></rc>
    <rc><c>Si</c><c>   1</c></rc>
    <rc><c>Si</c><c>   1</c></rc>
    <rc><c>Si</c><c>   1</c></rc>
    <rc><c>Si</c><c>   1</c></rc>
    <rc><c>Si</c><c>   1</c></rc>
    <rc><c>Si</c><c>   1</c></rc>
    <rc><c>Si</c><c>   1</c></rc>
    <rc><c>Si</c><c>   1</c></rc>
    <rc><c>Si</c><c>   1</c></rc>
    <rc><c>Si</c><c>   1</c></rc>
    <rc><c>Si</c><c>   1</c></rc>
    <rc><c>Si</c><c>   1</c></rc>
    <rc><c>Si</c><c>   1</c></rc>
    <rc><c>Si</c><c>   1</c></rc>
    <rc><c>Si</c><c>   1</c></rc>
    <rc><c>Si</c><c>   1</c></rc>
    <rc><c>Si</c><c>   1</c></rc>
    <rc><c>Si</c><c>   1</c></rc>
    <rc><c>Si</c><c>   1</c></rc>
    <rc><c>Si</c><c>   1</c></rc>
    <rc><c>Si</c><c>   1</c></rc>
    <rc><c>Si</c><c>   1</c></rc>
    <rc><c>Si</c><c>   1</c></rc>
    <rc><c>Si</c><c>   1</c></rc>
    <rc><c>Si</c><c>   1</c></rc>
    <rc><c>Si</c><c>   1</c></rc>
    <rc><c>Si</c><c>   1</c></rc>
    <rc><c>Si</c><c>   1</c></rc>
    <rc><c>Si</c><c>   1</c></rc>
    <rc><c>Si</c><c>   1</c></rc>
    <rc><c>Si</c><c>   1</c></rc>
    <rc><c>Si</c><c>   1</c></rc>
    <rc><c>Si</c><c>   1</c></rc>
    <rc><c>Si</c><c>   1</c></rc>
    <rc><c>Si</c><c>   1</c></rc>
    <rc><c>Si</c><c>   1</c></rc>
    <rc><c>Si</c><c>   1</c></rc>
    <rc><c>Si</c><c>   1</c></rc>
    <rc><c>Si</c><c>   1</c></rc>
    <rc><c>Si</c><c>   1</c></rc>
    <rc><c>Si</c><c>   1</c></rc>
    <rc><c>Ge</c><c>   2</c></rc>
    <rc><c>Ge</c><c>   2</c></rc>
    <rc><c>Ge</c><c>   2</c></rc>
    <rc><c>Ge</c><c>   2</c></rc>
    <rc><c>Ge</c><c>   2</c></rc>
    <rc><c>Ge</c><c>   2</c></rc>
    <rc><c>Ge</c><c>   2</c></rc>
    <rc><c>Ge</c><c>   2</c></rc>
    <rc><c>Ge</c><c>   2</c></rc>
    <rc><c>Ge</c><c>   2</c></rc>
    <rc><c>Ge</c><c>   2</c></rc>
    <rc><c>Ge</c><c>   2</c></rc>
    <rc><c>Ge</c><c>   2</c></rc>
    <rc><c>Ge</c><c>   2</c></rc>
    <rc><c>Ge</c><c>   2</c></rc>
    <rc><c>Ge</c><c>   2</c></rc>
    <rc><c>Ge</c><c>   2</c></rc>
    <rc><c>Ge</c><c>   2</c></rc>
    <rc><c>Ge</c><c>   2</c></rc>
    <rc><c>Ge</c><c>   2</c></rc>
    <rc><c>Ge</c><c>   2</c></rc>
    <rc><c>Ge</c><c>   2</c></rc>
    <rc><c>Ge</c><c>   2</c></rc>
    <rc><c>Ge</c><c>   2</c></rc>
    <rc><c>Ge</c><c>   2</c></rc>
    <rc><c>Ge</c><c>   2</c></rc>
    <rc><c>Ge</c><c>   2</c></rc>
    <rc><c>Ge</c><c>   2</c></rc>
    <rc><c>Ge</c><c>   2</c></rc>
    <rc><c>Ge</c><c>   2</c></rc>
    <rc><c>Ge</c><c>   2</c></rc>
    <rc><c>Ge</c><c>   2</c></rc>
    <rc><c>Ge</c><c>   2</c></rc>
    <rc><c>Ge</c><c>   2</c></rc>
    <rc><c>Ge</c><c>   2</c></rc>
    <rc><c>Ge</c><c>   2</c></rc>
    <rc><c>Ge</c><c>   2</c></rc>
    <rc><c>Ge</c><c>   2</c></rc>
    <rc><c>Ge</c><c>   2</c></rc>
    <rc><c>Ge</c><c>   2</c></rc>
    <rc><c>Ge</c><c>   2</c></rc>
    <rc><c>Ge</c><c>   2</c></rc>
    <rc><c>Ge</c><c>   2</c></rc>
    <rc><c>Ge</c><c>   2</c></rc>
    <rc><c>Ge</c><c>   2</c></rc>
    <rc><c>Ge</c><c>   2</c></rc>
    <rc><c>Ge</c><c>   2</c></rc>
    <rc><c>Ge</c><c>   2</c></rc>
   </set>
  </array>
  <array name="atomtypes" >
   <dimension dim="1">type</dimension>
   <field type="int">atomspertype</field>
   <field type="string">element</field>
   <field>mass</field>
   <field>valence</field>
   <field type="string">pseudopotential</field>
   <set>
    <rc><c>  66</c><c>Si</c><c>     28.08500000</c><c>      4.00000000</c><c>  PAW_PBE Si 05Jan2001                  </c></rc>
    <rc><c>  48</c><c>Ge</c><c>     72.61000000</c><c>      4.00000000</c><c>  PAW_PBE Ge 05Jan2001                  </c></rc>
   </set>
  </array>
 </atominfo>
 <structure name="initialpos" >
  <crystal>
   <varray name="basis" >
    <v>       5.48000000       0.00000000       0.00000000 </v>
    <v>       0.00000000      16.44000000       0.00000000 </v>
    <v>       0.00000000       0.00000000      27.70556095 </v>
   </varray>
   <i name="volume">   2496.02723302 </i>
   <varray name="rec_basis" >
    <v>       0.18248175       0.00000000       0.00000000 </v>
    <v>       0.00000000       0.06082725       0.00000000 </v>
    <v>       0.00000000       0.00000000       0.03609384 </v>
   </varray>
  </crystal>
  <varray name="positions" >
   <v>       0.25000000       0.00000000       0.04944856 </v>
   <v>       0.75000000       0.00000000       0.14834567 </v>
   <v>       0.25000000       0.00000000       0.24724278 </v>
   <v>       0.75000000       0.00000000       0.34613990 </v>
   <v>       0.25000000       0.00000000       0.44503701 </v>
   <v>       0.25000000       0.33333333       0.04944856 </v>
   <v>       0.75000000       0.33333333       0.14834567 </v>
   <v>       0.25000000       0.33333333       0.24724278 </v>
   <v>       0.75000000       0.33333333       0.34613990 </v>
   <v>       0.25000000       0.33333333       0.44503701 </v>
   <v>       0.25000000       0.66666667       0.04944856 </v>
   <v>       0.75000000       0.66666667       0.14834567 </v>
   <v>       0.25000000       0.66666667       0.24724278 </v>
   <v>       0.75000000       0.66666667       0.34613990 </v>
   <v>       0.25000000       0.66666667       0.44503701 </v>
   <v>       0.75000000       0.16666667       0.04944856 </v>
   <v>       0.25000000       0.16666667       0.14834567 </v>
   <v>       0.75000000       0.16666667       0.24724278 </v>
   <v>       0.25000000       0.16666667       0.34613990 </v>
   <v>       0.75000000       0.16666667       0.44503701 </v>
   <v>       0.75000000       0.50000000       0.04944856 </v>
   <v>       0.25000000       0.50000000       0.14834567 </v>
   <v>       0.75000000       0.50000000       0.24724278 </v>
   <v>       0.25000000       0.50000000       0.34613990 </v>
   <v>       0.75000000       0.50000000       0.44503701 </v>
   <v>       0.75000000       0.83333333       0.04944856 </v>
   <v>       0.25000000       0.83333333       0.14834567 </v>
   <v>       0.75000000       0.83333333       0.24724278 </v>
   <v>       0.25000000       0.83333333       0.34613990 </v>
   <v>       0.75000000       0.83333333       0.44503701 </v>
   <v>       0.00000000       0.08333333       0.00000000 </v>
   <v>       0.50000000       0.08333333       0.09889711 </v>
   <v>       0.00000000       0.08333333       0.19779423 </v>
   <v>       0.50000000       0.08333333       0.29669134 </v>
   <v>       0.00000000       0.08333333       0.39558845 </v>
   <v>       0.50000000       0.08333333       0.49448557 </v>
   <v>       0.00000000       0.41666667       0.00000000 </v>
   <v>       0.50000000       0.41666667       0.09889711 </v>
   <v>       0.00000000       0.41666667       0.19779423 </v>
   <v>       0.50000000       0.41666667       0.29669134 </v>
   <v>       0.00000000       0.41666667       0.39558845 </v>
   <v>       0.50000000       0.41666667       0.49448557 </v>
   <v>       0.00000000       0.75000000       0.00000000 </v>
   <v>       0.50000000       0.75000000       0.09889711 </v>
   <v>       0.00000000       0.75000000       0.19779423 </v>
   <v>       0.50000000       0.75000000       0.29669134 </v>
   <v>       0.00000000       0.75000000       0.39558845 </v>
   <v>       0.50000000       0.75000000       0.49448557 </v>
   <v>       0.50000000       0.25000000       0.00000000 </v>
   <v>       0.00000000       0.25000000       0.09889711 </v>
   <v>       0.50000000       0.25000000       0.19779423 </v>
   <v>       0.00000000       0.25000000       0.29669134 </v>
   <v>       0.50000000       0.25000000       0.39558845 </v>
   <v>       0.00000000       0.25000000       0.49448557 </v>
   <v>       0.50000000       0.58333333       0.00000000 </v>
   <v>       0.00000000       0.58333333       0.09889711 </v>
   <v>       0.50000000       0.58333333       0.19779423 </v>
   <v>       0.00000000       0.58333333       0.29669134 </v>
   <v>       0.50000000       0.58333333       0.39558845 </v>
   <v>       0.00000000       0.58333333       0.49448557 </v>
   <v>       0.50000000       0.91666667       0.00000000 </v>
   <v>       0.00000000       0.91666667       0.09889711 </v>
   <v>       0.50000000       0.91666667       0.19779423 </v>
   <v>       0.00000000       0.91666667       0.29669134 </v>
   <v>       0.50000000       0.91666667       0.39558845 </v>
   <v>       0.00000000       0.91666667       0.49448557 </v>
   <v>       0.00000000       0.00000000       0.56667324 </v>
   <v>       0.50000000       0.62500000       0.63890106 </v>
   <v>       0.00000000       0.25000000       0.71112887 </v>
   <v>       0.50000000       0.87500000       0.78335669 </v>
   <v>       0.00000000       0.50000000       0.85558451 </v>
   <v>       0.50000000       0.12500000       0.92781233 </v>
   <v>       0.00000000       0.50000000       0.56667324 </v>
   <v>       0.50000000       0.12500000       0.63890106 </v>
   <v>       0.00000000       0.75000000       0.71112887 </v>
   <v>       0.50000000       0.37500000       0.78335669 </v>
   <v>       0.00000000       0.00000000       0.85558451 </v>
   <v>       0.50000000       0.62500000       0.92781233 </v>
   <v>       0.00000000       0.25000000       0.56667324 </v>
   <v>       0.50000000       0.87500000       0.63890106 </v>
   <v>       0.00000000       0.50000000       0.71112887 </v>
   <v>       0.50000000       0.12500000       0.78335669 </v>
   <v>       0.00000000       0.75000000       0.85558451 </v>
   <v>       0.50000000       0.37500000       0.92781233 </v>
   <v>       0.00000000       0.75000000       0.56667324 </v>
   <v>       0.50000000       0.37500000       0.63890106 </v>
   <v>       0.00000000       0.00000000       0.71112887 </v>
   <v>       0.50000000       0.62500000       0.78335669 </v>
   <v>       0.00000000       0.25000000       0.85558451 </v>
   <v>       0.50000000       0.87500000       0.92781233 </v>
   <v>       0.75000000       0.37500000       0.56667324 </v>
   <v>       0.25000000       0.00000000       0.63890106 </v>
   <v>       0.75000000       0.62500000       0.71112887 </v>
   <v>       0.25000000       0.25000000       0.78335669 </v>
   <v>       0.75000000       0.87500000       0.85558451 </v>
   <v>       0.25000000       0.50000000       0.92781233 </v>
   <v>       0.75000000       0.87500000       0.56667324 </v>
   <v>       0.25000000       0.50000000       0.63890106 </v>
   <v>       0.75000000       0.12500000       0.71112887 </v>
   <v>       0.25000000       0.75000000       0.78335669 </v>
   <v>       0.75000000       0.37500000       0.85558451 </v>
   <v>       0.25000000       0.00000000       0.92781233 </v>
   <v>       0.75000000       0.12500000       0.56667324 </v>
   <v>       0.25000000       0.75000000       0.63890106 </v>
   <v>       0.75000000       0.37500000       0.71112887 </v>
   <v>       0.25000000       0.00000000       0.78335669 </v>
   <v>       0.75000000       0.62500000       0.85558451 </v>
   <v>       0.25000000       0.25000000       0.92781233 </v>
   <v>       0.75000000       0.62500000       0.56667324 </v>
   <v>       0.25000000       0.25000000       0.63890106 </v>
   <v>       0.75000000       0.87500000       0.71112887 </v>
   <v>       0.25000000       0.50000000       0.78335669 </v>
   <v>       0.75000000       0.12500000       0.85558451 </v>
   <v>       0.25000000       0.75000000       0.92781233 </v>
  </varray>
 </structure>
 <calculation>
  <scstep>
   <time name="dav">   74.15   75.28</time>
   <time name="total">   78.01   79.17</time>
   <energy>
    <i name="alphaZ">    520.49008605 </i>
    <i name="ewald"> -12240.94666300 </i>
    <i name="hartreedc">  -1072.31971980 </i>
    <i name="XCdc">   -981.05078217 </i>
    <i name="pawpsdc">  10047.13939321 </i>
    <i name="pawaedc">  -8190.57932602 </i>
    <i name="eentropy">     -0.00180216 </i>
    <i name="bandstr">   1937.24785934 </i>
    <i name="atom">  11842.20083547 </i>
    <i name="e_fr_energy">   1862.17988091 </i>
    <i name="e_wo_entrp">   1862.18168306 </i>
    <i name="e_0_energy">   1862.18078199 </i>
   </energy>
  </scstep>
  <scstep>
   <time name="dav">   83.89   84.64</time>
   <time name="total">   83.89   84.65</time>
   <energy>
    <i name="e_fr_energy">   -344.86493055 </i>
    <i name="e_wo_entrp">   -344.86307103 </i>
    <i name="e_0_energy">   -344.86400079 </i>
   </energy>
  </scstep>
  <scstep>
   <time name="dav">   87.35   88.16</time>
   <time name="total">   87.36   88.17</time>
   <energy>
    <i name="e_fr_energy">   -550.72149550 </i>
    <i name="e_wo_entrp">   -550.71999548 </i>
    <i name="e_0_energy">   -550.72074549 </i>
   </energy>
  </scstep>
  <scstep>
   <time name="dav">   84.14   84.87</time>
   <time name="total">   84.14   84.87</time>
   <energy>
    <i name="e_fr_energy">   -557.97672271 </i>
    <i name="e_wo_entrp">   -557.97577308 </i>
    <i name="e_0_energy">   -557.97624790 </i>
   </energy>
  </scstep>
  <scstep>
   <time name="dav">   92.90   93.86</time>
   <time name="total">   97.02   98.02</time>
   <energy>
    <i name="e_fr_energy">   -558.25301108 </i>
    <i name="e_wo_entrp">   -558.25207314 </i>
    <i name="e_0_energy">   -558.25254211 </i>
   </energy>
  </scstep>
  <scstep>
   <time name="dav">   86.94   87.69</time>
   <time name="total">   94.97   95.94</time>
   <energy>
    <i name="e_fr_energy">   -550.76048507 </i>
    <i name="e_wo_entrp">   -550.75844212 </i>
    <i name="e_0_energy">   -550.75946359 </i>
   </energy>
  </scstep>
  <scstep>
   <time name="dav">   89.99   90.76</time>
   <time name="total">   98.02   98.94</time>
   <energy>
    <i name="e_fr_energy">   -552.26331600 </i>
    <i name="e_wo_entrp">   -552.26088219 </i>
    <i name="e_0_energy">   -552.26209909 </i>
   </energy>
  </scstep>
  <scstep>
   <time name="dav">   93.78   94.60</time>
   <time name="total">  101.81  102.69</time>
   <energy>
    <i name="e_fr_energy">   -550.13574776 </i>
    <i name="e_wo_entrp">   -550.13471697 </i>
    <i name="e_0_energy">   -550.13523236 </i>
   </energy>
  </scstep>
  <scstep>
   <time name="dav">   90.98   91.89</time>
   <time name="total">   99.00   99.97</time>
   <energy>
    <i name="e_fr_energy">   -550.36911368 </i>
    <i name="e_wo_entrp">   -550.36686587 </i>
    <i name="e_0_energy">   -550.36798977 </i>
   </energy>
  </scstep>
  <scstep>
   <time name="dav">   89.05   89.80</time>
   <time name="total">   97.05   97.86</time>
   <energy>
    <i name="e_fr_energy">   -550.11578626 </i>
    <i name="e_wo_entrp">   -550.11513825 </i>
    <i name="e_0_energy">   -550.11546226 </i>
   </energy>
  </scstep>
  <scstep>
   <time name="dav">   84.49   85.20</time>
   <time name="total">   92.49   93.24</time>
   <energy>
    <i name="e_fr_energy">   -550.10067765 </i>
    <i name="e_wo_entrp">   -550.09995926 </i>
    <i name="e_0_energy">   -550.10031845 </i>
   </energy>
  </scstep>
  <scstep>
   <time name="dav">   87.11   87.87</time>
   <time name="total">   95.11   95.93</time>
   <energy>
    <i name="e_fr_energy">   -550.09584930 </i>
    <i name="e_wo_entrp">   -550.09529654 </i>
    <i name="e_0_energy">   -550.09557292 </i>
   </energy>
  </scstep>
  <scstep>
   <time name="dav">   84.42   85.14</time>
   <time name="total">   92.45   93.22</time>
   <energy>
    <i name="e_fr_energy">   -550.09592162 </i>
    <i name="e_wo_entrp">   -550.09544111 </i>
    <i name="e_0_energy">   -550.09568136 </i>
   </energy>
  </scstep>
  <scstep>
   <time name="dav">   83.52   84.23</time>
   <time name="total">   91.54   92.29</time>
   <energy>
    <i name="e_fr_energy">   -550.09606721 </i>
    <i name="e_wo_entrp">   -550.09561773 </i>
    <i name="e_0_energy">   -550.09584247 </i>
   </energy>
  </scstep>
  <scstep>
   <time name="dav">   83.33   84.04</time>
   <time name="total">   91.33   92.09</time>
   <energy>
    <i name="e_fr_energy">   -550.09611296 </i>
    <i name="e_wo_entrp">   -550.09566777 </i>
    <i name="e_0_energy">   -550.09589037 </i>
   </energy>
  </scstep>
  <scstep>
   <time name="dav">   84.57   85.27</time>
   <time name="total">   92.62   93.39</time>
   <energy>
    <i name="e_fr_energy">   -550.09608865 </i>
    <i name="e_wo_entrp">   -550.09559358 </i>
    <i name="e_0_energy">   -550.09584111 </i>
   </energy>
  </scstep>
  <scstep>
   <time name="dav">   83.76   84.48</time>
   <time name="total">   91.79   92.56</time>
   <energy>
    <i name="e_fr_energy">   -550.09610107 </i>
    <i name="e_wo_entrp">   -550.09559058 </i>
    <i name="e_0_energy">   -550.09584583 </i>
   </energy>
  </scstep>
  <scstep>
   <time name="dav">   83.69   84.42</time>
   <time name="total">   91.75   92.52</time>
   <energy>
    <i name="e_fr_energy">   -550.09611169 </i>
    <i name="e_wo_entrp">   -550.09561308 </i>
    <i name="e_0_energy">   -550.09586239 </i>
   </energy>
  </scstep>
  <scstep>
   <time name="dav">   83.78   84.49</time>
   <time name="total">   91.85   92.62</time>
   <energy>
    <i name="e_fr_energy">   -550.09612103 </i>
    <i name="e_wo_entrp">   -550.09561904 </i>
    <i name="e_0_energy">   -550.09587003 </i>
   </energy>
  </scstep>
  <scstep>
   <time name="dav">   84.91   85.74</time>
   <time name="total">   92.96   93.86</time>
   <energy>
    <i name="e_fr_energy">   -550.09612619 </i>
    <i name="e_wo_entrp">   -550.09562254 </i>
    <i name="e_0_energy">   -550.09587436 </i>
   </energy>
  </scstep>
  <scstep>
   <time name="dav">   83.85   84.58</time>
   <time name="total">   91.80   92.58</time>
   <energy>
    <i name="e_fr_energy">   -550.09613410 </i>
    <i name="e_wo_entrp">   -550.09563036 </i>
    <i name="e_0_energy">   -550.09588223 </i>
   </energy>
  </scstep>
  <scstep>
   <time name="dav">   84.63   85.34</time>
   <time name="total">   92.63   93.39</time>
   <energy>
    <i name="e_fr_energy">   -550.09614320 </i>
    <i name="e_wo_entrp">   -550.09563701 </i>
    <i name="e_0_energy">   -550.09589010 </i>
   </energy>
  </scstep>
  <scstep>
   <time name="dav">   84.98   85.73</time>
   <time name="total">   92.97   93.76</time>
   <energy>
    <i name="e_fr_energy">   -550.09614460 </i>
    <i name="e_wo_entrp">   -550.09563812 </i>
    <i name="e_0_energy">   -550.09589136 </i>
   </energy>
  </scstep>
  <scstep>
   <time name="dav">   83.68   84.40</time>
   <time name="total">   91.66   92.44</time>
   <energy>
    <i name="e_fr_energy">   -550.09614360 </i>
    <i name="e_wo_entrp">   -550.09563799 </i>
    <i name="e_0_energy">   -550.09589079 </i>
   </energy>
  </scstep>
  <scstep>
   <time name="dav">   82.72   83.42</time>
   <time name="total">   90.71   91.46</time>
   <energy>
    <i name="e_fr_energy">   -550.09614249 </i>
    <i name="e_wo_entrp">   -550.09563736 </i>
    <i name="e_0_energy">   -550.09588993 </i>
   </energy>
  </scstep>
  <scstep>
   <time name="dav">   53.83   54.37</time>
   <time name="total">   61.91   62.51</time>
   <energy>
    <i name="e_fr_energy">   -550.09614220 </i>
    <i name="e_wo_entrp">   -550.09563673 </i>
    <i name="e_0_energy">   -550.09588946 </i>
   </energy>
  </scstep>
  <scstep>
   <time name="dav">   52.57   53.02</time>
   <time name="total">   60.66   61.16</time>
   <energy>
    <i name="e_fr_energy">   -550.09614187 </i>
    <i name="e_wo_entrp">   -550.09563634 </i>
    <i name="e_0_energy">   -550.09588910 </i>
   </energy>
  </scstep>
  <scstep>
   <time name="dav">   51.08   51.56</time>
   <time name="total">   54.92   55.42</time>
   <energy>
    <i name="alphaZ">    520.49008605 </i>
    <i name="ewald"> -12240.94666300 </i>
    <i name="hartreedc">  -1256.71134424 </i>
    <i name="XCdc">   -949.56028750 </i>
    <i name="pawpsdc">  36289.03094587 </i>
    <i name="pawaedc"> -34446.44776123 </i>
    <i name="eentropy">     -0.00050526 </i>
    <i name="bandstr">   -308.15144794 </i>
    <i name="atom">  11842.20083547 </i>
    <i name="e_fr_energy">   -550.09614179 </i>
    <i name="e_wo_entrp">   -550.09563653 </i>
    <i name="e_0_energy">   -550.09588916 </i>
   </energy>
  </scstep>
  <structure>
   <crystal>
    <varray name="basis" >
     <v>       5.48000000       0.00000000       0.00000000 </v>
     <v>       0.00000000      16.44000000       0.00000000 </v>
     <v>       0.00000000       0.00000000      27.70556095 </v>
    </varray>
    <i name="volume">   2496.02723302 </i>
    <varray name="rec_basis" >
     <v>       0.18248175       0.00000000       0.00000000 </v>
     <v>       0.00000000       0.06082725       0.00000000 </v>
     <v>       0.00000000       0.00000000       0.03609384 </v>
    </varray>
   </crystal>
   <varray name="positions" >
    <v>       0.25000000       0.00000000       0.04944856 </v>
    <v>       0.75000000       0.00000000       0.14834567 </v>
    <v>       0.25000000       0.00000000       0.24724278 </v>
    <v>       0.75000000       0.00000000       0.34613990 </v>
    <v>       0.25000000       0.00000000       0.44503701 </v>
    <v>       0.25000000       0.33333333       0.04944856 </v>
    <v>       0.75000000       0.33333333       0.14834567 </v>
    <v>       0.25000000       0.33333333       0.24724278 </v>
    <v>       0.75000000       0.33333333       0.34613990 </v>
    <v>       0.25000000       0.33333333       0.44503701 </v>
    <v>       0.25000000       0.66666667       0.04944856 </v>
    <v>       0.75000000       0.66666667       0.14834567 </v>
    <v>       0.25000000       0.66666667       0.24724278 </v>
    <v>       0.75000000       0.66666667       0.34613990 </v>
    <v>       0.25000000       0.66666667       0.44503701 </v>
    <v>       0.75000000       0.16666667       0.04944856 </v>
    <v>       0.25000000       0.16666667       0.14834567 </v>
    <v>       0.75000000       0.16666667       0.24724278 </v>
    <v>       0.25000000       0.16666667       0.34613990 </v>
    <v>       0.75000000       0.16666667       0.44503701 </v>
    <v>       0.75000000       0.50000000       0.04944856 </v>
    <v>       0.25000000       0.50000000       0.14834567 </v>
    <v>       0.75000000       0.50000000       0.24724278 </v>
    <v>       0.25000000       0.50000000       0.34613990 </v>
    <v>       0.75000000       0.50000000       0.44503701 </v>
    <v>       0.75000000       0.83333333       0.04944856 </v>
    <v>       0.25000000       0.83333333       0.14834567 </v>
    <v>       0.75000000       0.83333333       0.24724278 </v>
    <v>       0.25000000       0.83333333       0.34613990 </v>
    <v>       0.75000000       0.83333333       0.44503701 </v>
    <v>       0.00000000       0.08333333       0.00000000 </v>
    <v>       0.50000000       0.08333333       0.09889711 </v>
    <v>       0.00000000       0.08333333       0.19779423 </v>
    <v>       0.50000000       0.08333333       0.29669134 </v>
    <v>       0.00000000       0.08333333       0.39558845 </v>
    <v>       0.50000000       0.08333333       0.49448557 </v>
    <v>       0.00000000       0.41666667       0.00000000 </v>
    <v>       0.50000000       0.41666667       0.09889711 </v>
    <v>       0.00000000       0.41666667       0.19779423 </v>
    <v>       0.50000000       0.41666667       0.29669134 </v>
    <v>       0.00000000       0.41666667       0.39558845 </v>
    <v>       0.50000000       0.41666667       0.49448557 </v>
    <v>       0.00000000       0.75000000       0.00000000 </v>
    <v>       0.50000000       0.75000000       0.09889711 </v>
    <v>       0.00000000       0.75000000       0.19779423 </v>
    <v>       0.50000000       0.75000000       0.29669134 </v>
    <v>       0.00000000       0.75000000       0.39558845 </v>
    <v>       0.50000000       0.75000000       0.49448557 </v>
    <v>       0.50000000       0.25000000       0.00000000 </v>
    <v>       0.00000000       0.25000000       0.09889711 </v>
    <v>       0.50000000       0.25000000       0.19779423 </v>
    <v>       0.00000000       0.25000000       0.29669134 </v>
    <v>       0.50000000       0.25000000       0.39558845 </v>
    <v>       0.00000000       0.25000000       0.49448557 </v>
    <v>       0.50000000       0.58333333       0.00000000 </v>
    <v>       0.00000000       0.58333333       0.09889711 </v>
    <v>       0.50000000       0.58333333       0.19779423 </v>
    <v>       0.00000000       0.58333333       0.29669134 </v>
    <v>       0.50000000       0.58333333       0.39558845 </v>
    <v>       0.00000000       0.58333333       0.49448557 </v>
    <v>       0.50000000       0.91666667       0.00000000 </v>
    <v>       0.00000000       0.91666667       0.09889711 </v>
    <v>       0.50000000       0.91666667       0.19779423 </v>
    <v>       0.00000000       0.91666667       0.29669134 </v>
    <v>       0.50000000       0.91666667       0.39558845 </v>
    <v>       0.00000000       0.91666667       0.49448557 </v>
    <v>       0.00000000       0.00000000       0.56667324 </v>
    <v>       0.50000000       0.62500000       0.63890106 </v>
    <v>       0.00000000       0.25000000       0.71112887 </v>
    <v>       0.50000000       0.87500000       0.78335669 </v>
    <v>       0.00000000       0.50000000       0.85558451 </v>
    <v>       0.50000000       0.12500000       0.92781233 </v>
    <v>       0.00000000       0.50000000       0.56667324 </v>
    <v>       0.50000000       0.12500000       0.63890106 </v>
    <v>       0.00000000       0.75000000       0.71112887 </v>
    <v>       0.50000000       0.37500000       0.78335669 </v>
    <v>       0.00000000       0.00000000       0.85558451 </v>
    <v>       0.50000000       0.62500000       0.92781233 </v>
    <v>       0.00000000       0.25000000       0.56667324 </v>
    <v>       0.50000000       0.87500000       0.63890106 </v>
    <v>       0.00000000       0.50000000       0.71112887 </v>
    <v>       0.50000000       0.12500000       0.78335669 </v>
    <v>       0.00000000       0.75000000       0.85558451 </v>
    <v>       0.50000000       0.37500000       0.92781233 </v>
    <v>       0.00000000       0.75000000       0.56667324 </v>
    <v>       0.50000000       0.37500000       0.63890106 </v>
    <v>       0.00000000       0.00000000       0.71112887 </v>
    <v>       0.50000000       0.62500000       0.78335669 </v>
    <v>       0.00000000       0.25000000       0.85558451 </v>
    <v>       0.50000000       0.87500000       0.92781233 </v>
    <v>       0.75000000       0.37500000       0.56667324 </v>
    <v>       0.25000000       0.00000000       0.63890106 </v>
    <v>       0.75000000       0.62500000       0.71112887 </v>
    <v>       0.25000000       0.25000000       0.78335669 </v>
    <v>       0.75000000       0.87500000       0.85558451 </v>
    <v>       0.25000000       0.50000000       0.92781233 </v>
    <v>       0.75000000       0.87500000       0.56667324 </v>
    <v>       0.25000000       0.50000000       0.63890106 </v>
    <v>       0.75000000       0.12500000       0.71112887 </v>
    <v>       0.25000000       0.75000000       0.78335669 </v>
    <v>       0.75000000       0.37500000       0.85558451 </v>
    <v>       0.25000000       0.00000000       0.92781233 </v>
    <v>       0.75000000       0.12500000       0.56667324 </v>
    <v>       0.25000000       0.75000000       0.63890106 </v>
    <v>       0.75000000       0.37500000       0.71112887 </v>
    <v>       0.25000000       0.00000000       0.78335669 </v>
    <v>       0.75000000       0.62500000       0.85558451 </v>
    <v>       0.25000000       0.25000000       0.92781233 </v>
    <v>       0.75000000       0.62500000       0.56667324 </v>
    <v>       0.25000000       0.25000000       0.63890106 </v>
    <v>       0.75000000       0.87500000       0.71112887 </v>
    <v>       0.25000000       0.50000000       0.78335669 </v>
    <v>       0.75000000       0.12500000       0.85558451 </v>
    <v>       0.25000000       0.75000000       0.92781233 </v>
   </varray>
  </structure>
  <varray name="forces" >
   <v>      -0.17797801       0.19590490      -0.12471658 </v>
   <v>       0.12536087       0.06841183       0.02560858 </v>
   <v>       0.04812379      -0.01490671       0.00196228 </v>
   <v>       0.06171501      -0.09909939      -0.02009863 </v>
   <v>      -0.00363682      -0.25454391       0.05422246 </v>
   <v>       0.17024510       0.07318530       0.03132013 </v>
   <v>       0.03158050       0.03743311      -0.00591021 </v>
   <v>      -0.00863901       0.00090192       0.00274320 </v>
   <v>      -0.05832829      -0.00695910      -0.01550752 </v>
   <v>       0.09195835      -0.08614241       0.36007820 </v>
   <v>      -0.33356538       0.07024067      -0.20596329 </v>
   <v>      -0.03688066       0.02018134       0.02495778 </v>
   <v>      -0.02291477       0.01460333      -0.00021445 </v>
   <v>      -0.04194808       0.05888215      -0.00880000 </v>
   <v>       0.36106612       0.24446619       0.13486948 </v>
   <v>       0.24208910      -0.05474581      -0.10214865 </v>
   <v>       0.02399577       0.01472566       0.01412868 </v>
   <v>       0.03012168       0.00099418       0.00556465 </v>
   <v>       0.02409247      -0.04139551      -0.02977951 </v>
   <v>      -0.22415076      -0.16956220       0.14829928 </v>
   <v>       0.19806405      -0.15434866      -0.28523991 </v>
   <v>      -0.03785363      -0.03369488       0.01664996 </v>
   <v>      -0.03334043      -0.00893965       0.00180540 </v>
   <v>       0.01446084      -0.02180453      -0.01791846 </v>
   <v>      -0.08331631      -0.01722330       0.18386014 </v>
   <v>       0.05051295       0.31486856      -0.20814149 </v>
   <v>      -0.03728413       0.07041414       0.02511787 </v>
   <v>       0.03432144       0.00538292      -0.00928675 </v>
   <v>       0.06209569      -0.06195115       0.00981156 </v>
   <v>      -0.03234190      -0.15646309       0.02640134 </v>
   <v>       0.01636854      -0.56780100      -0.59591337 </v>
   <v>      -0.05380188      -0.10451160       0.07115021 </v>
   <v>      -0.03475055      -0.00886804       0.00422438 </v>
   <v>      -0.02495770       0.02587552       0.00089268 </v>
   <v>       0.13899461       0.19115871      -0.11568571 </v>
   <v>       0.18016144       0.78315451      -0.03503583 </v>
   <v>      -0.21911047       0.45059763      -0.90793978 </v>
   <v>      -0.12213561       0.01607235       0.06446822 </v>
   <v>       0.03907155      -0.00205619       0.00354644 </v>
   <v>       0.03860369       0.01676787      -0.01367785 </v>
   <v>       0.07968878       0.08996149      -0.05398335 </v>
   <v>       0.08205640       0.01932143       0.22984347 </v>
   <v>       0.01248990      -0.50536968       0.38322493 </v>
   <v>       0.23892045      -0.16224134       0.08969033 </v>
   <v>       0.03180769      -0.03402019       0.00775317 </v>
   <v>       0.01043124      -0.00659008       0.00659133 </v>
   <v>      -0.12609380      -0.04511779      -0.06903275 </v>
   <v>      -0.44977648      -0.24831936       0.95203325 </v>
   <v>      -0.02376130       0.35430574       0.28025233 </v>
   <v>      -0.04921190       0.02523473       0.08630626 </v>
   <v>      -0.00976436      -0.00564223      -0.01063584 </v>
   <v>       0.02903716       0.02001096       0.00580003 </v>
   <v>       0.09823520       0.05795563      -0.13304047 </v>
   <v>       0.79854942      -0.06619169      -7.58798285 </v>
   <v>       0.19877170      -0.93234154       4.05445444 </v>
   <v>       0.06945733       0.08199803       0.09345664 </v>
   <v>       0.02804331       0.01417429       0.00931206 </v>
   <v>       0.01603708      -0.04039611       0.00079795 </v>
   <v>      -0.06047098      -0.16848170      -0.07730989 </v>
   <v>      -0.33673466      -0.49070212      -0.53625524 </v>
   <v>       1.03320836       0.82968230       4.40023318 </v>
   <v>       0.10795716      -0.17220351       0.13405803 </v>
   <v>      -0.01036425      -0.02679861      -0.01491963 </v>
   <v>      -0.02106659       0.04379757       0.01356086 </v>
   <v>       0.06767237       0.18278318      -0.07258245 </v>
   <v>       0.77265745       0.20839409      -0.85609120 </v>
   <v>       0.13867645       0.23246765      -0.00838956 </v>
   <v>      -0.64842690       0.08245420       0.12089498 </v>
   <v>      -0.37932273       0.01708896      -0.01344794 </v>
   <v>      -0.32796613      -0.00595898       0.02126403 </v>
   <v>      -0.52857544      -0.12840328      -0.11402786 </v>
   <v>       0.58018721      -0.04877198       0.35040519 </v>
   <v>       0.76831012      -0.53860901      -0.32275482 </v>
   <v>      -0.27076972      -0.16292284      -0.03082972 </v>
   <v>      -0.27384671      -0.06945726      -0.02306798 </v>
   <v>      -0.31680499       0.03999231       0.01979874 </v>
   <v>      -0.31164197       0.28900595      -0.01793483 </v>
   <v>       0.25488550       1.68254224      -2.95828478 </v>
   <v>      -0.20554168      -0.20876260       5.94353491 </v>
   <v>      -0.38577859      -0.24563560       0.04891604 </v>
   <v>      -0.35916503       0.04242829       0.00663827 </v>
   <v>      -0.24728429       0.05811655       0.00379714 </v>
   <v>      -0.25522644      -0.02610481       0.09494392 </v>
   <v>       0.91458357      -0.11608621       0.68307098 </v>
   <v>       0.78283786       0.22223537      -0.42736527 </v>
   <v>      -0.34811950       0.14637319       0.00376574 </v>
   <v>      -0.28353459      -0.00755736      -0.03795162 </v>
   <v>      -0.44578117      -0.05603169      -0.00878354 </v>
   <v>      -0.55561807       0.07005707      -0.14904859 </v>
   <v>      -0.28433367      -1.23823511      -2.90139985 </v>
   <v>      -0.55412229       0.39468825      -0.95504832 </v>
   <v>       0.47270752      -0.07438061      -0.02821822 </v>
   <v>       0.43488706       0.04404247       0.00252949 </v>
   <v>       0.37875681      -0.04094493       0.02369668 </v>
   <v>       0.50338082       0.24253296      -0.05014637 </v>
   <v>      -0.67799100      -1.02511053       1.46497418 </v>
   <v>      -1.05175488      -0.27828848       0.32520457 </v>
   <v>       0.43212757       0.07537685      -0.14264721 </v>
   <v>       0.23420546       0.01189825       0.03352959 </v>
   <v>       0.19671032       0.03443649      -0.04929275 </v>
   <v>       0.36164425      -0.19036806       0.09697060 </v>
   <v>      -1.04944026       1.11801711      -0.12064382 </v>
   <v>      -0.76671553      -0.89341548      -0.11781514 </v>
   <v>       0.26515369       0.34480716      -0.04637705 </v>
   <v>       0.24971791      -0.05752672       0.01612805 </v>
   <v>       0.30258958      -0.03506531       0.03156384 </v>
   <v>       0.49092532      -0.04260463       0.03543963 </v>
   <v>      -0.79407983      -0.55607698       0.08937630 </v>
   <v>      -0.55339887       1.09031273      -1.12992523 </v>
   <v>       0.48654002      -0.12400291       0.04025702 </v>
   <v>       0.32947966       0.02081397       0.00286387 </v>
   <v>       0.34580070       0.03032103      -0.00734374 </v>
   <v>       0.35789332      -0.23962011       0.07429196 </v>
   <v>      -0.39060626       0.28752326       0.28164899 </v>
  </varray>
  <varray name="stress" >
   <v>      18.43097311      -0.10534208       0.11990924 </v>
   <v>      -0.10534194       1.50016864       0.29916337 </v>
   <v>       0.11990888       0.29916194      39.21790544 </v>
  </varray>
  <energy>
   <i name="e_fr_energy">   -550.09614179 </i>
   <i name="e_wo_entrp">   -550.09563653 </i>
   <i name="e_0_energy">   -550.09588916 </i>
  </energy>
  <time name="totalsc"> 2586.95 2610.76</time>
  <eigenvalues>
   <array>
    <dimension dim="1">band</dimension>
    <dimension dim="2">kpoint</dimension>
    <dimension dim="3">spin</dimension>
    <field>eigene</field>
    <field>occ</field>
    <set>
     <set comment="spin 1">
      <set comment="kpoint 1">
       <r>   -8.0263    1.0000 </r>
       <r>   -7.7355    1.0000 </r>
       <r>   -7.5316    1.0000 </r>
       <r>   -7.5015    1.0000 </r>
       <r>   -7.3652    1.0000 </r>
       <r>   -7.2356    1.0000 </r>
       <r>   -7.1928    1.0000 </r>
       <r>   -7.0146    1.0000 </r>
       <r>   -6.9079    1.0000 </r>
       <r>   -6.8746    1.0000 </r>
       <r>   -6.8446    1.0000 </r>
       <r>   -6.6440    1.0000 </r>
       <r>   -6.6070    1.0000 </r>
       <r>   -6.4542    1.0000 </r>
       <r>   -6.4442    1.0000 </r>
       <r>   -6.2312    1.0000 </r>
       <r>   -6.1849    1.0000 </r>
       <r>   -6.1747    1.0000 </r>
       <r>   -6.1611    1.0000 </r>
       <r>   -5.9745    1.0000 </r>
       <r>   -5.9459    1.0000 </r>
       <r>   -5.7378    1.0000 </r>
       <r>   -5.7253    1.0000 </r>
       <r>   -5.6354    1.0000 </r>
       <r>   -5.6019    1.0000 </r>
       <r>   -5.4635    1.0000 </r>
       <r>   -5.4459    1.0000 </r>
       <r>   -5.2446    1.0000 </r>
       <r>   -5.2287    1.0000 </r>
       <r>   -5.1993    1.0000 </r>
       <r>   -5.1763    1.0000 </r>
       <r>   -5.1306    1.0000 </r>
       <r>   -5.1270    1.0000 </r>
       <r>   -4.8013    1.0000 </r>
       <r>   -4.7783    1.0000 </r>
       <r>   -4.6831    1.0000 </r>
       <r>   -4.6623    1.0000 </r>
       <r>   -4.6389    1.0000 </r>
       <r>   -4.6148    1.0000 </r>
       <r>   -4.5260    1.0000 </r>
       <r>   -4.5148    1.0000 </r>
       <r>   -4.4333    1.0000 </r>
       <r>   -4.4192    1.0000 </r>
       <r>   -4.3558    1.0000 </r>
       <r>   -4.1440    1.0000 </r>
       <r>   -4.1062    1.0000 </r>
       <r>   -4.0081    1.0000 </r>
       <r>   -3.9521    1.0000 </r>
       <r>   -3.8447    1.0000 </r>
       <r>   -3.8211    1.0000 </r>
       <r>   -3.7891    1.0000 </r>
       <r>   -3.7669    1.0000 </r>
       <r>   -3.7157    1.0000 </r>
       <r>   -3.6504    1.0000 </r>
       <r>   -3.6231    1.0000 </r>
       <r>   -3.5847    1.0000 </r>
       <r>   -3.5692    1.0000 </r>
       <r>   -3.3847    1.0000 </r>
       <r>   -3.3070    1.0000 </r>
       <r>   -3.2877    1.0000 </r>
       <r>   -3.2786    1.0000 </r>
       <r>   -3.2755    1.0000 </r>
       <r>   -3.2372    1.0000 </r>
       <r>   -3.2180    1.0000 </r>
       <r>   -3.2110    1.0000 </r>
       <r>   -3.2020    1.0000 </r>
       <r>   -3.1713    1.0000 </r>
       <r>   -3.1560    1.0000 </r>
       <r>   -3.0337    1.0000 </r>
       <r>   -3.0041    1.0000 </r>
       <r>   -2.9709    1.0000 </r>
       <r>   -2.9346    1.0000 </r>
       <r>   -2.9171    1.0000 </r>
       <r>   -2.8696    1.0000 </r>
       <r>   -2.8356    1.0000 </r>
       <r>   -2.8246    1.0000 </r>
       <r>   -2.4420    1.0000 </r>
       <r>   -2.2937    1.0000 </r>
       <r>   -2.2871    1.0000 </r>
       <r>   -2.1701    1.0000 </r>
       <r>   -2.1615    1.0000 </r>
       <r>   -2.1233    1.0000 </r>
       <r>   -1.9098    1.0000 </r>
       <r>   -1.9008    1.0000 </r>
       <r>   -1.8544    1.0000 </r>
       <r>   -1.8248    1.0000 </r>
       <r>   -1.7589    1.0000 </r>
       <r>   -1.7383    1.0000 </r>
       <r>   -1.6219    1.0000 </r>
       <r>   -1.3389    1.0000 </r>
       <r>   -1.2720    1.0000 </r>
       <r>   -1.1437    1.0000 </r>
       <r>   -1.0362    1.0000 </r>
       <r>   -0.9861    1.0000 </r>
       <r>   -0.9715    1.0000 </r>
       <r>   -0.7162    1.0000 </r>
       <r>   -0.7068    1.0000 </r>
       <r>   -0.7012    1.0000 </r>
       <r>   -0.6416    1.0000 </r>
       <r>   -0.5119    1.0000 </r>
       <r>   -0.3958    1.0000 </r>
       <r>   -0.1405    1.0000 </r>
       <r>   -0.1260    1.0000 </r>
       <r>    0.2620    1.0000 </r>
       <r>    0.2765    1.0000 </r>
       <r>    0.2883    1.0000 </r>
       <r>    0.2959    1.0000 </r>
       <r>    0.3736    1.0000 </r>
       <r>    0.3783    1.0000 </r>
       <r>    0.3878    1.0000 </r>
       <r>    0.4389    1.0000 </r>
       <r>    0.4637    1.0000 </r>
       <r>    0.4716    1.0000 </r>
       <r>    0.5382    1.0000 </r>
       <r>    0.5978    1.0000 </r>
       <r>    0.6572    1.0000 </r>
       <r>    0.6808    1.0000 </r>
       <r>    0.6887    1.0000 </r>
       <r>    0.7111    1.0000 </r>
       <r>    0.7784    1.0000 </r>
       <r>    0.8081    1.0000 </r>
       <r>    0.8451    1.0000 </r>
       <r>    0.8530    1.0000 </r>
       <r>    0.8669    1.0000 </r>
       <r>    0.8859    1.0000 </r>
       <r>    0.8899    1.0000 </r>
       <r>    0.8906    1.0000 </r>
       <r>    0.9283    1.0000 </r>
       <r>    0.9360    1.0000 </r>
       <r>    0.9498    1.0000 </r>
       <r>    0.9578    1.0000 </r>
       <r>    0.9808    1.0000 </r>
       <r>    0.9873    1.0000 </r>
       <r>    1.0104    1.0000 </r>
       <r>    1.0293    1.0000 </r>
       <r>    1.0363    1.0000 </r>
       <r>    1.0767    1.0000 </r>
       <r>    1.1104    1.0000 </r>
       <r>    1.1682    1.0000 </r>
       <r>    1.2308    1.0000 </r>
       <r>    1.2415    1.0000 </r>
       <r>    1.2471    1.0000 </r>
       <r>    1.2600    1.0000 </r>
       <r>    1.2749    1.0000 </r>
       <r>    1.3372    1.0000 </r>
       <r>    1.3393    1.0000 </r>
       <r>    1.3548    1.0000 </r>
       <r>    1.3690    1.0000 </r>
       <r>    1.3932    1.0000 </r>
       <r>    1.4023    1.0000 </r>
       <r>    1.4148    1.0000 </r>
       <r>    1.4303    1.0000 </r>
       <r>    1.4830    1.0000 </r>
       <r>    1.5192    1.0000 </r>
       <r>    1.5560    1.0000 </r>
       <r>    1.5780    1.0000 </r>
       <r>    1.6051    1.0000 </r>
       <r>    1.6358    1.0000 </r>
       <r>    1.6479    1.0000 </r>
       <r>    1.6905    1.0000 </r>
       <r>    1.7069    1.0000 </r>
       <r>    1.7167    1.0000 </r>
       <r>    1.7268    1.0000 </r>
       <r>    1.7399    1.0000 </r>
       <r>    1.7547    1.0000 </r>
       <r>    1.7709    1.0000 </r>
       <r>    1.7812    1.0000 </r>
       <r>    1.8199    1.0000 </r>
       <r>    1.8277    1.0000 </r>
       <r>    1.8595    1.0000 </r>
       <r>    1.8851    1.0000 </r>
       <r>    1.9402    1.0000 </r>
       <r>    1.9788    1.0000 </r>
       <r>    2.0108    1.0000 </r>
       <r>    2.0545    1.0000 </r>
       <r>    2.0601    1.0000 </r>
       <r>    2.0939    1.0000 </r>
       <r>    2.1335    1.0000 </r>
       <r>    2.1510    1.0000 </r>
       <r>    2.1709    1.0000 </r>
       <r>    2.1790    1.0000 </r>
       <r>    2.2110    1.0000 </r>
       <r>    2.2866    1.0000 </r>
       <r>    2.3038    1.0000 </r>
       <r>    2.3277    1.0000 </r>
       <r>    2.4127    1.0000 </r>
       <r>    2.4411    1.0000 </r>
       <r>    2.4728    1.0000 </r>
       <r>    2.4915    1.0000 </r>
       <r>    2.5157    1.0000 </r>
       <r>    2.5750    1.0000 </r>
       <r>    2.5804    1.0000 </r>
       <r>    2.6561    1.0000 </r>
       <r>    2.6747    1.0000 </r>
       <r>    2.7152    1.0000 </r>
       <r>    2.7861    1.0000 </r>
       <r>    2.8158    1.0000 </r>
       <r>    2.8406    1.0000 </r>
       <r>    2.9122    1.0000 </r>
       <r>    2.9234    1.0000 </r>
       <r>    2.9543    1.0000 </r>
       <r>    3.0222    1.0000 </r>
       <r>    3.0638    1.0000 </r>
       <r>    3.1011    1.0000 </r>
       <r>    3.1411    1.0000 </r>
       <r>    3.2303    1.0000 </r>
       <r>    3.2887    1.0000 </r>
       <r>    3.3232    1.0000 </r>
       <r>    3.3474    1.0000 </r>
       <r>    3.5018    1.0000 </r>
       <r>    3.5112    1.0000 </r>
       <r>    3.5323    1.0000 </r>
       <r>    3.5779    1.0000 </r>
       <r>    3.6011    1.0000 </r>
       <r>    3.6499    1.0000 </r>
       <r>    3.7177    1.0000 </r>
       <r>    3.7641    1.0000 </r>
       <r>    3.8013    1.0000 </r>
       <r>    3.8488    1.0000 </r>
       <r>    3.9788    1.0000 </r>
       <r>    4.0286    1.0000 </r>
       <r>    4.0865    1.0000 </r>
       <r>    4.1129    1.0000 </r>
       <r>    4.2112    1.0000 </r>
       <r>    4.2916    1.0000 </r>
       <r>    4.3106    1.0000 </r>
       <r>    4.3665    1.0000 </r>
       <r>    4.4770    1.0000 </r>
       <r>    4.5273    1.0000 </r>
       <r>    4.6856    0.0000 </r>
       <r>    4.7625    0.0000 </r>
       <r>    4.8190    0.0000 </r>
       <r>    5.0602    0.0000 </r>
       <r>    5.0978    0.0000 </r>
       <r>    5.1626    0.0000 </r>
       <r>    5.1803    0.0000 </r>
       <r>    5.1887    0.0000 </r>
       <r>    5.2138    0.0000 </r>
       <r>    5.2584    0.0000 </r>
       <r>    5.3111    0.0000 </r>
       <r>    5.3460    0.0000 </r>
       <r>    5.4100    0.0000 </r>
       <r>    5.4585    0.0000 </r>
       <r>    5.5734    0.0000 </r>
       <r>    5.5822    0.0000 </r>
       <r>    5.5950    0.0000 </r>
       <r>    5.6379    0.0000 </r>
       <r>    5.6882    0.0000 </r>
       <r>    5.7361    0.0000 </r>
       <r>    5.7451    0.0000 </r>
       <r>    5.7639    0.0000 </r>
       <r>    5.8130    0.0000 </r>
       <r>    5.8794    0.0000 </r>
       <r>    5.9403    0.0000 </r>
       <r>    5.9922    0.0000 </r>
       <r>    6.0075    0.0000 </r>
       <r>    6.0304    0.0000 </r>
       <r>    6.0792    0.0000 </r>
       <r>    6.1069    0.0000 </r>
       <r>    6.1806    0.0000 </r>
       <r>    6.1955    0.0000 </r>
       <r>    6.2434    0.0000 </r>
       <r>    6.2661    0.0000 </r>
       <r>    6.2766    0.0000 </r>
       <r>    6.3163    0.0000 </r>
       <r>    6.3308    0.0000 </r>
       <r>    6.3568    0.0000 </r>
       <r>    6.3728    0.0000 </r>
       <r>    6.4142    0.0000 </r>
       <r>    6.4342    0.0000 </r>
       <r>    6.4759    0.0000 </r>
       <r>    6.5064    0.0000 </r>
       <r>    6.5295    0.0000 </r>
       <r>    6.5984    0.0000 </r>
      </set>
      <set comment="kpoint 2">
       <r>   -7.9144    1.0000 </r>
       <r>   -7.6428    1.0000 </r>
       <r>   -7.4269    1.0000 </r>
       <r>   -7.3967    1.0000 </r>
       <r>   -7.2793    1.0000 </r>
       <r>   -7.1357    1.0000 </r>
       <r>   -7.1040    1.0000 </r>
       <r>   -6.9301    1.0000 </r>
       <r>   -6.8082    1.0000 </r>
       <r>   -6.7806    1.0000 </r>
       <r>   -6.7500    1.0000 </r>
       <r>   -6.5601    1.0000 </r>
       <r>   -6.5286    1.0000 </r>
       <r>   -6.3565    1.0000 </r>
       <r>   -6.3462    1.0000 </r>
       <r>   -6.2032    1.0000 </r>
       <r>   -6.1332    1.0000 </r>
       <r>   -6.1235    1.0000 </r>
       <r>   -6.0688    1.0000 </r>
       <r>   -5.9495    1.0000 </r>
       <r>   -5.9144    1.0000 </r>
       <r>   -5.6572    1.0000 </r>
       <r>   -5.6511    1.0000 </r>
       <r>   -5.5922    1.0000 </r>
       <r>   -5.5665    1.0000 </r>
       <r>   -5.4296    1.0000 </r>
       <r>   -5.3917    1.0000 </r>
       <r>   -5.3719    1.0000 </r>
       <r>   -5.2656    1.0000 </r>
       <r>   -5.2249    1.0000 </r>
       <r>   -5.2065    1.0000 </r>
       <r>   -5.1143    1.0000 </r>
       <r>   -5.0976    1.0000 </r>
       <r>   -5.0745    1.0000 </r>
       <r>   -5.0626    1.0000 </r>
       <r>   -5.0529    1.0000 </r>
       <r>   -4.8611    1.0000 </r>
       <r>   -4.8515    1.0000 </r>
       <r>   -4.8070    1.0000 </r>
       <r>   -4.7785    1.0000 </r>
       <r>   -4.5829    1.0000 </r>
       <r>   -4.5741    1.0000 </r>
       <r>   -4.5004    1.0000 </r>
       <r>   -4.4698    1.0000 </r>
       <r>   -4.4259    1.0000 </r>
       <r>   -4.3088    1.0000 </r>
       <r>   -4.2541    1.0000 </r>
       <r>   -4.2409    1.0000 </r>
       <r>   -4.2010    1.0000 </r>
       <r>   -4.1682    1.0000 </r>
       <r>   -4.1283    1.0000 </r>
       <r>   -3.9781    1.0000 </r>
       <r>   -3.8988    1.0000 </r>
       <r>   -3.8590    1.0000 </r>
       <r>   -3.7357    1.0000 </r>
       <r>   -3.7012    1.0000 </r>
       <r>   -3.5341    1.0000 </r>
       <r>   -3.4861    1.0000 </r>
       <r>   -3.3998    1.0000 </r>
       <r>   -3.3412    1.0000 </r>
       <r>   -3.2724    1.0000 </r>
       <r>   -3.2466    1.0000 </r>
       <r>   -3.1841    1.0000 </r>
       <r>   -3.1106    1.0000 </r>
       <r>   -3.0925    1.0000 </r>
       <r>   -3.0497    1.0000 </r>
       <r>   -3.0004    1.0000 </r>
       <r>   -2.9727    1.0000 </r>
       <r>   -2.7667    1.0000 </r>
       <r>   -2.7448    1.0000 </r>
       <r>   -2.7171    1.0000 </r>
       <r>   -2.5917    1.0000 </r>
       <r>   -2.5633    1.0000 </r>
       <r>   -2.4711    1.0000 </r>
       <r>   -2.4426    1.0000 </r>
       <r>   -2.2751    1.0000 </r>
       <r>   -2.2466    1.0000 </r>
       <r>   -2.2202    1.0000 </r>
       <r>   -2.1941    1.0000 </r>
       <r>   -2.1748    1.0000 </r>
       <r>   -2.1563    1.0000 </r>
       <r>   -2.1011    1.0000 </r>
[...]
       <r>    -5.7898    26.2529    43.9965 </r>
       <r>    -5.7344    46.8479    46.5922 </r>
       <r>    -5.6790    29.1951    48.2098 </r>
       <r>    -5.6236    31.8346    49.9737 </r>
       <r>    -5.5682    30.6723    51.6731 </r>
       <r>    -5.5128    24.5657    53.0343 </r>
       <r>    -5.4574    25.3147    54.4369 </r>
       <r>    -5.4020    38.2337    56.5553 </r>
       <r>    -5.3466    35.4691    58.5205 </r>
       <r>    -5.2912    40.3746    60.7575 </r>
       <r>    -5.2358    30.7889    62.4635 </r>
       <r>    -5.1804    46.4576    65.0376 </r>
       <r>    -5.1250    42.3875    67.3862 </r>
       <r>    -5.0696    61.6685    70.8031 </r>
       <r>    -5.0141    57.5215    73.9901 </r>
       <r>    -4.9587    21.9067    75.2039 </r>
       <r>    -4.9033    58.6657    78.4545 </r>
       <r>    -4.8479    18.2541    79.4659 </r>
       <r>    -4.7925    27.2708    80.9768 </r>
       <r>    -4.7371    33.5042    82.8332 </r>
       <r>    -4.6817    17.3277    83.7933 </r>
       <r>    -4.6263    37.4548    85.8686 </r>
       <r>    -4.5709    18.8003    86.9103 </r>
       <r>    -4.5155    12.5120    87.6035 </r>
       <r>    -4.4601    47.9046    90.2578 </r>
       <r>    -4.4047    27.8003    91.7981 </r>
       <r>    -4.3493    38.5215    93.9325 </r>
       <r>    -4.2939    26.5187    95.4018 </r>
       <r>    -4.2385    56.9459    98.5570 </r>
       <r>    -4.1830    40.1674   100.7825 </r>
       <r>    -4.1276    29.7296   102.4298 </r>
       <r>    -4.0722    33.8034   104.3027 </r>
       <r>    -4.0168     9.3699   104.8219 </r>
       <r>    -3.9614    21.5989   106.0186 </r>
       <r>    -3.9060    10.6159   106.6068 </r>
       <r>    -3.8506    22.1314   107.8330 </r>
       <r>    -3.7952    27.3010   109.3457 </r>
       <r>    -3.7398    18.3651   110.3633 </r>
       <r>    -3.6844    32.0622   112.1397 </r>
       <r>    -3.6290     7.6093   112.5613 </r>
       <r>    -3.5736    19.0011   113.6141 </r>
       <r>    -3.5182    26.8401   115.1013 </r>
       <r>    -3.4628    13.2690   115.8364 </r>
       <r>    -3.4074    19.1647   116.8983 </r>
       <r>    -3.3519    29.0673   118.5088 </r>
       <r>    -3.2965    29.8093   120.1605 </r>
       <r>    -3.2411    30.2188   121.8348 </r>
       <r>    -3.1857    33.7517   123.7049 </r>
       <r>    -3.1303    36.1441   125.7075 </r>
       <r>    -3.0749    28.2377   127.2721 </r>
       <r>    -3.0195    21.4132   128.4585 </r>
       <r>    -2.9641    38.3895   130.5856 </r>
       <r>    -2.9087    34.4905   132.4966 </r>
       <r>    -2.8533    27.7425   134.0337 </r>
       <r>    -2.7979    35.3871   135.9944 </r>
       <r>    -2.7425    23.9670   137.3223 </r>
       <r>    -2.6871    41.4989   139.6217 </r>
       <r>    -2.6317    36.0194   141.6174 </r>
       <r>    -2.5763    19.3751   142.6909 </r>
       <r>    -2.5208    28.8425   144.2890 </r>
       <r>    -2.4654    32.6534   146.0982 </r>
       <r>    -2.4100    38.0575   148.2069 </r>
       <r>    -2.3546    24.8028   149.5812 </r>
       <r>    -2.2992    11.3674   150.2110 </r>
       <r>    -2.2438    39.3576   152.3917 </r>
       <r>    -2.1884    71.4767   156.3520 </r>
       <r>    -2.1330    64.2835   159.9138 </r>
       <r>    -2.0776    55.3220   162.9790 </r>
       <r>    -2.0222    52.0488   165.8629 </r>
       <r>    -1.9668    32.2700   167.6509 </r>
       <r>    -1.9114    21.0313   168.8162 </r>
       <r>    -1.8560    43.9979   171.2540 </r>
       <r>    -1.8006    42.4624   173.6067 </r>
       <r>    -1.7452    21.8613   174.8179 </r>
       <r>    -1.6897    51.5173   177.6723 </r>
       <r>    -1.6343    17.0195   178.6154 </r>
       <r>    -1.5789    22.4350   179.8584 </r>
       <r>    -1.5235    26.8014   181.3434 </r>
       <r>    -1.4681    48.3931   184.0248 </r>
       <r>    -1.4127    21.8802   185.2371 </r>
       <r>    -1.3573     4.7446   185.5000 </r>
       <r>    -1.3019    18.5815   186.5296 </r>
       <r>    -1.2465    27.9542   188.0784 </r>
       <r>    -1.1911    22.7538   189.3391 </r>
       <r>    -1.1357    23.2265   190.6260 </r>
       <r>    -1.0803    24.3589   191.9757 </r>
       <r>    -1.0249    20.2915   193.1000 </r>
       <r>    -0.9695    35.5279   195.0685 </r>
       <r>    -0.9141    28.6144   196.6539 </r>
       <r>    -0.8586    12.4088   197.3415 </r>
       <r>    -0.8032    22.4997   198.5881 </r>
       <r>    -0.7478    26.3204   200.0464 </r>
       <r>    -0.6924    19.5267   201.1284 </r>
       <r>    -0.6370    17.4936   202.0976 </r>
       <r>    -0.5816    28.9941   203.7041 </r>
       <r>    -0.5262    55.3696   206.7719 </r>
       <r>    -0.4708    22.1672   208.0002 </r>
       <r>    -0.4154     6.0422   208.3349 </r>
       <r>    -0.3600    22.7633   209.5962 </r>
       <r>    -0.3046     9.6772   210.1324 </r>
       <r>    -0.2492     0.6258   210.1670 </r>
       <r>    -0.1938     6.0095   210.5000 </r>
       <r>    -0.1384     0.8802   210.5488 </r>
       <r>    -0.0830    15.4209   211.4032 </r>
       <r>    -0.0275     7.7952   211.8351 </r>
       <r>     0.0279     7.8375   212.2693 </r>
       <r>     0.0833    20.4882   213.4045 </r>
       <r>     0.1387    52.6098   216.3195 </r>
       <r>     0.1941    26.3845   217.7815 </r>
       <r>     0.2495     2.0146   217.8931 </r>
       <r>     0.3049    32.1710   219.6756 </r>
       <r>     0.3603    39.7629   221.8787 </r>
       <r>     0.4157    60.8555   225.2506 </r>
       <r>     0.4711    48.7216   227.9501 </r>
       <r>     0.5265    57.3518   231.1278 </r>
       <r>     0.5819    57.6237   234.3206 </r>
       <r>     0.6373    50.8471   237.1379 </r>
       <r>     0.6927    88.3242   242.0317 </r>
       <r>     0.7481    58.7844   245.2888 </r>
       <r>     0.8036    41.5420   247.5905 </r>
       <r>     0.8590    71.8622   251.5722 </r>
       <r>     0.9144    73.9405   255.6690 </r>
       <r>     0.9698    69.5391   259.5219 </r>
       <r>     1.0252    64.7740   263.1109 </r>
       <r>     1.0806    57.4405   266.2936 </r>
       <r>     1.1360    59.9752   269.6166 </r>
       <r>     1.1914    57.4724   272.8010 </r>
       <r>     1.2468    43.3746   275.2043 </r>
       <r>     1.3022    73.1971   279.2600 </r>
       <r>     1.3576    79.2247   283.6497 </r>
       <r>     1.4130    68.0745   287.4215 </r>
       <r>     1.4684    68.0668   291.1929 </r>
       <r>     1.5238    72.2633   295.1968 </r>
       <r>     1.5792    75.3888   299.3739 </r>
       <r>     1.6347    72.7476   303.4046 </r>
       <r>     1.6901    65.9708   307.0599 </r>
       <r>     1.7455    81.1320   311.5552 </r>
       <r>     1.8009    76.9167   315.8169 </r>
       <r>     1.8563    92.9935   320.9694 </r>
       <r>     1.9117    81.9125   325.5079 </r>
       <r>     1.9671    94.4112   330.7389 </r>
       <r>     2.0225    50.5099   333.5375 </r>
       <r>     2.0779    65.0808   337.1434 </r>
       <r>     2.1333    76.6487   341.3903 </r>
       <r>     2.1887    68.0138   345.1588 </r>
       <r>     2.2441    72.4119   349.1709 </r>
       <r>     2.2995    73.7221   353.2556 </r>
       <r>     2.3549    72.3925   357.2667 </r>
       <r>     2.4103    53.6329   360.2383 </r>
       <r>     2.4658    81.5743   364.7581 </r>
       <r>     2.5212    68.5170   368.5544 </r>
       <r>     2.5766    68.8317   372.3682 </r>
       <r>     2.6320    63.6291   375.8937 </r>
       <r>     2.6874    68.4307   379.6852 </r>
       <r>     2.7428    72.0708   383.6784 </r>
       <r>     2.7982    55.2952   386.7422 </r>
       <r>     2.8536    77.9024   391.0585 </r>
       <r>     2.9090    59.9746   394.3816 </r>
       <r>     2.9644    65.3666   398.0034 </r>
       <r>     3.0198    55.3212   401.0686 </r>
       <r>     3.0752    42.7907   403.4395 </r>
       <r>     3.1306    55.1853   406.4972 </r>
       <r>     3.1860    59.8931   409.8156 </r>
       <r>     3.2414    62.1810   413.2609 </r>
       <r>     3.2969    50.9972   416.0865 </r>
       <r>     3.3523    44.4285   418.5482 </r>
       <r>     3.4077    50.3426   421.3375 </r>
       <r>     3.4631    45.8306   423.8769 </r>
       <r>     3.5185    51.3419   426.7215 </r>
       <r>     3.5739    39.2116   428.8941 </r>
       <r>     3.6293    34.2965   430.7944 </r>
       <r>     3.6847    28.2705   432.3608 </r>
       <r>     3.7401    20.1425   433.4768 </r>
       <r>     3.7955    30.4084   435.1616 </r>
       <r>     3.8509    27.4545   436.6828 </r>
       <r>     3.9063    11.7604   437.3344 </r>
       <r>     3.9617    33.0977   439.1683 </r>
       <r>     4.0171    25.7293   440.5939 </r>
       <r>     4.0725    15.6477   441.4609 </r>
       <r>     4.1280    23.3607   442.7552 </r>
       <r>     4.1834    21.9947   443.9739 </r>
       <r>     4.2388    23.3268   445.2663 </r>
       <r>     4.2942    27.1457   446.7704 </r>
       <r>     4.3496    13.2060   447.5021 </r>
       <r>     4.4050    38.1137   449.6138 </r>
       <r>     4.4604    20.9069   450.7722 </r>
       <r>     4.5158    28.6921   452.3621 </r>
       <r>     4.5712    36.0118   454.3574 </r>
       <r>     4.6266    24.0855   455.6919 </r>
       <r>     4.6820    21.5476   456.8857 </r>
       <r>     4.7374    22.0934   458.1099 </r>
       <r>     4.7928    36.3763   460.1254 </r>
       <r>     4.8482    17.5230   461.0963 </r>
       <r>     4.9036    31.7039   462.8529 </r>
       <r>     4.9591    14.5860   463.6611 </r>
       <r>     5.0145     0.2301   463.6738 </r>
       <r>     5.0699    20.7258   464.8222 </r>
       <r>     5.1253    20.5308   465.9597 </r>
       <r>     5.1807    27.7419   467.4968 </r>
       <r>     5.2361    32.7267   469.3101 </r>
       <r>     5.2915    17.9300   470.3035 </r>
       <r>     5.3469    28.9193   471.9059 </r>
       <r>     5.4023    25.7539   473.3328 </r>
       <r>     5.4577    27.7580   474.8708 </r>
       <r>     5.5131    37.0228   476.9221 </r>
       <r>     5.5685    39.7957   479.1271 </r>
       <r>     5.6239    33.5232   480.9845 </r>
       <r>     5.6793    29.3387   482.6101 </r>
       <r>     5.7347    35.7871   484.5929 </r>
       <r>     5.7902    31.3593   486.3305 </r>
       <r>     5.8456    63.7717   489.8639 </r>
       <r>     5.9010    35.3459   491.8223 </r>
       <r>     5.9564    41.5678   494.1254 </r>
       <r>     6.0118    36.9651   496.1735 </r>
       <r>     6.0672    53.0990   499.1156 </r>
       <r>     6.1226    39.2466   501.2901 </r>
       <r>     6.1780    75.7879   505.4893 </r>
       <r>     6.2334    44.3701   507.9477 </r>
       <r>     6.2888    49.4429   510.6872 </r>
       <r>     6.3442    81.6868   515.2132 </r>
       <r>     6.3996    63.7288   518.7442 </r>
       <r>     6.4550    62.3014   522.1962 </r>
       <r>     6.5104    52.0841   525.0820 </r>
       <r>     6.5658    49.5125   527.8254 </r>
       <r>     6.6213    67.3211   531.5555 </r>
       <r>     6.6767    54.7822   534.5908 </r>
       <r>     6.7321    52.5064   537.5000 </r>
       <r>     6.7875    45.9466   540.0457 </r>
       <r>     6.8429    41.0604   542.3208 </r>
       <r>     6.8983    29.3178   543.9452 </r>
       <r>     6.9537    25.0586   545.3336 </r>
       <r>     7.0091    21.6327   546.5322 </r>
       <r>     7.0645    16.9121   547.4692 </r>
       <r>     7.1199     9.5797   548.0000 </r>
       <r>     7.1753     0.0000   548.0000 </r>
       <r>     7.2307     0.0000   548.0000 </r>
       <r>     7.2861     0.0000   548.0000 </r>
       <r>     7.3415     0.0000   548.0000 </r>
       <r>     7.3969     0.0000   548.0000 </r>
       <r>     7.4524     0.0000   548.0000 </r>
       <r>     7.5078     0.0000   548.0000 </r>
       <r>     7.5632     0.0000   548.0000 </r>
       <r>     7.6186     0.0000   548.0000 </r>
       <r>     7.6740     0.0000   548.0000 </r>
       <r>     7.7294     0.0000   548.0000 </r>
       <r>     7.7848     0.0000   548.0000 </r>
       <r>     7.8402     0.0000   548.0000 </r>
      </set>
     </set>
    </array>
   </total>
  </dos>
 </calculation>
 <structure name="finalpos" >
  <crystal>
   <varray name="basis" >
    <v>       5.48000000       0.00000000       0.00000000 </v>
    <v>       0.00000000      16.44000000       0.00000000 </v>
    <v>       0.00000000       0.00000000      27.70556095 </v>
   </varray>
   <i name="volume">   2496.02723302 </i>
   <varray name="rec_basis" >
    <v>       0.18248175       0.00000000       0.00000000 </v>
    <v>       0.00000000       0.06082725       0.00000000 </v>
    <v>       0.00000000       0.00000000       0.03609384 </v>
   </varray>
  </crystal>
  <varray name="positions" >
   <v>       0.25000000       0.00000000       0.04944856 </v>
   <v>       0.75000000       0.00000000       0.14834567 </v>
   <v>       0.25000000       0.00000000       0.24724278 </v>
   <v>       0.75000000       0.00000000       0.34613990 </v>
   <v>       0.25000000       0.00000000       0.44503701 </v>
   <v>       0.25000000       0.33333333       0.04944856 </v>
   <v>       0.75000000       0.33333333       0.14834567 </v>
   <v>       0.25000000       0.33333333       0.24724278 </v>
   <v>       0.75000000       0.33333333       0.34613990 </v>
   <v>       0.25000000       0.33333333       0.44503701 </v>
   <v>       0.25000000       0.66666667       0.04944856 </v>
   <v>       0.75000000       0.66666667       0.14834567 </v>
   <v>       0.25000000       0.66666667       0.24724278 </v>
   <v>       0.75000000       0.66666667       0.34613990 </v>
   <v>       0.25000000       0.66666667       0.44503701 </v>
   <v>       0.75000000       0.16666667       0.04944856 </v>
   <v>       0.25000000       0.16666667       0.14834567 </v>
   <v>       0.75000000       0.16666667       0.24724278 </v>
   <v>       0.25000000       0.16666667       0.34613990 </v>
   <v>       0.75000000       0.16666667       0.44503701 </v>
   <v>       0.75000000       0.50000000       0.04944856 </v>
   <v>       0.25000000       0.50000000       0.14834567 </v>
   <v>       0.75000000       0.50000000       0.24724278 </v>
   <v>       0.25000000       0.50000000       0.34613990 </v>
   <v>       0.75000000       0.50000000       0.44503701 </v>
   <v>       0.75000000       0.83333333       0.04944856 </v>
   <v>       0.25000000       0.83333333       0.14834567 </v>
   <v>       0.75000000       0.83333333       0.24724278 </v>
   <v>       0.25000000       0.83333333       0.34613990 </v>
   <v>       0.75000000       0.83333333       0.44503701 </v>
   <v>       0.00000000       0.08333333       0.00000000 </v>
   <v>       0.50000000       0.08333333       0.09889711 </v>
   <v>       0.00000000       0.08333333       0.19779423 </v>
   <v>       0.50000000       0.08333333       0.29669134 </v>
   <v>       0.00000000       0.08333333       0.39558845 </v>
   <v>       0.50000000       0.08333333       0.49448557 </v>
   <v>       0.00000000       0.41666667       0.00000000 </v>
   <v>       0.50000000       0.41666667       0.09889711 </v>
   <v>       0.00000000       0.41666667       0.19779423 </v>
   <v>       0.50000000       0.41666667       0.29669134 </v>
   <v>       0.00000000       0.41666667       0.39558845 </v>
   <v>       0.50000000       0.41666667       0.49448557 </v>
   <v>       0.00000000       0.75000000       0.00000000 </v>
   <v>       0.50000000       0.75000000       0.09889711 </v>
   <v>       0.00000000       0.75000000       0.19779423 </v>
   <v>       0.50000000       0.75000000       0.29669134 </v>
   <v>       0.00000000       0.75000000       0.39558845 </v>
   <v>       0.50000000       0.75000000       0.49448557 </v>
   <v>       0.50000000       0.25000000       0.00000000 </v>
   <v>       0.00000000       0.25000000       0.09889711 </v>
   <v>       0.50000000       0.25000000       0.19779423 </v>
   <v>       0.00000000       0.25000000       0.29669134 </v>
   <v>       0.50000000       0.25000000       0.39558845 </v>
   <v>       0.00000000       0.25000000       0.49448557 </v>
   <v>       0.50000000       0.58333333       0.00000000 </v>
   <v>       0.00000000       0.58333333       0.09889711 </v>
   <v>       0.50000000       0.58333333       0.19779423 </v>
   <v>       0.00000000       0.58333333       0.29669134 </v>
   <v>       0.50000000       0.58333333       0.39558845 </v>
   <v>       0.00000000       0.58333333       0.49448557 </v>
   <v>       0.50000000       0.91666667       0.00000000 </v>
   <v>       0.00000000       0.91666667       0.09889711 </v>
   <v>       0.50000000       0.91666667       0.19779423 </v>
   <v>       0.00000000       0.91666667       0.29669134 </v>
   <v>       0.50000000       0.91666667       0.39558845 </v>
   <v>       0.00000000       0.91666667       0.49448557 </v>
   <v>       0.00000000       0.00000000       0.56667324 </v>
   <v>       0.50000000       0.62500000       0.63890106 </v>
   <v>       0.00000000       0.25000000       0.71112887 </v>
   <v>       0.50000000       0.87500000       0.78335669 </v>
   <v>       0.00000000       0.50000000       0.85558451 </v>
   <v>       0.50000000       0.12500000       0.92781233 </v>
   <v>       0.00000000       0.50000000       0.56667324 </v>
   <v>       0.50000000       0.12500000       0.63890106 </v>
   <v>       0.00000000       0.75000000       0.71112887 </v>
   <v>       0.50000000       0.37500000       0.78335669 </v>
   <v>       0.00000000       0.00000000       0.85558451 </v>
   <v>       0.50000000       0.62500000       0.92781233 </v>
   <v>       0.00000000       0.25000000       0.56667324 </v>
   <v>       0.50000000       0.87500000       0.63890106 </v>
   <v>       0.00000000       0.50000000       0.71112887 </v>
   <v>       0.50000000       0.12500000       0.78335669 </v>
   <v>       0.00000000       0.75000000       0.85558451 </v>
   <v>       0.50000000       0.37500000       0.92781233 </v>
   <v>       0.00000000       0.75000000       0.56667324 </v>
   <v>       0.50000000       0.37500000       0.63890106 </v>
   <v>       0.00000000       0.00000000       0.71112887 </v>
   <v>       0.50000000       0.62500000       0.78335669 </v>
   <v>       0.00000000       0.25000000       0.85558451 </v>
   <v>       0.50000000       0.87500000       0.92781233 </v>
   <v>       0.75000000       0.37500000       0.56667324 </v>
   <v>       0.25000000       0.00000000       0.63890106 </v>
   <v>       0.75000000       0.62500000       0.71112887 </v>
   <v>       0.25000000       0.25000000       0.78335669 </v>
   <v>       0.75000000       0.87500000       0.85558451 </v>
   <v>       0.25000000       0.50000000       0.92781233 </v>
   <v>       0.75000000       0.87500000       0.56667324 </v>
   <v>       0.25000000       0.50000000       0.63890106 </v>
   <v>       0.75000000       0.12500000       0.71112887 </v>
   <v>       0.25000000       0.75000000       0.78335669 </v>
   <v>       0.75000000       0.37500000       0.85558451 </v>
   <v>       0.25000000       0.00000000       0.92781233 </v>
   <v>       0.75000000       0.12500000       0.56667324 </v>
   <v>       0.25000000       0.75000000       0.63890106 </v>
   <v>       0.75000000       0.37500000       0.71112887 </v>
   <v>       0.25000000       0.00000000       0.78335669 </v>
   <v>       0.75000000       0.62500000       0.85558451 </v>
   <v>       0.25000000       0.25000000       0.92781233 </v>
   <v>       0.75000000       0.62500000       0.56667324 </v>
   <v>       0.25000000       0.25000000       0.63890106 </v>
   <v>       0.75000000       0.87500000       0.71112887 </v>
   <v>       0.25000000       0.50000000       0.78335669 </v>
   <v>       0.75000000       0.12500000       0.85558451 </v>
   <v>       0.25000000       0.75000000       0.92781233 </v>
  </varray>
 </structure>
</modeling>
