Si Bulk DFT energetics calculations using VASP\n
This script is running on comp073.cluster.local in /lustre/home/ah1365/projects/127870/upgrade_report/case_studies/common/structures/interfaces/168_Ge96Sn72_111_111_a0.132075_b0.056604_c2.262296_interface11shift3\n
Job started on: Sun  8 Jun 23:37:23 UTC 2025\n
 running   64 mpi-ranks, on    4 nodes
 distrk:  each k-point on   64 cores,    1 groups
 distr:  one band on   16 cores,    4 groups
 vasp.6.4.3 19Mar24 (build Oct 22 2024 11:23:12) complex                        
  
 POSCAR found type information on POSCAR GeSn
 POSCAR found :  2 types and     168 ions
 -----------------------------------------------------------------------------
|                                                                             |
|           W    W    AA    RRRRR   N    N  II  N    N   GGGG   !!!           |
|           W    W   A  A   R    R  NN   N  II  NN   N  G    G  !!!           |
|           W    W  A    A  R    R  N N  N  II  N N  N  G       !!!           |
|           W WW W  AAAAAA  RRRRR   N  N N  II  N  N N  G  GGG   !            |
|           WW  WW  A    A  R   R   N   NN  II  N   NN  G    G                |
|           W    W  A    A  R    R  N    N  II  N    N   GGGG   !!!           |
|                                                                             |
|     You use a magnetic or noncollinear calculation, but did not specify     |
|     the initial magnetic moment with the MAGMOM tag. Note that a            |
|     default of 5.952e-3 will be used for all atoms. This ferromagnetic      |
|     setup may break the symmetry of the crystal, in particular it may       |
|     rule out finding an antiferromagnetic solution. Thence, we              |
|     recommend setting the initial magnetic moment manually or verifying     |
|     carefully that this magnetic setup is desired.                          |
|                                                                             |
 -----------------------------------------------------------------------------

 scaLAPACK will be used
 WARNING: PSMAXN for non-local potential too small
 LDA part: xc-table for (Slater+PW92), standard interpolation
 POSCAR, INCAR and KPOINTS ok, starting setup
 FFT: planning ... GRIDC
 FFT: planning ... GRID_SOFT
 FFT: planning ... GRID
 WAVECAR not read
 entering main loop
       N       E                     dE             d eps       ncg     rms          rms(c)
DAV:   1     0.339009919366E+04    0.33901E+04   -0.28170E+05 12928   0.168E+03
DAV:   2    -0.272068371032E+03   -0.36622E+04   -0.35399E+04 15120   0.199E+02
DAV:   3    -0.675816983341E+03   -0.40375E+03   -0.39179E+03 15952   0.642E+01
DAV:   4    -0.692473288564E+03   -0.16656E+02   -0.16324E+02 15632   0.128E+01
DAV:   5    -0.693166810405E+03   -0.69352E+00   -0.68842E+00 16992   0.225E+00    0.284E+01
DAV:   6    -0.684516808589E+03    0.86500E+01   -0.17486E+01 19648   0.709E+00    0.139E+01
DAV:   7    -0.685059238060E+03   -0.54243E+00   -0.20019E+01 16512   0.774E+00    0.595E+00
DAV:   8    -0.683234707768E+03    0.18245E+01   -0.68478E+00 16200   0.500E+00    0.171E+00
DAV:   9    -0.683272188355E+03   -0.37481E-01   -0.19846E+00 15568   0.186E+00    0.108E+00
DAV:  10    -0.683275475948E+03   -0.32876E-02   -0.37487E-01 15288   0.682E-01    0.541E-01
DAV:  11    -0.683277078677E+03   -0.16027E-02   -0.51252E-02 15416   0.280E-01    0.277E-01
DAV:  12    -0.683276725612E+03    0.35306E-03   -0.10365E-02 14592   0.131E-01    0.178E-01
DAV:  13    -0.683277154073E+03   -0.42846E-03   -0.19786E-03 14880   0.545E-02    0.714E-02
DAV:  14    -0.683277262054E+03   -0.10798E-03   -0.25464E-04 14776   0.248E-02    0.326E-02
DAV:  15    -0.683277294147E+03   -0.32093E-04   -0.63897E-05 14424   0.119E-02    0.162E-02
DAV:  16    -0.683277309773E+03   -0.15626E-04   -0.10706E-05 14712   0.520E-03    0.853E-03
DAV:  17    -0.683277315121E+03   -0.53479E-05   -0.37881E-06 14600   0.296E-03    0.599E-03
DAV:  18    -0.683277317413E+03   -0.22912E-05   -0.13759E-06 14424   0.168E-03    0.371E-03
DAV:  19    -0.683277318200E+03   -0.78753E-06   -0.84306E-07 14416   0.122E-03    0.264E-03
DAV:  20    -0.683277318464E+03   -0.26396E-06   -0.41500E-07 11648   0.102E-03    0.163E-03
DAV:  21    -0.683277318217E+03    0.24684E-06   -0.15818E-07  8968   0.615E-04    0.949E-04
DAV:  22    -0.683277318122E+03    0.95646E-07   -0.64351E-08  7840   0.393E-04
   1 F= -.68327732E+03 E0= -.68327548E+03  d E =-.367770E-02  mag=     1.0000
Job ended on: Mon  9 Jun 00:15:59 UTC 2025\n
