       N       E                     dE             d eps       ncg     rms          rms(c)
DAV:   1     0.464151983658E+04    0.46415E+04   -0.44331E+05 20352   0.167E+03
DAV:   2    -0.604834962423E+03   -0.52464E+04   -0.50656E+04 23992   0.203E+02
DAV:   3    -0.113629097436E+04   -0.53146E+03   -0.51397E+03 25928   0.586E+01
DAV:   4    -0.115871509421E+04   -0.22424E+02   -0.21931E+02 24760   0.129E+01
DAV:   5    -0.115977560320E+04   -0.10605E+01   -0.10493E+01 28896   0.274E+00    0.477E+01
DAV:   6    -0.112880371990E+04    0.30972E+02   -0.11457E+02 31392   0.133E+01    0.219E+01
DAV:   7    -0.112745289266E+04    0.13508E+01   -0.68226E+01 25960   0.113E+01    0.154E+01
DAV:   8    -0.112471132948E+04    0.27416E+01   -0.14715E+01 24232   0.514E+00    0.322E+00
DAV:   9    -0.112477365140E+04   -0.62322E-01   -0.40659E+00 25440   0.223E+00    0.220E+00
DAV:  10    -0.112467765917E+04    0.95992E-01   -0.11417E+00 24736   0.131E+00    0.147E+00
DAV:  11    -0.112466529016E+04    0.12369E-01   -0.23095E-01 23704   0.525E-01    0.102E+00
DAV:  12    -0.112466662390E+04   -0.13337E-02   -0.48665E-02 23224   0.239E-01    0.619E-01
DAV:  13    -0.112466586900E+04    0.75490E-03   -0.20385E-02 25488   0.177E-01    0.322E-01
DAV:  14    -0.112466528336E+04    0.58564E-03   -0.82951E-03 25112   0.119E-01    0.150E-01
DAV:  15    -0.112466514425E+04    0.13911E-03   -0.33573E-03 23792   0.701E-02    0.771E-02
DAV:  16    -0.112466512887E+04    0.15381E-04   -0.85056E-04 23648   0.313E-02    0.600E-02
DAV:  17    -0.112466513750E+04   -0.86326E-05   -0.18005E-04 23984   0.150E-02    0.398E-02
DAV:  18    -0.112466514157E+04   -0.40752E-05   -0.95676E-05 25072   0.122E-02    0.208E-02
DAV:  19    -0.112466513031E+04    0.11269E-04   -0.33889E-05 25128   0.771E-03    0.120E-02
DAV:  20    -0.112466512964E+04    0.66878E-06   -0.78736E-06 23936   0.316E-03    0.917E-03
DAV:  21    -0.112466513011E+04   -0.47040E-06   -0.24323E-06 23776   0.165E-03    0.447E-03
DAV:  22    -0.112466513057E+04   -0.46271E-06   -0.85135E-07 23792   0.984E-04    0.217E-03
DAV:  23    -0.112466513087E+04   -0.29832E-06   -0.19466E-07 13536   0.546E-04    0.138E-03
DAV:  24    -0.112466513126E+04   -0.39380E-06   -0.15387E-07 12544   0.401E-04    0.101E-03
DAV:  25    -0.112466513141E+04   -0.14574E-06   -0.72807E-08 11784   0.278E-04    0.855E-04
DAV:  26    -0.112466513142E+04   -0.17702E-07   -0.24254E-08 11720   0.178E-04
   1 F= -.11246651E+04 E0= -.11246628E+04  d E =-.468370E-02  mag=     1.0000
