<?xml version="1.0" encoding="ISO-8859-1"?>
<modeling>
 <generator>
  <i name="program" type="string">vasp </i>
  <i name="version" type="string">6.4.3  </i>
  <i name="subversion" type="string">19Mar24 (build Oct 22 2024 11:23:12) complex                          parallel </i>
  <i name="platform" type="string">LinuxIFC </i>
  <i name="date" type="string">2025 06 13 </i>
  <i name="time" type="string">04:47:42 </i>
 </generator>
 <incar>
  <i type="string" name="SYSTEM">Si and Ge interface calculation</i>
  <i type="int" name="ISTART">     0</i>
  <i type="logical" name="ADDGRID"> T  </i>
  <i type="int" name="ISPIN">     2</i>
  <i name="AMIX">      0.60000000</i>
  <i type="int" name="ICHARG">     2</i>
  <i type="int" name="NELM">   100</i>
  <i name="EDIFF">      0.00000010</i>
  <i name="ENCUT">    700.00000000</i>
  <i name="ENAUG">    900.00000000</i>
  <i type="int" name="NBANDS">   634</i>
  <i name="NUPDOWN">      1.00000000</i>
  <i name="NELECT">   1056.00000000</i>
  <i type="string" name="LREAL">AUTO</i>
  <i type="int" name="ISMEAR">     0</i>
  <i name="SIGMA">      0.01000000</i>
  <i type="int" name="LMAXMIX">     6</i>
  <i type="logical" name="LWAVE"> F  </i>
  <i type="logical" name="LVTOT"> F  </i>
  <i type="logical" name="LVHAR"> T  </i>
  <i type="logical" name="LASPH"> T  </i>
  <i type="logical" name="LMIXTAU"> T  </i>
 </incar>
 <primitive_cell>
  <structure name="primitive_cell" >
   <crystal>
    <varray name="basis" >
     <v>      19.46759987       0.00000000       0.00000000 </v>
     <v>       0.00000000      19.46759987       0.00000000 </v>
     <v>       0.00000000       0.00000000      19.30025291 </v>
    </varray>
    <i name="volume">   7314.55353316 </i>
    <varray name="rec_basis" >
     <v>       0.05136740       0.00000000       0.00000000 </v>
     <v>       0.00000000       0.05136740       0.00000000 </v>
     <v>       0.00000000       0.00000000       0.05181279 </v>
    </varray>
   </crystal>
   <varray name="positions" >
    <v>       0.99503511       0.66666669       0.00000000 </v>
    <v>       0.58887458       0.55329323       0.88601178 </v>
    <v>       0.66170174       0.66666669       0.33622354 </v>
    <v>       0.99503511       0.33333334       0.00000000 </v>
    <v>       0.28118229       0.09175491       0.88601178 </v>
    <v>       0.66170174       0.33333334       0.33622354 </v>
    <v>       0.51195168       0.93790865       0.88601178 </v>
    <v>       0.82836843       0.00000000       0.16811179 </v>
    <v>       0.83887482       0.30329317       0.53426754 </v>
    <v>       0.32836846       0.66666669       0.00000000 </v>
    <v>       0.93502843       0.82252407       0.88601178 </v>
    <v>       0.99503511       0.66666669       0.33622354 </v>
    <v>       0.24272072       0.28406253       0.88601178 </v>
    <v>       0.47349000       0.13021639       0.88601178 </v>
    <v>       0.99503511       0.33333334       0.33622354 </v>
    <v>       0.32836846       0.00000000       0.00000000 </v>
    <v>       0.01195157       0.43790862       0.88601178 </v>
    <v>       0.99503511       0.00000000       0.33622354 </v>
    <v>       0.76195157       0.68790865       0.81566292 </v>
    <v>       0.62733602       0.36098558       0.88601178 </v>
    <v>       0.32836846       0.66666669       0.33622354 </v>
    <v>       0.12733614       0.86098552       0.88601178 </v>
    <v>       0.74272072       0.78406245       0.88601178 </v>
    <v>       0.32836846       0.33333334       0.33622354 </v>
    <v>       0.66170180       0.00000000       0.00000000 </v>
    <v>       0.49503511       0.00000000       0.16811179 </v>
    <v>       0.32836846       0.00000000       0.33622354 </v>
    <v>       0.07836843       0.91666675       0.08405589 </v>
    <v>       0.68502867       0.07252407       0.53426754 </v>
    <v>       0.74503505       0.91666675       0.42027944 </v>
    <v>       0.07836843       0.58333343       0.08405589 </v>
    <v>       0.22349024       0.38021624       0.53426754 </v>
    <v>       0.74503505       0.58333343       0.42027944 </v>
    <v>       0.07836843       0.25000000       0.08405589 </v>
    <v>       0.76195180       0.68790859       0.53426754 </v>
    <v>       0.26195180       0.18790850       0.53426754 </v>
    <v>       0.41170177       0.91666675       0.08405589 </v>
    <v>       0.37733638       0.61098552       0.53426754 </v>
    <v>       0.07836838       0.91666675       0.42027944 </v>
    <v>       0.41170177       0.58333343       0.08405589 </v>
    <v>       0.49272096       0.03406251       0.53426754 </v>
    <v>       0.99272096       0.53406239       0.53426754 </v>
    <v>       0.41170177       0.25000000       0.08405589 </v>
    <v>       0.24503510       0.25000000       0.25216761 </v>
    <v>       0.07836838       0.25000000       0.42027944 </v>
    <v>       0.74503517       0.91666675       0.08405589 </v>
    <v>       0.33887482       0.80329305       0.53426754 </v>
    <v>       0.51195180       0.93790859       0.60461640 </v>
    <v>       0.74503517       0.58333343       0.08405589 </v>
    <v>       0.03118253       0.34175467       0.53426754 </v>
    <v>       0.87733626       0.11098541       0.53426754 </v>
    <v>       0.74503517       0.25000000       0.08405589 </v>
    <v>       0.57836855       0.25000000       0.25216761 </v>
    <v>       0.41170180       0.25000000       0.42027944 </v>
    <v>       0.16170177       0.83333331       0.00000000 </v>
    <v>       0.31964386       0.89944708       0.88601178 </v>
    <v>       0.82836843       0.83333331       0.33622354 </v>
    <v>       0.05041313       0.24560109       0.88601178 </v>
    <v>       0.39656711       0.51483172       0.88601178 </v>
    <v>       0.82836843       0.50000000       0.33622354 </v>
    <v>       0.16170177       0.16666667       0.00000000 </v>
    <v>       0.20425928       0.47637019       0.88601178 </v>
    <v>       0.82836843       0.16666667       0.33622354 </v>
    <v>       0.49503511       0.83333331       0.00000000 </v>
    <v>       0.32836843       0.83333331       0.16811179 </v>
    <v>       0.16170175       0.83333331       0.33622354 </v>
    <v>       0.49503511       0.50000000       0.00000000 </v>
    <v>       0.53118229       0.84175485       0.81566292 </v>
    <v>       0.16170175       0.50000000       0.33622354 </v>
    <v>       0.78118229       0.59175479       0.88601178 </v>
    <v>       0.32836843       0.16666667       0.16811179 </v>
    <v>       0.16170175       0.16666667       0.33622354 </v>
    <v>       0.82836855       0.83333331       0.00000000 </v>
    <v>       0.43502855       0.32252401       0.88601178 </v>
    <v>       0.49503520       0.83333331       0.33622354 </v>
    <v>       0.82836855       0.50000000       0.00000000 </v>
    <v>       0.66170186       0.50000000       0.16811179 </v>
    <v>       0.49503520       0.50000000       0.33622354 </v>
    <v>       0.82836855       0.16666667       0.00000000 </v>
    <v>       0.66170186       0.16666667       0.16811179 </v>
    <v>       0.49503520       0.16666667       0.33622354 </v>
    <v>       0.24503510       0.75000006       0.08405589 </v>
    <v>       0.28118253       0.09175479       0.60461640 </v>
    <v>       0.80041337       0.49560079       0.53426754 </v>
    <v>       0.24503510       0.41666672       0.08405589 </v>
    <v>       0.07836843       0.41666672       0.25216761 </v>
    <v>       0.91170174       0.41666672       0.42027944 </v>
    <v>       0.24503510       0.08333334       0.08405589 </v>
    <v>       0.07836843       0.08333334       0.25216761 </v>
    <v>       0.91170174       0.08333334       0.42027944 </v>
    <v>       0.57836848       0.75000006       0.08405589 </v>
    <v>       0.41170186       0.75000006       0.25216761 </v>
    <v>       0.24503513       0.75000006       0.42027944 </v>
    <v>       0.57836848       0.41666672       0.08405589 </v>
    <v>       0.41170186       0.41666672       0.25216761 </v>
    <v>       0.53118253       0.84175467       0.53426754 </v>
    <v>       0.57836848       0.08333334       0.08405589 </v>
    <v>       0.18502867       0.57252395       0.53426754 </v>
    <v>       0.24503513       0.08333334       0.42027944 </v>
    <v>       0.08887458       0.05329323       0.88601178 </v>
    <v>       0.14656711       0.76483166       0.53426754 </v>
    <v>       0.57836837       0.75000006       0.42027944 </v>
    <v>       0.91170174       0.41666672       0.08405589 </v>
    <v>       0.95425940       0.72637004       0.53426754 </v>
    <v>       0.57836837       0.41666672       0.42027944 </v>
    <v>       0.91170174       0.08333334       0.08405589 </v>
    <v>       0.06964409       0.14944696       0.53426754 </v>
    <v>       0.57836837       0.08333334       0.42027944 </v>
    <v>       0.64656722       0.26483157       0.53426754 </v>
    <v>       0.53118253       0.34175470       0.67496520 </v>
    <v>       0.41579783       0.41867787       0.81566292 </v>
    <v>       0.91170174       0.75000006       0.42027944 </v>
    <v>       0.68502867       0.57252389       0.67496520 </v>
    <v>       0.56964397       0.64944702       0.81566292 </v>
    <v>       0.74503505       0.25000000       0.42027944 </v>
    <v>       0.14656711       0.26483163       0.67496520 </v>
    <v>       0.03118241       0.34175476       0.81566292 </v>
    <v>       0.41579795       0.41867778       0.53426754 </v>
    <v>       0.30041325       0.49560091       0.67496520 </v>
    <v>       0.18502855       0.57252401       0.81566292 </v>
    <v>       0.56964397       0.64944696       0.53426754 </v>
    <v>       0.45425940       0.72637010       0.67496520 </v>
    <v>       0.33887458       0.80329323       0.81566292 </v>
    <v>       0.72349024       0.88021630       0.53426754 </v>
    <v>       0.60810542       0.95713943       0.67496520 </v>
    <v>       0.49272084       0.03406262       0.81566292 </v>
    <v>       0.41170180       0.58333343       0.42027944 </v>
    <v>       0.76195168       0.18790853       0.67496520 </v>
    <v>       0.64656687       0.26483166       0.81566292 </v>
    <v>       0.57836855       0.58333343       0.25216761 </v>
    <v>       0.91579783       0.41867781       0.67496520 </v>
    <v>       0.80041313       0.49560094       0.81566292 </v>
    <v>       0.41170186       0.08333334       0.25216761 </v>
    <v>       0.06964397       0.64944702       0.67496520 </v>
    <v>       0.95425928       0.72637016       0.81566292 </v>
    <v>       0.57836855       0.91666675       0.25216761 </v>
    <v>       0.22349012       0.88021618       0.67496520 </v>
    <v>       0.10810542       0.95713931       0.81566292 </v>
    <v>       0.24503510       0.58333343       0.25216761 </v>
    <v>       0.37733626       0.11098554       0.67496520 </v>
    <v>       0.26195157       0.18790868       0.81566292 </v>
    <v>       0.74503505       0.41666672       0.25216761 </v>
    <v>       0.83887470       0.80329317       0.67496520 </v>
    <v>       0.72349000       0.88021636       0.81566292 </v>
    <v>       0.10810566       0.95713925       0.53426754 </v>
    <v>       0.99272090       0.03406239       0.67496520 </v>
    <v>       0.87733614       0.11098554       0.81566292 </v>
    <v>       0.85810554       0.20713928       0.60461640 </v>
    <v>       0.74272084       0.28406242       0.74531406 </v>
    <v>       0.49503511       0.66666669       0.16811179 </v>
    <v>       0.47349024       0.13021627       0.60461640 </v>
    <v>       0.35810554       0.20713940       0.74531406 </v>
    <v>       0.32836846       0.33333334       0.00000000 </v>
    <v>       0.62733650       0.36098543       0.60461640 </v>
    <v>       0.51195168       0.43790859       0.74531406 </v>
    <v>       0.99503505       0.50000000       0.16811179 </v>
    <v>       0.78118253       0.59175467       0.60461640 </v>
    <v>       0.66579783       0.66867781       0.74531406 </v>
    <v>       0.55041313       0.74560094       0.88601178 </v>
    <v>       0.24272096       0.28406236       0.60461640 </v>
    <v>       0.12733626       0.36098549       0.74531406 </v>
    <v>       0.16170174       0.00000000       0.16811179 </v>
    <v>       0.39656711       0.51483166       0.60461640 </v>
    <v>       0.28118241       0.59175479       0.74531406 </v>
    <v>       0.16579771       0.66867793       0.88601178 </v>
    <v>       0.55041325       0.74560082       0.60461640 </v>
    <v>       0.43502855       0.82252395       0.74531406 </v>
    <v>       0.99503505       0.83333331       0.16811179 </v>
    <v>       0.70425940       0.97637010       0.60461640 </v>
    <v>       0.58887470       0.05329323       0.74531406 </v>
    <v>       0.16170174       0.33333334       0.16811179 </v>
    <v>       0.01195168       0.43790853       0.60461640 </v>
    <v>       0.89656705       0.51483160       0.74531406 </v>
    <v>       0.49503511       0.16666667       0.00000000 </v>
    <v>       0.16579783       0.66867781       0.60461640 </v>
    <v>       0.05041313       0.74560088       0.74531406 </v>
    <v>       0.16170174       0.66666669       0.16811179 </v>
    <v>       0.31964397       0.89944696       0.60461640 </v>
    <v>       0.20425928       0.97637010       0.74531406 </v>
    <v>       0.91170174       0.75000006       0.08405589 </v>
    <v>       0.93502861       0.82252389       0.60461640 </v>
    <v>       0.81964397       0.89944708       0.74531406 </v>
    <v>       0.70425916       0.97637016       0.88601178 </v>
    <v>       0.08887482       0.05329311       0.60461640 </v>
    <v>       0.97349006       0.13021627       0.74531406 </v>
    <v>       0.85810542       0.20713940       0.88601178 </v>
    <v>       0.66170174       0.00000000       0.33622354 </v>
    <v>       0.72349012       0.38021630       0.67496520 </v>
    <v>       0.60810542       0.45713946       0.81566292 </v>
    <v>       0.45425940       0.22637007       0.53426754 </v>
    <v>       0.33887470       0.30329320       0.67496520 </v>
    <v>       0.22349000       0.38021633       0.81566292 </v>
    <v>       0.60810566       0.45713937       0.53426754 </v>
    <v>       0.49272084       0.53406251       0.67496520 </v>
    <v>       0.37733626       0.61098564       0.81566292 </v>
    <v>       0.91170180       0.25000000       0.25216761 </v>
    <v>       0.64656711       0.76483172       0.67496520 </v>
    <v>       0.32836843       0.50000000       0.16811179 </v>
    <v>       0.74503505       0.08333334       0.25216761 </v>
    <v>       0.95425940       0.22637010       0.67496520 </v>
    <v>       0.83887458       0.30329323       0.81566292 </v>
    <v>       0.91170180       0.58333343       0.25216761 </v>
    <v>       0.10810554       0.45713937       0.67496520 </v>
    <v>       0.99272084       0.53406251       0.81566292 </v>
    <v>       0.24503510       0.91666675       0.25216761 </v>
    <v>       0.26195168       0.68790865       0.67496520 </v>
    <v>       0.14656699       0.76483178       0.81566292 </v>
    <v>       0.24503513       0.41666672       0.42027944 </v>
    <v>       0.41579771       0.91867781       0.67496520 </v>
    <v>       0.30041313       0.99560094       0.81566292 </v>
    <v>       0.91170180       0.91666675       0.25216761 </v>
    <v>       0.56964397       0.14944711       0.67496520 </v>
    <v>       0.45425928       0.22637024       0.81566292 </v>
    <v>       0.07836838       0.58333343       0.42027944 </v>
    <v>       0.87733626       0.61098552       0.67496520 </v>
    <v>       0.66170180       0.66666669       0.00000000 </v>
    <v>       0.74503505       0.75000006       0.25216761 </v>
    <v>       0.03118241       0.84175479       0.67496520 </v>
    <v>       0.91579771       0.91867793       0.81566292 </v>
    <v>       0.30041337       0.99560088       0.53426754 </v>
    <v>       0.18502855       0.07252407       0.67496520 </v>
    <v>       0.06964386       0.14944711       0.81566292 </v>
    <v>       0.91579789       0.91867775       0.53426754 </v>
    <v>       0.80041313       0.99560088       0.67496520 </v>
    <v>       0.68502843       0.07252407       0.81566292 </v>
    <v>       0.66579795       0.16867773       0.60461640 </v>
    <v>       0.55041325       0.24560088       0.74531406 </v>
    <v>       0.66170186       0.83333331       0.16811179 </v>
    <v>       0.81964397       0.39944696       0.60461640 </v>
    <v>       0.70425928       0.47637013       0.74531406 </v>
    <v>       0.82836843       0.66666669       0.16811179 </v>
    <v>       0.43502879       0.32252389       0.60461640 </v>
    <v>       0.31964397       0.39944702       0.74531406 </v>
    <v>       0.99503505       0.16666667       0.16811179 </v>
    <v>       0.58887494       0.55329311       0.60461640 </v>
    <v>       0.47349024       0.63021624       0.74531406 </v>
    <v>       0.35810554       0.70713937       0.88601178 </v>
    <v>       0.74272108       0.78406239       0.60461640 </v>
    <v>       0.62733650       0.86098552       0.74531406 </v>
    <v>       0.99503511       0.00000000       0.00000000 </v>
    <v>       0.05041325       0.24560076       0.60461640 </v>
    <v>       0.93502855       0.32252389       0.74531406 </v>
    <v>       0.81964386       0.39944705       0.88601178 </v>
    <v>       0.20425940       0.47637007       0.60461640 </v>
    <v>       0.08887482       0.55329317       0.74531406 </v>
    <v>       0.97349006       0.63021630       0.88601178 </v>
    <v>       0.35810566       0.70713925       0.60461640 </v>
    <v>       0.24272084       0.78406239       0.74531406 </v>
    <v>       0.66170180       0.33333334       0.00000000 </v>
    <v>       0.41170180       0.91666675       0.42027944 </v>
    <v>       0.39656711       0.01483178       0.74531406 </v>
    <v>       0.82836843       0.33333334       0.16811179 </v>
    <v>       0.97349018       0.63021618       0.60461640 </v>
    <v>       0.85810542       0.70713931       0.74531406 </v>
    <v>       0.49503511       0.33333334       0.16811179 </v>
    <v>       0.12733638       0.86098540       0.60461640 </v>
    <v>       0.01195168       0.93790853       0.74531406 </v>
    <v>       0.89656693       0.01483178       0.88601178 </v>
    <v>       0.07836843       0.75000006       0.25216761 </v>
    <v>       0.16579783       0.16867796       0.74531406 </v>
    <v>       0.16170177       0.50000000       0.00000000 </v>
    <v>       0.89656711       0.01483154       0.60461640 </v>
    <v>       0.78118229       0.09175479       0.74531406 </v>
    <v>       0.66579771       0.16867784       0.88601178 </v>
   </varray>
  </structure>
  <varray name="primitive_index" >
   <v type="int" >        1 </v>
   <v type="int" >        2 </v>
   <v type="int" >        3 </v>
   <v type="int" >        4 </v>
   <v type="int" >        5 </v>
   <v type="int" >        6 </v>
   <v type="int" >        7 </v>
   <v type="int" >        8 </v>
   <v type="int" >        9 </v>
   <v type="int" >       10 </v>
   <v type="int" >       11 </v>
   <v type="int" >       12 </v>
   <v type="int" >       13 </v>
   <v type="int" >       14 </v>
   <v type="int" >       15 </v>
   <v type="int" >       16 </v>
   <v type="int" >       17 </v>
   <v type="int" >       18 </v>
   <v type="int" >       19 </v>
   <v type="int" >       20 </v>
   <v type="int" >       21 </v>
   <v type="int" >       22 </v>
   <v type="int" >       23 </v>
   <v type="int" >       24 </v>
   <v type="int" >       25 </v>
   <v type="int" >       26 </v>
   <v type="int" >       27 </v>
   <v type="int" >       28 </v>
   <v type="int" >       29 </v>
   <v type="int" >       30 </v>
   <v type="int" >       31 </v>
   <v type="int" >       32 </v>
   <v type="int" >       33 </v>
   <v type="int" >       34 </v>
   <v type="int" >       35 </v>
   <v type="int" >       36 </v>
   <v type="int" >       37 </v>
   <v type="int" >       38 </v>
   <v type="int" >       39 </v>
   <v type="int" >       40 </v>
   <v type="int" >       41 </v>
   <v type="int" >       42 </v>
   <v type="int" >       43 </v>
   <v type="int" >       44 </v>
   <v type="int" >       45 </v>
   <v type="int" >       46 </v>
   <v type="int" >       47 </v>
   <v type="int" >       48 </v>
   <v type="int" >       49 </v>
   <v type="int" >       50 </v>
   <v type="int" >       51 </v>
   <v type="int" >       52 </v>
   <v type="int" >       53 </v>
   <v type="int" >       54 </v>
   <v type="int" >       55 </v>
   <v type="int" >       56 </v>
   <v type="int" >       57 </v>
   <v type="int" >       58 </v>
   <v type="int" >       59 </v>
   <v type="int" >       60 </v>
   <v type="int" >       61 </v>
   <v type="int" >       62 </v>
   <v type="int" >       63 </v>
   <v type="int" >       64 </v>
   <v type="int" >       65 </v>
   <v type="int" >       66 </v>
   <v type="int" >       67 </v>
   <v type="int" >       68 </v>
   <v type="int" >       69 </v>
   <v type="int" >       70 </v>
   <v type="int" >       71 </v>
   <v type="int" >       72 </v>
   <v type="int" >       73 </v>
   <v type="int" >       74 </v>
   <v type="int" >       75 </v>
   <v type="int" >       76 </v>
   <v type="int" >       77 </v>
   <v type="int" >       78 </v>
   <v type="int" >       79 </v>
   <v type="int" >       80 </v>
   <v type="int" >       81 </v>
   <v type="int" >       82 </v>
   <v type="int" >       83 </v>
   <v type="int" >       84 </v>
   <v type="int" >       85 </v>
   <v type="int" >       86 </v>
   <v type="int" >       87 </v>
   <v type="int" >       88 </v>
   <v type="int" >       89 </v>
   <v type="int" >       90 </v>
   <v type="int" >       91 </v>
   <v type="int" >       92 </v>
   <v type="int" >       93 </v>
   <v type="int" >       94 </v>
   <v type="int" >       95 </v>
   <v type="int" >       96 </v>
   <v type="int" >       97 </v>
   <v type="int" >       98 </v>
   <v type="int" >       99 </v>
   <v type="int" >      100 </v>
   <v type="int" >      101 </v>
   <v type="int" >      102 </v>
   <v type="int" >      103 </v>
   <v type="int" >      104 </v>
   <v type="int" >      105 </v>
   <v type="int" >      106 </v>
   <v type="int" >      107 </v>
   <v type="int" >      108 </v>
   <v type="int" >      109 </v>
   <v type="int" >      110 </v>
   <v type="int" >      111 </v>
   <v type="int" >      112 </v>
   <v type="int" >      113 </v>
   <v type="int" >      114 </v>
   <v type="int" >      115 </v>
   <v type="int" >      116 </v>
   <v type="int" >      117 </v>
   <v type="int" >      118 </v>
   <v type="int" >      119 </v>
   <v type="int" >      120 </v>
   <v type="int" >      121 </v>
   <v type="int" >      122 </v>
   <v type="int" >      123 </v>
   <v type="int" >      124 </v>
   <v type="int" >      125 </v>
   <v type="int" >      126 </v>
   <v type="int" >      127 </v>
   <v type="int" >      128 </v>
   <v type="int" >      129 </v>
   <v type="int" >      130 </v>
   <v type="int" >      131 </v>
   <v type="int" >      132 </v>
   <v type="int" >      133 </v>
   <v type="int" >      134 </v>
   <v type="int" >      135 </v>
   <v type="int" >      136 </v>
   <v type="int" >      137 </v>
   <v type="int" >      138 </v>
   <v type="int" >      139 </v>
   <v type="int" >      140 </v>
   <v type="int" >      141 </v>
   <v type="int" >      142 </v>
   <v type="int" >      143 </v>
   <v type="int" >      144 </v>
   <v type="int" >      145 </v>
   <v type="int" >      146 </v>
   <v type="int" >      147 </v>
   <v type="int" >      148 </v>
   <v type="int" >      149 </v>
   <v type="int" >      150 </v>
   <v type="int" >      151 </v>
   <v type="int" >      152 </v>
   <v type="int" >      153 </v>
   <v type="int" >      154 </v>
   <v type="int" >      155 </v>
   <v type="int" >      156 </v>
   <v type="int" >      157 </v>
   <v type="int" >      158 </v>
   <v type="int" >      159 </v>
   <v type="int" >      160 </v>
   <v type="int" >      161 </v>
   <v type="int" >      162 </v>
   <v type="int" >      163 </v>
   <v type="int" >      164 </v>
   <v type="int" >      165 </v>
   <v type="int" >      166 </v>
   <v type="int" >      167 </v>
   <v type="int" >      168 </v>
   <v type="int" >      169 </v>
   <v type="int" >      170 </v>
   <v type="int" >      171 </v>
   <v type="int" >      172 </v>
   <v type="int" >      173 </v>
   <v type="int" >      174 </v>
   <v type="int" >      175 </v>
   <v type="int" >      176 </v>
   <v type="int" >      177 </v>
   <v type="int" >      178 </v>
   <v type="int" >      179 </v>
   <v type="int" >      180 </v>
   <v type="int" >      181 </v>
   <v type="int" >      182 </v>
   <v type="int" >      183 </v>
   <v type="int" >      184 </v>
   <v type="int" >      185 </v>
   <v type="int" >      186 </v>
   <v type="int" >      187 </v>
   <v type="int" >      188 </v>
   <v type="int" >      189 </v>
   <v type="int" >      190 </v>
   <v type="int" >      191 </v>
   <v type="int" >      192 </v>
   <v type="int" >      193 </v>
   <v type="int" >      194 </v>
   <v type="int" >      195 </v>
   <v type="int" >      196 </v>
   <v type="int" >      197 </v>
   <v type="int" >      198 </v>
   <v type="int" >      199 </v>
   <v type="int" >      200 </v>
   <v type="int" >      201 </v>
   <v type="int" >      202 </v>
   <v type="int" >      203 </v>
   <v type="int" >      204 </v>
   <v type="int" >      205 </v>
   <v type="int" >      206 </v>
   <v type="int" >      207 </v>
   <v type="int" >      208 </v>
   <v type="int" >      209 </v>
   <v type="int" >      210 </v>
   <v type="int" >      211 </v>
   <v type="int" >      212 </v>
   <v type="int" >      213 </v>
   <v type="int" >      214 </v>
   <v type="int" >      215 </v>
   <v type="int" >      216 </v>
   <v type="int" >      217 </v>
   <v type="int" >      218 </v>
   <v type="int" >      219 </v>
   <v type="int" >      220 </v>
   <v type="int" >      221 </v>
   <v type="int" >      222 </v>
   <v type="int" >      223 </v>
   <v type="int" >      224 </v>
   <v type="int" >      225 </v>
   <v type="int" >      226 </v>
   <v type="int" >      227 </v>
   <v type="int" >      228 </v>
   <v type="int" >      229 </v>
   <v type="int" >      230 </v>
   <v type="int" >      231 </v>
   <v type="int" >      232 </v>
   <v type="int" >      233 </v>
   <v type="int" >      234 </v>
   <v type="int" >      235 </v>
   <v type="int" >      236 </v>
   <v type="int" >      237 </v>
   <v type="int" >      238 </v>
   <v type="int" >      239 </v>
   <v type="int" >      240 </v>
   <v type="int" >      241 </v>
   <v type="int" >      242 </v>
   <v type="int" >      243 </v>
   <v type="int" >      244 </v>
   <v type="int" >      245 </v>
   <v type="int" >      246 </v>
   <v type="int" >      247 </v>
   <v type="int" >      248 </v>
   <v type="int" >      249 </v>
   <v type="int" >      250 </v>
   <v type="int" >      251 </v>
   <v type="int" >      252 </v>
   <v type="int" >      253 </v>
   <v type="int" >      254 </v>
   <v type="int" >      255 </v>
   <v type="int" >      256 </v>
   <v type="int" >      257 </v>
   <v type="int" >      258 </v>
   <v type="int" >      259 </v>
   <v type="int" >      260 </v>
   <v type="int" >      261 </v>
   <v type="int" >      262 </v>
   <v type="int" >      263 </v>
   <v type="int" >      264 </v>
  </varray>
 </primitive_cell>
 <kpoints>
  <generation param="Gamma">
   <v type="int" name="divisions">       2        2        2 </v>
   <v name="usershift">      0.00000000       0.00000000       0.00000000 </v>
   <v name="genvec1">      0.50000000       0.00000000       0.00000000 </v>
   <v name="genvec2">      0.00000000       0.50000000       0.00000000 </v>
   <v name="genvec3">      0.00000000       0.00000000       0.50000000 </v>
   <v name="shift">      0.00000000       0.00000000       0.00000000 </v>
  </generation>
  <varray name="kpointlist" >
   <v>       0.00000000       0.00000000       0.00000000 </v>
   <v>       0.50000000       0.00000000       0.00000000 </v>
   <v>       0.00000000       0.50000000       0.00000000 </v>
   <v>       0.50000000       0.50000000       0.00000000 </v>
   <v>       0.00000000       0.00000000       0.50000000 </v>
   <v>       0.50000000       0.00000000       0.50000000 </v>
   <v>       0.00000000       0.50000000       0.50000000 </v>
   <v>       0.50000000       0.50000000       0.50000000 </v>
  </varray>
  <varray name="weights" >
   <v>       0.12500000 </v>
   <v>       0.12500000 </v>
   <v>       0.12500000 </v>
   <v>       0.12500000 </v>
   <v>       0.12500000 </v>
   <v>       0.12500000 </v>
   <v>       0.12500000 </v>
   <v>       0.12500000 </v>
  </varray>
 </kpoints>
 <parameters>
  <separator name="general" >
   <i type="string" name="SYSTEM">Si and Ge interface calculation</i>
   <i type="logical" name="LCOMPAT"> F  </i>
  </separator>
  <separator name="electronic" >
   <i type="string" name="PREC">normal</i>
   <i name="ENMAX">    700.00000000</i>
   <i name="ENAUG">    900.00000000</i>
   <i name="EDIFF">      0.00000010</i>
   <i type="int" name="IALGO">    38</i>
   <i type="int" name="IWAVPR">    10</i>
   <i type="int" name="NBANDS">   636</i>
   <i type="int" name="NBANDSLOW">    -1</i>
   <i type="int" name="NBANDSHIGH">    -1</i>
   <i name="NELECT">   1056.00000000</i>
   <i type="int" name="TURBO">     0</i>
   <i type="int" name="IRESTART">     0</i>
   <i type="int" name="NREBOOT">     0</i>
   <i type="int" name="NMIN">     0</i>
   <i name="EREF">      0.00000000</i>
   <separator name="electronic smearing" >
    <i type="int" name="ISMEAR">     0</i>
    <i name="SIGMA">      0.01000000</i>
    <i name="KSPACING">      0.50000000</i>
    <i type="logical" name="KGAMMA"> T  </i>
    <i type="logical" name="KBLOWUP"> T  </i>
   </separator>
   <separator name="electronic projectors" >
    <i type="logical" name="LREAL"> T  </i>
    <v name="ROPT">     -0.00050000     -0.00050000</v>
    <i type="int" name="LMAXPAW">  -100</i>
    <i type="int" name="LMAXMIX">     6</i>
    <i type="logical" name="NLSPLINE"> F  </i>
   </separator>
   <separator name="electronic startup" >
    <i type="int" name="ISTART">     0</i>
    <i type="int" name="ICHARG">     2</i>
    <i type="int" name="INIWAV">     1</i>
   </separator>
   <separator name="electronic spin" >
    <i type="int" name="ISPIN">     2</i>
    <i type="logical" name="LNONCOLLINEAR"> F  </i>
    <v name="MAGMOM">      0.00378788      0.00378788      0.00378788      0.00378788      0.00378788      0.00378788      0.00378788      0.00378788      0.00378788      0.00378788      0.00378788      0.00378788      0.00378788      0.00378788      0.00378788      0.00378788      0.00378788      0.00378788      0.00378788      0.00378788
      0.00378788      0.00378788      0.00378788      0.00378788      0.00378788      0.00378788      0.00378788      0.00378788      0.00378788      0.00378788      0.00378788      0.00378788      0.00378788      0.00378788      0.00378788      0.00378788      0.00378788      0.00378788      0.00378788      0.00378788
      0.00378788      0.00378788      0.00378788      0.00378788      0.00378788      0.00378788      0.00378788      0.00378788      0.00378788      0.00378788      0.00378788      0.00378788      0.00378788      0.00378788      0.00378788      0.00378788      0.00378788      0.00378788      0.00378788      0.00378788
      0.00378788      0.00378788      0.00378788      0.00378788      0.00378788      0.00378788      0.00378788      0.00378788      0.00378788      0.00378788      0.00378788      0.00378788      0.00378788      0.00378788      0.00378788      0.00378788      0.00378788      0.00378788      0.00378788      0.00378788
      0.00378788      0.00378788      0.00378788      0.00378788      0.00378788      0.00378788      0.00378788      0.00378788      0.00378788      0.00378788      0.00378788      0.00378788      0.00378788      0.00378788      0.00378788      0.00378788      0.00378788      0.00378788      0.00378788      0.00378788
      0.00378788      0.00378788      0.00378788      0.00378788      0.00378788      0.00378788      0.00378788      0.00378788      0.00378788      0.00378788      0.00378788      0.00378788      0.00378788      0.00378788      0.00378788      0.00378788      0.00378788      0.00378788      0.00378788      0.00378788
      0.00378788      0.00378788      0.00378788      0.00378788      0.00378788      0.00378788      0.00378788      0.00378788      0.00378788      0.00378788      0.00378788      0.00378788      0.00378788      0.00378788      0.00378788      0.00378788      0.00378788      0.00378788      0.00378788      0.00378788
      0.00378788      0.00378788      0.00378788      0.00378788      0.00378788      0.00378788      0.00378788      0.00378788      0.00378788      0.00378788      0.00378788      0.00378788      0.00378788      0.00378788      0.00378788      0.00378788      0.00378788      0.00378788      0.00378788      0.00378788
      0.00378788      0.00378788      0.00378788      0.00378788      0.00378788      0.00378788      0.00378788      0.00378788      0.00378788      0.00378788      0.00378788      0.00378788      0.00378788      0.00378788      0.00378788      0.00378788      0.00378788      0.00378788      0.00378788      0.00378788
      0.00378788      0.00378788      0.00378788      0.00378788      0.00378788      0.00378788      0.00378788      0.00378788      0.00378788      0.00378788      0.00378788      0.00378788      0.00378788      0.00378788      0.00378788      0.00378788      0.00378788      0.00378788      0.00378788      0.00378788
      0.00378788      0.00378788      0.00378788      0.00378788      0.00378788      0.00378788      0.00378788      0.00378788      0.00378788      0.00378788      0.00378788      0.00378788      0.00378788      0.00378788      0.00378788      0.00378788      0.00378788      0.00378788      0.00378788      0.00378788
      0.00378788      0.00378788      0.00378788      0.00378788      0.00378788      0.00378788      0.00378788      0.00378788      0.00378788      0.00378788      0.00378788      0.00378788      0.00378788      0.00378788      0.00378788      0.00378788      0.00378788      0.00378788      0.00378788      0.00378788
      0.00378788      0.00378788      0.00378788      0.00378788      0.00378788      0.00378788      0.00378788      0.00378788      0.00378788      0.00378788      0.00378788      0.00378788      0.00378788      0.00378788      0.00378788      0.00378788      0.00378788      0.00378788      0.00378788      0.00378788
      0.00378788      0.00378788      0.00378788      0.00378788</v>
    <i name="NUPDOWN">      1.00000000</i>
    <i type="logical" name="LSORBIT"> F  </i>
    <v name="SAXIS">      0.00000000      0.00000000      1.00000000</v>
    <i type="logical" name="LSPIRAL"> F  </i>
    <v name="QSPIRAL">      0.00000000      0.00000000      0.00000000</v>
    <i type="logical" name="LZEROZ"> F  </i>
   </separator>
   <separator name="electronic exchange-correlation" >
    <i type="logical" name="LASPH"> T  </i>
   </separator>
   <separator name="electronic convergence" >
    <i type="int" name="NELM">   100</i>
    <i type="int" name="NELMDL">    -5</i>
    <i type="int" name="NELMIN">     2</i>
    <i name="ENINI">    700.00000000</i>
    <separator name="electronic convergence detail" >
     <i type="logical" name="LDIAG"> T  </i>
     <i type="logical" name="LSUBROT"> F  </i>
     <i name="WEIMIN">      0.00000000</i>
     <i name="EBREAK">      0.00000000</i>
     <i name="DEPER">      0.30000000</i>
     <i type="int" name="NRMM">     4</i>
     <i name="TIME">      0.40000000</i>
    </separator>
   </separator>
   <separator name="electronic mixer" >
    <i name="AMIX">      0.60000000</i>
    <i name="BMIX">      1.00000000</i>
    <i name="AMIN">      0.10000000</i>
    <i name="AMIX_MAG">      2.40000000</i>
    <i name="BMIX_MAG">      1.00000000</i>
    <separator name="electronic mixer details" >
     <i type="int" name="IMIX">     4</i>
     <i type="logical" name="MIXFIRST"> F  </i>
     <i type="int" name="MAXMIX">   -45</i>
     <i name="WC">    100.00000000</i>
     <i type="int" name="INIMIX">     1</i>
     <i type="int" name="MIXPRE">     1</i>
     <i type="int" name="MREMOVE">     5</i>
    </separator>
   </separator>
   <separator name="electronic dipolcorrection" >
    <i type="logical" name="LDIPOL"> F  </i>
    <i type="logical" name="LMONO"> F  </i>
    <i type="int" name="IDIPOL">     0</i>
    <i name="EPSILON">      1.00000000</i>
    <v name="DIPOL">   -100.00000000   -100.00000000   -100.00000000</v>
    <i name="EFIELD">      0.00000000</i>
    <i type="logical" name="LVACPOTAV"> F  </i>
   </separator>
  </separator>
  <separator name="grids" >
   <i type="int" name="NGX">   126</i>
   <i type="int" name="NGY">   126</i>
   <i type="int" name="NGZ">   126</i>
   <i type="int" name="NGXF">   252</i>
   <i type="int" name="NGYF">   252</i>
   <i type="int" name="NGZF">   252</i>
   <i type="logical" name="ADDGRID"> T  </i>
  </separator>
  <separator name="ionic" >
   <i type="int" name="NSW">     0</i>
   <i type="int" name="IBRION">    -1</i>
   <i type="int" name="MDALGO">     0</i>
   <i type="int" name="ISIF">     2</i>
   <i name="PSTRESS">      0.00000000</i>
   <i name="EDIFFG">      0.00000100</i>
   <i type="int" name="NFREE">     0</i>
   <i name="POTIM">      0.50000000</i>
   <i name="SMASS">     -3.00000000</i>
   <i name="SCALEE">      1.00000000</i>
  </separator>
  <separator name="ionic md" >
   <i name="TEBEG">      0.00010000</i>
   <i name="TEEND">      0.00010000</i>
   <i type="int" name="NBLOCK">     1</i>
   <i type="int" name="KBLOCK">     1</i>
   <i type="int" name="NPACO">   256</i>
   <i name="APACO">     10.00000000</i>
  </separator>
  <separator name="symmetry" >
   <i type="int" name="ISYM">     2</i>
   <i name="SYMPREC">      0.00001000</i>
  </separator>
  <separator name="dos" >
   <i type="int" name="LORBIT">     0</i>
   <v name="RWIGS">     -1.00000000     -1.00000000</v>
   <i type="int" name="NEDOS">   301</i>
   <i name="EMIN">     10.00000000</i>
   <i name="EMAX">    -10.00000000</i>
   <i name="EFERMI">      0.00000000</i>
  </separator>
  <separator name="writing" >
   <i type="int" name="NWRITE">     2</i>
   <i type="logical" name="LWAVE"> F  </i>
   <i type="logical" name="LDOWNSAMPLE"> F  </i>
   <i type="logical" name="LCHARG"> T  </i>
   <i type="logical" name="LPARD"> F  </i>
   <i type="logical" name="LVTOT"> F  </i>
   <i type="logical" name="LVHAR"> T  </i>
   <i type="logical" name="LELF"> F  </i>
   <i type="logical" name="LOPTICS"> F  </i>
   <v name="STM">      0.00000000      0.00000000      0.00000000      0.00000000      0.00000000      0.00000000      0.00000000</v>
  </separator>
  <separator name="performance" >
   <i type="int" name="NPAR">     4</i>
   <i type="int" name="NSIM">     4</i>
   <i type="int" name="NBLK">    -1</i>
   <i type="logical" name="LPLANE"> T  </i>
   <i type="logical" name="LSCALAPACK"> T  </i>
   <i type="logical" name="LSCAAWARE"> F  </i>
   <i type="logical" name="LSCALU"> F  </i>
   <i type="logical" name="LASYNC"> F  </i>
   <i type="logical" name="LORBITALREAL"> F  </i>
  </separator>
  <separator name="miscellaneous" >
   <i type="int" name="IDIOT">     3</i>
   <i type="int" name="PHON_NSTRUCT">    -1</i>
   <i type="logical" name="LMUSIC"> F  </i>
   <v name="POMASS">    118.71000000     28.08500000</v>
   <v name="DARWINR">      0.00000000      0.00000000</v>
   <v name="DARWINV">      1.00000000      1.00000000</v>
   <i type="logical" name="LCORR"> T  </i>
  </separator>
  <i type="logical" name="GGA_COMPAT"> T  </i>
  <i type="logical" name="LBERRY"> F  </i>
  <i type="int" name="ICORELEVEL">     0</i>
  <i type="logical" name="LDAU"> F  </i>
  <i type="int" name="I_CONSTRAINED_M">     0</i>
  <separator name="electronic exchange-correlation" >
   <i type="string" name="GGA    ">PE</i>
   <i type="string" name="XC_C">1</i>
   <i type="int" name="VOSKOWN">     0</i>
   <i type="logical" name="LHFCALC"> F  </i>
   <i type="string" name="PRECFOCK"></i>
   <i type="logical" name="LSYMGRAD"> F  </i>
   <i type="logical" name="LHFONE"> F  </i>
   <i type="logical" name="LRHFCALC"> F  </i>
   <i type="logical" name="LTHOMAS"> F  </i>
   <i type="logical" name="LMODELHF"> F  </i>
   <i type="logical" name="LFOCKACE"> F  </i>
   <i name="ENCUT4O">     -1.00000000</i>
   <i type="int" name="EXXOEP">     0</i>
   <i type="int" name="FOURORBIT">     0</i>
   <i name="AEXX">      0.00000000</i>
   <i name="HFALPHA">      0.00000000</i>
   <i name="MCALPHA">      0.00000000</i>
   <i name="ALDAX">      1.00000000</i>
   <i name="AGGAX">      1.00000000</i>
   <i name="AMGGAX">      1.00000000</i>
   <i name="ALDAC">      1.00000000</i>
   <i name="AGGAC">      1.00000000</i>
   <i name="AMGGAC">      1.00000000</i>
   <i type="int" name="NKREDX">     1</i>
   <i type="int" name="NKREDY">     1</i>
   <i type="int" name="NKREDZ">     1</i>
   <i type="logical" name="SHIFTRED"> F  </i>
   <i type="logical" name="ODDONLY"> F  </i>
   <i type="logical" name="EVENONLY"> F  </i>
   <i type="int" name="LMAXFOCK">     0</i>
   <i type="int" name="NMAXFOCKAE">     0</i>
   <i type="logical" name="LFOCKAEDFT"> F  </i>
   <i name="HFSCREEN">      0.00000000</i>
   <i name="HFSCREENC">      0.00000000</i>
   <i type="int" name="NBANDSGWLOW">     0</i>
  </separator>
  <separator name="vdW DFT" >
   <i type="logical" name="LUSE_VDW"> F  </i>
   <i type="int" name="IVDW_NL">    -1</i>
   <i type="logical" name="LSPIN_VDW"> F  </i>
   <i name="ZAB_VDW">     -0.84910000</i>
   <i name="GAMMA_VDW">      1.39626340</i>
   <i name="ALPHA_VDW">      0.00000000</i>
   <i name="PARAM1">      0.12340000</i>
   <i name="PARAM2">      1.00000000</i>
   <i name="BPARAM">      6.30000000</i>
   <i name="CPARAM">      0.00930000</i>
  </separator>
  <separator name="model GW" >
   <i type="int" name="MODEL_GW">     0</i>
   <i name="MODEL_EPS0">     16.62398530</i>
   <i name="MODEL_ALPHA">      1.00000000</i>
  </separator>
  <separator name="linear response parameters" >
   <i type="logical" name="LEPSILON"> F  </i>
   <i type="logical" name="LRPA"> F  </i>
   <i type="logical" name="LNABLA"> F  </i>
   <i type="logical" name="LVEL"> F  </i>
   <i name="CSHIFT">      0.10000000</i>
   <i name="OMEGAMAX">     -1.00000000</i>
   <i name="DEG_THRESHOLD">      0.00200000</i>
   <i name="RTIME">     -0.10000000</i>
   <i name="WPLASMAI">      0.00000000</i>
   <v name="DFIELD">      0.00000000      0.00000000      0.00000000</v>
   <v name="WPLASMA">      0.00000000      0.00000000      0.00000000      0.00000000      0.00000000      0.00000000      0.00000000      0.00000000      0.00000000</v>
  </separator>
  <separator name="orbital magnetization" >
   <i type="logical" name="NUCIND"> F  </i>
   <v name="MAGPOS">      0.00000000      0.00000000      0.00000000</v>
   <i type="logical" name="LNICSALL"> T  </i>
   <i type="logical" name="ORBITALMAG"> F  </i>
   <i type="logical" name="LMAGBLOCH"> F  </i>
   <i type="logical" name="LCHIMAG"> F  </i>
   <i type="logical" name="LGAUGE"> T  </i>
   <i type="int" name="MAGATOM">     0</i>
   <v name="MAGDIPOL">      0.00000000      0.00000000      0.00000000</v>
   <v name="AVECCONST">      0.00000000      0.00000000      0.00000000</v>
  </separator>
  <separator name="response functions" >
   <i type="logical" name="LALL_IN_ONE"> F  </i>
   <i type="int" name="IALL_IN_ONE">    -1</i>
   <i type="int" name="NBANDS_WAVE">    -1</i>
   <i type="logical" name="LFINITE_TEMPERATURE"> F  </i>
   <i type="logical" name="LADDER"> F  </i>
   <i type="logical" name="LRPAFORCE"> F  </i>
   <i type="logical" name="LFXC"> F  </i>
   <i type="logical" name="LHARTREE"> T  </i>
   <i type="int" name="IBSE">     0</i>
   <v type="int" name="KPOINT">    -1     0     0     0</v>
   <i type="logical" name="LTCTC"> F  </i>
   <i type="logical" name="LTCTE"> F  </i>
   <i type="logical" name="LTETE"> F  </i>
   <i type="logical" name="LTRIPLET"> F  </i>
   <i type="logical" name="LFXCEPS"> F  </i>
   <i type="logical" name="LFXHEG"> F  </i>
   <i type="int" name="NATURALO">     2</i>
   <i type="logical" name="LHOLEGF"> F  </i>
   <i type="logical" name="L2ORDER"> F  </i>
   <i type="logical" name="LDMP1"> F  </i>
   <i type="logical" name="LMP2LT"> F  </i>
   <i type="logical" name="LSMP2LT"> F  </i>
   <i type="logical" name="LGWLF"> F  </i>
   <i name="ENCUTGW">     -1.60000002</i>
   <i name="ENCUTGWSOFT">     -1.60000002</i>
   <i name="ENCUTLF">     -1.00000000</i>
   <i type="logical" name="ESF_SPLINES"> F  </i>
   <i name="ESF_CONV">      0.01000000</i>
   <i type="int" name="ESF_NINTER">    15</i>
   <i type="int" name="LMAXMP2">    -1</i>
   <i name="SCISSOR">      0.00000000</i>
   <i type="int" name="NOMEGA">     0</i>
   <i type="int" name="NOMEGAR">     0</i>
   <i type="int" name="NBANDSGW">    -1</i>
   <i type="int" name="NBANDSO">    -1</i>
   <i type="int" name="NBANDSV">    -1</i>
   <i type="int" name="NELMGW">     1</i>
   <i type="int" name="NELMHF">     1</i>
   <i type="int" name="DIM">     3</i>
   <i type="int" name="IESPILON">     4</i>
   <i type="int" name="ANTIRES">     0</i>
   <i name="OMEGAMAX">    -30.00000000</i>
   <i name="OMEGAMIN">    -30.00000000</i>
   <i name="OMEGATL">   -200.00000000</i>
   <i type="int" name="OMEGAGRID">     0</i>
   <i name="CSHIFT">     -0.10000000</i>
   <i type="logical" name="LSELFENERGY"> F  </i>
   <i type="logical" name="LSPECTRAL"> F  </i>
   <i type="logical" name="LSPECTRALGW"> F  </i>
   <i type="logical" name="LSINGLES"> F  </i>
   <i type="logical" name="LFERMIGW"> F  </i>
   <i type="logical" name="ODDONLYGW"> F  </i>
   <i type="logical" name="EVENONLYGW"> F  </i>
   <i type="int" name="NKREDLFX">     1</i>
   <i type="int" name="NKREDLFY">     1</i>
   <i type="int" name="NKREDLFZ">     1</i>
   <i type="int" name="MAXMEM">  2800</i>
   <i type="int" name="TELESCOPE">     0</i>
   <i type="int" name="NTAUPAR">    -1</i>
   <i type="int" name="NOMEGAPAR">    -1</i>
   <i name="DAMP_NEWTON">      0.80000001</i>
   <i name="LAMBDA">      1.00000000</i>
  </separator>
  <separator name="External order field" >
   <i name="OFIELD_KAPPA">      0.00000000</i>
   <v name="OFIELD_K">      0.00000000      0.00000000      0.00000000</v>
   <i name="OFIELD_Q6_NEAR">      0.00000000</i>
   <i name="OFIELD_Q6_FAR">      0.00000000</i>
   <i name="OFIELD_A">      0.00000000</i>
  </separator>
  <separator name="optional k-points parameters" >
   <i type="int" name="KPOINTS_OPT_MODE">     1</i>
   <i type="logical" name="LKPOINTS_OPT"> F  </i>
  </separator>
 </parameters>
 <atominfo>
  <atoms>     264 </atoms>
  <types>       2 </types>
  <array name="atoms" >
   <dimension dim="1">ion</dimension>
   <field type="string">element</field>
   <field type="int">atomtype</field>
   <set>
    <rc><c>Sn</c><c>   1</c></rc>
    <rc><c>Sn</c><c>   1</c></rc>
    <rc><c>Sn</c><c>   1</c></rc>
    <rc><c>Sn</c><c>   1</c></rc>
    <rc><c>Sn</c><c>   1</c></rc>
    <rc><c>Sn</c><c>   1</c></rc>
    <rc><c>Sn</c><c>   1</c></rc>
    <rc><c>Sn</c><c>   1</c></rc>
    <rc><c>Sn</c><c>   1</c></rc>
    <rc><c>Sn</c><c>   1</c></rc>
    <rc><c>Sn</c><c>   1</c></rc>
    <rc><c>Sn</c><c>   1</c></rc>
    <rc><c>Sn</c><c>   1</c></rc>
    <rc><c>Sn</c><c>   1</c></rc>
    <rc><c>Sn</c><c>   1</c></rc>
    <rc><c>Sn</c><c>   1</c></rc>
    <rc><c>Sn</c><c>   1</c></rc>
    <rc><c>Sn</c><c>   1</c></rc>
    <rc><c>Sn</c><c>   1</c></rc>
    <rc><c>Sn</c><c>   1</c></rc>
    <rc><c>Sn</c><c>   1</c></rc>
    <rc><c>Sn</c><c>   1</c></rc>
    <rc><c>Sn</c><c>   1</c></rc>
    <rc><c>Sn</c><c>   1</c></rc>
    <rc><c>Sn</c><c>   1</c></rc>
    <rc><c>Sn</c><c>   1</c></rc>
    <rc><c>Sn</c><c>   1</c></rc>
    <rc><c>Sn</c><c>   1</c></rc>
    <rc><c>Sn</c><c>   1</c></rc>
    <rc><c>Sn</c><c>   1</c></rc>
    <rc><c>Sn</c><c>   1</c></rc>
    <rc><c>Sn</c><c>   1</c></rc>
    <rc><c>Sn</c><c>   1</c></rc>
    <rc><c>Sn</c><c>   1</c></rc>
    <rc><c>Sn</c><c>   1</c></rc>
    <rc><c>Sn</c><c>   1</c></rc>
    <rc><c>Sn</c><c>   1</c></rc>
    <rc><c>Sn</c><c>   1</c></rc>
    <rc><c>Sn</c><c>   1</c></rc>
    <rc><c>Sn</c><c>   1</c></rc>
    <rc><c>Sn</c><c>   1</c></rc>
    <rc><c>Sn</c><c>   1</c></rc>
    <rc><c>Sn</c><c>   1</c></rc>
    <rc><c>Sn</c><c>   1</c></rc>
    <rc><c>Sn</c><c>   1</c></rc>
    <rc><c>Sn</c><c>   1</c></rc>
    <rc><c>Sn</c><c>   1</c></rc>
    <rc><c>Sn</c><c>   1</c></rc>
    <rc><c>Sn</c><c>   1</c></rc>
    <rc><c>Sn</c><c>   1</c></rc>
    <rc><c>Sn</c><c>   1</c></rc>
    <rc><c>Sn</c><c>   1</c></rc>
    <rc><c>Sn</c><c>   1</c></rc>
    <rc><c>Sn</c><c>   1</c></rc>
    <rc><c>Sn</c><c>   1</c></rc>
    <rc><c>Sn</c><c>   1</c></rc>
    <rc><c>Sn</c><c>   1</c></rc>
    <rc><c>Sn</c><c>   1</c></rc>
    <rc><c>Sn</c><c>   1</c></rc>
    <rc><c>Sn</c><c>   1</c></rc>
    <rc><c>Sn</c><c>   1</c></rc>
    <rc><c>Sn</c><c>   1</c></rc>
    <rc><c>Sn</c><c>   1</c></rc>
    <rc><c>Sn</c><c>   1</c></rc>
    <rc><c>Sn</c><c>   1</c></rc>
    <rc><c>Sn</c><c>   1</c></rc>
    <rc><c>Sn</c><c>   1</c></rc>
    <rc><c>Sn</c><c>   1</c></rc>
    <rc><c>Sn</c><c>   1</c></rc>
    <rc><c>Sn</c><c>   1</c></rc>
    <rc><c>Sn</c><c>   1</c></rc>
    <rc><c>Sn</c><c>   1</c></rc>
    <rc><c>Sn</c><c>   1</c></rc>
    <rc><c>Sn</c><c>   1</c></rc>
    <rc><c>Sn</c><c>   1</c></rc>
    <rc><c>Sn</c><c>   1</c></rc>
    <rc><c>Sn</c><c>   1</c></rc>
    <rc><c>Sn</c><c>   1</c></rc>
    <rc><c>Sn</c><c>   1</c></rc>
    <rc><c>Sn</c><c>   1</c></rc>
    <rc><c>Sn</c><c>   1</c></rc>
    <rc><c>Sn</c><c>   1</c></rc>
    <rc><c>Sn</c><c>   1</c></rc>
    <rc><c>Sn</c><c>   1</c></rc>
    <rc><c>Sn</c><c>   1</c></rc>
    <rc><c>Sn</c><c>   1</c></rc>
    <rc><c>Sn</c><c>   1</c></rc>
    <rc><c>Sn</c><c>   1</c></rc>
    <rc><c>Sn</c><c>   1</c></rc>
    <rc><c>Sn</c><c>   1</c></rc>
    <rc><c>Sn</c><c>   1</c></rc>
    <rc><c>Sn</c><c>   1</c></rc>
    <rc><c>Sn</c><c>   1</c></rc>
    <rc><c>Sn</c><c>   1</c></rc>
    <rc><c>Sn</c><c>   1</c></rc>
    <rc><c>Sn</c><c>   1</c></rc>
    <rc><c>Sn</c><c>   1</c></rc>
    <rc><c>Sn</c><c>   1</c></rc>
    <rc><c>Sn</c><c>   1</c></rc>
    <rc><c>Sn</c><c>   1</c></rc>
    <rc><c>Sn</c><c>   1</c></rc>
    <rc><c>Sn</c><c>   1</c></rc>
    <rc><c>Sn</c><c>   1</c></rc>
    <rc><c>Sn</c><c>   1</c></rc>
    <rc><c>Sn</c><c>   1</c></rc>
    <rc><c>Sn</c><c>   1</c></rc>
    <rc><c>Sn</c><c>   1</c></rc>
    <rc><c>Sn</c><c>   1</c></rc>
    <rc><c>Si</c><c>   2</c></rc>
    <rc><c>Si</c><c>   2</c></rc>
    <rc><c>Si</c><c>   2</c></rc>
    <rc><c>Si</c><c>   2</c></rc>
    <rc><c>Si</c><c>   2</c></rc>
    <rc><c>Si</c><c>   2</c></rc>
    <rc><c>Si</c><c>   2</c></rc>
    <rc><c>Si</c><c>   2</c></rc>
    <rc><c>Si</c><c>   2</c></rc>
    <rc><c>Si</c><c>   2</c></rc>
    <rc><c>Si</c><c>   2</c></rc>
    <rc><c>Si</c><c>   2</c></rc>
    <rc><c>Si</c><c>   2</c></rc>
    <rc><c>Si</c><c>   2</c></rc>
    <rc><c>Si</c><c>   2</c></rc>
    <rc><c>Si</c><c>   2</c></rc>
    <rc><c>Si</c><c>   2</c></rc>
    <rc><c>Si</c><c>   2</c></rc>
    <rc><c>Si</c><c>   2</c></rc>
    <rc><c>Si</c><c>   2</c></rc>
    <rc><c>Si</c><c>   2</c></rc>
    <rc><c>Si</c><c>   2</c></rc>
    <rc><c>Si</c><c>   2</c></rc>
    <rc><c>Si</c><c>   2</c></rc>
    <rc><c>Si</c><c>   2</c></rc>
    <rc><c>Si</c><c>   2</c></rc>
    <rc><c>Si</c><c>   2</c></rc>
    <rc><c>Si</c><c>   2</c></rc>
    <rc><c>Si</c><c>   2</c></rc>
    <rc><c>Si</c><c>   2</c></rc>
    <rc><c>Si</c><c>   2</c></rc>
    <rc><c>Si</c><c>   2</c></rc>
    <rc><c>Si</c><c>   2</c></rc>
    <rc><c>Si</c><c>   2</c></rc>
    <rc><c>Si</c><c>   2</c></rc>
    <rc><c>Si</c><c>   2</c></rc>
    <rc><c>Si</c><c>   2</c></rc>
    <rc><c>Si</c><c>   2</c></rc>
    <rc><c>Si</c><c>   2</c></rc>
    <rc><c>Si</c><c>   2</c></rc>
    <rc><c>Si</c><c>   2</c></rc>
    <rc><c>Si</c><c>   2</c></rc>
    <rc><c>Si</c><c>   2</c></rc>
    <rc><c>Si</c><c>   2</c></rc>
    <rc><c>Si</c><c>   2</c></rc>
    <rc><c>Si</c><c>   2</c></rc>
    <rc><c>Si</c><c>   2</c></rc>
    <rc><c>Si</c><c>   2</c></rc>
    <rc><c>Si</c><c>   2</c></rc>
    <rc><c>Si</c><c>   2</c></rc>
    <rc><c>Si</c><c>   2</c></rc>
    <rc><c>Si</c><c>   2</c></rc>
    <rc><c>Si</c><c>   2</c></rc>
    <rc><c>Si</c><c>   2</c></rc>
    <rc><c>Si</c><c>   2</c></rc>
    <rc><c>Si</c><c>   2</c></rc>
    <rc><c>Si</c><c>   2</c></rc>
    <rc><c>Si</c><c>   2</c></rc>
    <rc><c>Si</c><c>   2</c></rc>
    <rc><c>Si</c><c>   2</c></rc>
    <rc><c>Si</c><c>   2</c></rc>
    <rc><c>Si</c><c>   2</c></rc>
    <rc><c>Si</c><c>   2</c></rc>
    <rc><c>Si</c><c>   2</c></rc>
    <rc><c>Si</c><c>   2</c></rc>
    <rc><c>Si</c><c>   2</c></rc>
    <rc><c>Si</c><c>   2</c></rc>
    <rc><c>Si</c><c>   2</c></rc>
    <rc><c>Si</c><c>   2</c></rc>
    <rc><c>Si</c><c>   2</c></rc>
    <rc><c>Si</c><c>   2</c></rc>
    <rc><c>Si</c><c>   2</c></rc>
    <rc><c>Si</c><c>   2</c></rc>
    <rc><c>Si</c><c>   2</c></rc>
    <rc><c>Si</c><c>   2</c></rc>
    <rc><c>Si</c><c>   2</c></rc>
    <rc><c>Si</c><c>   2</c></rc>
    <rc><c>Si</c><c>   2</c></rc>
    <rc><c>Si</c><c>   2</c></rc>
    <rc><c>Si</c><c>   2</c></rc>
    <rc><c>Si</c><c>   2</c></rc>
    <rc><c>Si</c><c>   2</c></rc>
    <rc><c>Si</c><c>   2</c></rc>
    <rc><c>Si</c><c>   2</c></rc>
    <rc><c>Si</c><c>   2</c></rc>
    <rc><c>Si</c><c>   2</c></rc>
    <rc><c>Si</c><c>   2</c></rc>
    <rc><c>Si</c><c>   2</c></rc>
    <rc><c>Si</c><c>   2</c></rc>
    <rc><c>Si</c><c>   2</c></rc>
    <rc><c>Si</c><c>   2</c></rc>
    <rc><c>Si</c><c>   2</c></rc>
    <rc><c>Si</c><c>   2</c></rc>
    <rc><c>Si</c><c>   2</c></rc>
    <rc><c>Si</c><c>   2</c></rc>
    <rc><c>Si</c><c>   2</c></rc>
    <rc><c>Si</c><c>   2</c></rc>
    <rc><c>Si</c><c>   2</c></rc>
    <rc><c>Si</c><c>   2</c></rc>
    <rc><c>Si</c><c>   2</c></rc>
    <rc><c>Si</c><c>   2</c></rc>
    <rc><c>Si</c><c>   2</c></rc>
    <rc><c>Si</c><c>   2</c></rc>
    <rc><c>Si</c><c>   2</c></rc>
    <rc><c>Si</c><c>   2</c></rc>
    <rc><c>Si</c><c>   2</c></rc>
    <rc><c>Si</c><c>   2</c></rc>
    <rc><c>Si</c><c>   2</c></rc>
    <rc><c>Si</c><c>   2</c></rc>
    <rc><c>Si</c><c>   2</c></rc>
    <rc><c>Si</c><c>   2</c></rc>
    <rc><c>Si</c><c>   2</c></rc>
    <rc><c>Si</c><c>   2</c></rc>
    <rc><c>Si</c><c>   2</c></rc>
    <rc><c>Si</c><c>   2</c></rc>
    <rc><c>Si</c><c>   2</c></rc>
    <rc><c>Si</c><c>   2</c></rc>
    <rc><c>Si</c><c>   2</c></rc>
    <rc><c>Si</c><c>   2</c></rc>
    <rc><c>Si</c><c>   2</c></rc>
    <rc><c>Si</c><c>   2</c></rc>
    <rc><c>Si</c><c>   2</c></rc>
    <rc><c>Si</c><c>   2</c></rc>
    <rc><c>Si</c><c>   2</c></rc>
    <rc><c>Si</c><c>   2</c></rc>
    <rc><c>Si</c><c>   2</c></rc>
    <rc><c>Si</c><c>   2</c></rc>
    <rc><c>Si</c><c>   2</c></rc>
    <rc><c>Si</c><c>   2</c></rc>
    <rc><c>Si</c><c>   2</c></rc>
    <rc><c>Si</c><c>   2</c></rc>
    <rc><c>Si</c><c>   2</c></rc>
    <rc><c>Si</c><c>   2</c></rc>
    <rc><c>Si</c><c>   2</c></rc>
    <rc><c>Si</c><c>   2</c></rc>
    <rc><c>Si</c><c>   2</c></rc>
    <rc><c>Si</c><c>   2</c></rc>
    <rc><c>Si</c><c>   2</c></rc>
    <rc><c>Si</c><c>   2</c></rc>
    <rc><c>Si</c><c>   2</c></rc>
    <rc><c>Si</c><c>   2</c></rc>
    <rc><c>Si</c><c>   2</c></rc>
    <rc><c>Si</c><c>   2</c></rc>
    <rc><c>Si</c><c>   2</c></rc>
    <rc><c>Si</c><c>   2</c></rc>
    <rc><c>Si</c><c>   2</c></rc>
    <rc><c>Si</c><c>   2</c></rc>
    <rc><c>Si</c><c>   2</c></rc>
    <rc><c>Si</c><c>   2</c></rc>
    <rc><c>Si</c><c>   2</c></rc>
    <rc><c>Si</c><c>   2</c></rc>
    <rc><c>Si</c><c>   2</c></rc>
    <rc><c>Si</c><c>   2</c></rc>
    <rc><c>Si</c><c>   2</c></rc>
    <rc><c>Si</c><c>   2</c></rc>
    <rc><c>Si</c><c>   2</c></rc>
   </set>
  </array>
  <array name="atomtypes" >
   <dimension dim="1">type</dimension>
   <field type="int">atomspertype</field>
   <field type="string">element</field>
   <field>mass</field>
   <field>valence</field>
   <field type="string">pseudopotential</field>
   <set>
    <rc><c> 108</c><c>Sn</c><c>    118.71000000</c><c>      4.00000000</c><c>  PAW_PBE Sn 08Apr2002                  </c></rc>
    <rc><c> 156</c><c>Si</c><c>     28.08500000</c><c>      4.00000000</c><c>  PAW_PBE Si 05Jan2001                  </c></rc>
   </set>
  </array>
 </atominfo>
 <structure name="initialpos" >
  <crystal>
   <varray name="basis" >
    <v>      19.46759987       0.00000000       0.00000000 </v>
    <v>       0.00000000      19.46759987       0.00000000 </v>
    <v>       0.00000000       0.00000000      19.30025291 </v>
   </varray>
   <i name="volume">   7314.55353316 </i>
   <varray name="rec_basis" >
    <v>       0.05136740       0.00000000       0.00000000 </v>
    <v>       0.00000000       0.05136740       0.00000000 </v>
    <v>       0.00000000       0.00000000       0.05181279 </v>
   </varray>
  </crystal>
  <varray name="positions" >
   <v>       0.99503511       0.66666669       0.00000000 </v>
   <v>       0.58887458       0.55329323       0.88601178 </v>
   <v>       0.66170174       0.66666669       0.33622354 </v>
   <v>       0.99503511       0.33333334       0.00000000 </v>
   <v>       0.28118229       0.09175491       0.88601178 </v>
   <v>       0.66170174       0.33333334       0.33622354 </v>
   <v>       0.51195168       0.93790865       0.88601178 </v>
   <v>       0.82836843       0.00000000       0.16811179 </v>
   <v>       0.83887482       0.30329317       0.53426754 </v>
   <v>       0.32836846       0.66666669       0.00000000 </v>
   <v>       0.93502843       0.82252407       0.88601178 </v>
   <v>       0.99503511       0.66666669       0.33622354 </v>
   <v>       0.24272072       0.28406253       0.88601178 </v>
   <v>       0.47349000       0.13021639       0.88601178 </v>
   <v>       0.99503511       0.33333334       0.33622354 </v>
   <v>       0.32836846       0.00000000       0.00000000 </v>
   <v>       0.01195157       0.43790862       0.88601178 </v>
   <v>       0.99503511       0.00000000       0.33622354 </v>
   <v>       0.76195157       0.68790865       0.81566292 </v>
   <v>       0.62733602       0.36098558       0.88601178 </v>
   <v>       0.32836846       0.66666669       0.33622354 </v>
   <v>       0.12733614       0.86098552       0.88601178 </v>
   <v>       0.74272072       0.78406245       0.88601178 </v>
   <v>       0.32836846       0.33333334       0.33622354 </v>
   <v>       0.66170180       0.00000000       0.00000000 </v>
   <v>       0.49503511       0.00000000       0.16811179 </v>
   <v>       0.32836846       0.00000000       0.33622354 </v>
   <v>       0.07836843       0.91666675       0.08405589 </v>
   <v>       0.68502867       0.07252407       0.53426754 </v>
   <v>       0.74503505       0.91666675       0.42027944 </v>
   <v>       0.07836843       0.58333343       0.08405589 </v>
   <v>       0.22349024       0.38021624       0.53426754 </v>
   <v>       0.74503505       0.58333343       0.42027944 </v>
   <v>       0.07836843       0.25000000       0.08405589 </v>
   <v>       0.76195180       0.68790859       0.53426754 </v>
   <v>       0.26195180       0.18790850       0.53426754 </v>
   <v>       0.41170177       0.91666675       0.08405589 </v>
   <v>       0.37733638       0.61098552       0.53426754 </v>
   <v>       0.07836838       0.91666675       0.42027944 </v>
   <v>       0.41170177       0.58333343       0.08405589 </v>
   <v>       0.49272096       0.03406251       0.53426754 </v>
   <v>       0.99272096       0.53406239       0.53426754 </v>
   <v>       0.41170177       0.25000000       0.08405589 </v>
   <v>       0.24503510       0.25000000       0.25216761 </v>
   <v>       0.07836838       0.25000000       0.42027944 </v>
   <v>       0.74503517       0.91666675       0.08405589 </v>
   <v>       0.33887482       0.80329305       0.53426754 </v>
   <v>       0.51195180       0.93790859       0.60461640 </v>
   <v>       0.74503517       0.58333343       0.08405589 </v>
   <v>       0.03118253       0.34175467       0.53426754 </v>
   <v>       0.87733626       0.11098541       0.53426754 </v>
   <v>       0.74503517       0.25000000       0.08405589 </v>
   <v>       0.57836855       0.25000000       0.25216761 </v>
   <v>       0.41170180       0.25000000       0.42027944 </v>
   <v>       0.16170177       0.83333331       0.00000000 </v>
   <v>       0.31964386       0.89944708       0.88601178 </v>
   <v>       0.82836843       0.83333331       0.33622354 </v>
   <v>       0.05041313       0.24560109       0.88601178 </v>
   <v>       0.39656711       0.51483172       0.88601178 </v>
   <v>       0.82836843       0.50000000       0.33622354 </v>
   <v>       0.16170177       0.16666667       0.00000000 </v>
   <v>       0.20425928       0.47637019       0.88601178 </v>
   <v>       0.82836843       0.16666667       0.33622354 </v>
   <v>       0.49503511       0.83333331       0.00000000 </v>
   <v>       0.32836843       0.83333331       0.16811179 </v>
   <v>       0.16170175       0.83333331       0.33622354 </v>
   <v>       0.49503511       0.50000000       0.00000000 </v>
   <v>       0.53118229       0.84175485       0.81566292 </v>
   <v>       0.16170175       0.50000000       0.33622354 </v>
   <v>       0.78118229       0.59175479       0.88601178 </v>
   <v>       0.32836843       0.16666667       0.16811179 </v>
   <v>       0.16170175       0.16666667       0.33622354 </v>
   <v>       0.82836855       0.83333331       0.00000000 </v>
   <v>       0.43502855       0.32252401       0.88601178 </v>
   <v>       0.49503520       0.83333331       0.33622354 </v>
   <v>       0.82836855       0.50000000       0.00000000 </v>
   <v>       0.66170186       0.50000000       0.16811179 </v>
   <v>       0.49503520       0.50000000       0.33622354 </v>
   <v>       0.82836855       0.16666667       0.00000000 </v>
   <v>       0.66170186       0.16666667       0.16811179 </v>
   <v>       0.49503520       0.16666667       0.33622354 </v>
   <v>       0.24503510       0.75000006       0.08405589 </v>
   <v>       0.28118253       0.09175479       0.60461640 </v>
   <v>       0.80041337       0.49560079       0.53426754 </v>
   <v>       0.24503510       0.41666672       0.08405589 </v>
   <v>       0.07836843       0.41666672       0.25216761 </v>
   <v>       0.91170174       0.41666672       0.42027944 </v>
   <v>       0.24503510       0.08333334       0.08405589 </v>
   <v>       0.07836843       0.08333334       0.25216761 </v>
   <v>       0.91170174       0.08333334       0.42027944 </v>
   <v>       0.57836848       0.75000006       0.08405589 </v>
   <v>       0.41170186       0.75000006       0.25216761 </v>
   <v>       0.24503513       0.75000006       0.42027944 </v>
   <v>       0.57836848       0.41666672       0.08405589 </v>
   <v>       0.41170186       0.41666672       0.25216761 </v>
   <v>       0.53118253       0.84175467       0.53426754 </v>
   <v>       0.57836848       0.08333334       0.08405589 </v>
   <v>       0.18502867       0.57252395       0.53426754 </v>
   <v>       0.24503513       0.08333334       0.42027944 </v>
   <v>       0.08887458       0.05329323       0.88601178 </v>
   <v>       0.14656711       0.76483166       0.53426754 </v>
   <v>       0.57836837       0.75000006       0.42027944 </v>
   <v>       0.91170174       0.41666672       0.08405589 </v>
   <v>       0.95425940       0.72637004       0.53426754 </v>
   <v>       0.57836837       0.41666672       0.42027944 </v>
   <v>       0.91170174       0.08333334       0.08405589 </v>
   <v>       0.06964409       0.14944696       0.53426754 </v>
   <v>       0.57836837       0.08333334       0.42027944 </v>
   <v>       0.64656722       0.26483157       0.53426754 </v>
   <v>       0.53118253       0.34175470       0.67496520 </v>
   <v>       0.41579783       0.41867787       0.81566292 </v>
   <v>       0.91170174       0.75000006       0.42027944 </v>
   <v>       0.68502867       0.57252389       0.67496520 </v>
   <v>       0.56964397       0.64944702       0.81566292 </v>
   <v>       0.74503505       0.25000000       0.42027944 </v>
   <v>       0.14656711       0.26483163       0.67496520 </v>
   <v>       0.03118241       0.34175476       0.81566292 </v>
   <v>       0.41579795       0.41867778       0.53426754 </v>
   <v>       0.30041325       0.49560091       0.67496520 </v>
   <v>       0.18502855       0.57252401       0.81566292 </v>
   <v>       0.56964397       0.64944696       0.53426754 </v>
   <v>       0.45425940       0.72637010       0.67496520 </v>
   <v>       0.33887458       0.80329323       0.81566292 </v>
   <v>       0.72349024       0.88021630       0.53426754 </v>
   <v>       0.60810542       0.95713943       0.67496520 </v>
   <v>       0.49272084       0.03406262       0.81566292 </v>
   <v>       0.41170180       0.58333343       0.42027944 </v>
   <v>       0.76195168       0.18790853       0.67496520 </v>
   <v>       0.64656687       0.26483166       0.81566292 </v>
   <v>       0.57836855       0.58333343       0.25216761 </v>
   <v>       0.91579783       0.41867781       0.67496520 </v>
   <v>       0.80041313       0.49560094       0.81566292 </v>
   <v>       0.41170186       0.08333334       0.25216761 </v>
   <v>       0.06964397       0.64944702       0.67496520 </v>
   <v>       0.95425928       0.72637016       0.81566292 </v>
   <v>       0.57836855       0.91666675       0.25216761 </v>
   <v>       0.22349012       0.88021618       0.67496520 </v>
   <v>       0.10810542       0.95713931       0.81566292 </v>
   <v>       0.24503510       0.58333343       0.25216761 </v>
   <v>       0.37733626       0.11098554       0.67496520 </v>
   <v>       0.26195157       0.18790868       0.81566292 </v>
   <v>       0.74503505       0.41666672       0.25216761 </v>
   <v>       0.83887470       0.80329317       0.67496520 </v>
   <v>       0.72349000       0.88021636       0.81566292 </v>
   <v>       0.10810566       0.95713925       0.53426754 </v>
   <v>       0.99272090       0.03406239       0.67496520 </v>
   <v>       0.87733614       0.11098554       0.81566292 </v>
   <v>       0.85810554       0.20713928       0.60461640 </v>
   <v>       0.74272084       0.28406242       0.74531406 </v>
   <v>       0.49503511       0.66666669       0.16811179 </v>
   <v>       0.47349024       0.13021627       0.60461640 </v>
   <v>       0.35810554       0.20713940       0.74531406 </v>
   <v>       0.32836846       0.33333334       0.00000000 </v>
   <v>       0.62733650       0.36098543       0.60461640 </v>
   <v>       0.51195168       0.43790859       0.74531406 </v>
   <v>       0.99503505       0.50000000       0.16811179 </v>
   <v>       0.78118253       0.59175467       0.60461640 </v>
   <v>       0.66579783       0.66867781       0.74531406 </v>
   <v>       0.55041313       0.74560094       0.88601178 </v>
   <v>       0.24272096       0.28406236       0.60461640 </v>
   <v>       0.12733626       0.36098549       0.74531406 </v>
   <v>       0.16170174       0.00000000       0.16811179 </v>
   <v>       0.39656711       0.51483166       0.60461640 </v>
   <v>       0.28118241       0.59175479       0.74531406 </v>
   <v>       0.16579771       0.66867793       0.88601178 </v>
   <v>       0.55041325       0.74560082       0.60461640 </v>
   <v>       0.43502855       0.82252395       0.74531406 </v>
   <v>       0.99503505       0.83333331       0.16811179 </v>
   <v>       0.70425940       0.97637010       0.60461640 </v>
   <v>       0.58887470       0.05329323       0.74531406 </v>
   <v>       0.16170174       0.33333334       0.16811179 </v>
   <v>       0.01195168       0.43790853       0.60461640 </v>
   <v>       0.89656705       0.51483160       0.74531406 </v>
   <v>       0.49503511       0.16666667       0.00000000 </v>
   <v>       0.16579783       0.66867781       0.60461640 </v>
   <v>       0.05041313       0.74560088       0.74531406 </v>
   <v>       0.16170174       0.66666669       0.16811179 </v>
   <v>       0.31964397       0.89944696       0.60461640 </v>
   <v>       0.20425928       0.97637010       0.74531406 </v>
   <v>       0.91170174       0.75000006       0.08405589 </v>
   <v>       0.93502861       0.82252389       0.60461640 </v>
   <v>       0.81964397       0.89944708       0.74531406 </v>
   <v>       0.70425916       0.97637016       0.88601178 </v>
   <v>       0.08887482       0.05329311       0.60461640 </v>
   <v>       0.97349006       0.13021627       0.74531406 </v>
   <v>       0.85810542       0.20713940       0.88601178 </v>
   <v>       0.66170174       0.00000000       0.33622354 </v>
   <v>       0.72349012       0.38021630       0.67496520 </v>
   <v>       0.60810542       0.45713946       0.81566292 </v>
   <v>       0.45425940       0.22637007       0.53426754 </v>
   <v>       0.33887470       0.30329320       0.67496520 </v>
   <v>       0.22349000       0.38021633       0.81566292 </v>
   <v>       0.60810566       0.45713937       0.53426754 </v>
   <v>       0.49272084       0.53406251       0.67496520 </v>
   <v>       0.37733626       0.61098564       0.81566292 </v>
   <v>       0.91170180       0.25000000       0.25216761 </v>
   <v>       0.64656711       0.76483172       0.67496520 </v>
   <v>       0.32836843       0.50000000       0.16811179 </v>
   <v>       0.74503505       0.08333334       0.25216761 </v>
   <v>       0.95425940       0.22637010       0.67496520 </v>
   <v>       0.83887458       0.30329323       0.81566292 </v>
   <v>       0.91170180       0.58333343       0.25216761 </v>
   <v>       0.10810554       0.45713937       0.67496520 </v>
   <v>       0.99272084       0.53406251       0.81566292 </v>
   <v>       0.24503510       0.91666675       0.25216761 </v>
   <v>       0.26195168       0.68790865       0.67496520 </v>
   <v>       0.14656699       0.76483178       0.81566292 </v>
   <v>       0.24503513       0.41666672       0.42027944 </v>
   <v>       0.41579771       0.91867781       0.67496520 </v>
   <v>       0.30041313       0.99560094       0.81566292 </v>
   <v>       0.91170180       0.91666675       0.25216761 </v>
   <v>       0.56964397       0.14944711       0.67496520 </v>
   <v>       0.45425928       0.22637024       0.81566292 </v>
   <v>       0.07836838       0.58333343       0.42027944 </v>
   <v>       0.87733626       0.61098552       0.67496520 </v>
   <v>       0.66170180       0.66666669       0.00000000 </v>
   <v>       0.74503505       0.75000006       0.25216761 </v>
   <v>       0.03118241       0.84175479       0.67496520 </v>
   <v>       0.91579771       0.91867793       0.81566292 </v>
   <v>       0.30041337       0.99560088       0.53426754 </v>
   <v>       0.18502855       0.07252407       0.67496520 </v>
   <v>       0.06964386       0.14944711       0.81566292 </v>
   <v>       0.91579789       0.91867775       0.53426754 </v>
   <v>       0.80041313       0.99560088       0.67496520 </v>
   <v>       0.68502843       0.07252407       0.81566292 </v>
   <v>       0.66579795       0.16867773       0.60461640 </v>
   <v>       0.55041325       0.24560088       0.74531406 </v>
   <v>       0.66170186       0.83333331       0.16811179 </v>
   <v>       0.81964397       0.39944696       0.60461640 </v>
   <v>       0.70425928       0.47637013       0.74531406 </v>
   <v>       0.82836843       0.66666669       0.16811179 </v>
   <v>       0.43502879       0.32252389       0.60461640 </v>
   <v>       0.31964397       0.39944702       0.74531406 </v>
   <v>       0.99503505       0.16666667       0.16811179 </v>
   <v>       0.58887494       0.55329311       0.60461640 </v>
   <v>       0.47349024       0.63021624       0.74531406 </v>
   <v>       0.35810554       0.70713937       0.88601178 </v>
   <v>       0.74272108       0.78406239       0.60461640 </v>
   <v>       0.62733650       0.86098552       0.74531406 </v>
   <v>       0.99503511       0.00000000       0.00000000 </v>
   <v>       0.05041325       0.24560076       0.60461640 </v>
   <v>       0.93502855       0.32252389       0.74531406 </v>
   <v>       0.81964386       0.39944705       0.88601178 </v>
   <v>       0.20425940       0.47637007       0.60461640 </v>
   <v>       0.08887482       0.55329317       0.74531406 </v>
   <v>       0.97349006       0.63021630       0.88601178 </v>
   <v>       0.35810566       0.70713925       0.60461640 </v>
   <v>       0.24272084       0.78406239       0.74531406 </v>
   <v>       0.66170180       0.33333334       0.00000000 </v>
   <v>       0.41170180       0.91666675       0.42027944 </v>
   <v>       0.39656711       0.01483178       0.74531406 </v>
   <v>       0.82836843       0.33333334       0.16811179 </v>
   <v>       0.97349018       0.63021618       0.60461640 </v>
   <v>       0.85810542       0.70713931       0.74531406 </v>
   <v>       0.49503511       0.33333334       0.16811179 </v>
   <v>       0.12733638       0.86098540       0.60461640 </v>
   <v>       0.01195168       0.93790853       0.74531406 </v>
   <v>       0.89656693       0.01483178       0.88601178 </v>
   <v>       0.07836843       0.75000006       0.25216761 </v>
   <v>       0.16579783       0.16867796       0.74531406 </v>
   <v>       0.16170177       0.50000000       0.00000000 </v>
   <v>       0.89656711       0.01483154       0.60461640 </v>
   <v>       0.78118229       0.09175479       0.74531406 </v>
   <v>       0.66579771       0.16867784       0.88601178 </v>
  </varray>
 </structure>
 <calculation>
  <scstep>
   <time name="dav">  207.34  209.05</time>
   <time name="total">  210.44  212.17</time>
   <energy>
    <i name="alphaZ">    677.14420481 </i>
    <i name="ewald"> -18716.24961163 </i>
    <i name="hartreedc">  -9794.24768395 </i>
    <i name="XCdc"> -14259.68286903 </i>
    <i name="pawpsdc">  34204.16796134 </i>
    <i name="pawaedc"> -18083.40668920 </i>
    <i name="eentropy">     -0.00259841 </i>
    <i name="bandstr">   4374.11766869 </i>
    <i name="atom">  26239.67945397 </i>
    <i name="e_fr_energy">   4641.51983658 </i>
    <i name="e_wo_entrp">   4641.52243499 </i>
    <i name="e_0_energy">   4641.52113579 </i>
   </energy>
  </scstep>
  <scstep>
   <time name="dav">  236.68  238.57</time>
   <time name="total">  236.68  238.58</time>
   <energy>
    <i name="e_fr_energy">   -604.83496242 </i>
    <i name="e_wo_entrp">   -604.83125341 </i>
    <i name="e_0_energy">   -604.83310791 </i>
   </energy>
  </scstep>
  <scstep>
   <time name="dav">  251.88  253.95</time>
   <time name="total">  251.89  253.96</time>
   <energy>
    <i name="e_fr_energy">  -1136.29097436 </i>
    <i name="e_wo_entrp">  -1136.28609314 </i>
    <i name="e_0_energy">  -1136.28853375 </i>
   </energy>
  </scstep>
  <scstep>
   <time name="dav">  242.18  244.27</time>
   <time name="total">  242.18  244.28</time>
   <energy>
    <i name="e_fr_energy">  -1158.71509421 </i>
    <i name="e_wo_entrp">  -1158.71041392 </i>
    <i name="e_0_energy">  -1158.71275407 </i>
   </energy>
  </scstep>
  <scstep>
   <time name="dav">  274.88  277.25</time>
   <time name="total">  284.39  286.89</time>
   <energy>
    <i name="e_fr_energy">  -1159.77560320 </i>
    <i name="e_wo_entrp">  -1159.77070547 </i>
    <i name="e_0_energy">  -1159.77315434 </i>
   </energy>
  </scstep>
  <scstep>
   <time name="dav">  294.45  296.80</time>
   <time name="total">  307.23  309.69</time>
   <energy>
    <i name="e_fr_energy">  -1128.80371990 </i>
    <i name="e_wo_entrp">  -1128.79777872 </i>
    <i name="e_0_energy">  -1128.80074931 </i>
   </energy>
  </scstep>
  <scstep>
   <time name="dav">  252.15  254.17</time>
   <time name="total">  264.91  267.05</time>
   <energy>
    <i name="e_fr_energy">  -1127.45289266 </i>
    <i name="e_wo_entrp">  -1127.44840336 </i>
    <i name="e_0_energy">  -1127.45064801 </i>
   </energy>
  </scstep>
  <scstep>
   <time name="dav">  238.09  240.00</time>
   <time name="total">  250.85  252.88</time>
   <energy>
    <i name="e_fr_energy">  -1124.71132948 </i>
    <i name="e_wo_entrp">  -1124.70705669 </i>
    <i name="e_0_energy">  -1124.70919308 </i>
   </energy>
  </scstep>
  <scstep>
   <time name="dav">  248.06  250.04</time>
   <time name="total">  260.82  262.90</time>
   <energy>
    <i name="e_fr_energy">  -1124.77365140 </i>
    <i name="e_wo_entrp">  -1124.76948633 </i>
    <i name="e_0_energy">  -1124.77156886 </i>
   </energy>
  </scstep>
  <scstep>
   <time name="dav">  242.14  244.32</time>
   <time name="total">  254.90  257.20</time>
   <energy>
    <i name="e_fr_energy">  -1124.67765917 </i>
    <i name="e_wo_entrp">  -1124.67244737 </i>
    <i name="e_0_energy">  -1124.67505327 </i>
   </energy>
  </scstep>
  <scstep>
   <time name="dav">  234.15  236.05</time>
   <time name="total">  246.89  248.89</time>
   <energy>
    <i name="e_fr_energy">  -1124.66529016 </i>
    <i name="e_wo_entrp">  -1124.66054347 </i>
    <i name="e_0_energy">  -1124.66291681 </i>
   </energy>
  </scstep>
  <scstep>
   <time name="dav">  230.30  232.12</time>
   <time name="total">  243.23  245.15</time>
   <energy>
    <i name="e_fr_energy">  -1124.66662390 </i>
    <i name="e_wo_entrp">  -1124.66188004 </i>
    <i name="e_0_energy">  -1124.66425197 </i>
   </energy>
  </scstep>
  <scstep>
   <time name="dav">  247.51  249.50</time>
   <time name="total">  260.44  262.53</time>
   <energy>
    <i name="e_fr_energy">  -1124.66586900 </i>
    <i name="e_wo_entrp">  -1124.66113286 </i>
    <i name="e_0_energy">  -1124.66350093 </i>
   </energy>
  </scstep>
  <scstep>
   <time name="dav">  246.25  248.21</time>
   <time name="total">  259.22  261.29</time>
   <energy>
    <i name="e_fr_energy">  -1124.66528336 </i>
    <i name="e_wo_entrp">  -1124.66060102 </i>
    <i name="e_0_energy">  -1124.66294219 </i>
   </energy>
  </scstep>
  <scstep>
   <time name="dav">  234.68  236.85</time>
   <time name="total">  247.51  249.88</time>
   <energy>
    <i name="e_fr_energy">  -1124.66514425 </i>
    <i name="e_wo_entrp">  -1124.66042277 </i>
    <i name="e_0_energy">  -1124.66278351 </i>
   </energy>
  </scstep>
  <scstep>
   <time name="dav">  233.10  234.97</time>
   <time name="total">  245.67  247.79</time>
   <energy>
    <i name="e_fr_energy">  -1124.66512887 </i>
    <i name="e_wo_entrp">  -1124.66043481 </i>
    <i name="e_0_energy">  -1124.66278184 </i>
   </energy>
  </scstep>
  <scstep>
   <time name="dav">  235.77  237.66</time>
   <time name="total">  248.42  250.41</time>
   <energy>
    <i name="e_fr_energy">  -1124.66513750 </i>
    <i name="e_wo_entrp">  -1124.66045033 </i>
    <i name="e_0_energy">  -1124.66279392 </i>
   </energy>
  </scstep>
  <scstep>
   <time name="dav">  244.72  246.68</time>
   <time name="total">  257.38  259.44</time>
   <energy>
    <i name="e_fr_energy">  -1124.66514157 </i>
    <i name="e_wo_entrp">  -1124.66045185 </i>
    <i name="e_0_energy">  -1124.66279671 </i>
   </energy>
  </scstep>
  <scstep>
   <time name="dav">  244.82  246.80</time>
   <time name="total">  257.48  259.56</time>
   <energy>
    <i name="e_fr_energy">  -1124.66513031 </i>
    <i name="e_wo_entrp">  -1124.66044139 </i>
    <i name="e_0_energy">  -1124.66278585 </i>
   </energy>
  </scstep>
  <scstep>
   <time name="dav">  235.26  237.13</time>
   <time name="total">  247.92  249.90</time>
[...]
       <r>     3.9017    30.8619  1044.4731 </r>
       <r>     3.9536    64.7076  1047.8276 </r>
       <r>     4.0054    72.2583  1051.5736 </r>
       <r>     4.0572    65.5190  1054.9702 </r>
       <r>     4.1091    93.7754  1059.8316 </r>
       <r>     4.1609   108.9503  1065.4798 </r>
       <r>     4.2128    93.9065  1070.3480 </r>
       <r>     4.2646    83.0177  1074.6517 </r>
       <r>     4.3164    87.9382  1079.2106 </r>
       <r>     4.3683   115.5073  1085.1986 </r>
       <r>     4.4201   111.7643  1090.9926 </r>
       <r>     4.4720   132.2958  1097.8510 </r>
       <r>     4.5238   104.9969  1103.2941 </r>
       <r>     4.5757   103.0684  1108.6373 </r>
       <r>     4.6275    84.9292  1113.0402 </r>
       <r>     4.6793   116.9292  1119.1019 </r>
       <r>     4.7312   125.2501  1125.5951 </r>
       <r>     4.7830   129.2961  1132.2979 </r>
       <r>     4.8349   116.3472  1138.3295 </r>
       <r>     4.8867   122.3263  1144.6711 </r>
       <r>     4.9385   118.7853  1150.8291 </r>
       <r>     4.9904   130.9349  1157.6169 </r>
       <r>     5.0422   112.9763  1163.4737 </r>
       <r>     5.0941   128.6537  1170.1433 </r>
       <r>     5.1459   119.9735  1176.3629 </r>
       <r>     5.1977    96.4952  1181.3653 </r>
       <r>     5.2496   107.0904  1186.9170 </r>
       <r>     5.3014   125.9108  1193.4444 </r>
       <r>     5.3533   136.9839  1200.5458 </r>
       <r>     5.4051   136.9855  1207.6473 </r>
       <r>     5.4570   144.0259  1215.1138 </r>
       <r>     5.5088   129.4551  1221.8249 </r>
       <r>     5.5606   147.0047  1229.4458 </r>
       <r>     5.6125   141.0397  1236.7575 </r>
       <r>     5.6643   118.9262  1242.9227 </r>
       <r>     5.7162   135.3691  1249.9404 </r>
       <r>     5.7680   110.2059  1255.6537 </r>
       <r>     5.8198   122.0534  1261.9811 </r>
       <r>     5.8717   124.8808  1268.4550 </r>
       <r>     5.9235    50.9477  1271.0962 </r>
       <r>     5.9754    17.4333  1272.0000 </r>
       <r>     6.0272     0.0000  1272.0000 </r>
       <r>     6.0790     0.0000  1272.0000 </r>
       <r>     6.1309     0.0000  1272.0000 </r>
       <r>     6.1827     0.0000  1272.0000 </r>
       <r>     6.2346     0.0000  1272.0000 </r>
       <r>     6.2864     0.0000  1272.0000 </r>
       <r>     6.3383     0.0000  1272.0000 </r>
       <r>     6.3901     0.0000  1272.0000 </r>
       <r>     6.4419     0.0000  1272.0000 </r>
       <r>     6.4938     0.0000  1272.0000 </r>
       <r>     6.5456     0.0000  1272.0000 </r>
       <r>     6.5975     0.0000  1272.0000 </r>
       <r>     6.6493     0.0000  1272.0000 </r>
      </set>
     </set>
    </array>
   </total>
  </dos>
 </calculation>
 <structure name="finalpos" >
  <crystal>
   <varray name="basis" >
    <v>      19.46759987       0.00000000       0.00000000 </v>
    <v>       0.00000000      19.46759987       0.00000000 </v>
    <v>       0.00000000       0.00000000      19.30025291 </v>
   </varray>
   <i name="volume">   7314.55353316 </i>
   <varray name="rec_basis" >
    <v>       0.05136740       0.00000000       0.00000000 </v>
    <v>       0.00000000       0.05136740       0.00000000 </v>
    <v>       0.00000000       0.00000000       0.05181279 </v>
   </varray>
  </crystal>
  <varray name="positions" >
   <v>       0.99503511       0.66666669       0.00000000 </v>
   <v>       0.58887458       0.55329323       0.88601178 </v>
   <v>       0.66170174       0.66666669       0.33622354 </v>
   <v>       0.99503511       0.33333334       0.00000000 </v>
   <v>       0.28118229       0.09175491       0.88601178 </v>
   <v>       0.66170174       0.33333334       0.33622354 </v>
   <v>       0.51195168       0.93790865       0.88601178 </v>
   <v>       0.82836843       0.00000000       0.16811179 </v>
   <v>       0.83887482       0.30329317       0.53426754 </v>
   <v>       0.32836846       0.66666669       0.00000000 </v>
   <v>       0.93502843       0.82252407       0.88601178 </v>
   <v>       0.99503511       0.66666669       0.33622354 </v>
   <v>       0.24272072       0.28406253       0.88601178 </v>
   <v>       0.47349000       0.13021639       0.88601178 </v>
   <v>       0.99503511       0.33333334       0.33622354 </v>
   <v>       0.32836846       0.00000000       0.00000000 </v>
   <v>       0.01195157       0.43790862       0.88601178 </v>
   <v>       0.99503511       0.00000000       0.33622354 </v>
   <v>       0.76195157       0.68790865       0.81566292 </v>
   <v>       0.62733602       0.36098558       0.88601178 </v>
   <v>       0.32836846       0.66666669       0.33622354 </v>
   <v>       0.12733614       0.86098552       0.88601178 </v>
   <v>       0.74272072       0.78406245       0.88601178 </v>
   <v>       0.32836846       0.33333334       0.33622354 </v>
   <v>       0.66170180       0.00000000       0.00000000 </v>
   <v>       0.49503511       0.00000000       0.16811179 </v>
   <v>       0.32836846       0.00000000       0.33622354 </v>
   <v>       0.07836843       0.91666675       0.08405589 </v>
   <v>       0.68502867       0.07252407       0.53426754 </v>
   <v>       0.74503505       0.91666675       0.42027944 </v>
   <v>       0.07836843       0.58333343       0.08405589 </v>
   <v>       0.22349024       0.38021624       0.53426754 </v>
   <v>       0.74503505       0.58333343       0.42027944 </v>
   <v>       0.07836843       0.25000000       0.08405589 </v>
   <v>       0.76195180       0.68790859       0.53426754 </v>
   <v>       0.26195180       0.18790850       0.53426754 </v>
   <v>       0.41170177       0.91666675       0.08405589 </v>
   <v>       0.37733638       0.61098552       0.53426754 </v>
   <v>       0.07836838       0.91666675       0.42027944 </v>
   <v>       0.41170177       0.58333343       0.08405589 </v>
   <v>       0.49272096       0.03406251       0.53426754 </v>
   <v>       0.99272096       0.53406239       0.53426754 </v>
   <v>       0.41170177       0.25000000       0.08405589 </v>
   <v>       0.24503510       0.25000000       0.25216761 </v>
   <v>       0.07836838       0.25000000       0.42027944 </v>
   <v>       0.74503517       0.91666675       0.08405589 </v>
   <v>       0.33887482       0.80329305       0.53426754 </v>
   <v>       0.51195180       0.93790859       0.60461640 </v>
   <v>       0.74503517       0.58333343       0.08405589 </v>
   <v>       0.03118253       0.34175467       0.53426754 </v>
   <v>       0.87733626       0.11098541       0.53426754 </v>
   <v>       0.74503517       0.25000000       0.08405589 </v>
   <v>       0.57836855       0.25000000       0.25216761 </v>
   <v>       0.41170180       0.25000000       0.42027944 </v>
   <v>       0.16170177       0.83333331       0.00000000 </v>
   <v>       0.31964386       0.89944708       0.88601178 </v>
   <v>       0.82836843       0.83333331       0.33622354 </v>
   <v>       0.05041313       0.24560109       0.88601178 </v>
   <v>       0.39656711       0.51483172       0.88601178 </v>
   <v>       0.82836843       0.50000000       0.33622354 </v>
   <v>       0.16170177       0.16666667       0.00000000 </v>
   <v>       0.20425928       0.47637019       0.88601178 </v>
   <v>       0.82836843       0.16666667       0.33622354 </v>
   <v>       0.49503511       0.83333331       0.00000000 </v>
   <v>       0.32836843       0.83333331       0.16811179 </v>
   <v>       0.16170175       0.83333331       0.33622354 </v>
   <v>       0.49503511       0.50000000       0.00000000 </v>
   <v>       0.53118229       0.84175485       0.81566292 </v>
   <v>       0.16170175       0.50000000       0.33622354 </v>
   <v>       0.78118229       0.59175479       0.88601178 </v>
   <v>       0.32836843       0.16666667       0.16811179 </v>
   <v>       0.16170175       0.16666667       0.33622354 </v>
   <v>       0.82836855       0.83333331       0.00000000 </v>
   <v>       0.43502855       0.32252401       0.88601178 </v>
   <v>       0.49503520       0.83333331       0.33622354 </v>
   <v>       0.82836855       0.50000000       0.00000000 </v>
   <v>       0.66170186       0.50000000       0.16811179 </v>
   <v>       0.49503520       0.50000000       0.33622354 </v>
   <v>       0.82836855       0.16666667       0.00000000 </v>
   <v>       0.66170186       0.16666667       0.16811179 </v>
   <v>       0.49503520       0.16666667       0.33622354 </v>
   <v>       0.24503510       0.75000006       0.08405589 </v>
   <v>       0.28118253       0.09175479       0.60461640 </v>
   <v>       0.80041337       0.49560079       0.53426754 </v>
   <v>       0.24503510       0.41666672       0.08405589 </v>
   <v>       0.07836843       0.41666672       0.25216761 </v>
   <v>       0.91170174       0.41666672       0.42027944 </v>
   <v>       0.24503510       0.08333334       0.08405589 </v>
   <v>       0.07836843       0.08333334       0.25216761 </v>
   <v>       0.91170174       0.08333334       0.42027944 </v>
   <v>       0.57836848       0.75000006       0.08405589 </v>
   <v>       0.41170186       0.75000006       0.25216761 </v>
   <v>       0.24503513       0.75000006       0.42027944 </v>
   <v>       0.57836848       0.41666672       0.08405589 </v>
   <v>       0.41170186       0.41666672       0.25216761 </v>
   <v>       0.53118253       0.84175467       0.53426754 </v>
   <v>       0.57836848       0.08333334       0.08405589 </v>
   <v>       0.18502867       0.57252395       0.53426754 </v>
   <v>       0.24503513       0.08333334       0.42027944 </v>
   <v>       0.08887458       0.05329323       0.88601178 </v>
   <v>       0.14656711       0.76483166       0.53426754 </v>
   <v>       0.57836837       0.75000006       0.42027944 </v>
   <v>       0.91170174       0.41666672       0.08405589 </v>
   <v>       0.95425940       0.72637004       0.53426754 </v>
   <v>       0.57836837       0.41666672       0.42027944 </v>
   <v>       0.91170174       0.08333334       0.08405589 </v>
   <v>       0.06964409       0.14944696       0.53426754 </v>
   <v>       0.57836837       0.08333334       0.42027944 </v>
   <v>       0.64656722       0.26483157       0.53426754 </v>
   <v>       0.53118253       0.34175470       0.67496520 </v>
   <v>       0.41579783       0.41867787       0.81566292 </v>
   <v>       0.91170174       0.75000006       0.42027944 </v>
   <v>       0.68502867       0.57252389       0.67496520 </v>
   <v>       0.56964397       0.64944702       0.81566292 </v>
   <v>       0.74503505       0.25000000       0.42027944 </v>
   <v>       0.14656711       0.26483163       0.67496520 </v>
   <v>       0.03118241       0.34175476       0.81566292 </v>
   <v>       0.41579795       0.41867778       0.53426754 </v>
   <v>       0.30041325       0.49560091       0.67496520 </v>
   <v>       0.18502855       0.57252401       0.81566292 </v>
   <v>       0.56964397       0.64944696       0.53426754 </v>
   <v>       0.45425940       0.72637010       0.67496520 </v>
   <v>       0.33887458       0.80329323       0.81566292 </v>
   <v>       0.72349024       0.88021630       0.53426754 </v>
   <v>       0.60810542       0.95713943       0.67496520 </v>
   <v>       0.49272084       0.03406262       0.81566292 </v>
   <v>       0.41170180       0.58333343       0.42027944 </v>
   <v>       0.76195168       0.18790853       0.67496520 </v>
   <v>       0.64656687       0.26483166       0.81566292 </v>
   <v>       0.57836855       0.58333343       0.25216761 </v>
   <v>       0.91579783       0.41867781       0.67496520 </v>
   <v>       0.80041313       0.49560094       0.81566292 </v>
   <v>       0.41170186       0.08333334       0.25216761 </v>
   <v>       0.06964397       0.64944702       0.67496520 </v>
   <v>       0.95425928       0.72637016       0.81566292 </v>
   <v>       0.57836855       0.91666675       0.25216761 </v>
   <v>       0.22349012       0.88021618       0.67496520 </v>
   <v>       0.10810542       0.95713931       0.81566292 </v>
   <v>       0.24503510       0.58333343       0.25216761 </v>
   <v>       0.37733626       0.11098554       0.67496520 </v>
   <v>       0.26195157       0.18790868       0.81566292 </v>
   <v>       0.74503505       0.41666672       0.25216761 </v>
   <v>       0.83887470       0.80329317       0.67496520 </v>
   <v>       0.72349000       0.88021636       0.81566292 </v>
   <v>       0.10810566       0.95713925       0.53426754 </v>
   <v>       0.99272090       0.03406239       0.67496520 </v>
   <v>       0.87733614       0.11098554       0.81566292 </v>
   <v>       0.85810554       0.20713928       0.60461640 </v>
   <v>       0.74272084       0.28406242       0.74531406 </v>
   <v>       0.49503511       0.66666669       0.16811179 </v>
   <v>       0.47349024       0.13021627       0.60461640 </v>
   <v>       0.35810554       0.20713940       0.74531406 </v>
   <v>       0.32836846       0.33333334       0.00000000 </v>
   <v>       0.62733650       0.36098543       0.60461640 </v>
   <v>       0.51195168       0.43790859       0.74531406 </v>
   <v>       0.99503505       0.50000000       0.16811179 </v>
   <v>       0.78118253       0.59175467       0.60461640 </v>
   <v>       0.66579783       0.66867781       0.74531406 </v>
   <v>       0.55041313       0.74560094       0.88601178 </v>
   <v>       0.24272096       0.28406236       0.60461640 </v>
   <v>       0.12733626       0.36098549       0.74531406 </v>
   <v>       0.16170174       0.00000000       0.16811179 </v>
   <v>       0.39656711       0.51483166       0.60461640 </v>
   <v>       0.28118241       0.59175479       0.74531406 </v>
   <v>       0.16579771       0.66867793       0.88601178 </v>
   <v>       0.55041325       0.74560082       0.60461640 </v>
   <v>       0.43502855       0.82252395       0.74531406 </v>
   <v>       0.99503505       0.83333331       0.16811179 </v>
   <v>       0.70425940       0.97637010       0.60461640 </v>
   <v>       0.58887470       0.05329323       0.74531406 </v>
   <v>       0.16170174       0.33333334       0.16811179 </v>
   <v>       0.01195168       0.43790853       0.60461640 </v>
   <v>       0.89656705       0.51483160       0.74531406 </v>
   <v>       0.49503511       0.16666667       0.00000000 </v>
   <v>       0.16579783       0.66867781       0.60461640 </v>
   <v>       0.05041313       0.74560088       0.74531406 </v>
   <v>       0.16170174       0.66666669       0.16811179 </v>
   <v>       0.31964397       0.89944696       0.60461640 </v>
   <v>       0.20425928       0.97637010       0.74531406 </v>
   <v>       0.91170174       0.75000006       0.08405589 </v>
   <v>       0.93502861       0.82252389       0.60461640 </v>
   <v>       0.81964397       0.89944708       0.74531406 </v>
   <v>       0.70425916       0.97637016       0.88601178 </v>
   <v>       0.08887482       0.05329311       0.60461640 </v>
   <v>       0.97349006       0.13021627       0.74531406 </v>
   <v>       0.85810542       0.20713940       0.88601178 </v>
   <v>       0.66170174       0.00000000       0.33622354 </v>
   <v>       0.72349012       0.38021630       0.67496520 </v>
   <v>       0.60810542       0.45713946       0.81566292 </v>
   <v>       0.45425940       0.22637007       0.53426754 </v>
   <v>       0.33887470       0.30329320       0.67496520 </v>
   <v>       0.22349000       0.38021633       0.81566292 </v>
   <v>       0.60810566       0.45713937       0.53426754 </v>
   <v>       0.49272084       0.53406251       0.67496520 </v>
   <v>       0.37733626       0.61098564       0.81566292 </v>
   <v>       0.91170180       0.25000000       0.25216761 </v>
   <v>       0.64656711       0.76483172       0.67496520 </v>
   <v>       0.32836843       0.50000000       0.16811179 </v>
   <v>       0.74503505       0.08333334       0.25216761 </v>
   <v>       0.95425940       0.22637010       0.67496520 </v>
   <v>       0.83887458       0.30329323       0.81566292 </v>
   <v>       0.91170180       0.58333343       0.25216761 </v>
   <v>       0.10810554       0.45713937       0.67496520 </v>
   <v>       0.99272084       0.53406251       0.81566292 </v>
   <v>       0.24503510       0.91666675       0.25216761 </v>
   <v>       0.26195168       0.68790865       0.67496520 </v>
   <v>       0.14656699       0.76483178       0.81566292 </v>
   <v>       0.24503513       0.41666672       0.42027944 </v>
   <v>       0.41579771       0.91867781       0.67496520 </v>
   <v>       0.30041313       0.99560094       0.81566292 </v>
   <v>       0.91170180       0.91666675       0.25216761 </v>
   <v>       0.56964397       0.14944711       0.67496520 </v>
   <v>       0.45425928       0.22637024       0.81566292 </v>
   <v>       0.07836838       0.58333343       0.42027944 </v>
   <v>       0.87733626       0.61098552       0.67496520 </v>
   <v>       0.66170180       0.66666669       0.00000000 </v>
   <v>       0.74503505       0.75000006       0.25216761 </v>
   <v>       0.03118241       0.84175479       0.67496520 </v>
   <v>       0.91579771       0.91867793       0.81566292 </v>
   <v>       0.30041337       0.99560088       0.53426754 </v>
   <v>       0.18502855       0.07252407       0.67496520 </v>
   <v>       0.06964386       0.14944711       0.81566292 </v>
   <v>       0.91579789       0.91867775       0.53426754 </v>
   <v>       0.80041313       0.99560088       0.67496520 </v>
   <v>       0.68502843       0.07252407       0.81566292 </v>
   <v>       0.66579795       0.16867773       0.60461640 </v>
   <v>       0.55041325       0.24560088       0.74531406 </v>
   <v>       0.66170186       0.83333331       0.16811179 </v>
   <v>       0.81964397       0.39944696       0.60461640 </v>
   <v>       0.70425928       0.47637013       0.74531406 </v>
   <v>       0.82836843       0.66666669       0.16811179 </v>
   <v>       0.43502879       0.32252389       0.60461640 </v>
   <v>       0.31964397       0.39944702       0.74531406 </v>
   <v>       0.99503505       0.16666667       0.16811179 </v>
   <v>       0.58887494       0.55329311       0.60461640 </v>
   <v>       0.47349024       0.63021624       0.74531406 </v>
   <v>       0.35810554       0.70713937       0.88601178 </v>
   <v>       0.74272108       0.78406239       0.60461640 </v>
   <v>       0.62733650       0.86098552       0.74531406 </v>
   <v>       0.99503511       0.00000000       0.00000000 </v>
   <v>       0.05041325       0.24560076       0.60461640 </v>
   <v>       0.93502855       0.32252389       0.74531406 </v>
   <v>       0.81964386       0.39944705       0.88601178 </v>
   <v>       0.20425940       0.47637007       0.60461640 </v>
   <v>       0.08887482       0.55329317       0.74531406 </v>
   <v>       0.97349006       0.63021630       0.88601178 </v>
   <v>       0.35810566       0.70713925       0.60461640 </v>
   <v>       0.24272084       0.78406239       0.74531406 </v>
   <v>       0.66170180       0.33333334       0.00000000 </v>
   <v>       0.41170180       0.91666675       0.42027944 </v>
   <v>       0.39656711       0.01483178       0.74531406 </v>
   <v>       0.82836843       0.33333334       0.16811179 </v>
   <v>       0.97349018       0.63021618       0.60461640 </v>
   <v>       0.85810542       0.70713931       0.74531406 </v>
   <v>       0.49503511       0.33333334       0.16811179 </v>
   <v>       0.12733638       0.86098540       0.60461640 </v>
   <v>       0.01195168       0.93790853       0.74531406 </v>
   <v>       0.89656693       0.01483178       0.88601178 </v>
   <v>       0.07836843       0.75000006       0.25216761 </v>
   <v>       0.16579783       0.16867796       0.74531406 </v>
   <v>       0.16170177       0.50000000       0.00000000 </v>
   <v>       0.89656711       0.01483154       0.60461640 </v>
   <v>       0.78118229       0.09175479       0.74531406 </v>
   <v>       0.66579771       0.16867784       0.88601178 </v>
  </varray>
 </structure>
</modeling>
