  96  96   0   0
  0.2243693E+02  0.1265123E-08  0.1265123E-08  0.1373516E-08  0.5000000E-15
  1.000000000000000E-004
  CAR 
 Si and Ge interface calculation         
      6.50763423    -11.42123185  301      3.71048797      1.00000000
    -11.421  0.0000E+00  0.0000E+00  0.0000E+00  0.0000E+00
    -11.361  0.0000E+00  0.0000E+00  0.0000E+00  0.0000E+00
    -11.302  0.0000E+00  0.0000E+00  0.0000E+00  0.0000E+00
    -11.242  0.0000E+00  0.0000E+00  0.0000E+00  0.0000E+00
    -11.182  0.0000E+00  0.0000E+00  0.0000E+00  0.0000E+00
    -11.122  0.0000E+00  0.0000E+00  0.0000E+00  0.0000E+00
    -11.063  0.0000E+00  0.0000E+00  0.0000E+00  0.0000E+00
    -11.003  0.0000E+00  0.0000E+00  0.0000E+00  0.0000E+00
    -10.943  0.0000E+00  0.0000E+00  0.0000E+00  0.0000E+00
    -10.883  0.0000E+00  0.0000E+00  0.0000E+00  0.0000E+00
    -10.824  0.0000E+00  0.0000E+00  0.0000E+00  0.0000E+00
    -10.764  0.0000E+00  0.0000E+00  0.0000E+00  0.0000E+00
    -10.704  0.0000E+00  0.0000E+00  0.0000E+00  0.0000E+00
    -10.644  0.1535E-06  0.1892E-10  0.9172E-08  0.1131E-11
    -10.585  0.3326E+02  0.2908E+02  0.1988E+01  0.1738E+01
    -10.525  0.1926E+00  0.4391E+01  0.2000E+01  0.2000E+01
    -10.465  0.0000E+00  0.0000E+00  0.2000E+01  0.2000E+01
    -10.405  0.2064E-15  0.0000E+00  0.2000E+01  0.2000E+01
    -10.345  0.2706E+01  0.5315E+00  0.2162E+01  0.2032E+01
    -10.286  0.2433E+02  0.1790E+02  0.3616E+01  0.3102E+01
    -10.226  0.6432E+01  0.1503E+02  0.4000E+01  0.4000E+01
    -10.166  0.4448E-01  0.1029E-02  0.4003E+01  0.4000E+01
    -10.106  0.2227E+02  0.2231E+02  0.5333E+01  0.5333E+01
    -10.047  0.0000E+00  0.0000E+00  0.5333E+01  0.5333E+01
     -9.987  0.4685E-06  0.2253E-09  0.5333E+01  0.5333E+01
     -9.927  0.7328E+01  0.3976E+01  0.5771E+01  0.5571E+01
     -9.867  0.4842E+02  0.5137E+02  0.8665E+01  0.8641E+01
     -9.808  0.2170E-01  0.4271E+00  0.8667E+01  0.8667E+01
     -9.748  0.0000E+00  0.0000E+00  0.8667E+01  0.8667E+01
     -9.688  0.1032E-14  0.0000E+00  0.8667E+01  0.8667E+01
     -9.628  0.9058E+01  0.2338E+01  0.9208E+01  0.8806E+01
     -9.569  0.1325E+02  0.1997E+02  0.1000E+02  0.1000E+02
     -9.509  0.0000E+00  0.0000E+00  0.1000E+02  0.1000E+02
     -9.449  0.0000E+00  0.0000E+00  0.1000E+02  0.1000E+02
     -9.389  0.1297E-02  0.1270E-04  0.1000E+02  0.1000E+02
     -9.330  0.2231E+02  0.2230E+02  0.1133E+02  0.1133E+02
     -9.270  0.2426E-02  0.3479E-04  0.1133E+02  0.1133E+02
     -9.210  0.1115E+02  0.1115E+02  0.1200E+02  0.1200E+02
     -9.150  0.0000E+00  0.0000E+00  0.1200E+02  0.1200E+02
     -9.090  0.0000E+00  0.0000E+00  0.1200E+02  0.1200E+02
     -9.031  0.0000E+00  0.0000E+00  0.1200E+02  0.1200E+02
     -8.971  0.0000E+00  0.0000E+00  0.1200E+02  0.1200E+02
     -8.911  0.3426E-04  0.1835E-07  0.1200E+02  0.1200E+02
     -8.851  0.2601E+02  0.1329E+02  0.1355E+02  0.1279E+02
     -8.792  0.2467E+02  0.3107E+02  0.1503E+02  0.1465E+02
     -8.732  0.1624E+02  0.2257E+02  0.1600E+02  0.1600E+02
     -8.672  0.5780E-14  0.0000E+00  0.1600E+02  0.1600E+02
     -8.612  0.4789E+01  0.9646E+00  0.1629E+02  0.1606E+02
     -8.553  0.2262E+02  0.2340E+02  0.1764E+02  0.1746E+02
     -8.493  0.1081E+02  0.1010E+02  0.1828E+02  0.1806E+02
     -8.433  0.2414E+02  0.2447E+02  0.1973E+02  0.1952E+02
     -8.373  0.1902E+02  0.2040E+02  0.2086E+02  0.2074E+02
     -8.314  0.1980E+02  0.2110E+02  0.2205E+02  0.2200E+02
     -8.254  0.1158E+02  0.9947E+01  0.2274E+02  0.2260E+02
     -8.194  0.1639E+02  0.1642E+02  0.2372E+02  0.2358E+02
     -8.134  0.1071E+02  0.1150E+02  0.2436E+02  0.2427E+02
     -8.075  0.1875E+02  0.1800E+02  0.2548E+02  0.2534E+02
     -8.015  0.3362E+02  0.3307E+02  0.2749E+02  0.2732E+02
     -7.955  0.2513E+02  0.2607E+02  0.2899E+02  0.2888E+02
     -7.895  0.2778E+02  0.2304E+02  0.3065E+02  0.3025E+02
     -7.835  0.1888E+02  0.2389E+02  0.3178E+02  0.3168E+02
     -7.776  0.8941E+01  0.9206E+01  0.3231E+02  0.3223E+02
     -7.716  0.1190E+02  0.1095E+02  0.3302E+02  0.3289E+02
     -7.656  0.2957E+02  0.2703E+02  0.3479E+02  0.3450E+02
     -7.596  0.1633E+02  0.1827E+02  0.3577E+02  0.3559E+02
     -7.537  0.3814E+02  0.3473E+02  0.3805E+02  0.3767E+02
     -7.477  0.1595E+02  0.2191E+02  0.3900E+02  0.3898E+02
     -7.417  0.1933E+02  0.1754E+02  0.4016E+02  0.4003E+02
     -7.357  0.2814E+02  0.2557E+02  0.4184E+02  0.4156E+02
     -7.298  0.1878E+02  0.2028E+02  0.4296E+02  0.4277E+02
     -7.238  0.2743E+02  0.2758E+02  0.4460E+02  0.4442E+02
     -7.178  0.2156E+02  0.2395E+02  0.4589E+02  0.4585E+02
     -7.118  0.1752E+02  0.1531E+02  0.4693E+02  0.4676E+02
     -7.059  0.3293E+02  0.3201E+02  0.4890E+02  0.4868E+02
     -6.999  0.2476E+02  0.2595E+02  0.5038E+02  0.5023E+02
     -6.939  0.3068E+02  0.2935E+02  0.5222E+02  0.5198E+02
     -6.879  0.3339E+02  0.3295E+02  0.5421E+02  0.5395E+02
     -6.819  0.3746E+02  0.3617E+02  0.5645E+02  0.5611E+02
     -6.760  0.3471E+02  0.3452E+02  0.5853E+02  0.5817E+02
     -6.700  0.2384E+02  0.2743E+02  0.5995E+02  0.5981E+02
     -6.640  0.1819E+02  0.1896E+02  0.6104E+02  0.6095E+02
     -6.580  0.3095E+02  0.2615E+02  0.6289E+02  0.6251E+02
     -6.521  0.3600E+02  0.3485E+02  0.6504E+02  0.6459E+02
     -6.461  0.2051E+02  0.2530E+02  0.6626E+02  0.6611E+02
     -6.401  0.3839E+02  0.3627E+02  0.6856E+02  0.6827E+02
     -6.341  0.2986E+02  0.2956E+02  0.7034E+02  0.7004E+02
     -6.282  0.2258E+02  0.2613E+02  0.7169E+02  0.7160E+02
     -6.222  0.2269E+02  0.2063E+02  0.7305E+02  0.7283E+02
     -6.162  0.2514E+02  0.2620E+02  0.7455E+02  0.7440E+02
     -6.102  0.2734E+02  0.2766E+02  0.7619E+02  0.7605E+02
     -6.043  0.3009E+02  0.2603E+02  0.7798E+02  0.7761E+02
     -5.983  0.2583E+02  0.2835E+02  0.7953E+02  0.7930E+02
     -5.923  0.2123E+02  0.2083E+02  0.8080E+02  0.8055E+02
     -5.863  0.3464E+02  0.3570E+02  0.8287E+02  0.8268E+02
     -5.804  0.2146E+02  0.2035E+02  0.8415E+02  0.8390E+02
     -5.744  0.2459E+02  0.2307E+02  0.8562E+02  0.8528E+02
     -5.684  0.9194E+01  0.1256E+02  0.8617E+02  0.8603E+02
     -5.624  0.2560E+02  0.2213E+02  0.8770E+02  0.8735E+02
     -5.564  0.2009E+02  0.2101E+02  0.8890E+02  0.8861E+02
     -5.505  0.2181E+02  0.2342E+02  0.9020E+02  0.9001E+02
     -5.445  0.2303E+02  0.1681E+02  0.9158E+02  0.9101E+02
     -5.385  0.2124E+02  0.2888E+02  0.9285E+02  0.9274E+02
     -5.325  0.1583E+02  0.1455E+02  0.9379E+02  0.9361E+02
     -5.266  0.2304E+02  0.2050E+02  0.9517E+02  0.9483E+02
     -5.206  0.2859E+02  0.3064E+02  0.9688E+02  0.9666E+02
     -5.146  0.3197E+02  0.3022E+02  0.9879E+02  0.9847E+02
     -5.086  0.1245E+02  0.1623E+02  0.9954E+02  0.9944E+02
     -5.027  0.1617E+02  0.1334E+02  0.1005E+03  0.1002E+03
     -4.967  0.2361E+02  0.2411E+02  0.1019E+03  0.1017E+03
     -4.907  0.1037E+02  0.1161E+02  0.1025E+03  0.1024E+03
     -4.847  0.2793E+02  0.2575E+02  0.1042E+03  0.1039E+03
     -4.788  0.2389E+02  0.2602E+02  0.1056E+03  0.1055E+03
     -4.728  0.3341E+02  0.3016E+02  0.1076E+03  0.1073E+03
     -4.668  0.3134E+02  0.3272E+02  0.1095E+03  0.1092E+03
     -4.608  0.2190E+02  0.1910E+02  0.1108E+03  0.1104E+03
     -4.548  0.2826E+02  0.2943E+02  0.1125E+03  0.1121E+03
     -4.489  0.1923E+02  0.2106E+02  0.1136E+03  0.1134E+03
     -4.429  0.1739E+02  0.1985E+02  0.1147E+03  0.1146E+03
     -4.369  0.2339E+02  0.1999E+02  0.1161E+03  0.1158E+03
     -4.309  0.2767E+02  0.2583E+02  0.1177E+03  0.1173E+03
     -4.250  0.2117E+02  0.2833E+02  0.1190E+03  0.1190E+03
     -4.190  0.2579E+02  0.2470E+02  0.1205E+03  0.1205E+03
     -4.130  0.2249E+02  0.2066E+02  0.1219E+03  0.1217E+03
     -4.070  0.2117E+02  0.1960E+02  0.1232E+03  0.1229E+03
     -4.011  0.1693E+02  0.1891E+02  0.1242E+03  0.1240E+03
     -3.951  0.2279E+02  0.2057E+02  0.1255E+03  0.1252E+03
     -3.891  0.1335E+02  0.1614E+02  0.1263E+03  0.1262E+03
     -3.831  0.2468E+02  0.2153E+02  0.1278E+03  0.1275E+03
     -3.772  0.2081E+02  0.2209E+02  0.1290E+03  0.1288E+03
     -3.712  0.2375E+02  0.2353E+02  0.1305E+03  0.1302E+03
     -3.652  0.2315E+02  0.2287E+02  0.1318E+03  0.1316E+03
     -3.592  0.2517E+02  0.2710E+02  0.1334E+03  0.1332E+03
     -3.533  0.2295E+02  0.1956E+02  0.1347E+03  0.1344E+03
     -3.473  0.3529E+02  0.3416E+02  0.1368E+03  0.1364E+03
     -3.413  0.3166E+02  0.3391E+02  0.1387E+03  0.1384E+03
     -3.353  0.2676E+02  0.2462E+02  0.1403E+03  0.1399E+03
     -3.293  0.3540E+02  0.4124E+02  0.1424E+03  0.1424E+03
     -3.234  0.2543E+02  0.2317E+02  0.1440E+03  0.1438E+03
     -3.174  0.2504E+02  0.2532E+02  0.1455E+03  0.1453E+03
     -3.114  0.2888E+02  0.2580E+02  0.1472E+03  0.1468E+03
     -3.054  0.1682E+02  0.1998E+02  0.1482E+03  0.1480E+03
     -2.995  0.2988E+02  0.2706E+02  0.1500E+03  0.1496E+03
     -2.935  0.3503E+02  0.3319E+02  0.1521E+03  0.1516E+03
     -2.875  0.2431E+02  0.2562E+02  0.1535E+03  0.1531E+03
     -2.815  0.3151E+02  0.3380E+02  0.1554E+03  0.1552E+03
     -2.756  0.2448E+02  0.2096E+02  0.1569E+03  0.1564E+03
     -2.696  0.4772E+02  0.4525E+02  0.1597E+03  0.1591E+03
     -2.636  0.3380E+02  0.3768E+02  0.1617E+03  0.1614E+03
     -2.576  0.3246E+02  0.3566E+02  0.1637E+03  0.1635E+03
     -2.517  0.3566E+02  0.3351E+02  0.1658E+03  0.1655E+03
     -2.457  0.2981E+02  0.2924E+02  0.1676E+03  0.1673E+03
     -2.397  0.3065E+02  0.3224E+02  0.1694E+03  0.1692E+03
     -2.337  0.3232E+02  0.2625E+02  0.1714E+03  0.1708E+03
     -2.278  0.2660E+02  0.3084E+02  0.1729E+03  0.1726E+03
     -2.218  0.2918E+02  0.3165E+02  0.1747E+03  0.1745E+03
     -2.158  0.2341E+02  0.2111E+02  0.1761E+03  0.1758E+03
     -2.098  0.2813E+02  0.2909E+02  0.1778E+03  0.1775E+03
     -2.038  0.3262E+02  0.3001E+02  0.1797E+03  0.1793E+03
     -1.979  0.3019E+02  0.3420E+02  0.1815E+03  0.1813E+03
     -1.919  0.2185E+02  0.1803E+02  0.1828E+03  0.1824E+03
     -1.859  0.1657E+02  0.2023E+02  0.1838E+03  0.1836E+03
     -1.799  0.2150E+02  0.2304E+02  0.1851E+03  0.1850E+03
     -1.740  0.3314E+02  0.2952E+02  0.1871E+03  0.1868E+03
     -1.680  0.2457E+02  0.2719E+02  0.1886E+03  0.1884E+03
     -1.620  0.3271E+02  0.3087E+02  0.1905E+03  0.1902E+03
     -1.560  0.2233E+02  0.2440E+02  0.1918E+03  0.1917E+03
     -1.501  0.2252E+02  0.2198E+02  0.1932E+03  0.1930E+03
     -1.441  0.2640E+02  0.2507E+02  0.1948E+03  0.1945E+03
     -1.381  0.7542E+01  0.9699E+01  0.1952E+03  0.1951E+03
     -1.321  0.1943E+02  0.1680E+02  0.1964E+03  0.1961E+03
     -1.262  0.1869E+02  0.1885E+02  0.1975E+03  0.1972E+03
     -1.202  0.3095E+02  0.3202E+02  0.1993E+03  0.1991E+03
     -1.142  0.2019E+02  0.2346E+02  0.2006E+03  0.2005E+03
     -1.082  0.1548E+02  0.1222E+02  0.2015E+03  0.2013E+03
     -1.022  0.6414E+01  0.9035E+01  0.2019E+03  0.2018E+03
     -0.963  0.1041E+02  0.1054E+02  0.2025E+03  0.2024E+03
     -0.903  0.2280E+02  0.1923E+02  0.2038E+03  0.2036E+03
     -0.843  0.2025E+02  0.2082E+02  0.2051E+03  0.2048E+03
     -0.783  0.4457E+02  0.4357E+02  0.2077E+03  0.2074E+03
     -0.724  0.2151E+02  0.2265E+02  0.2090E+03  0.2088E+03
     -0.664  0.4434E+02  0.4270E+02  0.2117E+03  0.2113E+03
     -0.604  0.3363E+02  0.3231E+02  0.2137E+03  0.2133E+03
     -0.544  0.2933E+02  0.3279E+02  0.2154E+03  0.2152E+03
     -0.485  0.3698E+02  0.3346E+02  0.2176E+03  0.2172E+03
     -0.425  0.3872E+02  0.3893E+02  0.2199E+03  0.2195E+03
     -0.365  0.3704E+02  0.3879E+02  0.2222E+03  0.2219E+03
     -0.305  0.3707E+02  0.3844E+02  0.2244E+03  0.2242E+03
     -0.246  0.3210E+02  0.3107E+02  0.2263E+03  0.2260E+03
     -0.186  0.2800E+02  0.2970E+02  0.2280E+03  0.2278E+03
     -0.126  0.2989E+02  0.2783E+02  0.2298E+03  0.2295E+03
     -0.066  0.2932E+02  0.2972E+02  0.2315E+03  0.2312E+03
     -0.007  0.1610E+02  0.1841E+02  0.2325E+03  0.2323E+03
      0.053  0.3883E+02  0.3266E+02  0.2348E+03  0.2343E+03
      0.113  0.3176E+02  0.3708E+02  0.2367E+03  0.2365E+03
      0.173  0.2903E+02  0.2607E+02  0.2384E+03  0.2381E+03
      0.233  0.4623E+02  0.5067E+02  0.2412E+03  0.2411E+03
      0.292  0.2252E+02  0.1987E+02  0.2425E+03  0.2423E+03
      0.352  0.4136E+02  0.4072E+02  0.2450E+03  0.2447E+03
      0.412  0.4419E+02  0.4272E+02  0.2476E+03  0.2473E+03
      0.472  0.4351E+02  0.4444E+02  0.2502E+03  0.2499E+03
      0.531  0.4649E+02  0.4391E+02  0.2530E+03  0.2525E+03
      0.591  0.3508E+02  0.3619E+02  0.2551E+03  0.2547E+03
      0.651  0.5318E+02  0.5031E+02  0.2583E+03  0.2577E+03
      0.711  0.4350E+02  0.4716E+02  0.2609E+03  0.2605E+03
      0.770  0.5033E+02  0.5118E+02  0.2639E+03  0.2636E+03
      0.830  0.5302E+02  0.5102E+02  0.2671E+03  0.2666E+03
      0.890  0.4784E+02  0.4586E+02  0.2699E+03  0.2694E+03
      0.950  0.3858E+02  0.4212E+02  0.2722E+03  0.2719E+03
      1.009  0.4228E+02  0.4311E+02  0.2748E+03  0.2745E+03
      1.069  0.5518E+02  0.5124E+02  0.2781E+03  0.2775E+03
      1.129  0.5020E+02  0.5338E+02  0.2811E+03  0.2807E+03
      1.189  0.3269E+02  0.3104E+02  0.2830E+03  0.2826E+03
      1.249  0.3637E+02  0.3757E+02  0.2852E+03  0.2848E+03
      1.308  0.4547E+02  0.4428E+02  0.2879E+03  0.2875E+03
      1.368  0.4913E+02  0.4767E+02  0.2908E+03  0.2903E+03
      1.428  0.4852E+02  0.5244E+02  0.2937E+03  0.2935E+03
      1.488  0.3624E+02  0.3571E+02  0.2959E+03  0.2956E+03
      1.547  0.4725E+02  0.4887E+02  0.2987E+03  0.2985E+03
      1.607  0.3902E+02  0.3564E+02  0.3011E+03  0.3006E+03
      1.667  0.4125E+02  0.4024E+02  0.3035E+03  0.3030E+03
      1.727  0.3683E+02  0.3882E+02  0.3057E+03  0.3054E+03
      1.786  0.3244E+02  0.3606E+02  0.3077E+03  0.3075E+03
      1.846  0.3859E+02  0.3598E+02  0.3100E+03  0.3097E+03
      1.906  0.3967E+02  0.4035E+02  0.3124E+03  0.3121E+03
      1.966  0.3144E+02  0.3248E+02  0.3142E+03  0.3140E+03
      2.025  0.4782E+02  0.4362E+02  0.3171E+03  0.3166E+03
      2.085  0.4411E+02  0.4342E+02  0.3197E+03  0.3192E+03
      2.145  0.4246E+02  0.4616E+02  0.3223E+03  0.3220E+03
      2.205  0.2213E+02  0.2077E+02  0.3236E+03  0.3232E+03
      2.264  0.3252E+02  0.3664E+02  0.3255E+03  0.3254E+03
      2.324  0.3638E+02  0.3072E+02  0.3277E+03  0.3273E+03
      2.384  0.3240E+02  0.3057E+02  0.3296E+03  0.3291E+03
      2.444  0.4913E+02  0.4937E+02  0.3326E+03  0.3320E+03
      2.504  0.4194E+02  0.4413E+02  0.3351E+03  0.3347E+03
      2.563  0.4474E+02  0.3997E+02  0.3378E+03  0.3371E+03
      2.623  0.4306E+02  0.4637E+02  0.3403E+03  0.3398E+03
      2.683  0.3453E+02  0.3382E+02  0.3424E+03  0.3418E+03
      2.743  0.3486E+02  0.4115E+02  0.3445E+03  0.3443E+03
      2.802  0.3754E+02  0.3337E+02  0.3467E+03  0.3463E+03
      2.862  0.3394E+02  0.3565E+02  0.3488E+03  0.3484E+03
      2.922  0.4002E+02  0.3792E+02  0.3511E+03  0.3507E+03
      2.982  0.3831E+02  0.3552E+02  0.3534E+03  0.3528E+03
      3.041  0.4271E+02  0.4433E+02  0.3560E+03  0.3555E+03
      3.101  0.4720E+02  0.4507E+02  0.3588E+03  0.3582E+03
      3.161  0.4063E+02  0.3623E+02  0.3612E+03  0.3603E+03
      3.221  0.3482E+02  0.4258E+02  0.3633E+03  0.3629E+03
      3.280  0.3819E+02  0.3938E+02  0.3656E+03  0.3652E+03
      3.340  0.3410E+02  0.2666E+02  0.3676E+03  0.3668E+03
      3.400  0.4730E+02  0.5186E+02  0.3705E+03  0.3699E+03
      3.460  0.4041E+02  0.4382E+02  0.3729E+03  0.3725E+03
      3.519  0.3705E+02  0.3397E+02  0.3751E+03  0.3746E+03
      3.579  0.5036E+02  0.4804E+02  0.3781E+03  0.3774E+03
      3.639  0.3890E+02  0.4519E+02  0.3804E+03  0.3801E+03
      3.699  0.4627E+02  0.3812E+02  0.3832E+03  0.3824E+03
      3.759  0.5047E+02  0.4812E+02  0.3862E+03  0.3853E+03
      3.818  0.4032E+02  0.5006E+02  0.3886E+03  0.3883E+03
      3.878  0.4055E+02  0.3540E+02  0.3910E+03  0.3904E+03
      3.938  0.3972E+02  0.4024E+02  0.3934E+03  0.3928E+03
      3.998  0.4483E+02  0.4203E+02  0.3961E+03  0.3953E+03
      4.057  0.4444E+02  0.5086E+02  0.3988E+03  0.3984E+03
      4.117  0.4307E+02  0.3954E+02  0.4013E+03  0.4007E+03
      4.177  0.4138E+02  0.3564E+02  0.4038E+03  0.4029E+03
      4.237  0.4816E+02  0.4793E+02  0.4067E+03  0.4057E+03
      4.296  0.4568E+02  0.4729E+02  0.4094E+03  0.4085E+03
      4.356  0.3745E+02  0.4190E+02  0.4116E+03  0.4111E+03
      4.416  0.4616E+02  0.4283E+02  0.4144E+03  0.4136E+03
      4.476  0.4434E+02  0.4328E+02  0.4171E+03  0.4162E+03
      4.535  0.3161E+02  0.3586E+02  0.4189E+03  0.4183E+03
      4.595  0.4200E+02  0.4453E+02  0.4215E+03  0.4210E+03
      4.655  0.2939E+02  0.2641E+02  0.4232E+03  0.4226E+03
      4.715  0.3972E+02  0.4092E+02  0.4256E+03  0.4250E+03
      4.775  0.5000E+02  0.5240E+02  0.4286E+03  0.4282E+03
      4.834  0.3427E+02  0.3194E+02  0.4306E+03  0.4301E+03
      4.894  0.3992E+02  0.4121E+02  0.4330E+03  0.4325E+03
      4.954  0.4069E+02  0.4226E+02  0.4354E+03  0.4351E+03
      5.014  0.4020E+02  0.3782E+02  0.4378E+03  0.4373E+03
      5.073  0.4687E+02  0.4855E+02  0.4406E+03  0.4402E+03
      5.133  0.3299E+02  0.3373E+02  0.4426E+03  0.4422E+03
      5.193  0.4401E+02  0.4250E+02  0.4452E+03  0.4448E+03
      5.253  0.4431E+02  0.4254E+02  0.4479E+03  0.4473E+03
      5.312  0.3442E+02  0.3972E+02  0.4500E+03  0.4497E+03
      5.372  0.4335E+02  0.3777E+02  0.4525E+03  0.4519E+03
      5.432  0.4057E+02  0.4352E+02  0.4550E+03  0.4545E+03
      5.492  0.3697E+02  0.3153E+02  0.4572E+03  0.4564E+03
      5.551  0.5059E+02  0.5332E+02  0.4602E+03  0.4596E+03
      5.611  0.4179E+02  0.4317E+02  0.4627E+03  0.4622E+03
      5.671  0.1597E+02  0.2128E+02  0.4637E+03  0.4635E+03
      5.731  0.5790E+01  0.8842E+01  0.4640E+03  0.4640E+03
      5.790  0.0000E+00  0.0000E+00  0.4640E+03  0.4640E+03
      5.850  0.0000E+00  0.0000E+00  0.4640E+03  0.4640E+03
      5.910  0.0000E+00  0.0000E+00  0.4640E+03  0.4640E+03
      5.970  0.0000E+00  0.0000E+00  0.4640E+03  0.4640E+03
      6.030  0.0000E+00  0.0000E+00  0.4640E+03  0.4640E+03
      6.089  0.0000E+00  0.0000E+00  0.4640E+03  0.4640E+03
      6.149  0.0000E+00  0.0000E+00  0.4640E+03  0.4640E+03
      6.209  0.0000E+00  0.0000E+00  0.4640E+03  0.4640E+03
      6.269  0.0000E+00  0.0000E+00  0.4640E+03  0.4640E+03
      6.328  0.0000E+00  0.0000E+00  0.4640E+03  0.4640E+03
      6.388  0.0000E+00  0.0000E+00  0.4640E+03  0.4640E+03
      6.448  0.0000E+00  0.0000E+00  0.4640E+03  0.4640E+03
      6.508  0.0000E+00  0.0000E+00  0.4640E+03  0.4640E+03
