Si and Ge interface calculation         
           1
    16.002676    0.000000    0.000000
    -8.001338   13.858725    0.000000
     0.000000    0.000000   20.304007
   Ge   Sn
    96    72
Direct configuration=     1
   0.98576731  0.49288356  0.00000000
   0.65243387  0.32621685  0.16088121
   0.31910050  0.15955012  0.32176238
   0.98576731  0.99288368  0.00000001
   0.65243387  0.82621694  0.16088121
   0.31910050  0.65955019  0.32176241
   0.48576724  0.49288359  0.00000000
   0.15243384  0.32621685  0.16088121
   0.81910044  0.15955013  0.32176241
   0.48576724  0.99288368  0.00000002
   0.15243384  0.82621694  0.16088121
   0.81910044  0.65955019  0.32176241
   0.15243395  0.82621688  0.04022032
   0.81910056  0.65955013  0.20110148
   0.48576719  0.49288344  0.36198270
   0.15243395  0.32621694  0.04022032
   0.81910056  0.15955022  0.20110150
   0.48576719  0.99288350  0.36198270
   0.65243387  0.82621682  0.04022032
   0.31910053  0.65955013  0.20110148
   0.98576719  0.49288344  0.36198270
   0.65243387  0.32621694  0.04022032
   0.31910053  0.15955023  0.20110150
   0.98576719  0.99288350  0.36198270
   0.23576726  0.74288362  0.00000000
   0.90243387  0.57621694  0.16088121
   0.56910038  0.40955013  0.32176241
   0.23576729  0.24288362  0.00000001
   0.90243387  0.07621690  0.16088121
   0.56910044  0.90955019  0.32176241
   0.73576724  0.74288356  0.00000001
   0.40243384  0.57621688  0.16088121
   0.06910040  0.40955010  0.32176241
   0.73576724  0.24288361  0.00000001
   0.40243384  0.07621689  0.16088119
   0.06910042  0.90955019  0.32176241
   0.40243393  0.57621694  0.04022026
   0.06910051  0.40955016  0.20110148
   0.73576719  0.24288349  0.36198267
   0.40243393  0.07621697  0.04022026
   0.06910051  0.90955025  0.20110148
   0.73576719  0.74288356  0.36198267
   0.90243399  0.57621688  0.04022027
   0.56910062  0.40955019  0.20110147
   0.23576724  0.24288346  0.36198267
   0.90243399  0.07621697  0.04022027
   0.56910062  0.90955025  0.20110148
   0.23576724  0.74288356  0.36198267
   0.23576728  0.49288359  0.00000001
   0.90243387  0.32621685  0.16088119
   0.56910044  0.15955012  0.32176241
   0.23576729  0.99288368  0.00000002
   0.90243387  0.82621694  0.16088121
   0.56910044  0.65955019  0.32176241
   0.73576724  0.49288359  0.00000001
   0.40243384  0.32621688  0.16088119
   0.06910040  0.15955012  0.32176241
   0.73576724  0.99288368  0.00000003
   0.40243384  0.82621694  0.16088121
   0.06910042  0.65955019  0.32176241
   0.40243393  0.82621694  0.04022028
   0.06910050  0.65955013  0.20110147
   0.73576719  0.49288347  0.36198267
   0.40243393  0.32621700  0.04022028
   0.06910053  0.15955025  0.20110148
   0.73576719  0.99288356  0.36198267
   0.90243399  0.82621688  0.04022026
   0.56910056  0.65955013  0.20110144
   0.23576724  0.49288347  0.36198261
   0.90243399  0.32621697  0.04022029
   0.56910062  0.15955025  0.20110148
   0.23576724  0.99288356  0.36198267
   0.98576731  0.74288362  0.00000001
   0.65243393  0.57621688  0.16088124
   0.31910050  0.40955016  0.32176238
   0.98576731  0.24288362  0.00000001
   0.65243387  0.07621688  0.16088121
   0.31910050  0.90955019  0.32176241
   0.48576724  0.74288362  0.00000000
   0.15243384  0.57621694  0.16088121
   0.81910044  0.40955010  0.32176241
   0.48576724  0.24288362  0.00000002
   0.15243384  0.07621690  0.16088121
   0.81910044  0.90955019  0.32176241
   0.15243398  0.57621694  0.04022032
   0.81910062  0.40955022  0.20110148
   0.48576724  0.24288355  0.36198270
   0.15243398  0.07621698  0.04022032
   0.81910062  0.90955031  0.20110150
   0.48576724  0.74288356  0.36198270
   0.65243399  0.57621694  0.04022032
   0.31910062  0.40955022  0.20110150
   0.98576724  0.24288352  0.36198270
   0.65243399  0.07621699  0.04022031
   0.31910062  0.90955031  0.20110150
   0.98576724  0.74288356  0.36198270
   0.06918239  0.32687458  0.47340384
   0.06918239  0.66020799  0.65792614
   0.06918239  0.99354136  0.84244847
   0.40251577  0.99354130  0.47340381
   0.40251580  0.32687473  0.65792614
   0.40251580  0.66020811  0.84244835
   0.73584914  0.66020799  0.47340384
   0.73584914  0.99354136  0.65792614
   0.73584914  0.32687473  0.84244835
   0.06918239  0.66020799  0.51953441
   0.06918239  0.99354130  0.70405674
   0.06918239  0.32687461  0.88857901
   0.40251580  0.32687461  0.51953441
   0.40251580  0.66020799  0.70405674
   0.40251580  0.99354148  0.88857901
   0.73584914  0.99354136  0.51953441
   0.73584914  0.32687473  0.70405674
   0.73584914  0.66020799  0.88857901
   0.23584908  0.66020799  0.47340384
   0.23584908  0.99354136  0.65792614
   0.23584908  0.32687473  0.84244847
   0.56918240  0.32687458  0.47340384
   0.56918240  0.66020799  0.65792614
   0.56918240  0.99354142  0.84244847
   0.90251583  0.99354130  0.47340381
   0.90251583  0.32687473  0.65792608
   0.90251583  0.66020811  0.84244847
   0.23584908  0.99354136  0.51953435
   0.23584908  0.32687473  0.70405668
   0.23584911  0.66020822  0.88857901
   0.56918246  0.66020799  0.51953435
   0.56918246  0.99354136  0.70405674
   0.56918246  0.32687473  0.88857901
   0.90251583  0.32687461  0.51953435
   0.90251583  0.66020799  0.70405668
   0.90251583  0.99354136  0.88857901
   0.06918239  0.82687461  0.47340384
   0.06918239  0.16020799  0.65792608
   0.06918239  0.49354136  0.84244847
   0.40251577  0.49354124  0.47340384
   0.40251577  0.82687467  0.65792614
   0.40251577  0.16020799  0.84244847
   0.73584914  0.16020799  0.47340381
   0.73584914  0.49354136  0.65792608
   0.73584920  0.82687485  0.84244847
   0.06918239  0.16020799  0.51953435
   0.06918239  0.49354136  0.70405668
   0.06918239  0.82687485  0.88857901
   0.40251577  0.82687461  0.51953435
   0.40251577  0.16020799  0.70405668
   0.40251580  0.49354148  0.88857901
   0.73584914  0.49354121  0.51953435
   0.73584914  0.82687461  0.70405674
   0.73584914  0.16020799  0.88857901
   0.23584908  0.16020799  0.47340384
   0.23584908  0.49354124  0.65792608
   0.23584908  0.82687473  0.84244835
   0.56918240  0.82687461  0.47340381
   0.56918240  0.16020799  0.65792614
   0.56918246  0.49354136  0.84244835
   0.90251577  0.49354127  0.47340384
   0.90251577  0.82687467  0.65792614
   0.90251577  0.16020811  0.84244835
   0.23584908  0.49354118  0.51953441
   0.23584908  0.82687455  0.70405674
   0.23584908  0.16020799  0.88857901
   0.56918240  0.16020799  0.51953441
   0.56918240  0.49354136  0.70405674
   0.56918240  0.82687461  0.88857901
   0.90251583  0.82687461  0.51953441
   0.90251583  0.16020799  0.70405674
   0.90251583  0.49354136  0.88857901
