  72  72   0   0
  0.2358891E+02  0.8001338E-09  0.1600268E-08  0.1326432E-08  0.5000000E-15
  1.000000000000000E-004
  CAR 
 Si and Ge interface calculation         
      6.84664506     -9.52595708  301      3.68293995      1.00000000
     -9.526  0.0000E+00  0.0000E+00  0.0000E+00  0.0000E+00
     -9.471  0.0000E+00  0.0000E+00  0.0000E+00  0.0000E+00
     -9.417  0.0000E+00  0.0000E+00  0.0000E+00  0.0000E+00
     -9.362  0.0000E+00  0.0000E+00  0.0000E+00  0.0000E+00
     -9.308  0.0000E+00  0.0000E+00  0.0000E+00  0.0000E+00
     -9.253  0.0000E+00  0.0000E+00  0.0000E+00  0.0000E+00
     -9.199  0.0000E+00  0.0000E+00  0.0000E+00  0.0000E+00
     -9.144  0.0000E+00  0.0000E+00  0.0000E+00  0.0000E+00
     -9.089  0.0000E+00  0.0000E+00  0.0000E+00  0.0000E+00
     -9.035  0.0000E+00  0.0000E+00  0.0000E+00  0.0000E+00
     -8.980  0.0000E+00  0.0000E+00  0.0000E+00  0.0000E+00
     -8.926  0.0000E+00  0.0000E+00  0.0000E+00  0.0000E+00
     -8.871  0.0000E+00  0.0000E+00  0.0000E+00  0.0000E+00
     -8.816  0.1035E-05  0.4172E-08  0.5648E-07  0.2277E-09
     -8.762  0.2330E+01  0.2214E+01  0.1272E+00  0.1208E+00
     -8.707  0.2422E+01  0.2403E+01  0.2594E+00  0.2520E+00
     -8.653  0.6695E+01  0.4603E+01  0.6247E+00  0.5032E+00
     -8.598  0.1145E+02  0.1347E+02  0.1250E+01  0.1238E+01
     -8.544  0.4648E+01  0.4801E+01  0.1503E+01  0.1500E+01
     -8.489  0.1261E+02  0.1005E+02  0.2192E+01  0.2049E+01
     -8.434  0.1070E+01  0.3683E+01  0.2250E+01  0.2250E+01
     -8.380  0.4034E+01  0.3307E+01  0.2470E+01  0.2430E+01
     -8.325  0.5463E+00  0.1274E+01  0.2500E+01  0.2500E+01
     -8.271  0.1267E+02  0.1119E+02  0.3192E+01  0.3111E+01
     -8.216  0.1312E+02  0.1352E+02  0.3908E+01  0.3848E+01
     -8.162  0.1103E+02  0.8422E+01  0.4510E+01  0.4308E+01
     -8.107  0.2123E+02  0.2270E+02  0.5668E+01  0.5547E+01
     -8.052  0.3482E+01  0.4582E+01  0.5858E+01  0.5797E+01
     -7.998  0.5586E+01  0.4974E+01  0.6163E+01  0.6069E+01
     -7.943  0.1077E+02  0.8833E+01  0.6751E+01  0.6551E+01
     -7.889  0.1829E+02  0.2182E+02  0.7749E+01  0.7742E+01
     -7.834  0.9426E+01  0.9113E+01  0.8264E+01  0.8239E+01
     -7.780  0.1829E+02  0.1672E+02  0.9262E+01  0.9151E+01
     -7.725  0.1270E+02  0.1325E+02  0.9955E+01  0.9874E+01
     -7.670  0.1404E+02  0.1365E+02  0.1072E+02  0.1062E+02
     -7.616  0.1996E+02  0.1962E+02  0.1181E+02  0.1169E+02
     -7.561  0.2603E+02  0.2626E+02  0.1323E+02  0.1312E+02
     -7.507  0.2584E+02  0.2310E+02  0.1464E+02  0.1438E+02
     -7.452  0.9457E+01  0.1358E+02  0.1516E+02  0.1513E+02
     -7.398  0.1488E+02  0.1217E+02  0.1597E+02  0.1579E+02
     -7.343  0.1029E+02  0.1142E+02  0.1653E+02  0.1641E+02
     -7.288  0.2358E+02  0.2184E+02  0.1782E+02  0.1760E+02
     -7.234  0.1244E+02  0.1399E+02  0.1850E+02  0.1837E+02
     -7.179  0.2488E+02  0.2264E+02  0.1986E+02  0.1960E+02
     -7.125  0.2607E+02  0.2821E+02  0.2128E+02  0.2114E+02
     -7.070  0.3416E+02  0.3139E+02  0.2314E+02  0.2286E+02
     -7.015  0.1785E+02  0.2061E+02  0.2412E+02  0.2398E+02
     -6.961  0.1922E+02  0.1750E+02  0.2517E+02  0.2494E+02
     -6.906  0.3240E+02  0.2694E+02  0.2693E+02  0.2641E+02
     -6.852  0.3180E+02  0.3811E+02  0.2867E+02  0.2849E+02
     -6.797  0.1845E+02  0.1994E+02  0.2968E+02  0.2957E+02
     -6.743  0.2067E+02  0.1721E+02  0.3080E+02  0.3051E+02
     -6.688  0.2342E+02  0.2469E+02  0.3208E+02  0.3186E+02
     -6.633  0.2283E+02  0.2394E+02  0.3333E+02  0.3317E+02
     -6.579  0.2321E+02  0.2166E+02  0.3460E+02  0.3435E+02
     -6.524  0.2989E+02  0.2563E+02  0.3623E+02  0.3575E+02
     -6.470  0.3896E+02  0.4376E+02  0.3835E+02  0.3814E+02
     -6.415  0.1870E+02  0.1889E+02  0.3937E+02  0.3917E+02
     -6.361  0.1733E+02  0.1983E+02  0.4032E+02  0.4025E+02
     -6.306  0.9204E+01  0.8816E+01  0.4082E+02  0.4073E+02
     -6.251  0.1944E+02  0.1777E+02  0.4188E+02  0.4170E+02
     -6.197  0.2292E+02  0.2126E+02  0.4313E+02  0.4286E+02
     -6.142  0.2477E+02  0.2372E+02  0.4449E+02  0.4416E+02
     -6.088  0.1253E+02  0.1387E+02  0.4517E+02  0.4491E+02
     -6.033  0.1309E+02  0.1615E+02  0.4588E+02  0.4579E+02
     -5.979  0.2166E+02  0.1779E+02  0.4707E+02  0.4677E+02
     -5.924  0.2083E+02  0.2333E+02  0.4820E+02  0.4804E+02
     -5.869  0.3507E+02  0.3135E+02  0.5012E+02  0.4975E+02
     -5.815  0.2012E+02  0.2133E+02  0.5121E+02  0.5091E+02
     -5.760  0.2057E+02  0.2344E+02  0.5234E+02  0.5219E+02
     -5.706  0.1486E+02  0.1705E+02  0.5315E+02  0.5312E+02
     -5.651  0.1595E+02  0.8898E+01  0.5402E+02  0.5361E+02
     -5.597  0.2845E+02  0.3082E+02  0.5557E+02  0.5529E+02
     -5.542  0.1472E+02  0.1940E+02  0.5638E+02  0.5635E+02
     -5.487  0.5709E+01  0.3319E+01  0.5669E+02  0.5653E+02
     -5.433  0.2751E+02  0.2471E+02  0.5819E+02  0.5788E+02
     -5.378  0.2057E+02  0.2465E+02  0.5931E+02  0.5923E+02
     -5.324  0.2037E+02  0.1699E+02  0.6042E+02  0.6015E+02
     -5.269  0.1415E+02  0.1408E+02  0.6119E+02  0.6092E+02
     -5.215  0.1660E+02  0.1943E+02  0.6210E+02  0.6198E+02
     -5.160  0.1628E+02  0.1633E+02  0.6299E+02  0.6287E+02
     -5.105  0.1554E+02  0.1339E+02  0.6384E+02  0.6360E+02
     -5.051  0.4637E+02  0.4615E+02  0.6637E+02  0.6612E+02
     -4.996  0.4717E+01  0.9219E+01  0.6663E+02  0.6663E+02
     -4.942  0.9412E+01  0.8232E+01  0.6714E+02  0.6707E+02
     -4.887  0.4056E+01  0.3585E+01  0.6736E+02  0.6727E+02
     -4.832  0.1059E+02  0.9719E+01  0.6794E+02  0.6780E+02
     -4.778  0.1140E+01  0.3659E+01  0.6800E+02  0.6800E+02
     -4.723  0.8559E+01  0.2125E+01  0.6847E+02  0.6812E+02
     -4.669  0.1432E+02  0.1230E+02  0.6925E+02  0.6879E+02
     -4.614  0.1767E+02  0.1737E+02  0.7021E+02  0.6974E+02
     -4.560  0.2047E+02  0.2452E+02  0.7133E+02  0.7107E+02
     -4.505  0.2271E+02  0.1912E+02  0.7257E+02  0.7212E+02
     -4.450  0.2120E+02  0.2739E+02  0.7373E+02  0.7361E+02
     -4.396  0.7796E+01  0.9172E+01  0.7415E+02  0.7411E+02
     -4.341  0.2942E+02  0.2290E+02  0.7576E+02  0.7536E+02
     -4.287  0.2561E+02  0.3055E+02  0.7716E+02  0.7703E+02
     -4.232  0.3626E+02  0.3166E+02  0.7913E+02  0.7876E+02
     -4.178  0.2717E+02  0.2266E+02  0.8062E+02  0.7999E+02
     -4.123  0.2923E+02  0.3417E+02  0.8221E+02  0.8186E+02
     -4.068  0.1378E+02  0.1627E+02  0.8296E+02  0.8275E+02
     -4.014  0.1387E+02  0.1275E+02  0.8372E+02  0.8344E+02
     -3.959  0.4766E+01  0.8431E+01  0.8398E+02  0.8390E+02
     -3.905  0.7231E+01  0.6861E+01  0.8438E+02  0.8428E+02
     -3.850  0.2193E+02  0.1963E+02  0.8557E+02  0.8535E+02
     -3.796  0.1371E+02  0.1381E+02  0.8632E+02  0.8610E+02
     -3.741  0.1502E+02  0.1536E+02  0.8714E+02  0.8694E+02
     -3.686  0.2281E+02  0.2107E+02  0.8839E+02  0.8809E+02
     -3.632  0.4177E+02  0.3987E+02  0.9067E+02  0.9027E+02
     -3.577  0.2652E+02  0.2523E+02  0.9211E+02  0.9164E+02
     -3.523  0.2560E+02  0.2591E+02  0.9351E+02  0.9306E+02
     -3.468  0.2814E+02  0.2915E+02  0.9505E+02  0.9465E+02
     -3.414  0.2022E+02  0.2362E+02  0.9615E+02  0.9594E+02
     -3.359  0.3959E+02  0.4186E+02  0.9831E+02  0.9822E+02
     -3.304  0.2393E+02  0.1942E+02  0.9962E+02  0.9928E+02
     -3.250  0.2317E+02  0.2764E+02  0.1009E+03  0.1008E+03
     -3.195  0.1754E+02  0.1563E+02  0.1018E+03  0.1016E+03
     -3.141  0.1671E+02  0.2008E+02  0.1028E+03  0.1027E+03
     -3.086  0.1861E+02  0.1443E+02  0.1038E+03  0.1035E+03
     -3.031  0.6963E+01  0.1096E+02  0.1041E+03  0.1041E+03
     -2.977  0.2012E+02  0.1880E+02  0.1052E+03  0.1052E+03
     -2.922  0.1029E+02  0.7171E+01  0.1058E+03  0.1055E+03
     -2.868  0.2601E+02  0.2470E+02  0.1072E+03  0.1069E+03
     -2.813  0.2429E+02  0.2665E+02  0.1085E+03  0.1083E+03
     -2.759  0.3149E+02  0.2751E+02  0.1103E+03  0.1098E+03
     -2.704  0.1453E+02  0.1967E+02  0.1111E+03  0.1109E+03
     -2.649  0.2156E+02  0.2338E+02  0.1122E+03  0.1122E+03
     -2.595  0.5233E+01  0.5157E+01  0.1125E+03  0.1125E+03
     -2.540  0.1499E+02  0.8366E+01  0.1133E+03  0.1129E+03
     -2.486  0.2109E+02  0.2639E+02  0.1145E+03  0.1144E+03
     -2.431  0.1896E+02  0.1699E+02  0.1155E+03  0.1153E+03
     -2.377  0.2421E+02  0.2139E+02  0.1168E+03  0.1165E+03
     -2.322  0.9442E+01  0.1500E+02  0.1174E+03  0.1173E+03
     -2.267  0.2359E+02  0.1665E+02  0.1187E+03  0.1182E+03
     -2.213  0.1925E+02  0.2315E+02  0.1197E+03  0.1195E+03
     -2.158  0.8431E+01  0.1150E+02  0.1202E+03  0.1201E+03
     -2.104  0.1958E+02  0.1418E+02  0.1212E+03  0.1209E+03
     -2.049  0.2246E+02  0.2570E+02  0.1225E+03  0.1223E+03
     -1.995  0.7772E+01  0.1119E+02  0.1229E+03  0.1229E+03
     -1.940  0.1593E+02  0.1602E+02  0.1237E+03  0.1237E+03
     -1.885  0.5330E+01  0.2329E+01  0.1240E+03  0.1239E+03
     -1.831  0.1308E+02  0.1169E+02  0.1248E+03  0.1245E+03
     -1.776  0.1608E+02  0.1541E+02  0.1256E+03  0.1254E+03
     -1.722  0.8356E+01  0.8753E+01  0.1261E+03  0.1258E+03
     -1.667  0.2037E+02  0.2003E+02  0.1272E+03  0.1269E+03
     -1.613  0.6560E+01  0.6809E+01  0.1276E+03  0.1273E+03
     -1.558  0.1829E+02  0.2122E+02  0.1286E+03  0.1285E+03
     -1.503  0.1043E+02  0.1221E+02  0.1291E+03  0.1291E+03
     -1.449  0.1102E+02  0.6996E+01  0.1297E+03  0.1295E+03
     -1.394  0.2253E+02  0.2436E+02  0.1310E+03  0.1308E+03
     -1.340  0.1679E+02  0.1321E+02  0.1319E+03  0.1316E+03
     -1.285  0.2463E+02  0.2283E+02  0.1332E+03  0.1328E+03
     -1.231  0.5026E+01  0.1070E+02  0.1335E+03  0.1334E+03
     -1.176  0.9000E+01  0.8983E+01  0.1340E+03  0.1339E+03
     -1.121  0.7199E+01  0.8770E+01  0.1344E+03  0.1344E+03
     -1.067  0.5917E+01  0.3580E+01  0.1347E+03  0.1345E+03
     -1.012  0.7209E+01  0.7923E+01  0.1351E+03  0.1350E+03
     -0.958  0.2865E+01  0.4260E+01  0.1352E+03  0.1352E+03
     -0.903  0.4624E+01  0.5232E+01  0.1355E+03  0.1355E+03
     -0.848  0.1144E+02  0.5275E+01  0.1361E+03  0.1358E+03
     -0.794  0.1591E+02  0.1945E+02  0.1370E+03  0.1368E+03
     -0.739  0.2086E+02  0.1458E+02  0.1381E+03  0.1376E+03
     -0.685  0.1704E+02  0.2238E+02  0.1391E+03  0.1389E+03
     -0.630  0.1718E+02  0.1957E+02  0.1400E+03  0.1399E+03
     -0.576  0.2558E+01  0.1395E+01  0.1401E+03  0.1400E+03
     -0.521  0.2798E+02  0.2547E+02  0.1417E+03  0.1414E+03
     -0.466  0.2479E+02  0.2836E+02  0.1430E+03  0.1429E+03
     -0.412  0.1655E+02  0.1355E+02  0.1439E+03  0.1437E+03
     -0.357  0.3294E+02  0.2859E+02  0.1457E+03  0.1452E+03
     -0.303  0.3287E+02  0.3677E+02  0.1475E+03  0.1473E+03
     -0.248  0.2355E+02  0.1901E+02  0.1488E+03  0.1483E+03
     -0.194  0.5793E+02  0.5913E+02  0.1520E+03  0.1515E+03
     -0.139  0.2211E+02  0.2730E+02  0.1532E+03  0.1530E+03
     -0.084  0.4466E+02  0.3874E+02  0.1556E+03  0.1551E+03
     -0.030  0.2967E+02  0.3485E+02  0.1572E+03  0.1570E+03
      0.025  0.4584E+02  0.4358E+02  0.1597E+03  0.1594E+03
      0.079  0.4546E+02  0.4174E+02  0.1622E+03  0.1617E+03
      0.134  0.3904E+02  0.4350E+02  0.1643E+03  0.1641E+03
      0.188  0.3359E+02  0.2872E+02  0.1662E+03  0.1656E+03
      0.243  0.2932E+02  0.2910E+02  0.1678E+03  0.1672E+03
      0.298  0.4308E+02  0.4286E+02  0.1701E+03  0.1696E+03
      0.352  0.5313E+02  0.5392E+02  0.1730E+03  0.1725E+03
      0.407  0.3486E+02  0.3839E+02  0.1749E+03  0.1746E+03
      0.461  0.3097E+02  0.2981E+02  0.1766E+03  0.1762E+03
      0.516  0.4524E+02  0.4891E+02  0.1791E+03  0.1789E+03
      0.570  0.4453E+02  0.4112E+02  0.1815E+03  0.1811E+03
      0.625  0.5607E+02  0.5230E+02  0.1846E+03  0.1840E+03
      0.680  0.5704E+02  0.4882E+02  0.1877E+03  0.1866E+03
      0.734  0.2347E+02  0.4054E+02  0.1890E+03  0.1889E+03
      0.789  0.4651E+02  0.4064E+02  0.1915E+03  0.1911E+03
      0.843  0.3491E+02  0.3460E+02  0.1934E+03  0.1930E+03
      0.898  0.3315E+02  0.3339E+02  0.1952E+03  0.1948E+03
      0.953  0.4115E+02  0.4210E+02  0.1975E+03  0.1971E+03
      1.007  0.2835E+02  0.2962E+02  0.1990E+03  0.1987E+03
      1.062  0.4860E+02  0.3857E+02  0.2017E+03  0.2008E+03
      1.116  0.4194E+02  0.5407E+02  0.2040E+03  0.2038E+03
      1.171  0.5340E+02  0.4453E+02  0.2069E+03  0.2062E+03
      1.225  0.3210E+02  0.3978E+02  0.2086E+03  0.2084E+03
      1.280  0.6096E+02  0.5021E+02  0.2119E+03  0.2111E+03
      1.335  0.3690E+02  0.4642E+02  0.2140E+03  0.2136E+03
      1.389  0.4308E+02  0.3786E+02  0.2163E+03  0.2157E+03
      1.444  0.4877E+02  0.4959E+02  0.2190E+03  0.2184E+03
      1.498  0.5098E+02  0.4700E+02  0.2218E+03  0.2210E+03
      1.553  0.3625E+02  0.4516E+02  0.2237E+03  0.2234E+03
      1.607  0.3910E+02  0.2820E+02  0.2259E+03  0.2250E+03
      1.662  0.4876E+02  0.5487E+02  0.2285E+03  0.2280E+03
      1.717  0.4060E+02  0.4619E+02  0.2307E+03  0.2305E+03
      1.771  0.4139E+02  0.3771E+02  0.2330E+03  0.2325E+03
      1.826  0.3834E+02  0.4212E+02  0.2351E+03  0.2348E+03
      1.880  0.5263E+02  0.3886E+02  0.2380E+03  0.2370E+03
      1.935  0.3791E+02  0.4959E+02  0.2400E+03  0.2397E+03
      1.989  0.3401E+02  0.3447E+02  0.2419E+03  0.2416E+03
      2.044  0.2719E+02  0.2759E+02  0.2434E+03  0.2431E+03
      2.099  0.3418E+02  0.2882E+02  0.2452E+03  0.2446E+03
      2.153  0.3705E+02  0.4158E+02  0.2473E+03  0.2469E+03
      2.208  0.2385E+02  0.2373E+02  0.2486E+03  0.2482E+03
      2.262  0.3666E+02  0.3288E+02  0.2506E+03  0.2500E+03
      2.317  0.5077E+02  0.5556E+02  0.2533E+03  0.2530E+03
      2.371  0.2895E+02  0.2568E+02  0.2549E+03  0.2544E+03
      2.426  0.3233E+02  0.3397E+02  0.2567E+03  0.2563E+03
      2.481  0.2864E+02  0.3386E+02  0.2582E+03  0.2581E+03
      2.535  0.3669E+02  0.2199E+02  0.2602E+03  0.2593E+03
      2.590  0.3325E+02  0.3989E+02  0.2621E+03  0.2615E+03
      2.644  0.3450E+02  0.3257E+02  0.2639E+03  0.2633E+03
      2.699  0.2030E+02  0.2555E+02  0.2651E+03  0.2647E+03
      2.753  0.2095E+02  0.2202E+02  0.2662E+03  0.2659E+03
      2.808  0.2892E+02  0.2744E+02  0.2678E+03  0.2674E+03
      2.863  0.3361E+02  0.3200E+02  0.2696E+03  0.2691E+03
      2.917  0.3263E+02  0.3023E+02  0.2714E+03  0.2708E+03
      2.972  0.2685E+02  0.3353E+02  0.2729E+03  0.2726E+03
      3.026  0.2704E+02  0.2129E+02  0.2743E+03  0.2738E+03
      3.081  0.2502E+02  0.2534E+02  0.2757E+03  0.2751E+03
      3.136  0.1174E+02  0.1528E+02  0.2763E+03  0.2760E+03
      3.190  0.1254E+02  0.1401E+02  0.2770E+03  0.2767E+03
      3.245  0.8812E+01  0.1380E+02  0.2775E+03  0.2775E+03
      3.299  0.7674E+01  0.1668E+00  0.2779E+03  0.2775E+03
      3.354  0.3294E+02  0.2380E+02  0.2797E+03  0.2788E+03
      3.408  0.2667E+02  0.2482E+02  0.2812E+03  0.2802E+03
      3.463  0.1830E+02  0.3108E+02  0.2822E+03  0.2819E+03
      3.518  0.2114E+02  0.9365E+01  0.2833E+03  0.2824E+03
      3.572  0.3702E+02  0.2826E+02  0.2853E+03  0.2839E+03
      3.627  0.1449E+02  0.2888E+02  0.2861E+03  0.2855E+03
      3.681  0.3847E+02  0.2698E+02  0.2882E+03  0.2870E+03
      3.736  0.3584E+02  0.2455E+02  0.2902E+03  0.2883E+03
      3.790  0.3711E+02  0.4645E+02  0.2922E+03  0.2908E+03
      3.845  0.2718E+02  0.3230E+02  0.2937E+03  0.2926E+03
      3.900  0.2218E+02  0.2505E+02  0.2949E+03  0.2940E+03
      3.954  0.2667E+02  0.2678E+02  0.2964E+03  0.2954E+03
      4.009  0.2819E+02  0.4146E+02  0.2979E+03  0.2977E+03
      4.063  0.2908E+02  0.1937E+02  0.2995E+03  0.2987E+03
      4.118  0.1999E+02  0.3116E+02  0.3006E+03  0.3004E+03
      4.172  0.2420E+02  0.1778E+02  0.3019E+03  0.3014E+03
      4.227  0.2359E+02  0.2684E+02  0.3032E+03  0.3029E+03
      4.282  0.2343E+02  0.1922E+02  0.3045E+03  0.3039E+03
      4.336  0.3176E+02  0.2537E+02  0.3062E+03  0.3053E+03
      4.391  0.2609E+02  0.3354E+02  0.3076E+03  0.3071E+03
      4.445  0.3033E+02  0.2205E+02  0.3093E+03  0.3083E+03
      4.500  0.3575E+02  0.3511E+02  0.3112E+03  0.3103E+03
      4.554  0.2722E+02  0.3400E+02  0.3127E+03  0.3121E+03
      4.609  0.3863E+02  0.2992E+02  0.3148E+03  0.3138E+03
      4.664  0.2465E+02  0.2892E+02  0.3162E+03  0.3153E+03
      4.718  0.2581E+02  0.3168E+02  0.3176E+03  0.3171E+03
      4.773  0.2352E+02  0.2804E+02  0.3189E+03  0.3186E+03
      4.827  0.2239E+02  0.1568E+02  0.3201E+03  0.3194E+03
      4.882  0.2280E+02  0.2801E+02  0.3213E+03  0.3210E+03
      4.937  0.2735E+02  0.2494E+02  0.3228E+03  0.3223E+03
      4.991  0.3660E+02  0.3802E+02  0.3248E+03  0.3244E+03
      5.046  0.1894E+02  0.1778E+02  0.3259E+03  0.3254E+03
      5.100  0.4938E+02  0.4660E+02  0.3285E+03  0.3279E+03
      5.155  0.2724E+02  0.3342E+02  0.3300E+03  0.3297E+03
      5.209  0.3095E+02  0.2815E+02  0.3317E+03  0.3313E+03
      5.264  0.2722E+02  0.2849E+02  0.3332E+03  0.3328E+03
      5.319  0.3330E+02  0.3714E+02  0.3350E+03  0.3349E+03
      5.373  0.3232E+02  0.2281E+02  0.3368E+03  0.3361E+03
      5.428  0.5360E+02  0.6043E+02  0.3397E+03  0.3394E+03
      5.482  0.2238E+02  0.1856E+02  0.3409E+03  0.3404E+03
      5.537  0.2446E+02  0.3035E+02  0.3423E+03  0.3421E+03
      5.591  0.2240E+02  0.2195E+02  0.3435E+03  0.3433E+03
      5.646  0.2215E+02  0.1588E+02  0.3447E+03  0.3441E+03
      5.701  0.2079E+02  0.2698E+02  0.3458E+03  0.3456E+03
      5.755  0.2165E+02  0.2522E+02  0.3470E+03  0.3470E+03
      5.810  0.3581E+02  0.2750E+02  0.3490E+03  0.3485E+03
      5.864  0.1985E+02  0.2759E+02  0.3501E+03  0.3500E+03
      5.919  0.1286E+02  0.1374E+02  0.3508E+03  0.3507E+03
      5.973  0.8920E+01  0.7504E+01  0.3512E+03  0.3512E+03
      6.028  0.7014E+01  0.6289E+01  0.3516E+03  0.3515E+03
      6.083  0.3388E+01  0.4580E+01  0.3518E+03  0.3518E+03
      6.137  0.3406E+01  0.4544E+01  0.3520E+03  0.3520E+03
      6.192  0.0000E+00  0.0000E+00  0.3520E+03  0.3520E+03
      6.246  0.0000E+00  0.0000E+00  0.3520E+03  0.3520E+03
      6.301  0.0000E+00  0.0000E+00  0.3520E+03  0.3520E+03
      6.355  0.0000E+00  0.0000E+00  0.3520E+03  0.3520E+03
      6.410  0.0000E+00  0.0000E+00  0.3520E+03  0.3520E+03
      6.465  0.0000E+00  0.0000E+00  0.3520E+03  0.3520E+03
      6.519  0.0000E+00  0.0000E+00  0.3520E+03  0.3520E+03
      6.574  0.0000E+00  0.0000E+00  0.3520E+03  0.3520E+03
      6.628  0.0000E+00  0.0000E+00  0.3520E+03  0.3520E+03
      6.683  0.0000E+00  0.0000E+00  0.3520E+03  0.3520E+03
      6.737  0.0000E+00  0.0000E+00  0.3520E+03  0.3520E+03
      6.792  0.0000E+00  0.0000E+00  0.3520E+03  0.3520E+03
      6.847  0.0000E+00  0.0000E+00  0.3520E+03  0.3520E+03
