Si and Ge interface calculation         
           1
    12.978400    0.000000    0.000000
   -12.978400   14.510293    0.000000
     0.000000    0.000000    9.190413
   Sn   Ge
    24    24
Direct configuration=     1
   0.47435850  0.97435850  0.00000000
   0.17435835  0.67435843  0.15788512
   0.87435830  0.37435836  0.31577027
   0.97435850  0.97435850  0.00000000
   0.67435837  0.67435843  0.15788512
   0.37435830  0.37435836  0.31577027
   0.69935846  0.32435849  0.07894241
   0.39935836  0.02435845  0.23682754
   0.09935832  0.72435844  0.39471266
   0.19935848  0.32435849  0.07894241
   0.89935839  0.02435845  0.23682754
   0.59935832  0.72435844  0.39471266
   0.72435844  0.47435850  0.00000002
   0.42435834  0.17435840  0.15788513
   0.12435819  0.87435830  0.31577027
   0.22435847  0.47435850  0.00000002
   0.92435837  0.17435840  0.15788513
   0.62435824  0.87435830  0.31577027
   0.94935858  0.82435858  0.07894242
   0.64935851  0.52435857  0.23682751
   0.34935838  0.22435850  0.39471266
   0.44935879  0.82435858  0.07894242
   0.14935864  0.52435857  0.23682751
   0.84935856  0.22435850  0.39471266
   0.34510028  0.35720575  0.55686057
   0.22843361  0.94053900  0.61305881
   0.11176682  0.52387226  0.66925710
   0.99509996  0.10720551  0.72545558
   0.87843329  0.69053888  0.78165376
   0.76176643  0.27387190  0.83785212
   0.84510028  0.60720569  0.55686057
   0.72843349  0.19053888  0.61305881
   0.61176676  0.77387226  0.66925722
   0.49509996  0.35720551  0.72545540
   0.37843323  0.94053876  0.78165370
   0.26176655  0.52387190  0.83785194
   0.84510028  0.85720569  0.55686063
   0.72843349  0.44053900  0.61305881
   0.61176670  0.02387226  0.66925722
   0.49509999  0.60720539  0.72545552
   0.37843329  0.19053876  0.78165370
   0.26176643  0.77387178  0.83785200
   0.34510016  0.10720575  0.55686063
   0.22843349  0.69053894  0.61305892
   0.11176682  0.27387214  0.66925722
   0.99509996  0.85720539  0.72545552
   0.87843323  0.44053876  0.78165376
   0.76176643  0.02387178  0.83785212
