  96  96   0   0
  0.2276159E+02  0.1265123E-08  0.1265123E-08  0.1393391E-08  0.5000000E-15
  1.000000000000000E-004
  CAR 
 Si and Ge interface calculation         
      6.52859089    -10.95136100  301      3.57574640      1.00000000
    -10.951  0.0000E+00  0.0000E+00  0.0000E+00  0.0000E+00
    -10.893  0.0000E+00  0.0000E+00  0.0000E+00  0.0000E+00
    -10.835  0.0000E+00  0.0000E+00  0.0000E+00  0.0000E+00
    -10.777  0.0000E+00  0.0000E+00  0.0000E+00  0.0000E+00
    -10.718  0.0000E+00  0.0000E+00  0.0000E+00  0.0000E+00
    -10.660  0.0000E+00  0.0000E+00  0.0000E+00  0.0000E+00
    -10.602  0.0000E+00  0.0000E+00  0.0000E+00  0.0000E+00
    -10.543  0.0000E+00  0.0000E+00  0.0000E+00  0.0000E+00
    -10.485  0.0000E+00  0.0000E+00  0.0000E+00  0.0000E+00
    -10.427  0.0000E+00  0.0000E+00  0.0000E+00  0.0000E+00
    -10.369  0.0000E+00  0.0000E+00  0.0000E+00  0.0000E+00
    -10.310  0.0000E+00  0.0000E+00  0.0000E+00  0.0000E+00
    -10.252  0.0000E+00  0.0000E+00  0.0000E+00  0.0000E+00
    -10.194  0.1501E-06  0.7792E-12  0.8743E-08  0.4540E-13
    -10.136  0.7085E+01  0.2205E+01  0.4128E+00  0.1284E+00
    -10.077  0.1898E+02  0.1425E+02  0.1518E+01  0.9589E+00
    -10.019  0.8265E+01  0.1787E+02  0.2000E+01  0.2000E+01
     -9.961  0.1258E-05  0.1198E-10  0.2000E+01  0.2000E+01
     -9.903  0.1864E+02  0.6829E+01  0.3086E+01  0.2398E+01
     -9.844  0.2304E+02  0.3152E+02  0.4429E+01  0.4234E+01
     -9.786  0.1552E+02  0.1886E+02  0.5333E+01  0.5333E+01
     -9.728  0.1003E-07  0.2903E-10  0.5333E+01  0.5333E+01
     -9.669  0.9236E+01  0.4984E+01  0.5871E+01  0.5624E+01
     -9.611  0.3505E+02  0.3151E+02  0.7914E+01  0.7460E+01
     -9.553  0.1483E+01  0.9275E+01  0.8000E+01  0.8000E+01
     -9.495  0.0000E+00  0.0000E+00  0.8000E+01  0.8000E+01
     -9.436  0.5412E-05  0.3754E-07  0.8000E+01  0.8000E+01
     -9.378  0.2013E+02  0.1511E+02  0.9173E+01  0.8881E+01
     -9.320  0.2754E+01  0.7769E+01  0.9333E+01  0.9333E+01
     -9.262  0.8035E+01  0.1876E+01  0.9801E+01  0.9443E+01
     -9.203  0.1485E+02  0.2101E+02  0.1067E+02  0.1067E+02
     -9.145  0.0000E+00  0.0000E+00  0.1067E+02  0.1067E+02
     -9.087  0.2818E-12  0.2117E-15  0.1067E+02  0.1067E+02
     -9.029  0.3490E+01  0.1829E+01  0.1087E+02  0.1077E+02
     -8.970  0.1939E+02  0.2105E+02  0.1200E+02  0.1200E+02
     -8.912  0.2482E-08  0.4658E-14  0.1200E+02  0.1200E+02
     -8.854  0.1827E+02  0.6120E+01  0.1306E+02  0.1236E+02
     -8.796  0.4618E+01  0.1676E+02  0.1333E+02  0.1333E+02
     -8.737  0.0000E+00  0.0000E+00  0.1333E+02  0.1333E+02
     -8.679  0.2044E-01  0.4741E-04  0.1333E+02  0.1333E+02
     -8.621  0.2089E+02  0.1915E+02  0.1455E+02  0.1445E+02
     -8.562  0.3155E+02  0.2622E+02  0.1639E+02  0.1598E+02
     -8.504  0.1618E+02  0.2206E+02  0.1733E+02  0.1726E+02
     -8.446  0.1856E+01  0.1295E+01  0.1744E+02  0.1734E+02
     -8.388  0.9609E+01  0.1136E+02  0.1800E+02  0.1800E+02
     -8.329  0.1269E+02  0.9695E+01  0.1874E+02  0.1856E+02
     -8.271  0.1584E+02  0.1819E+02  0.1966E+02  0.1962E+02
     -8.213  0.2684E+02  0.2310E+02  0.2123E+02  0.2097E+02
     -8.155  0.1132E+02  0.1405E+02  0.2189E+02  0.2179E+02
     -8.096  0.4067E+02  0.3680E+02  0.2426E+02  0.2393E+02
     -8.038  0.2529E+02  0.2949E+02  0.2573E+02  0.2565E+02
     -7.980  0.1225E+02  0.1359E+02  0.2644E+02  0.2644E+02
     -7.922  0.2285E+02  0.1770E+02  0.2778E+02  0.2748E+02
     -7.863  0.1517E+02  0.1856E+02  0.2866E+02  0.2856E+02
     -7.805  0.2087E+02  0.1942E+02  0.2988E+02  0.2969E+02
     -7.747  0.3226E+02  0.3095E+02  0.3176E+02  0.3149E+02
     -7.688  0.4598E+02  0.4869E+02  0.3444E+02  0.3433E+02
     -7.630  0.3387E+02  0.3123E+02  0.3641E+02  0.3615E+02
     -7.572  0.1950E+02  0.2121E+02  0.3755E+02  0.3739E+02
     -7.514  0.7847E+01  0.1055E+02  0.3800E+02  0.3800E+02
     -7.455  0.1075E+02  0.8233E+01  0.3863E+02  0.3848E+02
     -7.397  0.2544E+02  0.2028E+02  0.4011E+02  0.3966E+02
     -7.339  0.4664E+02  0.4824E+02  0.4283E+02  0.4247E+02
     -7.281  0.3146E+02  0.3513E+02  0.4466E+02  0.4452E+02
     -7.222  0.1178E+02  0.1135E+02  0.4535E+02  0.4518E+02
     -7.164  0.1548E+02  0.1487E+02  0.4625E+02  0.4605E+02
     -7.106  0.3516E+02  0.3404E+02  0.4830E+02  0.4803E+02
     -7.048  0.2494E+02  0.2463E+02  0.4975E+02  0.4947E+02
     -6.989  0.2448E+02  0.2779E+02  0.5118E+02  0.5109E+02
     -6.931  0.1152E+02  0.1134E+02  0.5185E+02  0.5175E+02
     -6.873  0.3028E+02  0.2690E+02  0.5361E+02  0.5331E+02
     -6.814  0.2367E+02  0.2220E+02  0.5499E+02  0.5461E+02
     -6.756  0.4932E+02  0.5004E+02  0.5787E+02  0.5752E+02
     -6.698  0.1678E+02  0.1808E+02  0.5884E+02  0.5858E+02
     -6.640  0.1972E+02  0.2112E+02  0.5999E+02  0.5981E+02
     -6.581  0.2919E+02  0.2847E+02  0.6169E+02  0.6147E+02
     -6.523  0.1248E+02  0.1487E+02  0.6242E+02  0.6233E+02
     -6.465  0.2775E+02  0.2392E+02  0.6404E+02  0.6373E+02
     -6.407  0.4702E+02  0.4399E+02  0.6678E+02  0.6629E+02
     -6.348  0.4833E+02  0.4886E+02  0.6959E+02  0.6914E+02
     -6.290  0.3395E+02  0.3597E+02  0.7157E+02  0.7123E+02
     -6.232  0.2092E+02  0.2204E+02  0.7279E+02  0.7252E+02
     -6.174  0.3330E+02  0.3572E+02  0.7473E+02  0.7460E+02
     -6.115  0.1914E+02  0.1791E+02  0.7585E+02  0.7564E+02
     -6.057  0.3681E+02  0.3744E+02  0.7799E+02  0.7782E+02
     -5.999  0.1353E+02  0.1636E+02  0.7878E+02  0.7878E+02
     -5.940  0.2296E+02  0.2252E+02  0.8012E+02  0.8009E+02
     -5.882  0.2942E+02  0.2698E+02  0.8183E+02  0.8166E+02
     -5.824  0.2343E+02  0.2341E+02  0.8320E+02  0.8302E+02
     -5.766  0.1045E+02  0.1080E+02  0.8381E+02  0.8365E+02
     -5.707  0.2459E+02  0.2307E+02  0.8524E+02  0.8500E+02
     -5.649  0.2333E+02  0.2537E+02  0.8660E+02  0.8648E+02
     -5.591  0.2022E+02  0.1867E+02  0.8778E+02  0.8756E+02
     -5.533  0.3319E+02  0.3114E+02  0.8971E+02  0.8938E+02
     -5.474  0.2889E+02  0.2993E+02  0.9139E+02  0.9112E+02
     -5.416  0.3725E+02  0.3602E+02  0.9357E+02  0.9322E+02
     -5.358  0.2562E+02  0.2666E+02  0.9506E+02  0.9477E+02
     -5.300  0.2973E+02  0.3108E+02  0.9679E+02  0.9659E+02
     -5.241  0.2337E+02  0.2338E+02  0.9815E+02  0.9795E+02
     -5.183  0.3138E+02  0.3185E+02  0.9998E+02  0.9980E+02
     -5.125  0.1566E+02  0.1759E+02  0.1009E+03  0.1008E+03
     -5.066  0.2782E+02  0.2343E+02  0.1025E+03  0.1022E+03
     -5.008  0.2706E+02  0.2740E+02  0.1041E+03  0.1038E+03
     -4.950  0.2216E+02  0.2426E+02  0.1054E+03  0.1052E+03
     -4.892  0.2898E+02  0.2186E+02  0.1071E+03  0.1065E+03
     -4.833  0.3543E+02  0.3620E+02  0.1091E+03  0.1086E+03
     -4.775  0.2563E+02  0.3246E+02  0.1106E+03  0.1105E+03
     -4.717  0.2302E+02  0.1807E+02  0.1120E+03  0.1115E+03
     -4.659  0.1812E+02  0.2521E+02  0.1130E+03  0.1130E+03
     -4.600  0.3735E+02  0.2961E+02  0.1152E+03  0.1147E+03
     -4.542  0.2674E+02  0.2958E+02  0.1168E+03  0.1164E+03
     -4.484  0.1184E+02  0.1574E+02  0.1175E+03  0.1174E+03
     -4.426  0.2080E+02  0.1706E+02  0.1187E+03  0.1184E+03
     -4.367  0.8515E+01  0.1182E+02  0.1192E+03  0.1190E+03
     -4.309  0.1954E+02  0.1611E+02  0.1203E+03  0.1200E+03
     -4.251  0.2209E+02  0.2378E+02  0.1216E+03  0.1214E+03
     -4.192  0.2520E+02  0.2513E+02  0.1231E+03  0.1228E+03
     -4.134  0.2224E+02  0.2096E+02  0.1243E+03  0.1241E+03
     -4.076  0.1120E+02  0.1615E+02  0.1250E+03  0.1250E+03
     -4.018  0.9838E+01  0.6733E+01  0.1256E+03  0.1254E+03
     -3.959  0.1758E+02  0.1864E+02  0.1266E+03  0.1265E+03
     -3.901  0.2477E+02  0.2421E+02  0.1280E+03  0.1279E+03
     -3.843  0.3097E+02  0.2929E+02  0.1298E+03  0.1296E+03
     -3.785  0.3097E+02  0.3244E+02  0.1316E+03  0.1315E+03
     -3.726  0.1476E+02  0.1554E+02  0.1325E+03  0.1324E+03
     -3.668  0.3082E+02  0.2900E+02  0.1343E+03  0.1341E+03
     -3.610  0.2197E+02  0.2145E+02  0.1356E+03  0.1353E+03
     -3.552  0.3227E+02  0.3288E+02  0.1375E+03  0.1372E+03
     -3.493  0.2389E+02  0.2492E+02  0.1389E+03  0.1387E+03
     -3.435  0.1980E+02  0.1540E+02  0.1400E+03  0.1396E+03
     -3.377  0.3918E+02  0.4319E+02  0.1423E+03  0.1421E+03
     -3.318  0.2509E+02  0.2590E+02  0.1438E+03  0.1436E+03
     -3.260  0.2075E+02  0.1795E+02  0.1450E+03  0.1447E+03
     -3.202  0.7305E+01  0.1012E+02  0.1454E+03  0.1453E+03
     -3.144  0.3097E+02  0.2373E+02  0.1472E+03  0.1466E+03
     -3.085  0.4342E+02  0.4984E+02  0.1497E+03  0.1495E+03
     -3.027  0.2045E+02  0.1716E+02  0.1509E+03  0.1505E+03
     -2.969  0.2152E+02  0.2320E+02  0.1522E+03  0.1519E+03
     -2.911  0.4496E+02  0.4120E+02  0.1548E+03  0.1543E+03
     -2.852  0.3245E+02  0.3667E+02  0.1567E+03  0.1564E+03
     -2.794  0.3385E+02  0.3183E+02  0.1587E+03  0.1583E+03
     -2.736  0.2524E+02  0.3086E+02  0.1601E+03  0.1601E+03
     -2.678  0.2699E+02  0.2373E+02  0.1617E+03  0.1615E+03
     -2.619  0.2316E+02  0.2144E+02  0.1630E+03  0.1627E+03
     -2.561  0.2972E+02  0.2848E+02  0.1648E+03  0.1644E+03
     -2.503  0.2599E+02  0.2868E+02  0.1663E+03  0.1660E+03
     -2.444  0.1300E+02  0.1327E+02  0.1671E+03  0.1668E+03
     -2.386  0.1623E+02  0.1925E+02  0.1680E+03  0.1679E+03
     -2.328  0.1706E+02  0.1410E+02  0.1690E+03  0.1688E+03
     -2.270  0.3766E+02  0.3854E+02  0.1712E+03  0.1710E+03
     -2.211  0.1451E+02  0.1533E+02  0.1720E+03  0.1719E+03
     -2.153  0.2001E+02  0.2025E+02  0.1732E+03  0.1731E+03
     -2.095  0.1614E+02  0.1454E+02  0.1741E+03  0.1739E+03
     -2.037  0.2046E+02  0.2140E+02  0.1753E+03  0.1752E+03
     -1.978  0.1015E+02  0.1109E+02  0.1759E+03  0.1758E+03
     -1.920  0.7014E+01  0.7145E+01  0.1763E+03  0.1762E+03
     -1.862  0.7614E+01  0.8611E+01  0.1768E+03  0.1767E+03
     -1.804  0.4173E+01  0.1652E+01  0.1770E+03  0.1768E+03
     -1.745  0.7425E+01  0.1031E+02  0.1774E+03  0.1774E+03
     -1.687  0.1136E+02  0.1135E+02  0.1781E+03  0.1781E+03
     -1.629  0.1173E+02  0.8572E+01  0.1788E+03  0.1786E+03
     -1.570  0.1956E+02  0.2192E+02  0.1799E+03  0.1799E+03
     -1.512  0.1401E+02  0.1228E+02  0.1808E+03  0.1806E+03
     -1.454  0.1014E+02  0.7948E+01  0.1813E+03  0.1811E+03
     -1.396  0.1131E+02  0.1463E+02  0.1820E+03  0.1819E+03
     -1.337  0.9037E+01  0.9273E+01  0.1825E+03  0.1824E+03
     -1.279  0.1092E+02  0.1141E+02  0.1832E+03  0.1831E+03
     -1.221  0.7746E+01  0.7015E+01  0.1836E+03  0.1835E+03
     -1.163  0.2878E+02  0.2420E+02  0.1853E+03  0.1849E+03
     -1.104  0.2116E+02  0.2117E+02  0.1865E+03  0.1862E+03
     -1.046  0.3169E+02  0.3260E+02  0.1884E+03  0.1881E+03
     -0.988  0.4873E+02  0.4869E+02  0.1912E+03  0.1909E+03
     -0.930  0.2929E+02  0.3181E+02  0.1929E+03  0.1928E+03
     -0.871  0.3913E+02  0.3620E+02  0.1952E+03  0.1949E+03
     -0.813  0.2164E+02  0.2396E+02  0.1965E+03  0.1963E+03
     -0.755  0.3010E+02  0.2901E+02  0.1982E+03  0.1980E+03
     -0.696  0.5012E+02  0.4343E+02  0.2011E+03  0.2005E+03
     -0.638  0.5298E+02  0.5972E+02  0.2042E+03  0.2040E+03
     -0.580  0.5342E+02  0.4162E+02  0.2073E+03  0.2064E+03
     -0.522  0.3872E+02  0.5109E+02  0.2096E+03  0.2094E+03
     -0.463  0.3443E+02  0.2839E+02  0.2116E+03  0.2110E+03
     -0.405  0.5490E+02  0.5517E+02  0.2148E+03  0.2142E+03
     -0.347  0.5213E+02  0.5715E+02  0.2178E+03  0.2176E+03
     -0.289  0.4982E+02  0.5140E+02  0.2207E+03  0.2206E+03
     -0.230  0.4640E+02  0.4249E+02  0.2234E+03  0.2230E+03
     -0.172  0.4474E+02  0.4587E+02  0.2260E+03  0.2257E+03
     -0.114  0.4734E+02  0.4501E+02  0.2288E+03  0.2283E+03
     -0.056  0.5384E+02  0.5170E+02  0.2319E+03  0.2313E+03
      0.003  0.4189E+02  0.4934E+02  0.2344E+03  0.2342E+03
      0.061  0.3671E+02  0.3268E+02  0.2365E+03  0.2361E+03
      0.119  0.3397E+02  0.3027E+02  0.2385E+03  0.2379E+03
      0.178  0.5298E+02  0.5946E+02  0.2416E+03  0.2413E+03
      0.236  0.6291E+02  0.6192E+02  0.2453E+03  0.2450E+03
      0.294  0.5008E+02  0.4872E+02  0.2482E+03  0.2478E+03
      0.352  0.2708E+02  0.2794E+02  0.2497E+03  0.2494E+03
      0.411  0.4449E+02  0.4494E+02  0.2523E+03  0.2520E+03
      0.469  0.3970E+02  0.4241E+02  0.2547E+03  0.2545E+03
      0.527  0.5530E+02  0.4995E+02  0.2579E+03  0.2574E+03
      0.585  0.5854E+02  0.5410E+02  0.2613E+03  0.2606E+03
      0.644  0.5471E+02  0.6159E+02  0.2645E+03  0.2642E+03
      0.702  0.6277E+02  0.5553E+02  0.2681E+03  0.2674E+03
      0.760  0.3838E+02  0.4628E+02  0.2704E+03  0.2701E+03
      0.818  0.4866E+02  0.4328E+02  0.2732E+03  0.2726E+03
      0.877  0.5039E+02  0.4967E+02  0.2761E+03  0.2755E+03
      0.935  0.5183E+02  0.5239E+02  0.2792E+03  0.2786E+03
      0.993  0.4921E+02  0.5233E+02  0.2820E+03  0.2816E+03
      1.052  0.5596E+02  0.5599E+02  0.2853E+03  0.2849E+03
      1.110  0.6331E+02  0.6362E+02  0.2890E+03  0.2886E+03
      1.168  0.6694E+02  0.6317E+02  0.2929E+03  0.2923E+03
      1.226  0.5337E+02  0.5855E+02  0.2960E+03  0.2957E+03
      1.285  0.1975E+02  0.2019E+02  0.2971E+03  0.2969E+03
      1.343  0.3532E+02  0.3278E+02  0.2992E+03  0.2988E+03
      1.401  0.4368E+02  0.4124E+02  0.3017E+03  0.3012E+03
      1.459  0.3436E+02  0.4105E+02  0.3037E+03  0.3036E+03
      1.518  0.4773E+02  0.4664E+02  0.3065E+03  0.3063E+03
      1.576  0.3895E+02  0.3544E+02  0.3088E+03  0.3083E+03
      1.634  0.4385E+02  0.4256E+02  0.3113E+03  0.3108E+03
      1.692  0.4657E+02  0.5009E+02  0.3141E+03  0.3137E+03
      1.751  0.4519E+02  0.4255E+02  0.3167E+03  0.3162E+03
      1.809  0.2940E+02  0.3198E+02  0.3184E+03  0.3181E+03
      1.867  0.4040E+02  0.3913E+02  0.3208E+03  0.3204E+03
      1.926  0.4239E+02  0.4656E+02  0.3232E+03  0.3231E+03
      1.984  0.3411E+02  0.3106E+02  0.3252E+03  0.3249E+03
      2.042  0.3807E+02  0.3337E+02  0.3274E+03  0.3268E+03
      2.100  0.5095E+02  0.5159E+02  0.3304E+03  0.3298E+03
      2.159  0.4143E+02  0.4937E+02  0.3328E+03  0.3327E+03
      2.217  0.3373E+02  0.2564E+02  0.3348E+03  0.3342E+03
      2.275  0.3647E+02  0.3769E+02  0.3369E+03  0.3364E+03
      2.333  0.4763E+02  0.4525E+02  0.3397E+03  0.3390E+03
      2.392  0.6514E+02  0.6065E+02  0.3435E+03  0.3426E+03
      2.450  0.3180E+02  0.3737E+02  0.3453E+03  0.3448E+03
      2.508  0.3310E+02  0.3820E+02  0.3473E+03  0.3470E+03
      2.566  0.1957E+02  0.2156E+02  0.3484E+03  0.3482E+03
      2.625  0.2159E+02  0.2097E+02  0.3497E+03  0.3495E+03
      2.683  0.2878E+02  0.2202E+02  0.3513E+03  0.3507E+03
      2.741  0.4264E+02  0.4168E+02  0.3538E+03  0.3532E+03
      2.800  0.2796E+02  0.3065E+02  0.3555E+03  0.3550E+03
      2.858  0.3085E+02  0.3264E+02  0.3573E+03  0.3569E+03
      2.916  0.4311E+02  0.4119E+02  0.3598E+03  0.3593E+03
      2.974  0.3867E+02  0.3947E+02  0.3620E+03  0.3616E+03
      3.033  0.4862E+02  0.4873E+02  0.3649E+03  0.3644E+03
      3.091  0.3681E+02  0.3495E+02  0.3670E+03  0.3664E+03
      3.149  0.2211E+02  0.2586E+02  0.3683E+03  0.3679E+03
      3.207  0.3948E+02  0.3442E+02  0.3706E+03  0.3699E+03
      3.266  0.3166E+02  0.3538E+02  0.3724E+03  0.3720E+03
      3.324  0.2973E+02  0.3026E+02  0.3742E+03  0.3738E+03
      3.382  0.3528E+02  0.3083E+02  0.3762E+03  0.3756E+03
      3.440  0.3678E+02  0.4166E+02  0.3784E+03  0.3780E+03
      3.499  0.3883E+02  0.3508E+02  0.3806E+03  0.3800E+03
      3.557  0.3879E+02  0.3787E+02  0.3829E+03  0.3822E+03
      3.615  0.3734E+02  0.3455E+02  0.3851E+03  0.3843E+03
      3.674  0.3133E+02  0.3212E+02  0.3869E+03  0.3861E+03
      3.732  0.2462E+02  0.3193E+02  0.3883E+03  0.3880E+03
      3.790  0.3579E+02  0.3370E+02  0.3904E+03  0.3900E+03
      3.848  0.3228E+02  0.3151E+02  0.3923E+03  0.3918E+03
      3.907  0.4344E+02  0.4751E+02  0.3948E+03  0.3946E+03
      3.965  0.9830E+01  0.1065E+02  0.3954E+03  0.3952E+03
      4.023  0.2425E+02  0.1973E+02  0.3968E+03  0.3963E+03
      4.081  0.3234E+02  0.3469E+02  0.3987E+03  0.3983E+03
      4.140  0.4777E+02  0.4284E+02  0.4015E+03  0.4008E+03
      4.198  0.3355E+02  0.3500E+02  0.4034E+03  0.4029E+03
      4.256  0.2887E+02  0.3351E+02  0.4051E+03  0.4048E+03
      4.314  0.3041E+02  0.2981E+02  0.4069E+03  0.4066E+03
      4.373  0.3854E+02  0.3853E+02  0.4091E+03  0.4088E+03
      4.431  0.4950E+02  0.5104E+02  0.4120E+03  0.4118E+03
      4.489  0.4715E+02  0.4577E+02  0.4148E+03  0.4145E+03
      4.548  0.2118E+02  0.1912E+02  0.4160E+03  0.4156E+03
      4.606  0.3843E+02  0.3673E+02  0.4182E+03  0.4177E+03
      4.664  0.3499E+02  0.3700E+02  0.4203E+03  0.4199E+03
      4.722  0.4172E+02  0.3763E+02  0.4227E+03  0.4221E+03
      4.781  0.3144E+02  0.3555E+02  0.4245E+03  0.4241E+03
      4.839  0.5941E+02  0.6054E+02  0.4280E+03  0.4277E+03
      4.897  0.2639E+02  0.2624E+02  0.4295E+03  0.4292E+03
      4.955  0.4329E+02  0.4197E+02  0.4321E+03  0.4316E+03
      5.014  0.1926E+02  0.2046E+02  0.4332E+03  0.4328E+03
      5.072  0.6306E+02  0.6047E+02  0.4368E+03  0.4363E+03
      5.130  0.4815E+02  0.4789E+02  0.4397E+03  0.4391E+03
      5.188  0.5460E+02  0.5734E+02  0.4428E+03  0.4425E+03
      5.247  0.3001E+02  0.2818E+02  0.4446E+03  0.4441E+03
      5.305  0.3913E+02  0.4261E+02  0.4469E+03  0.4466E+03
      5.363  0.3336E+02  0.3044E+02  0.4488E+03  0.4484E+03
      5.422  0.5168E+02  0.5044E+02  0.4518E+03  0.4513E+03
      5.480  0.3628E+02  0.3741E+02  0.4539E+03  0.4535E+03
      5.538  0.5923E+02  0.6042E+02  0.4574E+03  0.4570E+03
      5.596  0.4478E+02  0.4407E+02  0.4600E+03  0.4596E+03
      5.655  0.3868E+02  0.3590E+02  0.4622E+03  0.4617E+03
      5.713  0.2450E+02  0.3068E+02  0.4637E+03  0.4635E+03
      5.771  0.5558E+01  0.9158E+01  0.4640E+03  0.4640E+03
      5.829  0.0000E+00  0.0000E+00  0.4640E+03  0.4640E+03
      5.888  0.0000E+00  0.0000E+00  0.4640E+03  0.4640E+03
      5.946  0.0000E+00  0.0000E+00  0.4640E+03  0.4640E+03
      6.004  0.0000E+00  0.0000E+00  0.4640E+03  0.4640E+03
      6.062  0.0000E+00  0.0000E+00  0.4640E+03  0.4640E+03
      6.121  0.0000E+00  0.0000E+00  0.4640E+03  0.4640E+03
      6.179  0.0000E+00  0.0000E+00  0.4640E+03  0.4640E+03
      6.237  0.0000E+00  0.0000E+00  0.4640E+03  0.4640E+03
      6.296  0.0000E+00  0.0000E+00  0.4640E+03  0.4640E+03
      6.354  0.0000E+00  0.0000E+00  0.4640E+03  0.4640E+03
      6.412  0.0000E+00  0.0000E+00  0.4640E+03  0.4640E+03
      6.470  0.0000E+00  0.0000E+00  0.4640E+03  0.4640E+03
      6.529  0.0000E+00  0.0000E+00  0.4640E+03  0.4640E+03
