Si and Ge interface calculation         
           1
    14.510292    0.000000    0.000000
     0.000000   19.467602    0.000000
     0.000000    0.000000   17.404436
   Sn   Ge
    36   144
Direct configuration=     1
   0.98290563  0.65242130  0.00000001
   0.78290558  0.48575461  0.08337129
   0.58290541  0.31908789  0.16674255
   0.98290563  0.31908801  0.00000001
   0.78290558  0.15242132  0.08337129
   0.58290541  0.98575461  0.16674255
   0.98290563  0.98575473  0.00000001
   0.78290558  0.81908804  0.08337129
   0.58290541  0.65242130  0.16674255
   0.63290560  0.90242141  0.04168557
   0.43290553  0.73575473  0.12505685
   0.23290543  0.56908804  0.20842809
   0.63290560  0.56908798  0.04168557
   0.43290553  0.40242130  0.12505685
   0.23290543  0.23575461  0.20842809
   0.63290560  0.23575476  0.04168557
   0.43290553  0.06908806  0.12505685
   0.23290543  0.90242136  0.20842809
   0.48290560  0.81908792  0.00000000
   0.28290546  0.65242124  0.08337127
   0.08290535  0.48575458  0.16674258
   0.48290560  0.48575467  0.00000000
   0.28290546  0.31908798  0.08337127
   0.08290535  0.15242128  0.16674258
   0.48290560  0.15242136  0.00000000
   0.28290546  0.98575467  0.08337127
   0.08290535  0.81908798  0.16674258
   0.13290565  0.73575467  0.04168556
   0.93290555  0.56908798  0.12505682
   0.73290551  0.40242130  0.20842809
   0.13290565  0.40242138  0.04168556
   0.93290555  0.23575471  0.12505682
   0.73290551  0.06908801  0.20842809
   0.13290565  0.06908801  0.04168556
   0.93290555  0.90242136  0.12505682
   0.73290551  0.73575461  0.20842809
   0.48632288  0.62886596  0.31688291
   0.23632276  0.62886590  0.43181536
   0.98632264  0.62886584  0.54674780
   0.73632264  0.62886578  0.66168028
   0.48632264  0.62886572  0.77661270
   0.23632240  0.62886566  0.89154524
   0.81965619  0.79553264  0.31688288
   0.56965607  0.79553258  0.43181536
   0.31965601  0.79553252  0.54674780
   0.06965589  0.79553247  0.66168022
   0.81965589  0.79553241  0.77661264
   0.56965578  0.79553235  0.89154524
   0.15298939  0.96219927  0.31688288
   0.90298939  0.96219921  0.43181536
   0.65298927  0.96219915  0.54674780
   0.40298927  0.96219915  0.66168022
   0.15298915  0.96219903  0.77661264
   0.90298909  0.96219897  0.89154524
   0.48632288  0.12886597  0.31688291
   0.23632276  0.12886596  0.43181533
   0.98632270  0.12886584  0.54674780
   0.73632270  0.12886584  0.66168022
   0.48632264  0.12886572  0.77661264
   0.23632252  0.12886572  0.89154524
   0.81965619  0.29553264  0.31688291
   0.56965613  0.29553258  0.43181533
   0.31965601  0.29553252  0.54674774
   0.06965589  0.29553247  0.66168022
   0.81965589  0.29553241  0.77661270
   0.56965578  0.29553235  0.89154524
   0.15298963  0.46219933  0.31688291
   0.90298939  0.46219927  0.43181536
   0.65298933  0.46219921  0.54674774
   0.40298927  0.46219909  0.66168022
   0.15298927  0.46219909  0.77661270
   0.90298915  0.46219903  0.89154524
   0.65298951  0.96219933  0.31688288
   0.40298939  0.96219927  0.43181533
   0.15298927  0.96219921  0.54674780
   0.90298921  0.96219915  0.66168028
   0.65298927  0.96219909  0.77661276
   0.40298915  0.96219897  0.89154518
   0.65298951  0.46219927  0.31688291
   0.40298939  0.46219927  0.43181536
   0.15298939  0.46219921  0.54674780
   0.90298933  0.46219909  0.66168028
   0.65298927  0.46219903  0.77661264
   0.40298915  0.46219897  0.89154518
   0.98632288  0.62886596  0.31688291
   0.73632276  0.62886590  0.43181536
   0.48632264  0.62886584  0.54674780
   0.23632264  0.62886578  0.66168028
   0.98632258  0.62886572  0.77661264
   0.73632246  0.62886566  0.89154518
   0.31965613  0.79553264  0.31688291
   0.06965613  0.79553258  0.43181536
   0.81965596  0.79553247  0.54674774
   0.56965589  0.79553247  0.66168028
   0.31965589  0.79553241  0.77661270
   0.06965578  0.79553229  0.89154518
   0.98632288  0.12886597  0.31688291
   0.73632276  0.12886596  0.43181536
   0.48632264  0.12886584  0.54674774
   0.23632264  0.12886584  0.66168028
   0.98632258  0.12886572  0.77661270
   0.73632246  0.12886572  0.89154524
   0.31965613  0.29553264  0.31688291
   0.06965613  0.29553258  0.43181536
   0.81965607  0.29553252  0.54674774
   0.56965601  0.29553247  0.66168028
   0.31965601  0.29553241  0.77661264
   0.06965589  0.29553238  0.89154524
   0.65298957  0.83719933  0.31688288
   0.40298939  0.83719927  0.43181536
   0.15298939  0.83719921  0.54674780
   0.90298927  0.83719915  0.66168028
   0.65298927  0.83719909  0.77661264
   0.40298915  0.83719903  0.89154518
   0.98632288  0.00386608  0.31688288
   0.73632282  0.00386596  0.43181536
   0.48632264  0.00386596  0.54674780
   0.23632264  0.00386584  0.66168028
   0.98632264  0.00386572  0.77661264
   0.73632252  0.00386572  0.89154518
   0.65298951  0.33719930  0.31688291
   0.40298939  0.33719924  0.43181533
   0.15298939  0.33719918  0.54674774
   0.90298927  0.33719912  0.66168028
   0.65298927  0.33719909  0.77661270
   0.40298915  0.33719903  0.89154518
   0.98632288  0.50386596  0.31688291
   0.73632276  0.50386590  0.43181536
   0.48632264  0.50386584  0.54674780
   0.23632264  0.50386578  0.66168028
   0.98632264  0.50386572  0.77661270
   0.73632246  0.50386566  0.89154518
   0.31965613  0.67053264  0.31688291
   0.06965613  0.67053258  0.43181536
   0.81965601  0.67053252  0.54674780
   0.56965601  0.67053247  0.66168028
   0.31965589  0.67053241  0.77661270
   0.06965589  0.67053235  0.89154518
   0.31965625  0.17053263  0.31688288
   0.06965613  0.17053255  0.43181536
   0.81965601  0.17053250  0.54674780
   0.56965601  0.17053247  0.66168028
   0.31965589  0.17053239  0.77661270
   0.06965589  0.17053232  0.89154524
   0.48632288  0.00386608  0.31688288
   0.23632276  0.00386596  0.43181533
   0.98632270  0.00386584  0.54674780
   0.73632264  0.00386584  0.66168028
   0.48632264  0.00386572  0.77661276
   0.23632252  0.00386572  0.89154518
   0.48632288  0.50386596  0.31688288
   0.23632276  0.50386590  0.43181536
   0.98632270  0.50386584  0.54674780
   0.73632264  0.50386578  0.66168022
   0.48632264  0.50386572  0.77661264
   0.23632252  0.50386566  0.89154518
   0.81965625  0.67053264  0.31688288
   0.56965613  0.67053258  0.43181536
   0.31965601  0.67053252  0.54674780
   0.06965589  0.67053247  0.66168028
   0.81965596  0.67053241  0.77661270
   0.56965584  0.67053235  0.89154524
   0.15298951  0.83719927  0.31688288
   0.90298939  0.83719921  0.43181536
   0.65298933  0.83719915  0.54674780
   0.40298927  0.83719909  0.66168022
   0.15298927  0.83719903  0.77661264
   0.90298915  0.83719897  0.89154518
   0.81965613  0.17053261  0.31688291
   0.56965613  0.17053257  0.43181533
   0.31965601  0.17053251  0.54674774
   0.06965589  0.17053245  0.66168028
   0.81965596  0.17053241  0.77661270
   0.56965584  0.17053235  0.89154518
   0.15298963  0.33719933  0.31688291
   0.90298951  0.33719927  0.43181533
   0.65298939  0.33719918  0.54674774
   0.40298939  0.33719915  0.66168028
   0.15298927  0.33719909  0.77661270
   0.90298915  0.33719903  0.89154518
