Si Bulk DFT energetics calculations using VASP\n
This script is running on comp049.cluster.local in /lustre/home/ah1365/projects/127870/upgrade_report/case_studies/common/structures/interfaces/120_Si36C84_012_012_a0.222222_b0.938272_c1.087103_interface2shift7\n
Job started on: Sat  7 Jun 22:59:07 UTC 2025\n
 running   64 mpi-ranks, on    4 nodes
 distrk:  each k-point on   64 cores,    1 groups
 distr:  one band on   16 cores,    4 groups
 vasp.6.4.3 19Mar24 (build Oct 22 2024 11:23:12) complex                        
  
 POSCAR found type information on POSCAR SiC 
 POSCAR found :  2 types and     120 ions
 -----------------------------------------------------------------------------
|                                                                             |
|           W    W    AA    RRRRR   N    N  II  N    N   GGGG   !!!           |
|           W    W   A  A   R    R  NN   N  II  NN   N  G    G  !!!           |
|           W    W  A    A  R    R  N N  N  II  N N  N  G       !!!           |
|           W WW W  AAAAAA  RRRRR   N  N N  II  N  N N  G  GGG   !            |
|           WW  WW  A    A  R   R   N   NN  II  N   NN  G    G                |
|           W    W  A    A  R    R  N    N  II  N    N   GGGG   !!!           |
|                                                                             |
|     You use a magnetic or noncollinear calculation, but did not specify     |
|     the initial magnetic moment with the MAGMOM tag. Note that a            |
|     default of 8.333e-3 will be used for all atoms. This ferromagnetic      |
|     setup may break the symmetry of the crystal, in particular it may       |
|     rule out finding an antiferromagnetic solution. Thence, we              |
|     recommend setting the initial magnetic moment manually or verifying     |
|     carefully that this magnetic setup is desired.                          |
|                                                                             |
 -----------------------------------------------------------------------------

 scaLAPACK will be used
 LDA part: xc-table for (Slater+PW92), standard interpolation
 POSCAR, INCAR and KPOINTS ok, starting setup
 FFT: planning ... GRIDC
 FFT: planning ... GRID_SOFT
 FFT: planning ... GRID
 WAVECAR not read
 entering main loop
       N       E                     dE             d eps       ncg     rms          rms(c)
DAV:   1     0.239542291701E+04    0.23954E+04   -0.26208E+05 21888   0.189E+03
DAV:   2    -0.539001456890E+03   -0.29344E+04   -0.28008E+04 26920   0.300E+02
DAV:   3    -0.838496134906E+03   -0.29949E+03   -0.28675E+03 27056   0.895E+01
DAV:   4    -0.852607268238E+03   -0.14111E+02   -0.13697E+02 28352   0.194E+01
DAV:   5    -0.853257150187E+03   -0.64988E+00   -0.64163E+00 30104   0.376E+00    0.476E+01
DAV:   6    -0.817500153848E+03    0.35757E+02   -0.42638E+02 29344   0.398E+01    0.357E+01
DAV:   7    -0.791970840543E+03    0.25529E+02   -0.17082E+02 28072   0.257E+01    0.138E+01
DAV:   8    -0.794350314338E+03   -0.23795E+01   -0.26531E+01 28032   0.115E+01    0.880E+00
DAV:   9    -0.793014944918E+03    0.13354E+01   -0.80635E+00 28112   0.878E+00    0.524E+00
DAV:  10    -0.792453634497E+03    0.56131E+00   -0.20577E+00 27888   0.412E+00    0.284E+00
DAV:  11    -0.792412341127E+03    0.41293E-01   -0.88905E-01 27664   0.241E+00    0.209E+00
DAV:  12    -0.792394003104E+03    0.18338E-01   -0.29490E-01 27296   0.143E+00    0.134E+00
DAV:  13    -0.792388317649E+03    0.56855E-02   -0.10548E-01 27552   0.827E-01    0.709E-01
DAV:  14    -0.792384889368E+03    0.34283E-02   -0.39923E-02 27624   0.489E-01    0.353E-01
DAV:  15    -0.792383149384E+03    0.17400E-02   -0.11958E-02 28312   0.263E-01    0.181E-01
DAV:  16    -0.792382739705E+03    0.40968E-03   -0.38652E-03 28328   0.146E-01    0.104E-01
DAV:  17    -0.792382635239E+03    0.10447E-03   -0.11955E-03 29152   0.770E-02    0.519E-02
DAV:  18    -0.792382616462E+03    0.18777E-04   -0.34905E-04 28344   0.389E-02    0.246E-02
DAV:  19    -0.792382615515E+03    0.94728E-06   -0.87027E-05 27312   0.192E-02    0.114E-02
DAV:  20    -0.792382615636E+03   -0.12106E-06   -0.19496E-05 27424   0.969E-03    0.672E-03
DAV:  21    -0.792382615496E+03    0.14048E-06   -0.57717E-06 27872   0.551E-03    0.368E-03
DAV:  22    -0.792382615367E+03    0.12864E-06   -0.18810E-06 28184   0.320E-03    0.212E-03
DAV:  23    -0.792382615297E+03    0.69842E-07   -0.59926E-07 22512   0.189E-03
   1 F= -.79238262E+03 E0= -.79238177E+03  d E =-.168467E-02  mag=     1.0000
Job ended on: Sat  7 Jun 23:18:17 UTC 2025\n
