 vasp.6.4.3 19Mar24 (build Oct 22 2024 11:23:12) complex                        
  
 executed on             LinuxIFC date 2025.06.07  23:59:09
 running   64 mpi-ranks, on    4 nodes
 distrk:  each k-point on   64 cores,    1 groups
 distr:  one band on NCORE=  16 cores,    4 groups


--------------------------------------------------------------------------------------------------------


 INCAR:
   SYSTEM = Si and Ge interface calculation
   ISTART = 0
   ICHARG = 2
   LWAVE = .FALSE.
   LREAL = AUTO
   ENCUT = 700
   ENAUG = 900
   ADDGRID = .TRUE.
   LMAXMIX = 6
   LASPH = .TRUE.
   LMIXTAU = .TRUE.
   NCORE = 16
   NELM = 100
   NBANDS = 288
   EDIFF = 1d-7
   AMIX = 0.6
   ISMEAR = 0
   SIGMA = 0.01
   NELECT = 480
   ISPIN = 2
   NUPDOWN = 1
   LVTOT = .FALSE.
   LVHAR = .TRUE.

 POTCAR:    PAW_PBE Si 05Jan2001                  
 POTCAR:    PAW_PBE C 08Apr2002                   
 -----------------------------------------------------------------------------
|                                                                             |
|           W    W    AA    RRRRR   N    N  II  N    N   GGGG   !!!           |
|           W    W   A  A   R    R  NN   N  II  NN   N  G    G  !!!           |
|           W    W  A    A  R    R  N N  N  II  N N  N  G       !!!           |
|           W WW W  AAAAAA  RRRRR   N  N N  II  N  N N  G  GGG   !            |
|           WW  WW  A    A  R   R   N   NN  II  N   NN  G    G                |
|           W    W  A    A  R    R  N    N  II  N    N   GGGG   !!!           |
|                                                                             |
|     You use a magnetic or noncollinear calculation, but did not specify     |
|     the initial magnetic moment with the MAGMOM tag. Note that a            |
|     default of 8.333e-3 will be used for all atoms. This ferromagnetic      |
|     setup may break the symmetry of the crystal, in particular it may       |
|     rule out finding an antiferromagnetic solution. Thence, we              |
|     recommend setting the initial magnetic moment manually or verifying     |
|     carefully that this magnetic setup is desired.                          |
|                                                                             |
 -----------------------------------------------------------------------------

 POTCAR:    PAW_PBE Si 05Jan2001                  
   VRHFIN =Si: s2p2                                                                                 
   LEXCH  = PE                                                                                      
   EATOM  =   103.0669 eV,    7.5752 Ry                                                             
                                                                                                    
   TITEL  = PAW_PBE Si 05Jan2001                                                                    
   LULTRA =        F    use ultrasoft PP ?                                                          
   IUNSCR =        1    unscreen: 0-lin 1-nonlin 2-no                                               
   RPACOR =    1.500    partial core radius                                                         
   POMASS =   28.085; ZVAL   =    4.000    mass and valenz                                          
   RCORE  =    1.900    outmost cutoff radius                                                       
   RWIGS  =    2.480; RWIGS  =    1.312    wigner-seitz radius (au A)                               
   ENMAX  =  245.345; ENMIN  =  184.009 eV                                                          
   ICORE  =        2    local potential                                                             
   LCOR   =        T    correct aug charges                                                         
   LPAW   =        T    paw PP                                                                      
   EAUG   =  322.069                                                                                
   DEXC   =    0.000                                                                                
   RMAX   =    1.950    core radius for proj-oper                                                   
   RAUG   =    1.300    factor for augmentation sphere                                              
   RDEP   =    1.993    radius for radial grids                                                     
   RDEPT  =    1.837    core radius for aug-charge                                                  
                                                                                                    
   Atomic configuration                                                                             
    6 entries                                                                                       
     n  l   j            E        occ.                                                              
     1  0  0.50     -1785.8828   2.0000                                                             
     2  0  0.50      -139.4969   2.0000                                                             
     2  1  1.50       -95.5546   6.0000                                                             
     3  0  0.50       -10.8127   2.0000                                                             
     3  1  0.50        -4.0811   2.0000                                                             
     3  2  1.50        -4.0817   0.0000                                                             
   Description                                                                                      
     l       E           TYP  RCUT    TYP  RCUT                                                     
     0    -10.8127223     23  1.900                                                                 
     0     -7.6451159     23  1.900                                                                 
     1     -4.0811372     23  1.900                                                                 
     1      2.4879257     23  1.900                                                                 
     2     -4.0817478      7  1.900                                                                 
  local pseudopotential read in
  partial core-charges read in
  partial kinetic energy density read in
  atomic valenz-charges read in
  non local Contribution for L=           0  read in
    real space projection operators read in
  non local Contribution for L=           0  read in
    real space projection operators read in
  non local Contribution for L=           1  read in
    real space projection operators read in
  non local Contribution for L=           1  read in
    real space projection operators read in
    PAW grid and wavefunctions read in
 
   number of l-projection  operators is LMAX  =           4
   number of lm-projection operators is LMMAX =           8
 
 POTCAR:    PAW_PBE C 08Apr2002                   
   VRHFIN =C: s2p2                                                                                  
   LEXCH  = PE                                                                                      
   EATOM  =   147.1560 eV,   10.8157 Ry                                                             
                                                                                                    
   TITEL  = PAW_PBE C 08Apr2002                                                                     
   LULTRA =        F    use ultrasoft PP ?                                                          
   IUNSCR =        1    unscreen: 0-lin 1-nonlin 2-no                                               
   RPACOR =    1.200    partial core radius                                                         
   POMASS =   12.011; ZVAL   =    4.000    mass and valenz                                          
   RCORE  =    1.500    outmost cutoff radius                                                       
   RWIGS  =    1.630; RWIGS  =    0.863    wigner-seitz radius (au A)                               
   ENMAX  =  400.000; ENMIN  =  300.000 eV                                                          
   ICORE  =        2    local potential                                                             
   LCOR   =        T    correct aug charges                                                         
   LPAW   =        T    paw PP                                                                      
   EAUG   =  644.873                                                                                
   DEXC   =    0.000                                                                                
   RMAX   =    1.529    core radius for proj-oper                                                   
   RAUG   =    1.300    factor for augmentation sphere                                              
   RDEP   =    1.501    radius for radial grids                                                     
   RDEPT  =    1.300    core radius for aug-charge                                                  
                                                                                                    
   Atomic configuration                                                                             
    4 entries                                                                                       
     n  l   j            E        occ.                                                              
     1  0  0.50      -273.3789   2.0000                                                             
     2  0  0.50       -13.7508   2.0000                                                             
     2  1  0.50        -5.2854   2.0000                                                             
     3  2  1.50        -5.4423   0.0000                                                             
   Description                                                                                      
     l       E           TYP  RCUT    TYP  RCUT                                                     
     0    -13.7508458     23  1.200                                                                 
     0     -8.2022199     23  1.200                                                                 
     1     -5.2854383     23  1.500                                                                 
     1     34.0145650     23  1.500                                                                 
     2     -5.4423304      7  1.500                                                                 
  local pseudopotential read in
  partial core-charges read in
  partial kinetic energy density read in
  atomic valenz-charges read in
  non local Contribution for L=           0  read in
    real space projection operators read in
  non local Contribution for L=           0  read in
    real space projection operators read in
  non local Contribution for L=           1  read in
    real space projection operators read in
  non local Contribution for L=           1  read in
    real space projection operators read in
    PAW grid and wavefunctions read in
 
   number of l-projection  operators is LMAX  =           4
   number of lm-projection operators is LMMAX =           8
 
 Optimization of the real space projectors (new method)

 maximal supplied QI-value         = 19.84
 optimisation between [QCUT,QGAM] = [ 13.49, 26.99] = [ 50.98,203.92] Ry 
 Optimized for a Real-space Cutoff    1.07 Angstroem

   l    n(q)    QCUT    max X(q) W(low)/X(q) W(high)/X(q)  e(spline) 
   0      9    13.493   159.560    0.22E-03    0.15E-03    0.72E-07
   0      9    13.493   115.863    0.21E-03    0.15E-03    0.71E-07
   1      8    13.493    88.339    0.15E-03    0.11E-03    0.13E-06
   1      8    13.493    48.592    0.15E-03    0.10E-03    0.13E-06
 Optimization of the real space projectors (new method)

 maximal supplied QI-value         = 25.13
 optimisation between [QCUT,QGAM] = [ 13.32, 26.89] = [ 49.69,202.52] Ry 
 Optimized for a Real-space Cutoff    1.01 Angstroem

   l    n(q)    QCUT    max X(q) W(low)/X(q) W(high)/X(q)  e(spline) 
   0      8    13.321   115.676    0.29E-03    0.42E-03    0.11E-06
   0      8    13.321    87.132    0.29E-03    0.42E-03    0.11E-06
   1      8    13.321     4.429    0.39E-03    0.33E-03    0.98E-07
   1      8    13.321     2.733    0.30E-03    0.26E-03    0.97E-07
  PAW_PBE Si 05Jan2001                  :
 energy of atom  1       EATOM= -103.0669
 kinetic energy error for atom=    0.0003 (will be added to EATOM!!)
  PAW_PBE C 08Apr2002                   :
 energy of atom  2       EATOM= -147.1560
 kinetic energy error for atom=    0.0032 (will be added to EATOM!!)
 
 
 POSCAR: Si+C
  positions in direct lattice
  No initial velocities read in


 exchange-correlation table for PE
   RHO(1)=    0.500       N(1)  =     2000
   RHO(2)=  100.500       N(2)  =     4000
 


--------------------------------------------------------------------------------------------------------


 ion  position               nearest neighbor table
   1  0.974  0.983  0.000- 102 1.49  42 1.59  32 2.35  28 2.35 104 2.41
   2  0.674  0.783  0.169- 120 2.34  13 2.35  33 2.35  29 2.35
   3  0.374  0.583  0.337-  49 2.21  30 2.35  14 2.35  13 2.35
   4  0.308  0.983  0.000-  59 1.90  81 2.13  35 2.35  31 2.35  78 2.52 105 2.57
   5  0.008  0.783  0.169-  36 2.35  16 2.35  32 2.35
   6  0.708  0.583  0.337-  52 2.25  33 2.35  17 2.35  16 2.35
   7  0.641  0.983  0.000-  60 1.52  84 2.17  29 2.35  34 2.35 101 2.37
   8  0.341  0.783  0.169-  10 2.35  35 2.35  30 2.35
   9  0.041  0.583  0.337-  91 1.70  11 2.35  36 2.35  10 2.35  67 2.61
  10  0.158  0.633  0.084-  54 2.21   8 2.35  19 2.35   9 2.35
  11  0.858  0.433  0.253-   9 2.35  20 2.35  25 2.35
  12  0.558  0.233  0.421-  64 1.91  21 2.35  26 2.35  40 2.52  83 2.55  85 2.57
  13  0.491  0.633  0.084-  22 2.35   2 2.35   3 2.35 120 2.51
  14  0.191  0.433  0.253-  23 2.35   3 2.35  19 2.35  46 2.54
  15  0.891  0.233  0.421-  43 1.52  24 2.35  20 2.35 106 2.38  65 2.42 103 2.53
  16  0.824  0.633  0.084-  72 2.19  96 2.23  25 2.35   5 2.35   6 2.35
  17  0.524  0.433  0.253-  22 2.35   6 2.35  26 2.35
  18  0.224  0.233  0.421-  82 1.49  27 2.35  23 2.35 107 2.40 109 2.42  47 2.43
  19  0.141  0.483  0.000- 114 1.52  54 2.17  10 2.35  14 2.35  68 2.37
  20  0.841  0.283  0.169-  11 2.35  15 2.35  34 2.35
  21  0.541  0.083  0.337-  40 1.70  12 2.35  34 2.35  35 2.35 100 2.61
  22  0.474  0.483  0.000-  69 1.49  93 1.59  13 2.35  17 2.35  71 2.41
  23  0.174  0.283  0.169-  66 2.34  28 2.35  14 2.35  18 2.35
  24  0.874  0.083  0.337-  79 2.21  29 2.35  15 2.35  28 2.35
  25  0.808  0.483  0.000- 113 1.90  51 2.13  16 2.35  11 2.35 111 2.52  72 2.57
  26  0.508  0.283  0.169-  31 2.35  17 2.35  12 2.35
  27  0.208  0.083  0.337-  82 2.25  32 2.35  18 2.35  31 2.35
  28  0.991  0.133  0.084-  23 2.35   1 2.35  24 2.35  66 2.51
  29  0.691  0.933  0.253-  24 2.35   2 2.35   7 2.35  97 2.54
  30  0.391  0.733  0.421-  94 1.52   3 2.35   8 2.35  73 2.38 119 2.42  70 2.53
  31  0.324  0.133  0.084- 105 2.19  45 2.23  26 2.35   4 2.35  27 2.35
  32  0.024  0.933  0.253-  27 2.35   1 2.35   5 2.35
  33  0.724  0.733  0.421-  52 1.49   6 2.35   2 2.35  74 2.40  76 2.42  98 2.43
  34  0.658  0.133  0.084-  84 2.21  21 2.35  20 2.35   7 2.35
  35  0.358  0.933  0.253-   4 2.35   8 2.35  21 2.35
  36  0.058  0.733  0.421- 118 1.91   5 2.35   9 2.35  91 2.52  53 2.55  55 2.57
  37  0.247  0.935  0.572- 118 1.54  59 1.54
  38  0.490  0.907  0.683- 119 1.54 100 1.54  60 1.54
  39  0.733  0.878  0.794- 120 1.54 101 1.54  76 1.54
  40  0.533  0.078  0.572- 100 1.54  62 1.54  21 1.70  12 2.52
  41  0.776  0.050  0.683- 101 1.54 103 1.54  63 1.54
  42  0.018  0.021  0.794- 102 1.54 104 1.54  58 1.54   1 1.59
  43  0.818  0.221  0.572-  15 1.52 103 1.54  65 1.54
  44  0.061  0.192  0.683- 104 1.54 106 1.54  66 1.54
  45  0.304  0.164  0.794- 105 1.54 107 1.54  61 1.54  31 2.23
  46  0.104  0.364  0.572- 106 1.54  68 1.54  14 2.54
  47  0.347  0.335  0.683- 107 1.54 109 1.54  69 1.54  18 2.43
  48  0.590  0.307  0.794- 108 1.54 110 1.54  64 1.54
  49  0.390  0.507  0.572- 109 1.54  71 1.54   3 2.21
  50  0.633  0.478  0.683- 110 1.54 112 1.54  72 1.54
  51  0.876  0.450  0.794- 113 1.54 111 1.54  67 1.54  25 2.13
  52  0.676  0.650  0.572-  33 1.49 112 1.54  74 1.54   6 2.25
  53  0.918  0.621  0.683- 113 1.54 115 1.54  75 1.54  36 2.55
  54  0.161  0.592  0.794- 114 1.54 116 1.54  70 1.54  19 2.17  10 2.21
  55  0.961  0.792  0.572- 115 1.54  77 1.54  36 2.57
  56  0.204  0.764  0.683- 116 1.54 118 1.54  78 1.54
  57  0.447  0.735  0.794- 117 1.54 119 1.54  73 1.54
  58  0.083  0.028  0.628-  82 1.54  80 1.54  42 1.54
  59  0.326  1.000  0.738-  83 1.54  81 1.54  37 1.54   4 1.90
  60  0.568  0.971  0.849-   7 1.52  84 1.54  38 1.54
  61  0.368  0.171  0.628-  85 1.54  83 1.54  45 1.54
  62  0.611  0.142  0.738-  86 1.54  84 1.54  40 1.54
  63  0.854  0.114  0.849-  87 1.54  41 1.54
  64  0.654  0.314  0.628-  88 1.54  86 1.54  48 1.54  12 1.91
  65  0.897  0.285  0.738-  89 1.54  87 1.54  43 1.54  15 2.42
  66  0.140  0.257  0.849-  90 1.54  44 1.54  23 2.34  28 2.51
  67  0.940  0.457  0.628-  91 1.54  89 1.54  51 1.54   9 2.61
  68  0.183  0.428  0.738-  92 1.54  90 1.54  46 1.54  19 2.37
  69  0.426  0.400  0.849-  22 1.49  93 1.54  47 1.54
  70  0.226  0.600  0.628-  94 1.54  92 1.54  54 1.54  30 2.53
  71  0.468  0.571  0.738-  93 1.54  95 1.54  49 1.54  22 2.41
  72  0.711  0.542  0.849-  96 1.54  50 1.54  16 2.19  25 2.57
  73  0.511  0.742  0.628-  97 1.54  95 1.54  57 1.54  30 2.38
  74  0.754  0.714  0.738-  96 1.54  98 1.54  52 1.54  33 2.40
  75  0.997  0.685  0.849-  99 1.54  53 1.54
  76  0.797  0.885  0.628-  79 1.54  98 1.54  39 1.54  33 2.42
  77  0.040  0.857  0.738-  80 1.54  99 1.54  55 1.54
  78  0.283  0.828  0.849-  81 1.54  56 1.54   4 2.52
  79  0.890  0.007  0.572-  76 1.54 104 1.54  24 2.21
  80  0.133  0.978  0.683-  77 1.54  58 1.54 105 1.54
  81  0.376  0.950  0.794-  78 1.54  59 1.54 100 1.54   4 2.13
  82  0.176  0.150  0.572-  18 1.49  58 1.54 107 1.54  27 2.25
  83  0.418  0.121  0.683-  59 1.54  61 1.54 108 1.54  12 2.55
  84  0.661  0.092  0.794-  60 1.54  62 1.54 103 1.54   7 2.17  34 2.21
  85  0.461  0.292  0.572-  61 1.54 110 1.54  12 2.57
  86  0.704  0.264  0.683-  62 1.54  64 1.54 111 1.54
  87  0.947  0.235  0.794-  63 1.54  65 1.54 106 1.54
  88  0.747  0.435  0.572-  64 1.54 113 1.54
  89  0.990  0.407  0.683-  65 1.54  67 1.54 114 1.54
  90  0.233  0.378  0.794-  66 1.54  68 1.54 109 1.54
  91  0.033  0.578  0.572-  67 1.54 116 1.54   9 1.70  36 2.52
  92  0.276  0.550  0.683-  68 1.54  70 1.54 117 1.54
  93  0.518  0.521  0.794-  69 1.54  71 1.54 112 1.54  22 1.59
  94  0.318  0.721  0.572-  30 1.52  70 1.54 119 1.54
  95  0.561  0.692  0.683-  73 1.54  71 1.54 120 1.54
  96  0.804  0.664  0.794-  74 1.54  72 1.54 115 1.54  16 2.23
  97  0.604  0.864  0.572-  73 1.54 101 1.54  29 2.54
  98  0.847  0.835  0.683-  74 1.54  76 1.54 102 1.54  33 2.43
  99  0.090  0.807  0.794-  75 1.54  77 1.54 118 1.54
 100  0.440  0.957  0.628-  40 1.54  38 1.54  81 1.54  21 2.61
 101  0.683  0.928  0.738-  41 1.54  39 1.54  97 1.54   7 2.37
 102  0.926  0.900  0.849-   1 1.49  42 1.54  98 1.54
 103  0.726  0.100  0.628-  43 1.54  41 1.54  84 1.54  15 2.53
 104  0.968  0.071  0.738-  44 1.54  42 1.54  79 1.54   1 2.41
 105  0.211  0.042  0.849-  45 1.54  80 1.54  31 2.19   4 2.57
 106  0.011  0.242  0.628-  46 1.54  44 1.54  87 1.54  15 2.38
 107  0.254  0.214  0.738-  47 1.54  45 1.54  82 1.54  18 2.40
 108  0.497  0.185  0.849-  48 1.54  83 1.54
 109  0.297  0.385  0.628-  49 1.54  47 1.54  90 1.54  18 2.42
 110  0.540  0.357  0.738-  50 1.54  48 1.54  85 1.54
 111  0.783  0.328  0.849-  51 1.54  86 1.54  25 2.52
 112  0.583  0.528  0.628-  50 1.54  52 1.54  93 1.54
 113  0.826  0.500  0.738-  51 1.54  53 1.54  88 1.54  25 1.90
 114  0.068  0.471  0.849-  19 1.52  54 1.54  89 1.54
 115  0.868  0.671  0.628-  55 1.54  53 1.54  96 1.54
 116  0.111  0.642  0.738-  56 1.54  54 1.54  91 1.54
 117  0.354  0.614  0.849-  57 1.54  92 1.54
 118  0.154  0.814  0.628-  37 1.54  56 1.54  99 1.54  36 1.91
 119  0.397  0.785  0.738-  38 1.54  57 1.54  94 1.54  30 2.42
 120  0.640  0.757  0.849-  39 1.54  95 1.54   2 2.34  13 2.51
 
  LATTYP: Found a base centered orthorhombic cell.
 ALAT       =    13.3031797203
 B/A-ratio  =     2.2360679556
 C/A-ratio  =     0.5415343469
  
  Lattice vectors:
  
 A1 = (  16.2930011750,   0.0000000000,   0.0000000000)
 A2 = ( -10.8620004650,  12.1440858840,   0.0000000000)
 A3 = (   0.0000000000,   0.0000000000,   7.2041287420)


Analysis of symmetry for initial positions (statically):
=====================================================================
 Subroutine PRICEL returns following result:
 
  LATTYP: Found a simple orthorhombic cell.
 ALAT       =     6.6515892615
 B/A-ratio  =     1.0830687913
 C/A-ratio  =     2.2360680898
  
  Lattice vectors:
  
 A1 = (  -2.7154997033,  -6.0720425777,   0.0000000000)
 A2 = (   0.0000000000,   0.0000000000,   7.2041287420)
 A3 = ( -13.5775001683,   6.0720433063,   0.0000000000)
 
   2 primitive cells build up your supercell.
 

 Routine SETGRP: Setting up the symmetry group for a 
 base centered orthorhombic supercell.


 Subroutine GETGRP returns: Found  1 space group operations
 (whereof  1 operations were pure point group operations)
 out of a pool of  8 trial point group operations.


The static configuration has the point symmetry C_1 .


Analysis of symmetry for dynamics (positions and initial velocities):
=====================================================================
 Subroutine PRICEL returns following result:
 
  LATTYP: Found a simple orthorhombic cell.
 ALAT       =     6.6515892615
 B/A-ratio  =     1.0830687913
 C/A-ratio  =     2.2360680898
  
  Lattice vectors:
  
 A1 = (  -2.7154997033,  -6.0720425777,   0.0000000000)
 A2 = (   0.0000000000,   0.0000000000,   7.2041287420)
 A3 = ( -13.5775001683,   6.0720433063,   0.0000000000)
 
   2 primitive cells build up your supercell.
 

 Routine SETGRP: Setting up the symmetry group for a 
 base centered orthorhombic supercell.


 Subroutine GETGRP returns: Found  1 space group operations
 (whereof  1 operations were pure point group operations)
 out of a pool of  8 trial point group operations.


The dynamic configuration has the point symmetry C_1 .


Analysis of structural, dynamic, and magnetic symmetry:
=====================================================================
 Subroutine PRICEL returns following result:
 
  LATTYP: Found a simple orthorhombic cell.
 ALAT       =     6.6515892615
 B/A-ratio  =     1.0830687913
 C/A-ratio  =     2.2360680898
  
  Lattice vectors:
  
 A1 = (  -2.7154997033,  -6.0720425777,   0.0000000000)
 A2 = (   0.0000000000,   0.0000000000,   7.2041287420)
 A3 = ( -13.5775001683,   6.0720433063,   0.0000000000)
 
   2 primitive cells build up your supercell.
 

 Routine SETGRP: Setting up the symmetry group for a 
 base centered orthorhombic supercell.


 Subroutine GETGRP returns: Found  1 space group operations
 (whereof  1 operations were pure point group operations)
 out of a pool of  8 trial point group operations.


The overall configuration has the point symmetry C_1 .


 Subroutine INISYM returns: Found  1 space group operations
 (whereof  1 operations are pure point group operations),
 and found     2 'primitive' translations


----------------------------------------------------------------------------------------

                                     Primitive cell                                     

  volume of cell :     712.7174

  direct lattice vectors                    reciprocal lattice vectors
    -2.715499703 -6.072042578  0.000000000    -0.061376058 -0.137241023  0.000000000
     0.000000000  0.000000000  7.204128742     0.000000000  0.000000000  0.138809291
   -13.577500168  6.072043306  0.000000000    -0.061376050  0.027448201  0.000000000

  length of vectors
     6.651589261  7.204128742 14.873406494     0.150340011  0.138809291  0.067234093

  position of ions in fractional coordinates (direct lattice)
     0.042735700  0.000000002  0.008547069
     0.542736097  0.168571234  0.108547096
     0.042736053  0.337142467  0.208547026
     0.709402536  0.000000002  0.675213825
     0.209402694  0.168571234  0.775213853
     0.709402904  0.337142467  0.875213797
     0.376069193  0.000000002  0.341880522
     0.876069246  0.168571234  0.441880325
     0.376069475  0.337142467  0.541880542
     0.209402562  0.084285460  0.475213965
     0.709402706  0.252856702  0.575213977
     0.209402771  0.421427935  0.675213912
     0.876068951  0.084285460  0.141880394
     0.376069124  0.252856702  0.241880435
     0.876069147  0.421427935  0.341880268
     0.542735817  0.084285460  0.808547180
     0.042735968  0.252856702  0.908547199
     0.542735954  0.421427935  0.008546995
     0.817610756  0.572327852  0.688315197
     0.603324891  0.683036745  0.416886450
     0.389039206  0.793745637  0.145457760
     0.389039272  0.572327852  0.545458076
     0.174753586  0.683036745  0.274029267
     0.960467813  0.793745637  0.002600669
     0.960467907  0.572327852  0.402600955
     0.746182193  0.683036745  0.131172176
     0.531896148  0.793745637  0.859743487
     0.531896363  0.572327852  0.259743774
     0.317610649  0.683036804  0.988315114
     0.103324755  0.793745637  0.716886396
     0.103324849  0.572327852  0.116886444
     0.889039373  0.683036745  0.845457903
     0.674753419  0.793745637  0.574029124
     0.674753395  0.572327852  0.974029292
     0.460467710  0.683036745  0.702600722
     0.246182084  0.793745637  0.431172093
     0.246182150  0.572327852  0.831172289
     0.031896554  0.683036745  0.559743631
     0.817610631  0.793745637  0.288314822
     0.889039501  0.627682209  0.945458169
     0.674753607  0.738391101  0.674029330
     0.460467832  0.849099934  0.402600612
     0.460467778  0.627682149  0.802600928
     0.246182183  0.738391161  0.531172030
     0.031896437  0.849099994  0.259743640
     0.031896683  0.627682149  0.659743896
     0.817610639  0.738391161  0.388315206
     0.603325104  0.849099994  0.116886369
     0.603324990  0.627682149  0.516886625
     0.389039155  0.738391161  0.245457847
     0.174753320  0.849099994  0.974029067
     0.174753595  0.627682149  0.374029652
     0.960467879  0.738391161  0.102600755
     0.746182166  0.849099934  0.831172215
     0.746182320  0.627682149  0.231172441
     0.531896455  0.738391161  0.959743454
     0.317610562  0.849099934  0.688314855
     0.317610895  0.627682209  0.088315260
     0.103325122  0.738391161  0.816886661
     0.889039465  0.849099934  0.545457823

  ion indices of the primitive-cell ions
   primitive index   ion index
                 1           1
                 2          23
                 3          24
                 4           4
                 5           5
                 6          27
                 7           7
                 8          20
                 9           9
                10          34
                11          35
                12          36
                13          28
                14          29
                15          15
                16          31
                17          32
                18          18
                19          37
                20          89
                21          39
                22          91
                23          41
                24          42
                25          43
                26          44
                27          96
                28          97
                29          98
                30          99
                31          79
                32          80
                33          81
                34          82
                35          53
                36          84
                37          55
                38          56
                39          87
                40          58
                41          59
                42          60
                43         115
                44         116
                45          63
                46         118
                47          65
                48          66
                49         100
                50         101
                51         102
                52         103
                53         104
                54         105
                55         106
                56          74
                57          75
                58          76
                59          77
                60          78

----------------------------------------------------------------------------------------

 
 
 KPOINTS: Automatic KPOINTS generated             

Automatic generation of k-mesh.
 Grid dimensions read from file:
 generate k-points for:    3    3    4

 Generating k-lattice:

  Cartesian coordinates                     Fractional coordinates (reciprocal lattice)
     0.020458682  0.018298801  0.000000000     0.333333333 -0.000000000  0.000000000
     0.000000000  0.027448203  0.000000000     0.000000000  0.333333333  0.000000000
     0.000000000  0.000000000  0.034702323     0.000000000  0.000000000  0.250000000

  Length of vectors
     0.027448202  0.027448203  0.034702323

  Shift w.r.t. Gamma in fractional coordinates (k-lattice)
     0.000000000  0.000000000  0.000000000

 
 Subroutine IBZKPT returns following result:
 ===========================================
 
 Found     19 irreducible k-points:
 
 Following reciprocal coordinates:
            Coordinates               Weight
  0.000000  0.000000  0.000000      1.000000
  0.333333 -0.000000  0.000000      2.000000
  0.000000  0.333333  0.000000      2.000000
  0.333333  0.333333  0.000000      2.000000
 -0.333333  0.333333  0.000000      2.000000
  0.000000  0.000000  0.250000      2.000000
  0.333333 -0.000000  0.250000      2.000000
 -0.333333  0.000000  0.250000      2.000000
  0.000000  0.333333 -0.250000      2.000000
  0.000000 -0.333333 -0.250000      2.000000
  0.333333  0.333333  0.250000      2.000000
 -0.333333 -0.333333  0.250000      2.000000
 -0.333333  0.333333  0.250000      2.000000
  0.333333 -0.333333  0.250000      2.000000
  0.000000  0.000000  0.500000      1.000000
  0.333333 -0.000000  0.500000      2.000000
  0.000000  0.333333  0.500000      2.000000
  0.333333  0.333333  0.500000      2.000000
 -0.333333  0.333333  0.500000      2.000000
 
 Following cartesian coordinates:
            Coordinates               Weight
  0.000000  0.000000  0.000000      1.000000
  0.020459  0.018299  0.000000      2.000000
  0.000000  0.027448  0.000000      2.000000
  0.020459  0.045747  0.000000      2.000000
 -0.020459  0.009149  0.000000      2.000000
  0.000000  0.000000  0.034702      2.000000
  0.020459  0.018299  0.034702      2.000000
 -0.020459 -0.018299  0.034702      2.000000
  0.000000  0.027448 -0.034702      2.000000
  0.000000 -0.027448 -0.034702      2.000000
  0.020459  0.045747  0.034702      2.000000
 -0.020459 -0.045747  0.034702      2.000000
 -0.020459  0.009149  0.034702      2.000000
  0.020459 -0.009149  0.034702      2.000000
  0.000000  0.000000  0.069405      1.000000
  0.020459  0.018299  0.069405      2.000000
  0.000000  0.027448  0.069405      2.000000
  0.020459  0.045747  0.069405      2.000000
 -0.020459  0.009149  0.069405      2.000000
 


--------------------------------------------------------------------------------------------------------




 Dimension of arrays:
   k-points           NKPTS =     19   k-points in BZ     NKDIM =     19   number of bands    NBANDS=    288
   number of dos      NEDOS =    301   number of ions     NIONS =    120
   non local maximal  LDIM  =      4   non local SUM 2l+1 LMDIM =      8
   total plane-waves  NPLWV = 559872
   max r-space proj   IRMAX =   2093   max aug-charges    IRDMAX= 105246
   dimension x,y,z NGX =   108 NGY =  108 NGZ =   48
   dimension x,y,z NGXF=   216 NGYF=  216 NGZF=   96
   support grid    NGXF=   432 NGYF=  432 NGZF=  192
   ions per type =              36  84
   NGX,Y,Z   is equivalent  to a cutoff of  11.02, 11.02, 11.08 a.u.
   NGXF,Y,Z  is equivalent  to a cutoff of  22.04, 22.04, 22.15 a.u.

 SYSTEM =  Si and Ge interface calculation         
 POSCAR =  Si+C                                    

 Startparameter for this run:
   NWRITE =      2    write-flag & timer
   PREC   = normal    normal or accurate (medium, high low for compatibility)
   ISTART =      0    job   : 0-new  1-cont  2-samecut
   ICHARG =      2    charge: 1-file 2-atom 10-const
   ISPIN  =      2    spin polarized calculation?
   LNONCOLLINEAR =      F non collinear calculations
   LSORBIT =      F    spin-orbit coupling
   INIWAV =      1    electr: 0-lowe 1-rand  2-diag
   LASPH  =      T    aspherical Exc in radial PAW
 Electronic Relaxation 1
   ENCUT  =  700.0 eV  51.45 Ry    7.17 a.u.  35.15 35.15 15.54*2*pi/ulx,y,z
   ENINI  =  700.0     initial cutoff
   ENAUG  =  900.0 eV  augmentation charge cutoff
   NELM   =    100;   NELMIN=  2; NELMDL= -5     # of ELM steps 
   EDIFF  = 0.1E-06   stopping-criterion for ELM
   LREAL  =      T    real-space projection
   NLSPLINE    = F    spline interpolate recip. space projectors
   LCOMPAT=      F    compatible to vasp.4.4
   GGA_COMPAT  = T    GGA compatible to vasp.4.4-vasp.4.6
   LMAXPAW     = -100 max onsite density
   LMAXMIX     =    6 max onsite mixed and CHGCAR
   VOSKOWN=      0    Vosko Wilk Nusair interpolation
   ROPT   =   -0.00050  -0.00050
 Ionic relaxation
   EDIFFG = 0.1E-05   stopping-criterion for IOM
   NSW    =      0    number of steps for IOM
   NBLOCK =      1;   KBLOCK =      1    inner block; outer block 
   IBRION =     -1    ionic relax: 0-MD 1-quasi-New 2-CG
   NFREE  =      0    steps in history (QN), initial steepest desc. (CG)
   ISIF   =      2    stress and relaxation
   IWAVPR =     10    prediction:  0-non 1-charg 2-wave 3-comb
   ISYM   =      2    0-nonsym 1-usesym 2-fastsym
   LCORR  =      T    Harris-Foulkes like correction to forces

   POTIM  = 0.5000    time-step for ionic-motion
   TEIN   =    0.0    initial temperature
   TEBEG  =    0.0;   TEEND  =   0.0 temperature during run
   SMASS  =  -3.00    Nose mass-parameter (am)
   estimated Nose-frequenzy (Omega)   =  0.10E-29 period in steps = 0.13E+47 mass=  -0.607E-26a.u.
   SCALEE = 1.0000    scale energy and forces
   NPACO  =    256;   APACO  = 10.0  distance and # of slots for P.C.
   PSTRESS=    0.0 pullay stress

  Mass of Ions in am
   POMASS =  28.09 12.01
  Ionic Valenz
   ZVAL   =   4.00  4.00
  Atomic Wigner-Seitz radii
   RWIGS  =  -1.00 -1.00
  virtual crystal weights 
   VCA    =   1.00  1.00
   NELECT =     480.0000    total number of electrons
   NUPDOWN=       1.0000    fix difference up-down

 DOS related values:
   EMIN   =  10.00;   EMAX   =-10.00  energy-range for DOS
   EFERMI =   0.00;   METHOD = LEGACY      
   ISMEAR =     0;   SIGMA  =   0.01  broadening in eV -4-tet -1-fermi 0-gaus

 Electronic relaxation 2 (details)
   IALGO  =     38    algorithm
   LDIAG  =      T    sub-space diagonalisation (order eigenvalues)
   LSUBROT=      F    optimize rotation matrix (better conditioning)
   TURBO    =      0    0=normal 1=particle mesh
   IRESTART =      0    0=no restart 2=restart with 2 vectors
   NREBOOT  =      0    no. of reboots
   NMIN     =      0    reboot dimension
   EREF     =   0.00    reference energy to select bands
   IMIX   =      4    mixing-type and parameters
     AMIX     =   0.60;   BMIX     =  1.00
     AMIX_MAG =   2.40;   BMIX_MAG =  1.00
     AMIN     =   0.10
     WC   =   100.;   INIMIX=   1;  MIXPRE=   1;  MAXMIX= -45

 Intra band minimization:
   WEIMIN = 0.0000     energy-eigenvalue tresh-hold
   EBREAK =  0.87E-10  absolut break condition
   DEPER  =   0.30     relativ break condition  

   TIME   =   0.40     timestep for ELM

  volume/ion in A,a.u.               =      11.88        80.16
  Fermi-wavevector in a.u.,A,eV,Ry     =   1.138954  2.152311 17.649693  1.297216
  Thomas-Fermi vector in A             =   2.275658
 
 Write flags
   LWAVE        =      F    write WAVECAR
   LDOWNSAMPLE  =      F    k-point downsampling of WAVECAR
   LCHARG       =      T    write CHGCAR
   LVTOT        =      F    write LOCPOT, total local potential
   LVHAR        =      T    write LOCPOT, Hartree potential only
   WRT_POTENTIAL=  hartree ionic  ! write potential to hdf5 file
   LELF         =      F    write electronic localiz. function (ELF)
   LORBIT       =      0    0 simple, 1 ext, 2 COOP (PROOUT), +10 PAW based schemes


 Dipole corrections
   LMONO      =      F    monopole corrections only (constant potential shift)
   LDIPOL     =      F    correct potential (dipole corrections)
   IDIPOL     =      0    1-x, 2-y, 3-z, 4-all directions 
   EPSILON    =  1.0000000 bulk dielectric constant
   LVACPOTAV  =      F  vacuum potentials using an averaging scheme for the charge density
   VACPOTFLAT =  0.1000000 required flatness to determine vacuum potential
 Exchange correlation treatment:
   GGA     = PE    functional components
   XC_C    = 1    coefficients multiplying the functional components
   LIBXC   =     F    Libxc                    
   VOSKOWN =     0    Vosko Wilk Nusair interpolation
   LHFCALC =     F    Hartree Fock is set to
   LHFONE  =     F    Hartree Fock one center treatment
   AEXX    =    0.0000 exact exchange contribution

 Parameters of functionals:
   PE:
     No parameter
 
 Van der Waals corrections
   IVDW    =     0    specifies the selected vdW correction

 Linear response parameters
   LEPSILON=     F    determine dielectric tensor
   LRPA    =     F    only Hartree local field effects (RPA)
   LNABLA  =     F    use nabla operator in PAW spheres
   LVEL    =     F    velocity operator in full k-point grid
   CSHIFT  =0.1000    complex shift for real part using Kramers Kronig
   OMEGAMAX=  -1.0    maximum frequency
   DEG_THRESHOLD= 0.2000000E-02 threshold for treating states as degnerate
   RTIME   =   -0.100 relaxation time in fs
  (WPLASMAI=    0.000 imaginary part of plasma frequency in eV, 0.658/RTIME)
   DFIELD  = 0.0000000 0.0000000 0.0000000 field for delta impulse in time
 
  Optional k-point grid parameters
   LKPOINTS_OPT  =     F    use optional k-point grid
   KPOINTS_OPT_MODE=     1    mode for optional k-point grid
 
 Orbital magnetization related:
   ORBITALMAG=     F  switch on orbital magnetization
   LCHIMAG   =     F  perturbation theory with respect to B field
   DQ        =  0.001000  dq finite difference perturbation B field
   LLRAUG    =     F  two centre corrections for induced B field
   LBONE     =     F  B-component reconstruction in AE one-centre
   LVGVCALC  =     T  calculate vGv susceptibility
   LVGVAPPL  =     F  apply vGv susceptibility instead of pGv for G=0

 Random number generation:
   RANDOM_GENERATOR = DEFAULT
   PCG_SEED         = not used


--------------------------------------------------------------------------------------------------------


 Static calculation
 charge density and potential will be updated during run
 spin polarized calculation
 Variant of blocked Davidson
 Davidson routine will perform the subspace rotation
 perform sub-space diagonalisation
    after iterative eigenvector-optimisation
 modified Broyden-mixing scheme, WC =      100.0
 initial mixing is a Kerker type mixing with AMIX =  0.6000 and BMIX =      1.0000
 Hartree-type preconditioning will be used
 using additional bands           48
 real space projection scheme for non local part
 use partial core corrections
 calculate Harris-corrections to forces 
   (improved forces if not selfconsistent)
 use gradient corrections 
 use of overlap-Matrix (Vanderbilt PP)
 Gauss-broadening in eV      SIGMA  =   0.01


--------------------------------------------------------------------------------------------------------


  energy-cutoff  :      700.00
  volume of cell :     1425.43
      direct lattice vectors                 reciprocal lattice vectors
    16.293001175  0.000000000  0.000000000     0.061376047  0.054896404  0.000000000
   -10.862000465 12.144085884  0.000000000     0.000000000  0.082344609  0.000000000
     0.000000000  0.000000000  7.204128742     0.000000000  0.000000000  0.138809291

  length of vectors
    16.293001175 16.293000830  7.204128742     0.082344607  0.082344609  0.138809291


 
 k-points in units of 2pi/SCALE and weight: Automatic KPOINTS generated             
   0.00000000  0.00000000  0.00000000       0.028
   0.02045868  0.01829880  0.00000000       0.056
   0.00000000  0.02744820  0.00000000       0.056
   0.02045868  0.04574700  0.00000000       0.056
  -0.02045868  0.00914940  0.00000000       0.056
   0.00000000  0.00000000  0.03470232       0.056
   0.02045868  0.01829880  0.03470232       0.056
  -0.02045868 -0.01829880  0.03470232       0.056
   0.00000000  0.02744820 -0.03470232       0.056
   0.00000000 -0.02744820 -0.03470232       0.056
   0.02045868  0.04574700  0.03470232       0.056
  -0.02045868 -0.04574700  0.03470232       0.056
  -0.02045868  0.00914940  0.03470232       0.056
   0.02045868 -0.00914940  0.03470232       0.056
   0.00000000  0.00000000  0.06940465       0.028
   0.02045868  0.01829880  0.06940465       0.056
   0.00000000  0.02744820  0.06940465       0.056
   0.02045868  0.04574700  0.06940465       0.056
  -0.02045868  0.00914940  0.06940465       0.056
 
 k-points in reciprocal lattice and weights: Automatic KPOINTS generated             
   0.00000000  0.00000000  0.00000000       0.028
   0.33333333 -0.00000000  0.00000000       0.056
   0.00000000  0.33333333  0.00000000       0.056
   0.33333333  0.33333333  0.00000000       0.056
  -0.33333333  0.33333333  0.00000000       0.056
   0.00000000  0.00000000  0.25000000       0.056
   0.33333333 -0.00000000  0.25000000       0.056
  -0.33333333  0.00000000  0.25000000       0.056
   0.00000000  0.33333333 -0.25000000       0.056
   0.00000000 -0.33333333 -0.25000000       0.056
   0.33333333  0.33333333  0.25000000       0.056
  -0.33333333 -0.33333333  0.25000000       0.056
  -0.33333333  0.33333333  0.25000000       0.056
   0.33333333 -0.33333333  0.25000000       0.056
   0.00000000  0.00000000  0.50000000       0.028
   0.33333333 -0.00000000  0.50000000       0.056
   0.00000000  0.33333333  0.50000000       0.056
   0.33333333  0.33333333  0.50000000       0.056
  -0.33333333  0.33333333  0.50000000       0.056
 
 position of ions in fractional coordinates (direct lattice) 
   0.97435850  0.98290563  0.00000000
   0.67435843  0.78290558  0.16857123
   0.37435842  0.58290553  0.33714247
   0.30769178  0.98290563  0.00000000
   0.00769173  0.78290558  0.16857123
   0.70769167  0.58290553  0.33714247
   0.64102507  0.98290563  0.00000000
   0.34102503  0.78290558  0.16857123
   0.04102499  0.58290553  0.33714247
   0.15769197  0.63290560  0.08428545
   0.85769194  0.43290553  0.25285670
   0.55769193  0.23290551  0.42142793
   0.49102521  0.63290560  0.08428545
   0.19102515  0.43290553  0.25285670
   0.89102519  0.23290551  0.42142793
   0.82435846  0.63290560  0.08428545
   0.52435839  0.43290553  0.25285670
   0.22435850  0.23290551  0.42142793
   0.14102516  0.48290560  0.00000000
   0.84102511  0.28290549  0.16857123
   0.54102510  0.08290543  0.33714247
   0.47435844  0.48290560  0.00000000
   0.17435838  0.28290549  0.16857123
   0.87435836  0.08290543  0.33714247
   0.80769169  0.48290560  0.00000000
   0.50769168  0.28290549  0.16857123
   0.20769163  0.08290543  0.33714247
   0.99102521  0.13290566  0.08428546
   0.69102514  0.93290561  0.25285670
   0.39102519  0.73290557  0.42142793
   0.32435846  0.13290566  0.08428546
   0.02435841  0.93290561  0.25285670
   0.72435844  0.73290557  0.42142793
   0.65769166  0.13290566  0.08428546
   0.35769162  0.93290561  0.25285670
   0.05769165  0.73290557  0.42142793
   0.24703699  0.93535221  0.57232785
   0.48989421  0.90678072  0.68303675
   0.73275143  0.87820923  0.79374564
   0.53275126  0.07820940  0.57232785
   0.77560848  0.04963779  0.68303675
   0.01846576  0.02106643  0.79374564
   0.81846547  0.22106648  0.57232785
   0.06132281  0.19249499  0.68303675
   0.30418003  0.16392350  0.79374564
   0.10417986  0.36392367  0.57232785
   0.34703708  0.33535218  0.68303675
   0.58989441  0.30678070  0.79374564
   0.38989413  0.50678074  0.57232785
   0.63275135  0.47820926  0.68303675
   0.87560856  0.44963789  0.79374564
   0.67560846  0.64963794  0.57232785
   0.91846567  0.62106645  0.68303675
   0.16132295  0.59249497  0.79374564
   0.96132266  0.79249501  0.57232785
   0.20417988  0.76392353  0.68303675
   0.44703710  0.73535204  0.79374564
   0.08275115  0.02820933  0.62768221
   0.32560849  0.99963784  0.73839110
   0.56846571  0.97106636  0.84909993
   0.36846536  0.17106652  0.62768215
   0.61132264  0.14249504  0.73839116
   0.85417986  0.11392355  0.84909999
   0.65417975  0.31392360  0.62768215
   0.89703697  0.28535223  0.73839116
   0.13989425  0.25678062  0.84909999
   0.93989408  0.45678079  0.62768215
   0.18275142  0.42820931  0.73839116
   0.42560864  0.39963794  0.84909999
   0.22560824  0.59963799  0.62768215
   0.46846557  0.57106638  0.73839116
   0.71132266  0.54249501  0.84909999
   0.51132268  0.74249506  0.62768221
   0.75417995  0.71392345  0.73839116
   0.99703717  0.68535209  0.84909993
   0.79703683  0.88535213  0.62768221
   0.03989410  0.85678077  0.73839116
   0.28275132  0.82820916  0.84909993
   0.88989425  0.00678074  0.57232785
   0.13275135  0.97820926  0.68303675
   0.37560868  0.94963783  0.79374564
   0.17560864  0.14963794  0.57232785
   0.41846573  0.12106645  0.68303675
   0.66132283  0.09249497  0.79374564
   0.46132273  0.29249501  0.57232785
   0.70417994  0.26392364  0.68303675
   0.94703716  0.23535204  0.79374564
   0.74703693  0.43535221  0.57232785
   0.98989421  0.40678072  0.68303675
   0.23275150  0.37820923  0.79374564
   0.03275132  0.57820940  0.57232785
   0.27560854  0.54963791  0.68303675
   0.51846564  0.52106643  0.79374564
   0.31846556  0.72106648  0.57232785
   0.56132281  0.69249511  0.68303680
   0.80418009  0.66392362  0.79374564
   0.60417986  0.86392367  0.57232785
   0.84703702  0.83535218  0.68303680
   0.08989441  0.80678082  0.79374564
   0.43989414  0.95678079  0.62768215
   0.68275142  0.92820931  0.73839116
   0.92560870  0.89963782  0.84909999
   0.72560829  0.09963799  0.62768215
   0.96846557  0.07106638  0.73839116
   0.21132278  0.04249501  0.84909993
   0.01132262  0.24249506  0.62768215
   0.25417995  0.21392357  0.73839116
   0.49703717  0.18535209  0.84909993
   0.29703677  0.38535213  0.62768215
   0.53989410  0.35678077  0.73839110
   0.78275132  0.32820916  0.84909993
   0.58275122  0.52820921  0.62768215
   0.82560855  0.49963784  0.73839116
   0.06846583  0.47106636  0.84909999
   0.86846554  0.67106652  0.62768215
   0.11132288  0.64249492  0.73839116
   0.35418010  0.61392355  0.84909999
   0.15417969  0.81392360  0.62768215
   0.39703703  0.78535223  0.73839116
   0.63989425  0.75678062  0.84909999
 
 position of ions in cartesian coordinates  (Angst):
   5.19890280 11.93649034  0.00000001
   2.48340190  9.50767259  1.21440887
  -0.23209804  7.07885483  2.42881774
  -5.66309878 11.93649034  0.00000001
  -8.37859946  9.50767259  1.21440887
   5.19890105  7.07885483  2.42881774
  -0.23209921 11.93649034  0.00000001
  -2.94759963  9.50767259  1.21440887
  -5.66309999  7.07885483  2.42881774
  -4.30534549  7.68605999  0.60720325
   9.27215584  5.25724188  1.82161223
   6.55665558  2.82842448  3.03602110
   1.12565336  7.68605999  0.60720325
  -1.58984697  5.25724188  1.82161223
  11.98765468  2.82842448  3.03602110
   6.55665246  7.68605999  0.60720325
   3.84115188  5.25724188  1.82161223
   1.12565356  2.82842448  3.03602110
  -2.94759778  5.86444703  0.00000000
  10.62990362  3.43562856  1.21440887
   7.91440376  1.00681071  2.42881774
   2.48340180  5.86444703  0.00000000
  -0.23209821  3.43562856  1.21440887
  13.34540286  1.00681071  2.42881774
   7.91440089  5.86444703  0.00000000
   5.19890160  3.43562856  1.21440887
   2.48340103  1.00681071  2.42881774
  14.70315353  1.61401777  0.60720330
   1.12565217 11.32928590  1.82161223
  -1.58984679  8.90046815  3.03602110
   3.84115146  1.61401777  0.60720330
  -9.73634955 11.32928590  1.82161223
   3.84115229  8.90046815  3.03602110
   9.27214959  1.61401777  0.60720330
  -4.30535129 11.32928590  1.82161223
  -7.02085046  8.90046815  3.03602110
  -6.13482206 11.35899752  4.12312353
  -1.86760565 11.01202294  4.92068465
   2.39961080 10.66504835  5.71824576
   7.83060640  0.94978167  4.12312353
  12.09782413  0.60280563  4.92068465
   0.07203906  0.25583250  5.71824576
  10.93403473  2.68465026  4.12312353
  -1.09174807  2.33767567  4.92068465
   3.17546837  1.99070109  5.71824576
  -2.25553650  4.41952029  4.12312353
   2.01167995  4.07254570  4.92068465
   6.27889832  3.72557112  5.71824576
   0.84789281  6.15438888  4.12312353
   5.11510925  5.80741429  4.92068465
   9.38232438  5.46044115  5.71824576
   3.95132178  7.88925891  4.12312353
   8.21853823  7.54228432  4.92068465
  -3.80724556  7.19530974  5.71824576
   7.05475012  9.62412749  4.12312353
  -4.97103462  9.27715291  4.92068465
  -0.70381818  8.93017832  5.71824576
   1.04185492  0.34257651  4.52190344
  -5.55292716 12.13968781  5.31946455
  -1.28571073 11.79271323  6.11702524
   4.14528196  2.07744655  4.52190301
   8.41249936  1.73047196  5.31946499
  12.67971579  1.38349738  6.11702567
   7.24871321  3.81231512  4.52190301
  11.51592835  3.46534199  5.31946499
  -0.50985413  3.11836595  6.11702567
  10.35214219  5.54718516  4.52190301
  -1.67364062  5.20021058  5.31946499
   2.59357452  4.85323744  6.11702567
  -2.83743267  7.28205519  4.52190301
   1.42978675  6.93507916  5.31946499
   5.69699994  6.58810602  6.11702567
   0.26599929  9.01692378  4.52190344
   4.53321800  8.66994774  5.31946499
   8.80043313  8.32297461  6.11702524
   3.36942666 10.75179237  4.52190344
  -8.65635841 10.40481922  5.31946499
  -4.38914068 10.05784319  6.11702524
  14.42539557  0.08234594  4.12312353
  -8.46239157 11.87945723  4.92068465
  -4.19517384 11.53248337  5.71824576
   1.23582434  1.81721597  4.12312353
   5.50303885  1.47024138  4.92068465
   9.77025333  1.12326680  5.71824576
   4.33925074  3.55208455  4.12312353
   8.60646588  3.20511141  4.92068465
  12.87368360  2.85813537  5.71824576
   7.44267778  5.28695458  4.12312353
  11.70989517  4.93998000  4.92068465
  -0.31588834  4.59300541  5.71824576
  -5.74689344  7.02182461  4.12312353
  -1.47967701  6.67485003  4.92068465
   2.78753748  6.32787544  5.71824576
  -2.64346463  8.75669320  4.12312353
   1.62375099  8.40972007  4.92068507
   5.89096841  8.06274547  5.71824576
   0.45996386 10.49156323  4.12312353
   4.72717932 10.14458864  4.92068507
  -7.29860379  9.79761551  5.71824576
  -3.22535766 11.61922810  4.52190301
   1.04185974 11.27225352  5.31946499
   5.30907716 10.92527893  6.11702567
  10.74006887  1.21001225  4.52190301
  15.00728757  0.86303622  5.31946499
   2.98150153  0.51606308  6.11702524
  -2.44950203  2.94488084  4.52190301
   1.81771636  2.59790624  5.31946499
   6.08493277  2.25093166  6.11702524
   0.65392532  4.67974942  4.52190301
   4.92114241  4.33277628  5.31946455
   9.18836014  3.98580025  6.11702524
   3.75735756  6.41461800  4.52190301
   8.02457464  6.06764486  5.31946499
  -4.00120915  5.72067028  6.11702567
   6.86078523  8.14948949  4.52190301
  -5.16499627  7.80251345  5.31946499
  -0.89778113  7.45554032  6.11702567
  -6.32878859  9.88435806  4.52190301
  -2.06157151  9.53738493  5.31946499
   2.20564623  9.19040889  6.11702567
 


--------------------------------------------------------------------------------------------------------


 k-point     1 :   0.0000 0.0000 0.0000  plane waves:   60027
 k-point     2 :   0.3333-0.0000 0.0000  plane waves:   59987
 k-point     3 :   0.0000 0.3333 0.0000  plane waves:   59987
 k-point     4 :   0.3333 0.3333 0.0000  plane waves:   59939
 k-point     5 :  -0.3333 0.3333 0.0000  plane waves:   60004
 k-point     6 :   0.0000 0.0000 0.2500  plane waves:   60013
 k-point     7 :   0.3333-0.0000 0.2500  plane waves:   59966
 k-point     8 :  -0.3333 0.0000 0.2500  plane waves:   59966
 k-point     9 :   0.0000 0.3333-0.2500  plane waves:   59966
 k-point    10 :   0.0000-0.3333-0.2500  plane waves:   59966
 k-point    11 :   0.3333 0.3333 0.2500  plane waves:   59929
 k-point    12 :  -0.3333-0.3333 0.2500  plane waves:   59929
 k-point    13 :  -0.3333 0.3333 0.2500  plane waves:   59959
 k-point    14 :   0.3333-0.3333 0.2500  plane waves:   59959
 k-point    15 :   0.0000 0.0000 0.5000  plane waves:   59828
 k-point    16 :   0.3333-0.0000 0.5000  plane waves:   59876
 k-point    17 :   0.0000 0.3333 0.5000  plane waves:   59876
 k-point    18 :   0.3333 0.3333 0.5000  plane waves:   59922
 k-point    19 :  -0.3333 0.3333 0.5000  plane waves:   59930

 maximum and minimum number of plane-waves per node :      3813     3678

 maximum number of plane-waves:     60027
 maximum index in each direction: 
   IXMAX=   35   IYMAX=   35   IZMAX=   15
   IXMIN=  -35   IYMIN=  -35   IZMIN=  -16


 real space projection operators:
  total allocation   :      13171.12 KBytes
  max/ min on nodes  :        871.56        701.75


 parallel 3D FFT for wavefunctions:
    minimum data exchange during FFTs selected (reduces bandwidth)
 parallel 3D FFT for charge:
    minimum data exchange during FFTs selected (reduces bandwidth)


 total amount of memory used by VASP MPI-rank0   223501. kBytes
=======================================================================

   base      :      30000. kBytes
   nonlr-proj:       5230. kBytes
   fftplans  :      11850. kBytes
   grid      :       9673. kBytes
   one-center:         49. kBytes
   wavefun   :     166699. kBytes
 
     INWAV:  cpu time      0.0000: real time      0.0002
 Broyden mixing: mesh for mixing (old mesh)
   NGX = 71   NGY = 71   NGZ = 31
  (NGX  =216   NGY  =216   NGZ  = 96)
  gives a total of 156271 points

 initial charge density was supplied:
 charge density of overlapping atoms calculated
 number of electron     480.0000000 magnetization       1.0000000
 keeping initial charge density in first step


--------------------------------------------------------------------------------------------------------


 Maximum index for non-local projection operator          160
 Maximum index for augmentation-charges         2175 (set IRDMAX)


--------------------------------------------------------------------------------------------------------


 First call to EWALD:  gamma=   0.157
 Maximum number of real-space cells 3x 3x 4
 Maximum number of reciprocal cells 4x 4x 2

    FEWALD:  cpu time      0.0038: real time      0.0038


--------------------------------------- Ionic step        1  -------------------------------------------




--------------------------------------- Iteration      1(   1)  ---------------------------------------


    POTLOK:  cpu time      0.1719: real time      0.1734
    SETDIJ:  cpu time      0.6113: real time      0.6143
     EDDAV:  cpu time     36.3360: real time     36.6379
       DOS:  cpu time      0.0036: real time      0.0036
    --------------------------------------------
      LOOP:  cpu time     37.1227: real time     37.4292

 eigenvalue-minimisations  : 21888
 total energy-change (2. order) : 0.2395423E+04  (-0.2620788E+05)
 number of electron     480.0000000 magnetization       1.0000000
 augmentation part      480.0000000 magnetization       1.0000000

 Free energy of the ion-electron system (eV)
  ---------------------------------------------------
  alpha Z        PSCENC =       682.92394874
  Ewald energy   TEWEN  =    -10413.21969554
  -Hartree energ DENC   =     -7084.33127026
  -exchange      EXHF   =         0.00000000
  -V(xc)+E(xc)   XCENC  =       759.31621094
  PAW double counting   =     12288.30765307   -11702.77953025
  entropy T*S    EENTRO =        -0.00094380
  eigenvalues    EBANDS =      1793.97644804
  atomic energy  EATOM  =     16071.23009607
  Solvation  Ediel_sol  =         0.00000000
  ---------------------------------------------------
  free energy    TOTEN  =      2395.42291701 eV

  energy without entropy =     2395.42386081  energy(sigma->0) =     2395.42338891


--------------------------------------------------------------------------------------------------------




--------------------------------------- Iteration      1(   2)  ---------------------------------------


     EDDAV:  cpu time     42.2728: real time     42.6224
       DOS:  cpu time      0.0033: real time      0.0034
    --------------------------------------------
      LOOP:  cpu time     42.2761: real time     42.6258

 eigenvalue-minimisations  : 26920
 total energy-change (2. order) :-0.2934424E+04  (-0.2800842E+04)
 number of electron     480.0000000 magnetization       1.0000000
 augmentation part      480.0000000 magnetization       1.0000000

 Free energy of the ion-electron system (eV)
  ---------------------------------------------------
  alpha Z        PSCENC =       682.92394874
  Ewald energy   TEWEN  =    -10413.21969554
  -Hartree energ DENC   =     -7084.33127026
  -exchange      EXHF   =         0.00000000
  -V(xc)+E(xc)   XCENC  =       759.31621094
  PAW double counting   =     12288.30765307   -11702.77953025
  entropy T*S    EENTRO =        -0.00129301
  eigenvalues    EBANDS =     -1140.44757665
  atomic energy  EATOM  =     16071.23009607
  Solvation  Ediel_sol  =         0.00000000
  ---------------------------------------------------
  free energy    TOTEN  =      -539.00145689 eV

  energy without entropy =     -539.00016388  energy(sigma->0) =     -539.00081038


--------------------------------------------------------------------------------------------------------




--------------------------------------- Iteration      1(   3)  ---------------------------------------


     EDDAV:  cpu time     42.3915: real time     42.7421
       DOS:  cpu time      0.0035: real time      0.0035
    --------------------------------------------
      LOOP:  cpu time     42.3951: real time     42.7456

 eigenvalue-minimisations  : 27056
 total energy-change (2. order) :-0.2994947E+03  (-0.2867516E+03)
 number of electron     480.0000000 magnetization       1.0000000
 augmentation part      480.0000000 magnetization       1.0000000

 Free energy of the ion-electron system (eV)
  ---------------------------------------------------
  alpha Z        PSCENC =       682.92394874
  Ewald energy   TEWEN  =    -10413.21969554
  -Hartree energ DENC   =     -7084.33127026
  -exchange      EXHF   =         0.00000000
  -V(xc)+E(xc)   XCENC  =       759.31621094
  PAW double counting   =     12288.30765307   -11702.77953025
  entropy T*S    EENTRO =        -0.00181204
  eigenvalues    EBANDS =     -1439.94173564
  atomic energy  EATOM  =     16071.23009607
  Solvation  Ediel_sol  =         0.00000000
  ---------------------------------------------------
  free energy    TOTEN  =      -838.49613491 eV

  energy without entropy =     -838.49432287  energy(sigma->0) =     -838.49522889


--------------------------------------------------------------------------------------------------------




--------------------------------------- Iteration      1(   4)  ---------------------------------------


     EDDAV:  cpu time     43.9846: real time     44.3615
       DOS:  cpu time      0.0034: real time      0.0035
    --------------------------------------------
      LOOP:  cpu time     43.9881: real time     44.3649

 eigenvalue-minimisations  : 28352
 total energy-change (2. order) :-0.1411113E+02  (-0.1369668E+02)
 number of electron     480.0000000 magnetization       1.0000000
 augmentation part      480.0000000 magnetization       1.0000000

 Free energy of the ion-electron system (eV)
  ---------------------------------------------------
  alpha Z        PSCENC =       682.92394874
  Ewald energy   TEWEN  =    -10413.21969554
  -Hartree energ DENC   =     -7084.33127026
  -exchange      EXHF   =         0.00000000
  -V(xc)+E(xc)   XCENC  =       759.31621094
  PAW double counting   =     12288.30765307   -11702.77953025
  entropy T*S    EENTRO =        -0.00244760
  eigenvalues    EBANDS =     -1454.05223342
  atomic energy  EATOM  =     16071.23009607
  Solvation  Ediel_sol  =         0.00000000
  ---------------------------------------------------
  free energy    TOTEN  =      -852.60726824 eV

  energy without entropy =     -852.60482064  energy(sigma->0) =     -852.60604444


--------------------------------------------------------------------------------------------------------




--------------------------------------- Iteration      1(   5)  ---------------------------------------


     EDDAV:  cpu time     46.0034: real time     46.4237
       DOS:  cpu time      0.0035: real time      0.0036
    CHARGE:  cpu time      1.5912: real time      1.6004
    MIXING:  cpu time      0.0061: real time      0.0061
    --------------------------------------------
      LOOP:  cpu time     47.6042: real time     48.0339

 eigenvalue-minimisations  : 30104
 total energy-change (2. order) :-0.6498819E+00  (-0.6416254E+00)
 number of electron     480.0000000 magnetization       1.0000000
 augmentation part       -0.3620952 magnetization       0.0197277

 Broyden mixing:
  rms(total) = 0.47590E+01    rms(broyden)= 0.47590E+01
  rms(prec ) = 0.58189E+01
  weight for this iteration     100.00

 Free energy of the ion-electron system (eV)
  ---------------------------------------------------
  alpha Z        PSCENC =       682.92394874
  Ewald energy   TEWEN  =    -10413.21969554
  -Hartree energ DENC   =     -7084.33127026
  -exchange      EXHF   =         0.00000000
  -V(xc)+E(xc)   XCENC  =       759.31621094
  PAW double counting   =     12288.30765307   -11702.77953025
  entropy T*S    EENTRO =        -0.00258513
  eigenvalues    EBANDS =     -1454.70197783
  atomic energy  EATOM  =     16071.23009607
  Solvation  Ediel_sol  =         0.00000000
  ---------------------------------------------------
  free energy    TOTEN  =      -853.25715019 eV

  energy without entropy =     -853.25456505  energy(sigma->0) =     -853.25585762


--------------------------------------------------------------------------------------------------------




--------------------------------------- Iteration      1(   6)  ---------------------------------------


    POTLOK:  cpu time      0.1412: real time      0.1425
    SETDIJ:  cpu time      0.6007: real time      0.6037
     EDDAV:  cpu time     45.0447: real time     45.4522
       DOS:  cpu time      0.0035: real time      0.0035
    CHARGE:  cpu time      1.5716: real time      1.5808
    MIXING:  cpu time      0.0034: real time      0.0034
    --------------------------------------------
      LOOP:  cpu time     47.3651: real time     47.7862

 eigenvalue-minimisations  : 29344
 total energy-change (2. order) : 0.3575700E+02  (-0.4263830E+02)
 number of electron     479.9999999 magnetization       1.0000000
 augmentation part       -3.5089022 magnetization       0.0260996

 Broyden mixing:
  rms(total) = 0.35745E+01    rms(broyden)= 0.35744E+01
  rms(prec ) = 0.46589E+01
  weight for this iteration     100.00

 eigenvalues of (default mixing * dielectric matrix)
  average eigenvalue GAMMA=   0.6971
  0.6971

 Free energy of the ion-electron system (eV)
  ---------------------------------------------------
  alpha Z        PSCENC =       682.92394874
  Ewald energy   TEWEN  =    -10413.21969554
  -Hartree energ DENC   =     -7969.17372385
  -exchange      EXHF   =         0.00000000
  -V(xc)+E(xc)   XCENC  =       796.26575467
  PAW double counting   =     24823.31296912   -24244.60880927
  entropy T*S    EENTRO =        -0.00227653
  eigenvalues    EBANDS =      -564.22841727
  atomic energy  EATOM  =     16071.23009607
  Solvation  Ediel_sol  =         0.00000000
  ---------------------------------------------------
  free energy    TOTEN  =      -817.50015385 eV

  energy without entropy =     -817.49787732  energy(sigma->0) =     -817.49901558


--------------------------------------------------------------------------------------------------------




--------------------------------------- Iteration      1(   7)  ---------------------------------------


    POTLOK:  cpu time      0.1401: real time      0.1422
    SETDIJ:  cpu time      0.6019: real time      0.6047
     EDDAV:  cpu time     43.5387: real time     43.9003
       DOS:  cpu time      0.0034: real time      0.0034
    CHARGE:  cpu time      1.5804: real time      1.5887
    MIXING:  cpu time      0.0034: real time      0.0034
    --------------------------------------------
      LOOP:  cpu time     45.8679: real time     46.2427

 eigenvalue-minimisations  : 28072
 total energy-change (2. order) : 0.2552931E+02  (-0.1708154E+02)
 number of electron     480.0000000 magnetization       1.0000000
 augmentation part       -2.7031957 magnetization       0.0189919

 Broyden mixing:
  rms(total) = 0.13753E+01    rms(broyden)= 0.13753E+01
  rms(prec ) = 0.15827E+01
  weight for this iteration     100.00

 eigenvalues of (default mixing * dielectric matrix)
  average eigenvalue GAMMA=   0.8845
  1.2154  0.5535

 Free energy of the ion-electron system (eV)
  ---------------------------------------------------
  alpha Z        PSCENC =       682.92394874
  Ewald energy   TEWEN  =    -10413.21969554
  -Hartree energ DENC   =     -7647.60900185
  -exchange      EXHF   =         0.00000000
  -V(xc)+E(xc)   XCENC  =       792.95318948
  PAW double counting   =     32055.91702538   -31478.47212913
  entropy T*S    EENTRO =        -0.00130603
  eigenvalues    EBANDS =      -855.69296766
  atomic energy  EATOM  =     16071.23009607
  Solvation  Ediel_sol  =         0.00000000
  ---------------------------------------------------
  free energy    TOTEN  =      -791.97084054 eV

  energy without entropy =     -791.96953451  energy(sigma->0) =     -791.97018753


--------------------------------------------------------------------------------------------------------




--------------------------------------- Iteration      1(   8)  ---------------------------------------


    POTLOK:  cpu time      0.1417: real time      0.1435
    SETDIJ:  cpu time      0.5985: real time      0.6013
     EDDAV:  cpu time     43.5282: real time     43.9067
       DOS:  cpu time      0.0034: real time      0.0034
    CHARGE:  cpu time      1.5810: real time      1.5889
    MIXING:  cpu time      0.0035: real time      0.0035
    --------------------------------------------
      LOOP:  cpu time     45.8562: real time     46.2474

 eigenvalue-minimisations  : 28032
 total energy-change (2. order) :-0.2379474E+01  (-0.2653111E+01)
 number of electron     480.0000000 magnetization       1.0000000
 augmentation part       -2.5436813 magnetization       0.0200227

 Broyden mixing:
  rms(total) = 0.87971E+00    rms(broyden)= 0.87970E+00
  rms(prec ) = 0.16980E+01
  weight for this iteration     100.00

 eigenvalues of (default mixing * dielectric matrix)
  average eigenvalue GAMMA=   0.8598
  1.4142  0.5826  0.5826

 Free energy of the ion-electron system (eV)
  ---------------------------------------------------
  alpha Z        PSCENC =       682.92394874
  Ewald energy   TEWEN  =    -10413.21969554
  -Hartree energ DENC   =     -7681.85960324
  -exchange      EXHF   =         0.00000000
  -V(xc)+E(xc)   XCENC  =       795.64835396
  PAW double counting   =     38748.64827760   -38171.45872741
  entropy T*S    EENTRO =        -0.00208469
  eigenvalues    EBANDS =      -826.26087984
  atomic energy  EATOM  =     16071.23009607
  Solvation  Ediel_sol  =         0.00000000
  ---------------------------------------------------
  free energy    TOTEN  =      -794.35031434 eV

  energy without entropy =     -794.34822965  energy(sigma->0) =     -794.34927199


--------------------------------------------------------------------------------------------------------




--------------------------------------- Iteration      1(   9)  ---------------------------------------


    POTLOK:  cpu time      0.1416: real time      0.1428
    SETDIJ:  cpu time      0.5988: real time      0.6019
     EDDAV:  cpu time     43.6693: real time     44.0610
       DOS:  cpu time      0.0034: real time      0.0034
    CHARGE:  cpu time      1.5885: real time      1.5976
    MIXING:  cpu time      0.0035: real time      0.0036
    --------------------------------------------
      LOOP:  cpu time     46.0051: real time     46.4103

 eigenvalue-minimisations  : 28112
 total energy-change (2. order) : 0.1335369E+01  (-0.8063537E+00)
 number of electron     480.0000000 magnetization       1.0000000
 augmentation part       -2.5954582 magnetization       0.0185991

 Broyden mixing:
  rms(total) = 0.52390E+00    rms(broyden)= 0.52388E+00
  rms(prec ) = 0.95082E+00
  weight for this iteration     100.00

 eigenvalues of (default mixing * dielectric matrix)
  average eigenvalue GAMMA=   0.8047
  1.5390  0.6831  0.6831  0.3137

 Free energy of the ion-electron system (eV)
  ---------------------------------------------------
  alpha Z        PSCENC =       682.92394874
  Ewald energy   TEWEN  =    -10413.21969554
  -Hartree energ DENC   =     -7704.99935347
  -exchange      EXHF   =         0.00000000
  -V(xc)+E(xc)   XCENC  =       796.85413639
  PAW double counting   =     40793.43541259   -40216.48441139
  entropy T*S    EENTRO =        -0.00168714
  eigenvalues    EBANDS =      -802.75339118
  atomic energy  EATOM  =     16071.23009607
  Solvation  Ediel_sol  =         0.00000000
  ---------------------------------------------------
  free energy    TOTEN  =      -793.01494492 eV

  energy without entropy =     -793.01325778  energy(sigma->0) =     -793.01410135


--------------------------------------------------------------------------------------------------------




--------------------------------------- Iteration      1(  10)  ---------------------------------------


    POTLOK:  cpu time      0.1413: real time      0.1433
    SETDIJ:  cpu time      0.5997: real time      0.6026
     EDDAV:  cpu time     44.8520: real time     45.2086
       DOS:  cpu time      0.0035: real time      0.0035
    CHARGE:  cpu time      1.5827: real time      1.5908
    MIXING:  cpu time      0.0047: real time      0.0048
    --------------------------------------------
      LOOP:  cpu time     47.1839: real time     47.5535

 eigenvalue-minimisations  : 27888
 total energy-change (2. order) : 0.5613104E+00  (-0.2057726E+00)
 number of electron     480.0000000 magnetization       1.0000000
 augmentation part       -2.6164588 magnetization       0.0194567

 Broyden mixing:
  rms(total) = 0.28440E+00    rms(broyden)= 0.28439E+00
  rms(prec ) = 0.38475E+00
  weight for this iteration     100.00

 eigenvalues of (default mixing * dielectric matrix)
  average eigenvalue GAMMA=   0.8078
  1.5129  0.8560  0.8560  0.5123  0.3016

 Free energy of the ion-electron system (eV)
  ---------------------------------------------------
  alpha Z        PSCENC =       682.92394874
  Ewald energy   TEWEN  =    -10413.21969554
  -Hartree energ DENC   =     -7718.20876395
  -exchange      EXHF   =         0.00000000
  -V(xc)+E(xc)   XCENC  =       797.68080574
  PAW double counting   =     42242.89081915   -41666.24132533
  entropy T*S    EENTRO =        -0.00230351
  eigenvalues    EBANDS =      -789.50721587
  atomic energy  EATOM  =     16071.23009607
  Solvation  Ediel_sol  =         0.00000000
  ---------------------------------------------------
  free energy    TOTEN  =      -792.45363450 eV

  energy without entropy =     -792.45133098  energy(sigma->0) =     -792.45248274


--------------------------------------------------------------------------------------------------------




--------------------------------------- Iteration      1(  11)  ---------------------------------------


    POTLOK:  cpu time      0.1425: real time      0.1434
    SETDIJ:  cpu time      0.5953: real time      0.5982
     EDDAV:  cpu time     43.1335: real time     43.4864
       DOS:  cpu time      0.0034: real time      0.0034
    CHARGE:  cpu time      1.5868: real time      1.5946
    MIXING:  cpu time      0.0039: real time      0.0040
    --------------------------------------------
      LOOP:  cpu time     45.4653: real time     45.8300

 eigenvalue-minimisations  : 27664
 total energy-change (2. order) : 0.4129337E-01  (-0.8890501E-01)
 number of electron     480.0000000 magnetization       1.0000000
 augmentation part       -2.6575723 magnetization       0.0199972

 Broyden mixing:
  rms(total) = 0.20874E+00    rms(broyden)= 0.20874E+00
  rms(prec ) = 0.28700E+00
  weight for this iteration     100.00

 eigenvalues of (default mixing * dielectric matrix)
  average eigenvalue GAMMA=   0.8275
  1.4747  1.4747  0.7541  0.5435  0.4227  0.2951

 Free energy of the ion-electron system (eV)
  ---------------------------------------------------
  alpha Z        PSCENC =       682.92394874
  Ewald energy   TEWEN  =    -10413.21969554
  -Hartree energ DENC   =     -7722.52317742
  -exchange      EXHF   =         0.00000000
  -V(xc)+E(xc)   XCENC  =       797.91609247
  PAW double counting   =     42479.99742096   -41903.45700520
  entropy T*S    EENTRO =        -0.00133348
  eigenvalues    EBANDS =      -785.27868774
  atomic energy  EATOM  =     16071.23009607
  Solvation  Ediel_sol  =         0.00000000
  ---------------------------------------------------
  free energy    TOTEN  =      -792.41234113 eV

  energy without entropy =     -792.41100765  energy(sigma->0) =     -792.41167439


--------------------------------------------------------------------------------------------------------




--------------------------------------- Iteration      1(  12)  ---------------------------------------


    POTLOK:  cpu time      0.1403: real time      0.1424
    SETDIJ:  cpu time      0.5955: real time      0.5985
     EDDAV:  cpu time     42.7640: real time     43.1125
       DOS:  cpu time      0.0034: real time      0.0035
    CHARGE:  cpu time      1.5789: real time      1.5866
    MIXING:  cpu time      0.0047: real time      0.0047
    --------------------------------------------
      LOOP:  cpu time     45.0868: real time     45.4481

 eigenvalue-minimisations  : 27296
 total energy-change (2. order) : 0.1833802E-01  (-0.2949014E-01)
 number of electron     480.0000000 magnetization       1.0000000
 augmentation part       -2.6843949 magnetization       0.0205736

 Broyden mixing:
  rms(total) = 0.13405E+00    rms(broyden)= 0.13404E+00
  rms(prec ) = 0.16798E+00
  weight for this iteration     100.00

 eigenvalues of (default mixing * dielectric matrix)
  average eigenvalue GAMMA=   0.8677
  1.7624  1.7624  0.7141  0.5800  0.5800  0.2912  0.3835

 Free energy of the ion-electron system (eV)
  ---------------------------------------------------
  alpha Z        PSCENC =       682.92394874
  Ewald energy   TEWEN  =    -10413.21969554
  -Hartree energ DENC   =     -7723.88525593
  -exchange      EXHF   =         0.00000000
  -V(xc)+E(xc)   XCENC  =       797.94132737
  PAW double counting   =     42405.55297234   -41829.06381004
  entropy T*S    EENTRO =        -0.00164827
  eigenvalues    EBANDS =      -783.87193785
  atomic energy  EATOM  =     16071.23009607
  Solvation  Ediel_sol  =         0.00000000
  ---------------------------------------------------
  free energy    TOTEN  =      -792.39400310 eV

  energy without entropy =     -792.39235484  energy(sigma->0) =     -792.39317897


--------------------------------------------------------------------------------------------------------




--------------------------------------- Iteration      1(  13)  ---------------------------------------


    POTLOK:  cpu time      0.1404: real time      0.1427
    SETDIJ:  cpu time      0.5969: real time      0.5996
     EDDAV:  cpu time     43.1353: real time     43.4916
       DOS:  cpu time      0.0036: real time      0.0037
    CHARGE:  cpu time      1.5968: real time      1.6045
    MIXING:  cpu time      0.0040: real time      0.0040
    --------------------------------------------
      LOOP:  cpu time     45.4770: real time     45.8461

 eigenvalue-minimisations  : 27552
 total energy-change (2. order) : 0.5685455E-02  (-0.1054777E-01)
 number of electron     480.0000000 magnetization       1.0000000
 augmentation part       -2.6829920 magnetization       0.0204819

 Broyden mixing:
  rms(total) = 0.70889E-01    rms(broyden)= 0.70888E-01
  rms(prec ) = 0.90683E-01
  weight for this iteration     100.00

 eigenvalues of (default mixing * dielectric matrix)
  average eigenvalue GAMMA=   0.8775
  1.9071  1.9071  0.7377  0.6900  0.6900  0.4669  0.2905  0.3306

 Free energy of the ion-electron system (eV)
  ---------------------------------------------------
  alpha Z        PSCENC =       682.92394874
  Ewald energy   TEWEN  =    -10413.21969554
  -Hartree energ DENC   =     -7722.67191896
  -exchange      EXHF   =         0.00000000
  -V(xc)+E(xc)   XCENC  =       797.88932163
  PAW double counting   =     42271.10036439   -41694.64380713
  entropy T*S    EENTRO =        -0.00161364
  eigenvalues    EBANDS =      -784.99501321
  atomic energy  EATOM  =     16071.23009607
  Solvation  Ediel_sol  =         0.00000000
  ---------------------------------------------------
  free energy    TOTEN  =      -792.38831765 eV

  energy without entropy =     -792.38670400  energy(sigma->0) =     -792.38751083


--------------------------------------------------------------------------------------------------------




--------------------------------------- Iteration      1(  14)  ---------------------------------------


    POTLOK:  cpu time      0.1396: real time      0.1425
    SETDIJ:  cpu time      0.6028: real time      0.6055
     EDDAV:  cpu time     43.2683: real time     43.6213
       DOS:  cpu time      0.0034: real time      0.0034
    CHARGE:  cpu time      1.5737: real time      1.5814
    MIXING:  cpu time      0.0044: real time      0.0044
    --------------------------------------------
      LOOP:  cpu time     45.5922: real time     45.9585

 eigenvalue-minimisations  : 27624
 total energy-change (2. order) : 0.3428280E-02  (-0.3992348E-02)
 number of electron     480.0000000 magnetization       1.0000000
 augmentation part       -2.6810311 magnetization       0.0206712

 Broyden mixing:
  rms(total) = 0.35272E-01    rms(broyden)= 0.35271E-01
  rms(prec ) = 0.45825E-01
  weight for this iteration     100.00

 eigenvalues of (default mixing * dielectric matrix)
  average eigenvalue GAMMA=   0.8659
  1.9105  1.9105  0.8193  0.8193  0.7796  0.5099  0.4367  0.3175  0.2902

 Free energy of the ion-electron system (eV)
  ---------------------------------------------------
  alpha Z        PSCENC =       682.92394874
  Ewald energy   TEWEN  =    -10413.21969554
  -Hartree energ DENC   =     -7722.31334378
  -exchange      EXHF   =         0.00000000
  -V(xc)+E(xc)   XCENC  =       797.88519390
  PAW double counting   =     42216.27817888   -41639.83683227
  entropy T*S    EENTRO =        -0.00173038
  eigenvalues    EBANDS =      -785.33070498
  atomic energy  EATOM  =     16071.23009607
  Solvation  Ediel_sol  =         0.00000000
  ---------------------------------------------------
  free energy    TOTEN  =      -792.38488937 eV

  energy without entropy =     -792.38315898  energy(sigma->0) =     -792.38402418


--------------------------------------------------------------------------------------------------------




[...]
   -.210E+02 0.247E+02 -.187E+03   0.203E+02 -.280E+02 0.194E+03   0.879E+00 0.518E+01 -.795E+01   -.506E-03 0.862E-03 -.133E-03
   0.685E+01 0.730E+01 0.111E+03   -.728E+01 -.678E+01 -.112E+03   0.201E+01 0.188E+01 0.997E+00   -.352E-03 0.162E-03 0.235E-03
   0.413E+02 -.672E+01 -.941E+02   -.443E+02 0.918E+01 0.963E+02   0.404E+01 -.226E-02 -.439E+01   -.116E-03 -.431E-03 0.175E-03
   -.264E+02 0.207E+02 -.171E+03   0.259E+02 -.223E+02 0.172E+03   0.928E+00 0.337E+01 -.363E+01   -.475E-03 0.149E-03 -.167E-03
   0.179E+02 0.407E+02 0.127E+03   -.208E+02 -.431E+02 -.129E+03   0.398E+01 0.539E+01 0.395E+01   -.553E-03 -.159E-02 0.745E-04
   0.282E+02 0.103E+02 -.623E+02   -.309E+02 -.881E+01 0.635E+02   0.472E+01 0.369E+00 -.441E+01   -.365E-03 -.101E-02 -.159E-03
   -.241E+02 0.830E+02 -.137E+03   0.247E+02 -.987E+02 0.135E+03   -.535E+00 0.661E+01 -.983E+01   0.751E-03 -.221E-03 -.189E-03
   0.308E+02 0.383E+02 0.139E+03   -.336E+02 -.415E+02 -.141E+03   0.447E+01 0.602E+01 0.486E+01   0.340E-03 -.121E-02 0.174E-03
   0.458E+02 -.876E+00 -.524E+02   -.491E+02 0.310E+01 0.521E+02   0.410E+01 -.250E+00 -.540E+01   0.248E-03 -.771E-03 -.107E-03
   -.123E+01 0.407E+02 -.169E+03   -.129E+01 -.452E+02 0.174E+03   0.161E+01 0.572E+01 -.772E+01   0.459E-04 -.169E-02 -.254E-04
   0.453E+01 0.206E+02 0.125E+03   -.622E+01 -.226E+02 -.127E+03   0.308E+01 0.521E+01 0.326E+01   0.297E-03 0.242E-03 0.259E-04
   0.338E+02 -.254E+01 -.985E+02   -.368E+02 0.508E+01 0.103E+03   0.520E+01 -.396E+00 -.652E+01   0.127E-04 -.999E-03 0.366E-03
   -.330E+02 0.210E+02 -.187E+03   0.346E+02 -.246E+02 0.192E+03   -.137E+01 0.523E+01 -.805E+01   -.596E-03 -.161E-02 0.837E-04
   0.218E+02 0.196E+02 0.131E+03   -.247E+02 -.208E+02 -.133E+03   0.451E+01 0.337E+01 0.295E+01   -.410E-03 0.686E-03 -.347E-03
   0.393E+02 -.119E+01 -.775E+02   -.424E+02 0.275E+01 0.787E+02   0.465E+01 0.527E-01 -.523E+01   -.632E-03 0.739E-03 0.102E-03
   -.239E+02 0.363E+02 -.175E+03   0.227E+02 -.402E+02 0.180E+03   0.112E+01 0.486E+01 -.727E+01   0.578E-03 0.923E-03 0.181E-03
   0.676E+01 -.188E+02 0.180E+03   -.491E+01 0.214E+02 -.185E+03   -.278E+01 -.269E+01 0.581E+01   -.545E-03 0.754E-03 -.589E-04
   -.407E+02 0.764E+01 0.708E+02   0.436E+02 -.950E+01 -.720E+02   -.453E+01 0.866E-02 0.527E+01   -.296E-03 0.141E-02 0.384E-04
   -.392E+02 -.224E+02 -.120E+03   0.445E+02 0.234E+02 0.120E+03   -.531E+01 -.431E+01 -.334E+01   0.790E-03 0.257E-02 0.115E-03
   0.248E+02 0.590E+01 0.124E+03   -.277E+02 -.127E+02 -.118E+03   0.364E+01 -.441E+01 0.589E+01   0.945E-04 0.633E-03 0.566E-05
   -.329E+02 0.339E+01 0.768E+02   0.358E+02 -.345E+01 -.777E+02   -.420E+01 0.142E-01 0.367E+01   0.997E-03 0.223E-02 0.531E-03
   -.136E+02 -.399E+02 -.101E+03   0.157E+02 0.432E+02 0.994E+02   -.405E+01 -.498E+01 -.325E+00   -.185E-03 0.923E-03 0.607E-04
   0.310E+02 -.362E+02 0.179E+03   -.319E+02 0.393E+02 -.183E+03   0.146E+01 -.470E+01 0.650E+01   0.905E-03 0.469E-03 0.197E-03
   -.437E+02 -.676E+01 0.730E+02   0.481E+02 0.550E+01 -.734E+02   -.507E+01 -.308E+00 0.542E+01   -.578E-03 0.284E-04 -.552E-05
   -.209E+02 -.353E+02 -.151E+03   0.231E+02 0.370E+02 0.154E+03   -.395E+01 -.507E+01 -.412E+01   -.520E-03 -.635E-04 0.199E-04
   0.204E+02 -.330E+02 0.193E+03   -.213E+02 0.381E+02 -.201E+03   0.143E+01 -.613E+01 0.955E+01   -.671E-03 -.915E-03 -.107E-03
   -.355E+02 -.260E+01 0.783E+02   0.385E+02 0.518E+00 -.793E+02   -.443E+01 0.341E+00 0.490E+01   -.128E-03 -.133E-02 0.133E-03
   -.221E+02 -.302E+02 -.135E+03   0.242E+02 0.327E+02 0.137E+03   -.432E+01 -.569E+01 -.464E+01   -.173E-03 -.161E-03 -.329E-03
   0.128E+02 -.188E+02 0.133E+03   -.112E+02 0.200E+02 -.132E+03   -.577E+00 -.313E+01 0.438E+01   -.342E-03 -.172E-02 -.443E-04
   -.404E+02 0.653E+01 0.705E+02   0.431E+02 -.817E+01 -.720E+02   -.431E+01 0.358E-01 0.484E+01   0.575E-03 -.109E-02 0.237E-03
   -.349E+02 -.399E+02 -.748E+02   0.405E+02 0.474E+02 0.704E+02   -.422E+01 -.624E+01 -.511E+01   0.515E-03 -.899E-03 -.748E-04
   0.708E+02 -.298E+02 0.140E+03   -.796E+02 0.306E+02 -.136E+03   0.106E+01 -.393E+01 0.696E+01   0.745E-03 0.124E-04 -.125E-03
   -.344E+02 -.672E+01 0.785E+02   0.379E+02 0.466E+01 -.812E+02   -.537E+01 0.221E-01 0.660E+01   -.180E-03 -.464E-03 -.194E-03
   -.105E+02 -.402E+02 -.123E+03   0.122E+02 0.423E+02 0.125E+03   -.317E+01 -.493E+01 -.104E+01   -.625E-03 -.187E-02 0.354E-03
   0.214E+02 -.334E+02 0.184E+03   -.204E+02 0.357E+02 -.188E+03   -.688E+00 -.317E+01 0.508E+01   -.480E-04 0.816E-03 0.535E-04
   -.451E+02 -.805E+01 0.703E+02   0.475E+02 0.621E+01 -.703E+02   -.334E+01 -.859E-01 0.416E+01   -.514E-03 0.659E-05 -.830E-04
   -.223E+02 -.336E+02 -.145E+03   0.232E+02 0.350E+02 0.148E+03   -.325E+01 -.438E+01 -.254E+01   -.456E-03 0.734E-04 0.163E-03
   0.179E+02 0.407E+02 0.127E+03   -.208E+02 -.431E+02 -.129E+03   0.398E+01 0.539E+01 0.395E+01   0.905E-03 0.199E-02 -.353E-04
   0.282E+02 0.103E+02 -.623E+02   -.309E+02 -.881E+01 0.635E+02   0.472E+01 0.369E+00 -.441E+01   -.538E-03 0.936E-03 -.121E-03
   -.241E+02 0.830E+02 -.137E+03   0.247E+02 -.987E+02 0.135E+03   -.535E+00 0.661E+01 -.983E+01   -.580E-03 0.412E-03 0.526E-04
   0.308E+02 0.383E+02 0.139E+03   -.336E+02 -.415E+02 -.141E+03   0.447E+01 0.602E+01 0.486E+01   -.900E-04 0.739E-03 0.210E-03
   0.458E+02 -.877E+00 -.524E+02   -.491E+02 0.310E+01 0.521E+02   0.410E+01 -.250E+00 -.540E+01   -.776E-03 0.689E-03 -.126E-03
   -.123E+01 0.407E+02 -.169E+03   -.129E+01 -.452E+02 0.174E+03   0.161E+01 0.572E+01 -.772E+01   0.243E-03 0.147E-02 0.196E-03
   0.453E+01 0.206E+02 0.125E+03   -.622E+01 -.226E+02 -.127E+03   0.308E+01 0.521E+01 0.326E+01   -.694E-03 0.231E-03 0.309E-03
   0.338E+02 -.255E+01 -.985E+02   -.368E+02 0.508E+01 0.103E+03   0.520E+01 -.396E+00 -.652E+01   0.665E-03 0.720E-03 0.191E-03
   -.330E+02 0.210E+02 -.187E+03   0.346E+02 -.246E+02 0.192E+03   -.137E+01 0.523E+01 -.805E+01   0.590E-03 0.124E-02 -.827E-04
   0.218E+02 0.196E+02 0.131E+03   -.247E+02 -.208E+02 -.133E+03   0.451E+01 0.337E+01 0.295E+01   0.299E-03 0.141E-05 -.200E-03
   0.393E+02 -.118E+01 -.775E+02   -.424E+02 0.275E+01 0.787E+02   0.465E+01 0.527E-01 -.523E+01   0.101E-02 -.332E-03 -.215E-04
   -.239E+02 0.363E+02 -.175E+03   0.227E+02 -.402E+02 0.180E+03   0.112E+01 0.486E+01 -.727E+01   -.535E-03 -.533E-03 -.224E-03
   0.271E+02 0.406E+02 0.129E+03   -.289E+02 -.442E+02 -.132E+03   0.345E+01 0.562E+01 0.434E+01   0.515E-03 -.138E-02 0.110E-03
   0.353E+02 0.228E+01 -.334E+02   -.390E+02 -.887E+00 0.316E+02   0.475E+01 -.442E+00 -.194E+01   -.998E-03 -.205E-02 -.411E-03
   0.287E+02 0.517E+02 -.137E+03   -.358E+02 -.576E+02 0.134E+03   -.139E+01 0.462E+01 -.754E+01   -.235E-03 -.163E-02 -.193E-03
   0.214E+02 0.279E+02 0.136E+03   -.233E+02 -.298E+02 -.139E+03   0.312E+01 0.472E+01 0.394E+01   -.682E-03 -.196E-02 0.213E-04
   0.413E+02 -.157E+01 -.763E+02   -.440E+02 0.467E+01 0.777E+02   0.369E+01 -.940E+00 -.512E+01   -.142E-03 -.170E-02 -.549E-04
   -.210E+02 0.247E+02 -.187E+03   0.203E+02 -.280E+02 0.194E+03   0.879E+00 0.518E+01 -.795E+01   0.523E-03 -.530E-03 0.117E-03
   0.685E+01 0.730E+01 0.111E+03   -.728E+01 -.678E+01 -.112E+03   0.201E+01 0.188E+01 0.997E+00   -.836E-04 -.176E-03 -.454E-03
   0.413E+02 -.672E+01 -.941E+02   -.443E+02 0.918E+01 0.963E+02   0.404E+01 -.226E-02 -.439E+01   0.120E-02 0.678E-03 0.512E-04
   -.264E+02 0.207E+02 -.171E+03   0.259E+02 -.223E+02 0.172E+03   0.928E+00 0.337E+01 -.363E+01   -.243E-03 -.245E-03 -.280E-04
 -----------------------------------------------------------------------------------------------
   -.536E+02 -.751E+02 0.349E+01   -.245E-12 0.167E-12 0.909E-12   0.536E+02 0.751E+02 -.340E+01   -.277E-03 0.231E-03 0.684E-03
 
 
 POSITION                                       TOTAL-FORCE (eV/Angst)
 -----------------------------------------------------------------------------------
      5.19890     11.93649      0.00000        -1.740947      6.023414     17.882194
      2.48340      9.50767      1.21441        -0.519121     -0.681166     -1.510007
     -0.23210      7.07885      2.42882         0.601071     -1.024326      1.843113
     -5.66310     11.93649      0.00000        -0.700717     -0.301115      0.065393
     -8.37860      9.50767      1.21441         0.130194      0.295753     -0.020902
      5.19890      7.07885      2.42882         1.240322     -0.248540      0.448583
     -0.23210     11.93649      0.00000         7.990224      0.939819      7.922215
     -2.94760      9.50767      1.21441        -0.666601      0.552329     -0.817214
     -5.66310      7.07885      2.42882        -0.394119      0.535662     -3.816909
     -4.30535      7.68606      0.60720         0.987531      1.014177     -0.274462
      9.27216      5.25724      1.82161        -0.228001     -0.304456      1.012274
      6.55666      2.82842      3.03602        -0.890491     -0.442409      0.285778
      1.12565      7.68606      0.60720        -0.932289     -0.097556     -0.213072
     -1.58985      5.25724      1.82161        -0.115939     -0.843507      1.554176
     11.98765      2.82842      3.03602         8.982061      1.212824     -9.259557
      6.55665      7.68606      0.60720        -0.288420      0.326901     -1.358502
      3.84115      5.25724      1.82161         0.390055      0.052379      1.436478
      1.12565      2.82842      3.03602        -1.544072     11.030749    -10.136180
     -2.94760      5.86445      0.00000         7.990224      0.939819      7.922215
     10.62990      3.43563      1.21441        -0.666601      0.552329     -0.817214
      7.91440      1.00681      2.42882        -0.394119      0.535662     -3.816909
      2.48340      5.86445      0.00000        -1.740947      6.023414     17.882194
     -0.23210      3.43563      1.21441        -0.519121     -0.681166     -1.510007
     13.34540      1.00681      2.42882         0.601071     -1.024326      1.843113
      7.91440      5.86445      0.00000        -0.700717     -0.301115      0.065393
      5.19890      3.43563      1.21441         0.130194      0.295753     -0.020902
      2.48340      1.00681      2.42882         1.240322     -0.248540      0.448583
     14.70315      1.61402      0.60720        -0.932289     -0.097556     -0.213072
      1.12565     11.32929      1.82161        -0.115939     -0.843507      1.554176
     -1.58985      8.90047      3.03602         8.982061      1.212824     -9.259557
      3.84115      1.61402      0.60720        -0.288420      0.326901     -1.358502
     -9.73635     11.32929      1.82161         0.390055      0.052379      1.436478
      3.84115      8.90047      3.03602        -1.544072     11.030749    -10.136180
      9.27215      1.61402      0.60720         0.987531      1.014177     -0.274462
     -4.30535     11.32929      1.82161        -0.228001     -0.304456      1.012274
     -7.02085      8.90047      3.03602        -0.890491     -0.442409      0.285778
     -6.13482     11.35900      4.12312         0.524303     -1.018423      1.553467
     -1.86761     11.01202      4.92068        -1.491559     -1.742775      3.871921
      2.39961     10.66505      5.71825        -2.173080     -3.208903     -2.362341
      7.83061      0.94978      4.12312         0.969202     -1.996038      5.803121
     12.09782      0.60281      4.92068        -1.642914     -1.608731      3.307455
      0.07204      0.25583      5.71825         1.333812      1.209837     -9.583416
     10.93403      2.68465      4.12312        -7.742257     -3.110975     10.581757
     -1.09175      2.33768      4.92068        -1.838486     -2.034120      3.963108
      3.17547      1.99070      5.71825        -1.459265     -2.795301      0.480113
     -2.25554      4.41952      4.12312         0.245835     -0.794459      1.571191
      2.01168      4.07255      4.92068        -0.936753     -1.917699      4.156499
      6.27890      3.72557      5.71825        -2.325985     -2.995484      0.389491
      0.84789      6.15439      4.12312        -0.922609     -0.072422      1.178812
      5.11511      5.80741      4.92068        -1.621050     -1.850305      4.088109
      9.38232      5.46044      5.71825        -0.054859     -3.298970     -2.767745
      3.95132      7.88926      4.12312         0.678394    -11.251055     11.826222
      8.21854      7.54228      4.92068        -1.341475     -0.045409      2.705091
     -3.80725      7.19531      5.71825        -1.951044     -1.692984     -1.503371
      7.05475      9.62413      4.12312         0.484591     -1.648882      2.010891
     -4.97103      9.27715      4.92068        -0.587871     -1.572137      4.992737
     -0.70382      8.93018      5.71825        -1.817436     -3.343156     -1.161079
      1.04185      0.34258      4.52190         1.674009      2.072089      1.409550
     -5.55293     12.13969      5.31946         1.046887      0.951318     -3.751783
     -1.28571     11.79271      6.11703        -8.467452     -1.328211    -10.922995
      4.14528      2.07745      4.52190         1.271019      2.844148      0.883951
      8.41250      1.73047      5.31946         0.954934      2.162148     -3.681319
     12.67972      1.38350      6.11703         0.105938      1.906218     -1.804401
      7.24871      3.81232      4.52190         1.572416      2.392437     -0.151889
     11.51593      3.46534      5.31946         1.032511      2.465245     -2.141218
     -0.50985      3.11837      6.11703         0.458247      1.760385     -1.753726
     10.35214      5.54719      4.52190         1.029925      2.992885      2.360665
     -1.67364      5.20021      5.31946         2.038209      1.822667     -3.252125
      2.59357      4.85324      6.11703         0.087412     -9.101522    -11.979707
     -2.83743      7.28206      4.52190         1.700597      2.813641      2.035845
      1.42979      6.93508      5.31946         0.847659      1.972053     -5.649105
      5.69700      6.58811      6.11703        -0.907627      1.223062     -2.757918
      0.26600      9.01692      4.52190         1.400382      3.190380      1.114402
      4.53322      8.66995      5.31946         2.199786      2.138705     -2.267386
      8.80043      8.32297      6.11703         0.275942      1.641793     -2.527992
      3.36943     10.75179      4.52190         1.612244      2.226339      0.885795
     -8.65636     10.40482      5.31946         1.506596      1.612899     -4.013981
     -4.38914     10.05784      6.11703        -0.069862      0.988780     -2.180098
     14.42540      0.08235      4.12312        -0.922609     -0.072422      1.178812
     -8.46239     11.87946      4.92068        -1.621050     -1.850305      4.088109
     -4.19517     11.53248      5.71825        -0.054859     -3.298970     -2.767745
      1.23582      1.81722      4.12312         0.678394    -11.251055     11.826222
      5.50304      1.47024      4.92068        -1.341475     -0.045409      2.705091
      9.77025      1.12327      5.71825        -1.951044     -1.692984     -1.503371
      4.33925      3.55208      4.12312         0.484591     -1.648882      2.010891
      8.60647      3.20511      4.92068        -0.587871     -1.572137      4.992737
     12.87368      2.85814      5.71825        -1.817436     -3.343156     -1.161079
      7.44268      5.28695      4.12312         0.524303     -1.018423      1.553467
     11.70990      4.93998      4.92068        -1.491559     -1.742775      3.871921
     -0.31589      4.59301      5.71825        -2.173080     -3.208903     -2.362341
     -5.74689      7.02182      4.12312         0.969202     -1.996038      5.803121
     -1.47968      6.67485      4.92068        -1.642914     -1.608731      3.307455
      2.78754      6.32788      5.71825         1.333812      1.209837     -9.583416
     -2.64346      8.75669      4.12312        -7.742257     -3.110975     10.581757
      1.62375      8.40972      4.92069        -1.838486     -2.034120      3.963108
      5.89097      8.06275      5.71825        -1.459265     -2.795301      0.480113
      0.45996     10.49156      4.12312         0.245835     -0.794459      1.571191
      4.72718     10.14459      4.92069        -0.936753     -1.917699      4.156499
     -7.29860      9.79762      5.71825        -2.325985     -2.995484      0.389491
     -3.22536     11.61923      4.52190         1.029925      2.992885      2.360665
      1.04186     11.27225      5.31946         2.038209      1.822667     -3.252125
      5.30908     10.92528      6.11703         0.087412     -9.101522    -11.979707
     10.74007      1.21001      4.52190         1.700597      2.813641      2.035845
     15.00729      0.86304      5.31946         0.847659      1.972053     -5.649105
      2.98150      0.51606      6.11703        -0.907627      1.223062     -2.757918
     -2.44950      2.94488      4.52190         1.400382      3.190380      1.114402
      1.81772      2.59791      5.31946         2.199786      2.138705     -2.267386
      6.08493      2.25093      6.11703         0.275942      1.641793     -2.527992
      0.65393      4.67975      4.52190         1.612244      2.226339      0.885795
      4.92114      4.33278      5.31946         1.506596      1.612899     -4.013981
      9.18836      3.98580      6.11703        -0.069862      0.988780     -2.180098
      3.75736      6.41462      4.52190         1.674009      2.072089      1.409550
      8.02457      6.06764      5.31946         1.046887      0.951318     -3.751783
     -4.00121      5.72067      6.11703        -8.467452     -1.328211    -10.922995
      6.86079      8.14949      4.52190         1.271019      2.844148      0.883951
     -5.16500      7.80251      5.31946         0.954934      2.162148     -3.681319
     -0.89778      7.45554      6.11703         0.105938      1.906218     -1.804401
     -6.32879      9.88436      4.52190         1.572416      2.392437     -0.151889
     -2.06157      9.53738      5.31946         1.032511      2.465245     -2.141218
      2.20565      9.19041      6.11703         0.458247      1.760385     -1.753726
 -----------------------------------------------------------------------------------
    total drift:                               -0.003661      0.025628      0.088379


--------------------------------------------------------------------------------------------------------



  FREE ENERGIE OF THE ION-ELECTRON SYSTEM (eV)
  ---------------------------------------------------
  free  energy   TOTEN  =      -792.38261530 eV

  energy  without entropy=     -792.38093062  energy(sigma->0) =     -792.38177296
 


--------------------------------------------------------------------------------------------------------


    POTLOK:  cpu time      0.7396: real time      0.7431


--------------------------------------------------------------------------------------------------------


     LOOP+:  cpu time   1076.7284: real time   1085.9470
    4ORBIT:  cpu time      0.0000: real time      0.0000

 total amount of memory used by VASP MPI-rank0   223501. kBytes
=======================================================================

   base      :      30000. kBytes
   nonlr-proj:       5230. kBytes
   fftplans  :      11850. kBytes
   grid      :       9673. kBytes
   one-center:         49. kBytes
   wavefun   :     166699. kBytes
 
  
  
 General timing and accounting informations for this job:
 ========================================================
  
                  Total CPU time used (sec):     1138.063
                            User time (sec):     1063.750
                          System time (sec):       74.313
                         Elapsed time (sec):     1148.613
  
                   Maximum memory used (kb):      463752.
                   Average memory used (kb):          N/A
  
                          Minor page faults:       122278
                          Major page faults:           33
                 Voluntary context switches:         1556
