 120 120   0   0
  0.2169524E+02  0.7680595E-09  0.1629300E-08  0.2080414E-08  0.5000000E-15
  1.000000000000000E-004
  CAR 
 Si and Ge interface calculation         
      7.88724160     -8.53326548  301      4.86869511      1.00000000
     -8.533  0.0000E+00  0.0000E+00  0.0000E+00  0.0000E+00
     -8.479  0.0000E+00  0.0000E+00  0.0000E+00  0.0000E+00
     -8.424  0.0000E+00  0.0000E+00  0.0000E+00  0.0000E+00
     -8.369  0.0000E+00  0.0000E+00  0.0000E+00  0.0000E+00
     -8.314  0.0000E+00  0.0000E+00  0.0000E+00  0.0000E+00
     -8.260  0.0000E+00  0.0000E+00  0.0000E+00  0.0000E+00
     -8.205  0.0000E+00  0.0000E+00  0.0000E+00  0.0000E+00
     -8.150  0.0000E+00  0.0000E+00  0.0000E+00  0.0000E+00
     -8.095  0.0000E+00  0.0000E+00  0.0000E+00  0.0000E+00
     -8.041  0.0000E+00  0.0000E+00  0.0000E+00  0.0000E+00
     -7.986  0.0000E+00  0.0000E+00  0.0000E+00  0.0000E+00
     -7.931  0.0000E+00  0.0000E+00  0.0000E+00  0.0000E+00
     -7.876  0.0000E+00  0.0000E+00  0.0000E+00  0.0000E+00
     -7.822  0.9589E-06  0.3988E-08  0.5248E-07  0.2183E-09
     -7.767  0.3883E+01  0.2936E+01  0.2126E+00  0.1607E+00
     -7.712  0.6840E+00  0.1632E+01  0.2500E+00  0.2500E+00
     -7.658  0.8970E+01  0.6809E+01  0.7410E+00  0.6227E+00
     -7.603  0.1129E+02  0.1301E+02  0.1359E+01  0.1335E+01
     -7.548  0.2866E+01  0.1304E+01  0.1516E+01  0.1406E+01
     -7.493  0.2282E+02  0.2458E+02  0.2764E+01  0.2752E+01
     -7.439  0.8915E+01  0.9092E+01  0.3252E+01  0.3250E+01
     -7.384  0.1760E+02  0.1378E+02  0.4216E+01  0.4004E+01
     -7.329  0.1793E+02  0.1999E+02  0.5197E+01  0.5098E+01
     -7.274  0.7852E+01  0.9383E+01  0.5627E+01  0.5612E+01
     -7.220  0.1895E+02  0.1738E+02  0.6664E+01  0.6563E+01
     -7.165  0.2656E+02  0.2760E+02  0.8118E+01  0.8074E+01
     -7.110  0.6609E+01  0.5610E+01  0.8480E+01  0.8381E+01
     -7.055  0.2106E+02  0.1952E+02  0.9633E+01  0.9450E+01
     -7.001  0.2034E+02  0.2347E+02  0.1075E+02  0.1073E+02
     -6.946  0.1082E+02  0.6377E+01  0.1134E+02  0.1108E+02
     -6.891  0.2862E+02  0.3038E+02  0.1290E+02  0.1275E+02
     -6.836  0.1181E+02  0.1328E+02  0.1355E+02  0.1347E+02
     -6.782  0.5206E+02  0.5034E+02  0.1640E+02  0.1623E+02
     -6.727  0.1114E+02  0.1382E+02  0.1701E+02  0.1698E+02
     -6.672  0.2188E+02  0.1876E+02  0.1821E+02  0.1801E+02
     -6.618  0.7192E+01  0.8121E+01  0.1860E+02  0.1846E+02
     -6.563  0.3161E+02  0.3230E+02  0.2033E+02  0.2022E+02
     -6.508  0.2457E+02  0.2424E+02  0.2168E+02  0.2155E+02
     -6.453  0.4862E+02  0.4456E+02  0.2434E+02  0.2399E+02
     -6.399  0.3977E+02  0.4212E+02  0.2651E+02  0.2629E+02
     -6.344  0.3290E+02  0.3129E+02  0.2832E+02  0.2801E+02
     -6.289  0.3331E+02  0.3707E+02  0.3014E+02  0.3004E+02
     -6.234  0.1317E+02  0.1471E+02  0.3086E+02  0.3084E+02
     -6.180  0.2161E+02  0.1676E+02  0.3204E+02  0.3176E+02
     -6.125  0.5125E+02  0.5060E+02  0.3485E+02  0.3453E+02
     -6.070  0.3411E+02  0.3687E+02  0.3671E+02  0.3655E+02
     -6.015  0.2363E+02  0.2413E+02  0.3801E+02  0.3787E+02
     -5.961  0.3530E+02  0.3402E+02  0.3994E+02  0.3973E+02
     -5.906  0.2386E+02  0.2582E+02  0.4125E+02  0.4114E+02
     -5.851  0.3238E+02  0.3068E+02  0.4302E+02  0.4282E+02
     -5.797  0.3617E+02  0.3380E+02  0.4500E+02  0.4467E+02
     -5.742  0.4713E+02  0.4670E+02  0.4758E+02  0.4723E+02
     -5.687  0.4578E+02  0.4809E+02  0.5008E+02  0.4986E+02
     -5.632  0.4301E+02  0.4319E+02  0.5244E+02  0.5222E+02
     -5.578  0.2304E+02  0.2353E+02  0.5370E+02  0.5351E+02
     -5.523  0.3859E+02  0.3846E+02  0.5581E+02  0.5562E+02
     -5.468  0.4398E+02  0.4110E+02  0.5822E+02  0.5787E+02
     -5.413  0.5173E+02  0.5337E+02  0.6105E+02  0.6079E+02
     -5.359  0.3616E+02  0.3945E+02  0.6303E+02  0.6295E+02
     -5.304  0.4732E+02  0.4612E+02  0.6562E+02  0.6547E+02
     -5.249  0.2851E+02  0.2625E+02  0.6718E+02  0.6691E+02
     -5.194  0.5250E+02  0.5361E+02  0.7005E+02  0.6984E+02
     -5.140  0.3781E+02  0.3835E+02  0.7212E+02  0.7194E+02
     -5.085  0.5234E+02  0.4841E+02  0.7499E+02  0.7459E+02
     -5.030  0.4770E+02  0.5257E+02  0.7760E+02  0.7747E+02
     -4.975  0.5422E+02  0.5425E+02  0.8057E+02  0.8044E+02
     -4.921  0.1570E+02  0.1533E+02  0.8142E+02  0.8128E+02
     -4.866  0.3668E+02  0.3316E+02  0.8343E+02  0.8309E+02
     -4.811  0.3503E+02  0.3874E+02  0.8535E+02  0.8521E+02
     -4.757  0.2627E+02  0.2624E+02  0.8679E+02  0.8665E+02
     -4.702  0.3155E+02  0.2879E+02  0.8851E+02  0.8823E+02
     -4.647  0.3788E+02  0.3852E+02  0.9059E+02  0.9033E+02
     -4.592  0.3131E+02  0.3119E+02  0.9230E+02  0.9204E+02
     -4.538  0.4246E+02  0.4469E+02  0.9463E+02  0.9449E+02
     -4.483  0.3809E+02  0.3631E+02  0.9671E+02  0.9647E+02
     -4.428  0.3582E+02  0.3594E+02  0.9867E+02  0.9844E+02
     -4.373  0.4414E+02  0.4387E+02  0.1011E+03  0.1008E+03
     -4.319  0.3938E+02  0.4059E+02  0.1032E+03  0.1031E+03
     -4.264  0.2801E+02  0.2792E+02  0.1048E+03  0.1046E+03
     -4.209  0.2395E+02  0.2371E+02  0.1061E+03  0.1059E+03
     -4.154  0.3201E+02  0.3412E+02  0.1078E+03  0.1078E+03
     -4.100  0.1858E+02  0.1723E+02  0.1089E+03  0.1087E+03
     -4.045  0.2089E+02  0.2369E+02  0.1100E+03  0.1100E+03
     -3.990  0.1913E+02  0.1835E+02  0.1110E+03  0.1110E+03
     -3.936  0.1125E+02  0.8614E+01  0.1117E+03  0.1115E+03
     -3.881  0.3189E+02  0.3125E+02  0.1134E+03  0.1132E+03
     -3.826  0.1536E+02  0.1882E+02  0.1142E+03  0.1142E+03
     -3.771  0.1572E+02  0.1199E+02  0.1151E+03  0.1149E+03
     -3.717  0.1735E+02  0.2057E+02  0.1161E+03  0.1160E+03
     -3.662  0.1741E+02  0.1842E+02  0.1170E+03  0.1170E+03
     -3.607  0.7204E+01  0.6928E+01  0.1174E+03  0.1174E+03
     -3.552  0.2843E+02  0.2636E+02  0.1190E+03  0.1188E+03
     -3.498  0.2122E+02  0.2189E+02  0.1201E+03  0.1200E+03
     -3.443  0.9645E+01  0.1087E+02  0.1207E+03  0.1206E+03
     -3.388  0.1995E+02  0.1427E+02  0.1217E+03  0.1214E+03
     -3.333  0.1096E+02  0.1299E+02  0.1223E+03  0.1221E+03
     -3.279  0.2387E+02  0.2698E+02  0.1237E+03  0.1236E+03
     -3.224  0.2133E+02  0.1935E+02  0.1248E+03  0.1247E+03
     -3.169  0.2302E+02  0.2206E+02  0.1261E+03  0.1259E+03
     -3.114  0.2279E+02  0.2226E+02  0.1273E+03  0.1271E+03
     -3.060  0.4258E+02  0.4482E+02  0.1297E+03  0.1295E+03
     -3.005  0.2137E+02  0.2116E+02  0.1308E+03  0.1307E+03
     -2.950  0.2635E+02  0.2538E+02  0.1323E+03  0.1321E+03
     -2.896  0.3028E+02  0.2926E+02  0.1339E+03  0.1337E+03
     -2.841  0.2417E+02  0.2588E+02  0.1352E+03  0.1351E+03
     -2.786  0.3650E+02  0.3180E+02  0.1372E+03  0.1368E+03
     -2.731  0.3674E+02  0.4029E+02  0.1393E+03  0.1390E+03
     -2.677  0.2772E+02  0.2934E+02  0.1408E+03  0.1406E+03
     -2.622  0.3381E+02  0.2948E+02  0.1426E+03  0.1423E+03
     -2.567  0.3628E+02  0.3893E+02  0.1446E+03  0.1444E+03
     -2.512  0.4454E+02  0.4346E+02  0.1470E+03  0.1468E+03
     -2.458  0.5728E+02  0.5532E+02  0.1502E+03  0.1498E+03
     -2.403  0.6064E+02  0.5996E+02  0.1535E+03  0.1531E+03
     -2.348  0.5809E+02  0.5945E+02  0.1567E+03  0.1563E+03
     -2.293  0.6231E+02  0.5983E+02  0.1601E+03  0.1596E+03
     -2.239  0.4472E+02  0.4953E+02  0.1625E+03  0.1623E+03
     -2.184  0.5719E+02  0.5542E+02  0.1657E+03  0.1654E+03
     -2.129  0.4935E+02  0.4856E+02  0.1684E+03  0.1680E+03
     -2.075  0.4217E+02  0.4282E+02  0.1707E+03  0.1704E+03
     -2.020  0.3608E+02  0.3394E+02  0.1727E+03  0.1722E+03
     -1.965  0.4196E+02  0.4518E+02  0.1750E+03  0.1747E+03
     -1.910  0.4108E+02  0.3924E+02  0.1772E+03  0.1768E+03
     -1.856  0.3140E+02  0.3385E+02  0.1789E+03  0.1787E+03
     -1.801  0.3591E+02  0.3631E+02  0.1809E+03  0.1807E+03
     -1.746  0.3643E+02  0.3580E+02  0.1829E+03  0.1826E+03
     -1.691  0.2668E+02  0.2934E+02  0.1843E+03  0.1842E+03
     -1.637  0.1914E+02  0.1752E+02  0.1854E+03  0.1852E+03
     -1.582  0.4024E+02  0.4090E+02  0.1876E+03  0.1874E+03
     -1.527  0.3810E+02  0.3675E+02  0.1897E+03  0.1894E+03
     -1.472  0.2828E+02  0.2497E+02  0.1912E+03  0.1908E+03
     -1.418  0.3844E+02  0.3968E+02  0.1933E+03  0.1930E+03
     -1.363  0.2863E+02  0.3053E+02  0.1949E+03  0.1947E+03
     -1.308  0.3116E+02  0.3122E+02  0.1966E+03  0.1964E+03
     -1.254  0.2795E+02  0.3137E+02  0.1981E+03  0.1981E+03
     -1.199  0.8595E+01  0.8282E+01  0.1986E+03  0.1985E+03
     -1.144  0.2008E+02  0.1969E+02  0.1997E+03  0.1996E+03
     -1.089  0.1813E+02  0.1277E+02  0.2007E+03  0.2003E+03
     -1.035  0.2762E+02  0.3039E+02  0.2022E+03  0.2020E+03
     -0.980  0.2264E+02  0.2416E+02  0.2034E+03  0.2033E+03
     -0.925  0.2210E+02  0.2318E+02  0.2047E+03  0.2046E+03
     -0.870  0.2467E+02  0.2502E+02  0.2060E+03  0.2059E+03
     -0.816  0.1183E+02  0.1265E+02  0.2066E+03  0.2066E+03
     -0.761  0.1757E+02  0.1372E+02  0.2076E+03  0.2074E+03
     -0.706  0.1678E+02  0.1969E+02  0.2085E+03  0.2085E+03
     -0.651  0.1637E+02  0.1688E+02  0.2094E+03  0.2094E+03
     -0.597  0.2566E+02  0.2555E+02  0.2108E+03  0.2108E+03
     -0.542  0.2680E+02  0.2299E+02  0.2123E+03  0.2120E+03
     -0.487  0.3810E+02  0.3533E+02  0.2144E+03  0.2140E+03
     -0.432  0.2741E+02  0.3227E+02  0.2159E+03  0.2157E+03
     -0.378  0.2968E+02  0.2938E+02  0.2175E+03  0.2173E+03
     -0.323  0.1189E+02  0.1207E+02  0.2182E+03  0.2180E+03
     -0.268  0.1370E+02  0.1450E+02  0.2189E+03  0.2188E+03
     -0.214  0.1468E+02  0.1135E+02  0.2197E+03  0.2194E+03
     -0.159  0.1995E+02  0.2308E+02  0.2208E+03  0.2207E+03
     -0.104  0.1054E+02  0.1088E+02  0.2214E+03  0.2213E+03
     -0.049  0.1554E+02  0.1574E+02  0.2222E+03  0.2221E+03
      0.005  0.1565E+02  0.1324E+02  0.2231E+03  0.2229E+03
      0.060  0.1786E+02  0.1860E+02  0.2241E+03  0.2239E+03
      0.115  0.1230E+02  0.1425E+02  0.2247E+03  0.2247E+03
      0.170  0.1795E+02  0.1766E+02  0.2257E+03  0.2256E+03
      0.224  0.4563E+02  0.4161E+02  0.2282E+03  0.2279E+03
      0.279  0.4608E+02  0.4355E+02  0.2307E+03  0.2303E+03
      0.334  0.6298E+02  0.6520E+02  0.2342E+03  0.2339E+03
      0.389  0.3091E+02  0.3328E+02  0.2359E+03  0.2357E+03
      0.443  0.3331E+02  0.3320E+02  0.2377E+03  0.2375E+03
      0.498  0.5850E+02  0.5349E+02  0.2409E+03  0.2404E+03
      0.553  0.4954E+02  0.4868E+02  0.2436E+03  0.2431E+03
      0.607  0.6749E+02  0.7299E+02  0.2473E+03  0.2471E+03
      0.662  0.4370E+02  0.3979E+02  0.2497E+03  0.2493E+03
      0.717  0.5375E+02  0.5867E+02  0.2526E+03  0.2525E+03
      0.772  0.5969E+02  0.5506E+02  0.2559E+03  0.2555E+03
      0.826  0.8381E+02  0.8189E+02  0.2605E+03  0.2600E+03
      0.881  0.7706E+02  0.8165E+02  0.2647E+03  0.2644E+03
      0.936  0.7129E+02  0.6643E+02  0.2686E+03  0.2681E+03
      0.991  0.4604E+02  0.5073E+02  0.2711E+03  0.2709E+03
      1.045  0.4233E+02  0.4321E+02  0.2735E+03  0.2732E+03
      1.100  0.7120E+02  0.6448E+02  0.2774E+03  0.2768E+03
      1.155  0.7778E+02  0.7971E+02  0.2816E+03  0.2811E+03
      1.210  0.6015E+02  0.6239E+02  0.2849E+03  0.2845E+03
      1.264  0.8844E+02  0.8232E+02  0.2897E+03  0.2890E+03
      1.319  0.7186E+02  0.6995E+02  0.2937E+03  0.2929E+03
      1.374  0.8154E+02  0.8742E+02  0.2981E+03  0.2976E+03
      1.429  0.5376E+02  0.5819E+02  0.3011E+03  0.3008E+03
      1.483  0.7063E+02  0.6057E+02  0.3049E+03  0.3041E+03
      1.538  0.8966E+02  0.9648E+02  0.3099E+03  0.3094E+03
      1.593  0.3707E+02  0.3981E+02  0.3119E+03  0.3116E+03
      1.647  0.8293E+02  0.7944E+02  0.3164E+03  0.3160E+03
      1.702  0.7937E+02  0.7690E+02  0.3208E+03  0.3202E+03
      1.757  0.7468E+02  0.7812E+02  0.3249E+03  0.3244E+03
      1.812  0.8202E+02  0.8340E+02  0.3293E+03  0.3290E+03
      1.866  0.1008E+03  0.9772E+02  0.3349E+03  0.3344E+03
      1.921  0.7945E+02  0.7946E+02  0.3392E+03  0.3387E+03
      1.976  0.7066E+02  0.7162E+02  0.3431E+03  0.3426E+03
      2.031  0.7285E+02  0.7297E+02  0.3471E+03  0.3466E+03
      2.085  0.6256E+02  0.6562E+02  0.3505E+03  0.3502E+03
      2.140  0.5933E+02  0.5507E+02  0.3537E+03  0.3532E+03
      2.195  0.7348E+02  0.7262E+02  0.3578E+03  0.3572E+03
      2.250  0.5808E+02  0.5925E+02  0.3609E+03  0.3604E+03
      2.304  0.1054E+03  0.1035E+03  0.3667E+03  0.3661E+03
      2.359  0.4851E+02  0.5331E+02  0.3694E+03  0.3690E+03
      2.414  0.6892E+02  0.7087E+02  0.3731E+03  0.3729E+03
      2.468  0.6089E+02  0.5894E+02  0.3765E+03  0.3761E+03
      2.523  0.9112E+02  0.8158E+02  0.3815E+03  0.3806E+03
      2.578  0.7146E+02  0.7744E+02  0.3854E+03  0.3848E+03
      2.633  0.6687E+02  0.7116E+02  0.3890E+03  0.3887E+03
      2.687  0.6938E+02  0.6466E+02  0.3928E+03  0.3923E+03
      2.742  0.6520E+02  0.6624E+02  0.3964E+03  0.3959E+03
      2.797  0.3903E+02  0.4216E+02  0.3985E+03  0.3982E+03
      2.852  0.6511E+02  0.6667E+02  0.4021E+03  0.4019E+03
      2.906  0.4350E+02  0.4266E+02  0.4045E+03  0.4042E+03
      2.961  0.6584E+02  0.6270E+02  0.4081E+03  0.4076E+03
      3.016  0.7453E+02  0.7279E+02  0.4122E+03  0.4116E+03
      3.071  0.6429E+02  0.6360E+02  0.4157E+03  0.4151E+03
      3.125  0.6850E+02  0.7052E+02  0.4194E+03  0.4189E+03
      3.180  0.7168E+02  0.7153E+02  0.4233E+03  0.4229E+03
      3.235  0.5897E+02  0.5686E+02  0.4266E+03  0.4260E+03
      3.289  0.6142E+02  0.6444E+02  0.4299E+03  0.4295E+03
      3.344  0.7370E+02  0.7639E+02  0.4340E+03  0.4337E+03
      3.399  0.7002E+02  0.6936E+02  0.4378E+03  0.4375E+03
      3.454  0.5509E+02  0.4737E+02  0.4408E+03  0.4401E+03
      3.508  0.5722E+02  0.6114E+02  0.4440E+03  0.4434E+03
      3.563  0.5145E+02  0.5411E+02  0.4468E+03  0.4464E+03
      3.618  0.3983E+02  0.3528E+02  0.4489E+03  0.4483E+03
      3.673  0.4753E+02  0.5151E+02  0.4516E+03  0.4511E+03
      3.727  0.4058E+02  0.3838E+02  0.4538E+03  0.4532E+03
      3.782  0.3676E+02  0.4194E+02  0.4558E+03  0.4555E+03
      3.837  0.4203E+02  0.4255E+02  0.4581E+03  0.4579E+03
      3.892  0.2508E+02  0.2643E+02  0.4595E+03  0.4593E+03
      3.946  0.2833E+02  0.2763E+02  0.4610E+03  0.4608E+03
      4.001  0.3110E+02  0.2682E+02  0.4627E+03  0.4623E+03
      4.056  0.4106E+02  0.4192E+02  0.4650E+03  0.4646E+03
      4.111  0.2928E+02  0.3112E+02  0.4666E+03  0.4663E+03
      4.165  0.2177E+02  0.2215E+02  0.4678E+03  0.4675E+03
      4.220  0.1808E+02  0.1379E+02  0.4687E+03  0.4682E+03
      4.275  0.3671E+02  0.2815E+02  0.4708E+03  0.4698E+03
      4.329  0.1584E+02  0.2951E+02  0.4716E+03  0.4714E+03
      4.384  0.1949E+02  0.2057E+02  0.4727E+03  0.4725E+03
      4.439  0.7781E+01  0.6344E+01  0.4731E+03  0.4729E+03
      4.494  0.1993E+02  0.8471E+01  0.4742E+03  0.4733E+03
      4.548  0.1753E+02  0.2075E+02  0.4752E+03  0.4745E+03
      4.603  0.1192E+02  0.1474E+02  0.4758E+03  0.4753E+03
      4.658  0.1220E+02  0.1035E+02  0.4765E+03  0.4758E+03
      4.713  0.1369E+02  0.1164E+02  0.4772E+03  0.4765E+03
      4.767  0.1197E+02  0.1302E+02  0.4779E+03  0.4772E+03
      4.822  0.1818E+02  0.1234E+02  0.4789E+03  0.4779E+03
      4.877  0.3964E+02  0.2784E+02  0.4811E+03  0.4794E+03
      4.932  0.1785E+02  0.3659E+02  0.4820E+03  0.4814E+03
      4.986  0.2575E+02  0.1949E+02  0.4834E+03  0.4825E+03
      5.041  0.2733E+02  0.2493E+02  0.4849E+03  0.4838E+03
      5.096  0.3667E+02  0.3095E+02  0.4869E+03  0.4855E+03
      5.150  0.3708E+02  0.3464E+02  0.4890E+03  0.4874E+03
      5.205  0.3744E+02  0.3566E+02  0.4910E+03  0.4894E+03
      5.260  0.3642E+02  0.4343E+02  0.4930E+03  0.4917E+03
      5.315  0.1937E+02  0.3535E+02  0.4941E+03  0.4937E+03
      5.369  0.4137E+02  0.3025E+02  0.4963E+03  0.4953E+03
      5.424  0.3573E+02  0.4694E+02  0.4983E+03  0.4979E+03
      5.479  0.3293E+02  0.2761E+02  0.5001E+03  0.4994E+03
      5.534  0.4096E+02  0.4368E+02  0.5023E+03  0.5018E+03
      5.588  0.2639E+02  0.2936E+02  0.5038E+03  0.5034E+03
      5.643  0.5454E+02  0.5375E+02  0.5068E+03  0.5064E+03
      5.698  0.3908E+02  0.3791E+02  0.5089E+03  0.5084E+03
      5.753  0.4073E+02  0.4253E+02  0.5111E+03  0.5108E+03
      5.807  0.6300E+02  0.5832E+02  0.5146E+03  0.5140E+03
      5.862  0.5312E+02  0.5513E+02  0.5175E+03  0.5170E+03
      5.917  0.3908E+02  0.4032E+02  0.5196E+03  0.5192E+03
      5.972  0.7576E+02  0.5807E+02  0.5238E+03  0.5224E+03
      6.026  0.5542E+02  0.6115E+02  0.5268E+03  0.5257E+03
      6.081  0.4042E+02  0.5734E+02  0.5290E+03  0.5288E+03
      6.136  0.4497E+02  0.4215E+02  0.5315E+03  0.5312E+03
      6.190  0.3916E+02  0.3935E+02  0.5336E+03  0.5333E+03
      6.245  0.5589E+02  0.5081E+02  0.5367E+03  0.5361E+03
      6.300  0.4911E+02  0.5096E+02  0.5394E+03  0.5389E+03
      6.355  0.5308E+02  0.5451E+02  0.5423E+03  0.5419E+03
      6.409  0.5390E+02  0.5425E+02  0.5452E+03  0.5448E+03
      6.464  0.6123E+02  0.6099E+02  0.5486E+03  0.5482E+03
      6.519  0.4125E+02  0.4406E+02  0.5508E+03  0.5506E+03
      6.574  0.7050E+02  0.6476E+02  0.5547E+03  0.5541E+03
      6.628  0.6592E+02  0.6909E+02  0.5583E+03  0.5579E+03
      6.683  0.5457E+02  0.5524E+02  0.5613E+03  0.5609E+03
      6.738  0.4125E+02  0.3994E+02  0.5636E+03  0.5631E+03
      6.793  0.4446E+02  0.4779E+02  0.5660E+03  0.5657E+03
      6.847  0.4176E+02  0.3640E+02  0.5683E+03  0.5677E+03
      6.902  0.4913E+02  0.5285E+02  0.5710E+03  0.5706E+03
      6.957  0.3415E+02  0.3458E+02  0.5728E+03  0.5725E+03
      7.011  0.2044E+02  0.2661E+02  0.5739E+03  0.5740E+03
      7.066  0.1354E+02  0.1084E+02  0.5747E+03  0.5746E+03
      7.121  0.2041E+02  0.2025E+02  0.5758E+03  0.5757E+03
      7.176  0.3516E+01  0.6106E+01  0.5760E+03  0.5760E+03
      7.230  0.0000E+00  0.0000E+00  0.5760E+03  0.5760E+03
      7.285  0.0000E+00  0.0000E+00  0.5760E+03  0.5760E+03
      7.340  0.0000E+00  0.0000E+00  0.5760E+03  0.5760E+03
      7.395  0.0000E+00  0.0000E+00  0.5760E+03  0.5760E+03
      7.449  0.0000E+00  0.0000E+00  0.5760E+03  0.5760E+03
      7.504  0.0000E+00  0.0000E+00  0.5760E+03  0.5760E+03
      7.559  0.0000E+00  0.0000E+00  0.5760E+03  0.5760E+03
      7.614  0.0000E+00  0.0000E+00  0.5760E+03  0.5760E+03
      7.668  0.0000E+00  0.0000E+00  0.5760E+03  0.5760E+03
      7.723  0.0000E+00  0.0000E+00  0.5760E+03  0.5760E+03
      7.778  0.0000E+00  0.0000E+00  0.5760E+03  0.5760E+03
      7.833  0.0000E+00  0.0000E+00  0.5760E+03  0.5760E+03
      7.887  0.0000E+00  0.0000E+00  0.5760E+03  0.5760E+03
