 120 120   0   0
  0.2169524E+02  0.7680595E-09  0.1629300E-08  0.2080414E-08  0.5000000E-15
  1.000000000000000E-004
  CAR 
 Si and Ge interface calculation         
      7.90481486     -8.53624913  301      4.85926879      1.00000000
     -8.536  0.0000E+00  0.0000E+00  0.0000E+00  0.0000E+00
     -8.481  0.0000E+00  0.0000E+00  0.0000E+00  0.0000E+00
     -8.427  0.0000E+00  0.0000E+00  0.0000E+00  0.0000E+00
     -8.372  0.0000E+00  0.0000E+00  0.0000E+00  0.0000E+00
     -8.317  0.0000E+00  0.0000E+00  0.0000E+00  0.0000E+00
     -8.262  0.0000E+00  0.0000E+00  0.0000E+00  0.0000E+00
     -8.207  0.0000E+00  0.0000E+00  0.0000E+00  0.0000E+00
     -8.153  0.0000E+00  0.0000E+00  0.0000E+00  0.0000E+00
     -8.098  0.0000E+00  0.0000E+00  0.0000E+00  0.0000E+00
     -8.043  0.0000E+00  0.0000E+00  0.0000E+00  0.0000E+00
     -7.988  0.0000E+00  0.0000E+00  0.0000E+00  0.0000E+00
     -7.933  0.0000E+00  0.0000E+00  0.0000E+00  0.0000E+00
     -7.879  0.0000E+00  0.0000E+00  0.0000E+00  0.0000E+00
     -7.824  0.9279E-06  0.2805E-08  0.5085E-07  0.1537E-09
     -7.769  0.4108E+01  0.3155E+01  0.2251E+00  0.1729E+00
     -7.714  0.4539E+00  0.1407E+01  0.2500E+00  0.2500E+00
     -7.659  0.9584E+01  0.7619E+01  0.7753E+00  0.6676E+00
     -7.605  0.8662E+01  0.1063E+02  0.1250E+01  0.1250E+01
     -7.550  0.5807E+01  0.3025E+01  0.1568E+01  0.1416E+01
     -7.495  0.1472E+02  0.1750E+02  0.2375E+01  0.2375E+01
     -7.440  0.7910E+01  0.7133E+01  0.2809E+01  0.2766E+01
     -7.385  0.1027E+02  0.1013E+02  0.3372E+01  0.3321E+01
     -7.331  0.1506E+02  0.1169E+02  0.4197E+01  0.3962E+01
     -7.276  0.2087E+02  0.1857E+02  0.5341E+01  0.4980E+01
     -7.221  0.2538E+02  0.2977E+02  0.6732E+01  0.6611E+01
     -7.166  0.1674E+02  0.1764E+02  0.7649E+01  0.7578E+01
     -7.111  0.2729E+02  0.2718E+02  0.9144E+01  0.9067E+01
     -7.057  0.1294E+02  0.1311E+02  0.9854E+01  0.9785E+01
     -7.002  0.2947E+02  0.2463E+02  0.1147E+02  0.1114E+02
     -6.947  0.2094E+02  0.2539E+02  0.1262E+02  0.1253E+02
     -6.892  0.3972E+02  0.3633E+02  0.1479E+02  0.1452E+02
     -6.837  0.1753E+02  0.1817E+02  0.1575E+02  0.1551E+02
     -6.783  0.1814E+02  0.2210E+02  0.1675E+02  0.1672E+02
     -6.728  0.1646E+02  0.1595E+02  0.1765E+02  0.1760E+02
     -6.673  0.2122E+02  0.2065E+02  0.1881E+02  0.1873E+02
     -6.618  0.2615E+02  0.2447E+02  0.2025E+02  0.2007E+02
     -6.563  0.2289E+02  0.2462E+02  0.2150E+02  0.2142E+02
     -6.509  0.2844E+02  0.2640E+02  0.2306E+02  0.2287E+02
     -6.454  0.3563E+02  0.3754E+02  0.2501E+02  0.2492E+02
     -6.399  0.2710E+02  0.2843E+02  0.2650E+02  0.2648E+02
     -6.344  0.2335E+02  0.2117E+02  0.2778E+02  0.2764E+02
     -6.289  0.1481E+02  0.1609E+02  0.2859E+02  0.2852E+02
     -6.235  0.4690E+02  0.4342E+02  0.3116E+02  0.3090E+02
     -6.180  0.9791E+01  0.1175E+02  0.3170E+02  0.3155E+02
     -6.125  0.4234E+02  0.4079E+02  0.3402E+02  0.3378E+02
     -6.070  0.4264E+02  0.4226E+02  0.3635E+02  0.3610E+02
     -6.015  0.3057E+02  0.2882E+02  0.3803E+02  0.3768E+02
     -5.960  0.2814E+02  0.3210E+02  0.3957E+02  0.3944E+02
     -5.906  0.2706E+02  0.2846E+02  0.4105E+02  0.4100E+02
     -5.851  0.3829E+02  0.3336E+02  0.4315E+02  0.4283E+02
     -5.796  0.3612E+02  0.3773E+02  0.4513E+02  0.4489E+02
     -5.741  0.4738E+02  0.4906E+02  0.4773E+02  0.4758E+02
     -5.686  0.3788E+02  0.3755E+02  0.4980E+02  0.4964E+02
     -5.632  0.4276E+02  0.4137E+02  0.5215E+02  0.5191E+02
     -5.577  0.2922E+02  0.2951E+02  0.5375E+02  0.5352E+02
     -5.522  0.3018E+02  0.3046E+02  0.5540E+02  0.5519E+02
     -5.467  0.5283E+02  0.5078E+02  0.5830E+02  0.5798E+02
     -5.412  0.5386E+02  0.5593E+02  0.6125E+02  0.6104E+02
     -5.358  0.4060E+02  0.4055E+02  0.6348E+02  0.6326E+02
     -5.303  0.4453E+02  0.4503E+02  0.6592E+02  0.6573E+02
     -5.248  0.3661E+02  0.3804E+02  0.6792E+02  0.6782E+02
     -5.193  0.3947E+02  0.3723E+02  0.7009E+02  0.6986E+02
     -5.138  0.4458E+02  0.4415E+02  0.7253E+02  0.7228E+02
     -5.084  0.4368E+02  0.4264E+02  0.7492E+02  0.7461E+02
     -5.029  0.4039E+02  0.4045E+02  0.7714E+02  0.7683E+02
     -4.974  0.5636E+02  0.5740E+02  0.8022E+02  0.7998E+02
     -4.919  0.2791E+02  0.2910E+02  0.8175E+02  0.8157E+02
     -4.864  0.2955E+02  0.2814E+02  0.8337E+02  0.8311E+02
     -4.810  0.3256E+02  0.3577E+02  0.8516E+02  0.8507E+02
     -4.755  0.3795E+02  0.3235E+02  0.8724E+02  0.8685E+02
     -4.700  0.2788E+02  0.3077E+02  0.8877E+02  0.8853E+02
     -4.645  0.3520E+02  0.3284E+02  0.9070E+02  0.9033E+02
     -4.590  0.2471E+02  0.2867E+02  0.9205E+02  0.9190E+02
     -4.536  0.3865E+02  0.3533E+02  0.9417E+02  0.9384E+02
     -4.481  0.4662E+02  0.4850E+02  0.9672E+02  0.9650E+02
     -4.426  0.4563E+02  0.4700E+02  0.9922E+02  0.9907E+02
     -4.371  0.3762E+02  0.3818E+02  0.1013E+03  0.1012E+03
     -4.316  0.3602E+02  0.3430E+02  0.1033E+03  0.1030E+03
     -4.262  0.2722E+02  0.2739E+02  0.1048E+03  0.1045E+03
     -4.207  0.2785E+02  0.2731E+02  0.1063E+03  0.1060E+03
     -4.152  0.2471E+02  0.2542E+02  0.1076E+03  0.1074E+03
     -4.097  0.2241E+02  0.2260E+02  0.1089E+03  0.1087E+03
     -4.042  0.2622E+02  0.2866E+02  0.1103E+03  0.1102E+03
     -3.988  0.1406E+02  0.1414E+02  0.1111E+03  0.1110E+03
     -3.933  0.4643E+01  0.4593E+01  0.1113E+03  0.1113E+03
     -3.878  0.2332E+02  0.2022E+02  0.1126E+03  0.1124E+03
     -3.823  0.2974E+02  0.3183E+02  0.1142E+03  0.1141E+03
     -3.768  0.2649E+01  0.4557E+01  0.1144E+03  0.1144E+03
     -3.714  0.2044E+02  0.1668E+02  0.1155E+03  0.1153E+03
     -3.659  0.2722E+02  0.2906E+02  0.1170E+03  0.1169E+03
     -3.604  0.1570E+02  0.1579E+02  0.1178E+03  0.1177E+03
     -3.549  0.1326E+02  0.1207E+02  0.1186E+03  0.1184E+03
     -3.494  0.2254E+02  0.2179E+02  0.1198E+03  0.1196E+03
     -3.440  0.1468E+02  0.1767E+02  0.1206E+03  0.1206E+03
     -3.385  0.1278E+02  0.1001E+02  0.1213E+03  0.1211E+03
     -3.330  0.2063E+02  0.2100E+02  0.1224E+03  0.1223E+03
     -3.275  0.2837E+02  0.2736E+02  0.1240E+03  0.1238E+03
     -3.220  0.1813E+02  0.2141E+02  0.1250E+03  0.1249E+03
     -3.166  0.2432E+02  0.2079E+02  0.1263E+03  0.1261E+03
     -3.111  0.2780E+02  0.2417E+02  0.1279E+03  0.1274E+03
     -3.056  0.3902E+02  0.4176E+02  0.1300E+03  0.1297E+03
     -3.001  0.1906E+02  0.2138E+02  0.1310E+03  0.1309E+03
     -2.946  0.2014E+02  0.2071E+02  0.1321E+03  0.1320E+03
     -2.891  0.3255E+02  0.3112E+02  0.1339E+03  0.1337E+03
     -2.837  0.2534E+02  0.2765E+02  0.1353E+03  0.1352E+03
     -2.782  0.2862E+02  0.2649E+02  0.1369E+03  0.1367E+03
     -2.727  0.4414E+02  0.4060E+02  0.1393E+03  0.1389E+03
     -2.672  0.2191E+02  0.2521E+02  0.1405E+03  0.1403E+03
     -2.617  0.3330E+02  0.2963E+02  0.1423E+03  0.1419E+03
     -2.563  0.3407E+02  0.3839E+02  0.1442E+03  0.1440E+03
     -2.508  0.4482E+02  0.4322E+02  0.1466E+03  0.1464E+03
     -2.453  0.5850E+02  0.5280E+02  0.1499E+03  0.1493E+03
     -2.398  0.5754E+02  0.6043E+02  0.1530E+03  0.1526E+03
     -2.343  0.4964E+02  0.5198E+02  0.1557E+03  0.1554E+03
     -2.289  0.8710E+02  0.8610E+02  0.1605E+03  0.1601E+03
     -2.234  0.4059E+02  0.4034E+02  0.1627E+03  0.1624E+03
     -2.179  0.5939E+02  0.5906E+02  0.1660E+03  0.1656E+03
     -2.124  0.5184E+02  0.5144E+02  0.1688E+03  0.1684E+03
     -2.069  0.3658E+02  0.3974E+02  0.1708E+03  0.1706E+03
     -2.015  0.3153E+02  0.3114E+02  0.1726E+03  0.1723E+03
     -1.960  0.4482E+02  0.4621E+02  0.1750E+03  0.1748E+03
     -1.905  0.4014E+02  0.3798E+02  0.1772E+03  0.1769E+03
     -1.850  0.4048E+02  0.3932E+02  0.1794E+03  0.1791E+03
     -1.795  0.3518E+02  0.4008E+02  0.1814E+03  0.1813E+03
     -1.741  0.2690E+02  0.2283E+02  0.1828E+03  0.1825E+03
     -1.686  0.3082E+02  0.3218E+02  0.1845E+03  0.1843E+03
     -1.631  0.2202E+02  0.2199E+02  0.1857E+03  0.1855E+03
     -1.576  0.3414E+02  0.3487E+02  0.1876E+03  0.1874E+03
     -1.521  0.4362E+02  0.4332E+02  0.1900E+03  0.1898E+03
     -1.467  0.3170E+02  0.2795E+02  0.1917E+03  0.1913E+03
     -1.412  0.3556E+02  0.3909E+02  0.1937E+03  0.1934E+03
     -1.357  0.3707E+02  0.3674E+02  0.1957E+03  0.1955E+03
     -1.302  0.3001E+02  0.2984E+02  0.1974E+03  0.1971E+03
     -1.247  0.1409E+02  0.1852E+02  0.1981E+03  0.1981E+03
     -1.193  0.7909E+01  0.7433E+01  0.1986E+03  0.1985E+03
     -1.138  0.2181E+02  0.1980E+02  0.1998E+03  0.1996E+03
     -1.083  0.2618E+02  0.2463E+02  0.2012E+03  0.2010E+03
     -1.028  0.2197E+02  0.2323E+02  0.2024E+03  0.2022E+03
     -0.973  0.2680E+02  0.2317E+02  0.2039E+03  0.2035E+03
     -0.919  0.2038E+02  0.2105E+02  0.2050E+03  0.2046E+03
     -0.864  0.2311E+02  0.2647E+02  0.2062E+03  0.2061E+03
     -0.809  0.9309E+01  0.1190E+02  0.2068E+03  0.2068E+03
     -0.754  0.1998E+02  0.1658E+02  0.2078E+03  0.2077E+03
     -0.699  0.1362E+02  0.1505E+02  0.2086E+03  0.2085E+03
     -0.645  0.2345E+02  0.1850E+02  0.2099E+03  0.2095E+03
     -0.590  0.2260E+02  0.2665E+02  0.2111E+03  0.2110E+03
     -0.535  0.2202E+02  0.2116E+02  0.2123E+03  0.2121E+03
     -0.480  0.4655E+02  0.4235E+02  0.2149E+03  0.2144E+03
     -0.425  0.2574E+02  0.3055E+02  0.2163E+03  0.2161E+03
     -0.371  0.2356E+02  0.2451E+02  0.2176E+03  0.2175E+03
     -0.316  0.1605E+02  0.1559E+02  0.2185E+03  0.2183E+03
     -0.261  0.9511E+01  0.1064E+02  0.2190E+03  0.2189E+03
     -0.206  0.2115E+02  0.1776E+02  0.2201E+03  0.2199E+03
     -0.151  0.1545E+02  0.1846E+02  0.2210E+03  0.2209E+03
     -0.097  0.1152E+02  0.1173E+02  0.2216E+03  0.2215E+03
     -0.042  0.1154E+02  0.1247E+02  0.2222E+03  0.2222E+03
      0.013  0.1706E+02  0.1193E+02  0.2232E+03  0.2229E+03
      0.068  0.2050E+02  0.2392E+02  0.2243E+03  0.2242E+03
      0.123  0.7820E+01  0.8019E+01  0.2247E+03  0.2246E+03
      0.178  0.2317E+02  0.2369E+02  0.2260E+03  0.2259E+03
      0.232  0.4523E+02  0.4230E+02  0.2285E+03  0.2282E+03
      0.287  0.5391E+02  0.4626E+02  0.2314E+03  0.2308E+03
      0.342  0.5674E+02  0.6426E+02  0.2345E+03  0.2343E+03
      0.397  0.3174E+02  0.3336E+02  0.2363E+03  0.2361E+03
      0.452  0.3044E+02  0.3097E+02  0.2380E+03  0.2378E+03
      0.506  0.6196E+02  0.5775E+02  0.2414E+03  0.2410E+03
      0.561  0.5566E+02  0.5166E+02  0.2444E+03  0.2438E+03
      0.616  0.5576E+02  0.6353E+02  0.2475E+03  0.2473E+03
      0.671  0.5355E+02  0.4868E+02  0.2504E+03  0.2500E+03
      0.726  0.4947E+02  0.5350E+02  0.2531E+03  0.2529E+03
      0.780  0.6205E+02  0.5529E+02  0.2565E+03  0.2559E+03
      0.835  0.9066E+02  0.9035E+02  0.2615E+03  0.2609E+03
      0.890  0.6831E+02  0.7389E+02  0.2652E+03  0.2649E+03
      0.945  0.7349E+02  0.6934E+02  0.2692E+03  0.2687E+03
      1.000  0.4221E+02  0.4307E+02  0.2716E+03  0.2711E+03
      1.054  0.3728E+02  0.4133E+02  0.2736E+03  0.2733E+03
      1.109  0.8352E+02  0.7494E+02  0.2782E+03  0.2774E+03
      1.164  0.7061E+02  0.7630E+02  0.2820E+03  0.2816E+03
      1.219  0.6499E+02  0.6242E+02  0.2856E+03  0.2851E+03
      1.274  0.8525E+02  0.8562E+02  0.2903E+03  0.2897E+03
      1.328  0.7504E+02  0.7344E+02  0.2944E+03  0.2938E+03
      1.383  0.8005E+02  0.8239E+02  0.2988E+03  0.2983E+03
      1.438  0.4820E+02  0.5218E+02  0.3014E+03  0.3011E+03
      1.493  0.8135E+02  0.7438E+02  0.3059E+03  0.3052E+03
      1.548  0.8115E+02  0.8652E+02  0.3103E+03  0.3100E+03
      1.602  0.3626E+02  0.3741E+02  0.3123E+03  0.3120E+03
      1.657  0.8113E+02  0.8160E+02  0.3168E+03  0.3165E+03
      1.712  0.8577E+02  0.8266E+02  0.3215E+03  0.3210E+03
      1.767  0.7383E+02  0.7573E+02  0.3255E+03  0.3252E+03
      1.822  0.8400E+02  0.8240E+02  0.3301E+03  0.3297E+03
      1.876  0.1002E+03  0.9699E+02  0.3356E+03  0.3350E+03
      1.931  0.8022E+02  0.8112E+02  0.3400E+03  0.3394E+03
      1.986  0.7116E+02  0.7066E+02  0.3439E+03  0.3433E+03
      2.041  0.7316E+02  0.7600E+02  0.3479E+03  0.3475E+03
      2.096  0.5777E+02  0.6017E+02  0.3511E+03  0.3508E+03
      2.150  0.5773E+02  0.5661E+02  0.3542E+03  0.3539E+03
      2.205  0.8055E+02  0.7907E+02  0.3587E+03  0.3582E+03
      2.260  0.6783E+02  0.6051E+02  0.3624E+03  0.3615E+03
      2.315  0.9001E+02  0.9876E+02  0.3673E+03  0.3669E+03
      2.370  0.5313E+02  0.5323E+02  0.3702E+03  0.3699E+03
      2.424  0.6632E+02  0.6624E+02  0.3738E+03  0.3735E+03
      2.479  0.6429E+02  0.6428E+02  0.3774E+03  0.3770E+03
      2.534  0.9246E+02  0.8755E+02  0.3824E+03  0.3818E+03
      2.589  0.7036E+02  0.7027E+02  0.3863E+03  0.3857E+03
      2.644  0.6472E+02  0.6879E+02  0.3898E+03  0.3894E+03
      2.698  0.6750E+02  0.6530E+02  0.3935E+03  0.3930E+03
      2.753  0.6081E+02  0.6559E+02  0.3969E+03  0.3966E+03
      2.808  0.5402E+02  0.4874E+02  0.3998E+03  0.3993E+03
      2.863  0.4852E+02  0.5337E+02  0.4025E+03  0.4022E+03
      2.918  0.4966E+02  0.4650E+02  0.4052E+03  0.4047E+03
      2.972  0.7131E+02  0.7280E+02  0.4091E+03  0.4087E+03
      3.027  0.7189E+02  0.6853E+02  0.4131E+03  0.4125E+03
      3.082  0.6077E+02  0.5992E+02  0.4164E+03  0.4158E+03
      3.137  0.7459E+02  0.7495E+02  0.4205E+03  0.4199E+03
      3.192  0.6421E+02  0.7016E+02  0.4240E+03  0.4237E+03
      3.247  0.5977E+02  0.5530E+02  0.4273E+03  0.4268E+03
      3.301  0.6238E+02  0.6024E+02  0.4307E+03  0.4301E+03
      3.356  0.7394E+02  0.7590E+02  0.4347E+03  0.4342E+03
      3.411  0.6418E+02  0.6671E+02  0.4383E+03  0.4379E+03
      3.466  0.5462E+02  0.5019E+02  0.4413E+03  0.4406E+03
      3.521  0.5602E+02  0.5538E+02  0.4443E+03  0.4437E+03
      3.575  0.4837E+02  0.5504E+02  0.4470E+03  0.4467E+03
      3.630  0.4063E+02  0.3407E+02  0.4492E+03  0.4485E+03
      3.685  0.4552E+02  0.5167E+02  0.4517E+03  0.4514E+03
      3.740  0.4714E+02  0.4499E+02  0.4543E+03  0.4538E+03
      3.795  0.3513E+02  0.3785E+02  0.4562E+03  0.4559E+03
      3.849  0.3489E+02  0.3384E+02  0.4581E+03  0.4578E+03
      3.904  0.2522E+02  0.2873E+02  0.4595E+03  0.4593E+03
      3.959  0.3256E+02  0.3133E+02  0.4613E+03  0.4611E+03
      4.014  0.3380E+02  0.3075E+02  0.4631E+03  0.4627E+03
      4.069  0.4246E+02  0.4155E+02  0.4655E+03  0.4650E+03
      4.123  0.2072E+02  0.2454E+02  0.4666E+03  0.4664E+03
      4.178  0.2492E+02  0.2275E+02  0.4680E+03  0.4676E+03
      4.233  0.1968E+02  0.1804E+02  0.4690E+03  0.4686E+03
      4.288  0.3397E+02  0.2704E+02  0.4709E+03  0.4701E+03
      4.343  0.1522E+02  0.2601E+02  0.4717E+03  0.4715E+03
      4.397  0.2067E+02  0.2331E+02  0.4729E+03  0.4728E+03
      4.452  0.6193E+01  0.1524E+01  0.4732E+03  0.4729E+03
      4.507  0.2038E+02  0.1284E+02  0.4743E+03  0.4736E+03
      4.562  0.1948E+02  0.1904E+02  0.4754E+03  0.4746E+03
      4.617  0.9628E+01  0.1503E+02  0.4759E+03  0.4754E+03
      4.671  0.1052E+02  0.1042E+02  0.4765E+03  0.4760E+03
      4.726  0.1582E+02  0.8961E+01  0.4774E+03  0.4765E+03
      4.781  0.1358E+02  0.1485E+02  0.4781E+03  0.4773E+03
      4.836  0.3432E+02  0.1393E+02  0.4800E+03  0.4781E+03
      4.891  0.2248E+02  0.3684E+02  0.4812E+03  0.4801E+03
      4.945  0.1873E+02  0.2967E+02  0.4823E+03  0.4817E+03
      5.000  0.2827E+02  0.1947E+02  0.4838E+03  0.4828E+03
      5.055  0.3485E+02  0.3022E+02  0.4857E+03  0.4845E+03
      5.110  0.3070E+02  0.2834E+02  0.4874E+03  0.4860E+03
      5.165  0.3103E+02  0.3222E+02  0.4891E+03  0.4878E+03
      5.219  0.4540E+02  0.3481E+02  0.4916E+03  0.4897E+03
      5.274  0.3719E+02  0.5122E+02  0.4936E+03  0.4925E+03
      5.329  0.1902E+02  0.3158E+02  0.4947E+03  0.4942E+03
      5.384  0.4744E+02  0.4080E+02  0.4973E+03  0.4965E+03
      5.439  0.3073E+02  0.3707E+02  0.4989E+03  0.4985E+03
      5.493  0.3654E+02  0.2717E+02  0.5009E+03  0.5000E+03
      5.548  0.3456E+02  0.3748E+02  0.5028E+03  0.5020E+03
      5.603  0.4518E+02  0.4715E+02  0.5053E+03  0.5046E+03
      5.658  0.4389E+02  0.5094E+02  0.5077E+03  0.5074E+03
      5.713  0.3898E+02  0.3556E+02  0.5099E+03  0.5094E+03
      5.767  0.4251E+02  0.3685E+02  0.5122E+03  0.5114E+03
      5.822  0.6454E+02  0.6547E+02  0.5157E+03  0.5150E+03
      5.877  0.4756E+02  0.5242E+02  0.5183E+03  0.5178E+03
      5.932  0.4465E+02  0.4102E+02  0.5208E+03  0.5201E+03
      5.987  0.6438E+02  0.6445E+02  0.5243E+03  0.5236E+03
      6.041  0.6026E+02  0.6176E+02  0.5276E+03  0.5270E+03
      6.096  0.3772E+02  0.4036E+02  0.5297E+03  0.5292E+03
      6.151  0.5436E+02  0.4722E+02  0.5327E+03  0.5318E+03
      6.206  0.3519E+02  0.4169E+02  0.5346E+03  0.5341E+03
      6.261  0.5649E+02  0.5850E+02  0.5377E+03  0.5373E+03
      6.316  0.5681E+02  0.5423E+02  0.5408E+03  0.5403E+03
      6.370  0.4509E+02  0.4493E+02  0.5433E+03  0.5427E+03
      6.425  0.4565E+02  0.4534E+02  0.5458E+03  0.5452E+03
      6.480  0.6386E+02  0.6531E+02  0.5493E+03  0.5488E+03
      6.535  0.5069E+02  0.5145E+02  0.5520E+03  0.5516E+03
      6.590  0.7180E+02  0.6753E+02  0.5560E+03  0.5553E+03
      6.644  0.5989E+02  0.6348E+02  0.5593E+03  0.5588E+03
      6.699  0.4830E+02  0.5368E+02  0.5619E+03  0.5617E+03
      6.754  0.4161E+02  0.4063E+02  0.5642E+03  0.5640E+03
      6.809  0.4184E+02  0.3929E+02  0.5665E+03  0.5661E+03
      6.864  0.4441E+02  0.4327E+02  0.5689E+03  0.5685E+03
      6.918  0.4579E+02  0.4848E+02  0.5714E+03  0.5711E+03
      6.973  0.3561E+02  0.3722E+02  0.5734E+03  0.5732E+03
      7.028  0.1590E+02  0.1948E+02  0.5743E+03  0.5742E+03
      7.083  0.1361E+02  0.9113E+01  0.5750E+03  0.5747E+03
      7.138  0.1605E+02  0.1957E+02  0.5759E+03  0.5758E+03
      7.192  0.2269E+01  0.3328E+01  0.5760E+03  0.5760E+03
      7.247  0.0000E+00  0.0000E+00  0.5760E+03  0.5760E+03
      7.302  0.0000E+00  0.0000E+00  0.5760E+03  0.5760E+03
      7.357  0.0000E+00  0.0000E+00  0.5760E+03  0.5760E+03
      7.412  0.0000E+00  0.0000E+00  0.5760E+03  0.5760E+03
      7.466  0.0000E+00  0.0000E+00  0.5760E+03  0.5760E+03
      7.521  0.0000E+00  0.0000E+00  0.5760E+03  0.5760E+03
      7.576  0.0000E+00  0.0000E+00  0.5760E+03  0.5760E+03
      7.631  0.0000E+00  0.0000E+00  0.5760E+03  0.5760E+03
      7.686  0.0000E+00  0.0000E+00  0.5760E+03  0.5760E+03
      7.740  0.0000E+00  0.0000E+00  0.5760E+03  0.5760E+03
      7.795  0.0000E+00  0.0000E+00  0.5760E+03  0.5760E+03
      7.850  0.0000E+00  0.0000E+00  0.5760E+03  0.5760E+03
      7.905  0.0000E+00  0.0000E+00  0.5760E+03  0.5760E+03
