 vasp.6.4.3 19Mar24 (build Oct 22 2024 11:23:12) complex                        
  
 executed on             LinuxIFC date 2025.06.08  14:08:14
 running   64 mpi-ranks, on    4 nodes
 distrk:  each k-point on   64 cores,    1 groups
 distr:  one band on NCORE=  16 cores,    4 groups


--------------------------------------------------------------------------------------------------------


 INCAR:
   SYSTEM = Si and Ge interface calculation
   ISTART = 0
   ICHARG = 2
   LWAVE = .FALSE.
   LREAL = AUTO
   ENCUT = 700
   ENAUG = 900
   ADDGRID = .TRUE.
   LMAXMIX = 6
   LASPH = .TRUE.
   LMIXTAU = .TRUE.
   NCORE = 16
   NELM = 100
   NBANDS = 288
   EDIFF = 1d-7
   AMIX = 0.6
   ISMEAR = 0
   SIGMA = 0.01
   NELECT = 480
   ISPIN = 2
   NUPDOWN = 1
   LVTOT = .FALSE.
   LVHAR = .TRUE.

 POTCAR:    PAW_PBE Si 05Jan2001                  
 POTCAR:    PAW_PBE Ge 05Jan2001                  
 -----------------------------------------------------------------------------
|                                                                             |
|           W    W    AA    RRRRR   N    N  II  N    N   GGGG   !!!           |
|           W    W   A  A   R    R  NN   N  II  NN   N  G    G  !!!           |
|           W    W  A    A  R    R  N N  N  II  N N  N  G       !!!           |
|           W WW W  AAAAAA  RRRRR   N  N N  II  N  N N  G  GGG   !            |
|           WW  WW  A    A  R   R   N   NN  II  N   NN  G    G                |
|           W    W  A    A  R    R  N    N  II  N    N   GGGG   !!!           |
|                                                                             |
|     You use a magnetic or noncollinear calculation, but did not specify     |
|     the initial magnetic moment with the MAGMOM tag. Note that a            |
|     default of 8.333e-3 will be used for all atoms. This ferromagnetic      |
|     setup may break the symmetry of the crystal, in particular it may       |
|     rule out finding an antiferromagnetic solution. Thence, we              |
|     recommend setting the initial magnetic moment manually or verifying     |
|     carefully that this magnetic setup is desired.                          |
|                                                                             |
 -----------------------------------------------------------------------------

 POTCAR:    PAW_PBE Si 05Jan2001                  
   VRHFIN =Si: s2p2                                                                                 
   LEXCH  = PE                                                                                      
   EATOM  =   103.0669 eV,    7.5752 Ry                                                             
                                                                                                    
   TITEL  = PAW_PBE Si 05Jan2001                                                                    
   LULTRA =        F    use ultrasoft PP ?                                                          
   IUNSCR =        1    unscreen: 0-lin 1-nonlin 2-no                                               
   RPACOR =    1.500    partial core radius                                                         
   POMASS =   28.085; ZVAL   =    4.000    mass and valenz                                          
   RCORE  =    1.900    outmost cutoff radius                                                       
   RWIGS  =    2.480; RWIGS  =    1.312    wigner-seitz radius (au A)                               
   ENMAX  =  245.345; ENMIN  =  184.009 eV                                                          
   ICORE  =        2    local potential                                                             
   LCOR   =        T    correct aug charges                                                         
   LPAW   =        T    paw PP                                                                      
   EAUG   =  322.069                                                                                
   DEXC   =    0.000                                                                                
   RMAX   =    1.950    core radius for proj-oper                                                   
   RAUG   =    1.300    factor for augmentation sphere                                              
   RDEP   =    1.993    radius for radial grids                                                     
   RDEPT  =    1.837    core radius for aug-charge                                                  
                                                                                                    
   Atomic configuration                                                                             
    6 entries                                                                                       
     n  l   j            E        occ.                                                              
     1  0  0.50     -1785.8828   2.0000                                                             
     2  0  0.50      -139.4969   2.0000                                                             
     2  1  1.50       -95.5546   6.0000                                                             
     3  0  0.50       -10.8127   2.0000                                                             
     3  1  0.50        -4.0811   2.0000                                                             
     3  2  1.50        -4.0817   0.0000                                                             
   Description                                                                                      
     l       E           TYP  RCUT    TYP  RCUT                                                     
     0    -10.8127223     23  1.900                                                                 
     0     -7.6451159     23  1.900                                                                 
     1     -4.0811372     23  1.900                                                                 
     1      2.4879257     23  1.900                                                                 
     2     -4.0817478      7  1.900                                                                 
  local pseudopotential read in
  partial core-charges read in
  partial kinetic energy density read in
  atomic valenz-charges read in
  non local Contribution for L=           0  read in
    real space projection operators read in
  non local Contribution for L=           0  read in
    real space projection operators read in
  non local Contribution for L=           1  read in
    real space projection operators read in
  non local Contribution for L=           1  read in
    real space projection operators read in
    PAW grid and wavefunctions read in
 
   number of l-projection  operators is LMAX  =           4
   number of lm-projection operators is LMMAX =           8
 
 POTCAR:    PAW_PBE Ge 05Jan2001                  
   VRHFIN =Ge: s2p2                                                                                 
   LEXCH  = PE                                                                                      
   EATOM  =   104.9960 eV,    7.7170 Ry                                                             
                                                                                                    
   TITEL  = PAW_PBE Ge 05Jan2001                                                                    
   LULTRA =        F    use ultrasoft PP ?                                                          
   IUNSCR =        1    unscreen: 0-lin 1-nonlin 2-no                                               
   RPACOR =    2.170    partial core radius                                                         
   POMASS =   72.610; ZVAL   =    4.000    mass and valenz                                          
   RCORE  =    2.300    outmost cutoff radius                                                       
   RWIGS  =    2.300; RWIGS  =    1.217    wigner-seitz radius (au A)                               
   ENMAX  =  173.807; ENMIN  =  130.355 eV                                                          
   ICORE  =        3    local potential                                                             
   LCOR   =        T    correct aug charges                                                         
   LPAW   =        T    paw PP                                                                      
   EAUG   =  385.843                                                                                
   DEXC   =    0.000                                                                                
   RMAX   =    2.342    core radius for proj-oper                                                   
   RAUG   =    1.300    factor for augmentation sphere                                              
   RDEP   =    2.318    radius for radial grids                                                     
   RDEPT  =    2.103    core radius for aug-charge                                                  
                                                                                                    
   Atomic configuration                                                                             
   10 entries                                                                                       
     n  l   j            E        occ.                                                              
     1  0  0.50    -10959.8463   2.0000                                                             
     2  0  0.50     -1371.6056   2.0000                                                             
     2  1  1.50     -1198.4791   6.0000                                                             
     3  0  0.50      -168.4733   2.0000                                                             
     3  1  1.50      -115.6019   6.0000                                                             
     3  2  2.50       -29.3106  10.0000                                                             
     4  0  0.50       -11.7309   2.0000                                                             
     4  1  0.50        -3.8952   2.0000                                                             
     4  2  1.50        -4.0817   0.0000                                                             
     4  3  2.50        -4.0817   0.0000                                                             
   Description                                                                                      
     l       E           TYP  RCUT    TYP  RCUT                                                     
     0    -11.7309493     23  2.300                                                                 
     0     -7.4578696     23  2.300                                                                 
     1     -3.8952261     23  2.300                                                                 
     1      6.1178114     23  2.300                                                                 
     2     -4.0817478     23  2.300                                                                 
     3     -1.3605826      7  2.300                                                                 
  local pseudopotential read in
  partial core-charges read in
  partial kinetic energy density read in
  atomic valenz-charges read in
  non local Contribution for L=           0  read in
    real space projection operators read in
  non local Contribution for L=           0  read in
    real space projection operators read in
  non local Contribution for L=           1  read in
    real space projection operators read in
  non local Contribution for L=           1  read in
    real space projection operators read in
  non local Contribution for L=           2  read in
    real space projection operators read in
    PAW grid and wavefunctions read in
 
   number of l-projection  operators is LMAX  =           5
   number of lm-projection operators is LMMAX =          13
 
 Optimization of the real space projectors (new method)

 maximal supplied QI-value         = 19.84
 optimisation between [QCUT,QGAM] = [ 13.49, 26.99] = [ 50.98,203.92] Ry 
 Optimized for a Real-space Cutoff    1.07 Angstroem

   l    n(q)    QCUT    max X(q) W(low)/X(q) W(high)/X(q)  e(spline) 
   0      9    13.493   159.560    0.22E-03    0.15E-03    0.72E-07
   0      9    13.493   115.863    0.21E-03    0.15E-03    0.71E-07
   1      8    13.493    88.339    0.15E-03    0.11E-03    0.13E-06
   1      8    13.493    48.592    0.15E-03    0.10E-03    0.13E-06
 Optimization of the real space projectors (new method)

 maximal supplied QI-value         = 16.25
 optimisation between [QCUT,QGAM] = [ 13.49, 26.98] = [ 50.95,203.80] Ry 
 Optimized for a Real-space Cutoff    1.25 Angstroem

   l    n(q)    QCUT    max X(q) W(low)/X(q) W(high)/X(q)  e(spline) 
   0     10    13.489    65.336    0.91E-04    0.11E-03    0.34E-06
   0     10    13.489    52.220    0.89E-04    0.11E-03    0.34E-06
   1     10    13.489    36.409    0.22E-03    0.27E-03    0.14E-06
   1     10    13.489    21.334    0.21E-03    0.27E-03    0.14E-06
   2      9    13.489     4.673    0.11E-03    0.12E-03    0.19E-06
  PAW_PBE Si 05Jan2001                  :
 energy of atom  1       EATOM= -103.0669
 kinetic energy error for atom=    0.0003 (will be added to EATOM!!)
  PAW_PBE Ge 05Jan2001                  :
 energy of atom  2       EATOM= -104.9960
 kinetic energy error for atom=    0.0001 (will be added to EATOM!!)
 
 
 POSCAR: Si+Ge
  positions in direct lattice
  No initial velocities read in


 exchange-correlation table for PE
   RHO(1)=    0.500       N(1)  =     2000
   RHO(2)=  100.500       N(2)  =     4000
 


--------------------------------------------------------------------------------------------------------


 ion  position               nearest neighbor table
   1  0.979  0.986  0.000-  49 2.35  67 2.35  56 2.35 117 2.40
   2  0.614  0.946  0.901-  49 2.36  25 2.38  75 2.38  19 2.40
   3  0.479  0.652  0.185-  51 2.35  69 2.35  58 2.35  50 2.35
   4  0.229  0.486  0.277-  52 2.35  51 2.35  70 2.35  59 2.35
   5  0.864  0.446  0.561-  60 2.36  18 2.38  94 2.38  12 2.40
   6  0.364  0.696  0.561-  48 2.33  85 2.38 115 2.38  36 3.06
   7  0.979  0.319  0.000- 120 2.35  55 2.35  62 2.35  31 3.06  37 3.11
   8  0.729  0.152  0.092-  38 2.35  63 2.35 120 2.35  56 2.35
   9  0.479  0.986  0.185-  64 2.35  39 2.35  57 2.35  38 2.35
  10  0.229  0.819  0.277-  39 2.35  40 2.35  65 2.35  58 2.35
  11  0.979  0.652  0.369-  41 2.35  59 2.35  76 2.35  40 2.35
  12  0.729  0.486  0.461-  60 2.35  42 2.35  41 2.35   5 2.40
  13  0.614  0.696  0.901-  84 2.38 102 2.38  90 2.42
  14  0.729  0.486  0.092-  44 2.35  62 2.35  69 2.35  96 2.35
  15  0.479  0.319  0.185-  70 2.35  45 2.35  63 2.35  44 2.35
  16  0.229  0.152  0.277-  45 2.35  71 2.35  46 2.35  64 2.35
  17  0.979  0.986  0.369-  47 2.35 106 2.35  65 2.35  46 2.35
  18  0.114  0.446  0.629-   5 2.38  82 2.38 104 2.48  77 2.48
  19  0.479  0.986  0.000-  67 2.35  38 2.35  49 2.35   2 2.40
  20  0.229  0.819  0.092-  68 2.35  50 2.35  39 2.35  67 2.35
  21  0.979  0.652  0.185-  51 2.35  69 2.35  40 2.35  68 2.35
  22  0.729  0.486  0.277-  69 2.35  70 2.35  52 2.35  41 2.35
  23  0.479  0.319  0.369-  42 2.35  71 2.35  53 2.35  70 2.35
  24  0.864  0.196  0.561-  91 2.38 118 2.38 103 2.42
  25  0.864  0.946  0.833-   2 2.38 117 2.38 113 2.48  92 2.48
  26  0.229  0.152  0.092-  45 2.35  55 2.35  56 2.35  38 2.35
  27  0.979  0.986  0.185-  46 2.35  56 2.35  39 2.35  57 2.35
  28  0.729  0.819  0.277-  57 2.35  58 2.35  40 2.35  47 2.35
  29  0.479  0.652  0.369-  48 2.35  59 2.35  41 2.35  58 2.35
  30  0.229  0.486  0.461-  59 2.35  60 2.35  42 2.35  82 2.40
  31  0.114  0.196  0.901-  55 2.33  78 2.38  99 2.38   7 3.06
  32  0.229  0.486  0.092-  62 2.35  51 2.35  44 2.35  61 2.35
  33  0.979  0.319  0.185-  52 2.35  45 2.35  63 2.35  62 2.35
  34  0.729  0.152  0.277-  63 2.35  64 2.35  46 2.35  53 2.35
  35  0.479  0.986  0.369-  54 2.35  65 2.35  47 2.35  64 2.35
  36  0.229  0.819  0.461-  76 2.35  48 2.35  65 2.35   6 3.06  66 3.11
  37  0.114  0.446  0.901-  81 2.38 108 2.38  61 3.01   7 3.11
  38  0.479  0.069  0.092-  19 2.35   8 2.35   9 2.35  26 2.35
  39  0.229  0.902  0.185-  10 2.35   9 2.35  20 2.35  27 2.35
  40  0.979  0.736  0.277-  21 2.35  10 2.35  28 2.35  11 2.35
  41  0.729  0.569  0.369-  11 2.35  29 2.35  22 2.35  12 2.35
  42  0.479  0.402  0.461-  23 2.35  12 2.35  30 2.35  82 2.36
  43  0.114  0.696  0.901-  84 2.38 102 2.38 114 2.42  61 3.06
  44  0.479  0.402  0.092-  14 2.35 105 2.35  32 2.35  15 2.35
  45  0.229  0.236  0.185-  15 2.35  16 2.35  33 2.35  26 2.35
  46  0.979  0.069  0.277-  16 2.35  34 2.35  27 2.35  17 2.35
  47  0.729  0.902  0.369-  17 2.35  35 2.35  28 2.35 112 2.35
  48  0.479  0.736  0.461-   6 2.33  29 2.35 112 2.35  36 2.35
  49  0.729  0.902  0.000-   1 2.35  19 2.35  87 2.35   2 2.36
  50  0.479  0.736  0.092-  87 2.35  90 2.35  20 2.35   3 2.35
  51  0.229  0.569  0.185-   3 2.35  21 2.35   4 2.35  32 2.35
  52  0.979  0.402  0.277-   4 2.35  22 2.35  33 2.35 100 2.35
  53  0.729  0.236  0.369- 100 2.35  23 2.35  34 2.35 103 2.35
  54  0.479  0.069  0.461-  35 2.35 103 2.35  79 2.35  66 3.01  72 3.06
  55  0.229  0.236  0.000-  31 2.33   7 2.35 105 2.35  26 2.35
  56  0.979  0.069  0.092-   1 2.35  27 2.35   8 2.35  26 2.35
  57  0.729  0.902  0.185-  28 2.35  87 2.35   9 2.35  27 2.35
  58  0.479  0.736  0.277-   3 2.35  28 2.35  10 2.35  29 2.35
  59  0.229  0.569  0.369-  11 2.35  29 2.35   4 2.35  30 2.35
  60  0.979  0.402  0.461- 100 2.35  12 2.35  30 2.35   5 2.36
  61  0.229  0.569  0.000-  90 2.35 114 2.35  32 2.35  37 3.01  43 3.06
  62  0.979  0.402  0.092-  14 2.35  32 2.35   7 2.35  33 2.35
  63  0.729  0.236  0.185-  34 2.35  15 2.35  33 2.35   8 2.35
  64  0.479  0.069  0.277-   9 2.35  34 2.35  16 2.35  35 2.35
  65  0.229  0.902  0.369-  17 2.35  35 2.35  10 2.35  36 2.35
  66  0.364  0.946  0.561- 109 2.38  88 2.38  54 3.01  36 3.11
  67  0.229  0.902  0.000-   1 2.35  19 2.35  20 2.35 117 2.36
  68  0.979  0.736  0.092-  87 2.35  20 2.35 114 2.35  21 2.35
  69  0.729  0.569  0.185-   3 2.35  22 2.35  21 2.35  14 2.35
  70  0.479  0.402  0.277-  15 2.35  22 2.35   4 2.35  23 2.35
  71  0.229  0.236  0.369-  23 2.35 100 2.35  16 2.35  79 2.35
  72  0.364  0.196  0.561-  91 2.38 118 2.38  79 2.42  54 3.06
  73  0.864  0.696  0.561-  76 2.33  85 2.38 115 2.38
  74  0.614  0.321  0.697-  86 2.38 116 2.38 118 2.48  94 2.48
  75  0.364  0.946  0.833-   2 2.38 117 2.38  95 2.48 119 2.48
  76  0.979  0.736  0.461-  73 2.33 112 2.35  11 2.35  36 2.35
  77  0.114  0.571  0.697-  89 2.38 110 2.38  85 2.48  18 2.48
  78  0.864  0.196  0.833- 111 2.38  31 2.38  86 2.48 113 2.48
  79  0.229  0.152  0.461- 106 2.35  54 2.35  71 2.35  72 2.42
  80  0.614  0.821  0.697-  92 2.38 119 2.38  88 2.48 115 2.48
  81  0.364  0.446  0.833-  37 2.38  93 2.38  89 2.48 116 2.48
  82  0.364  0.446  0.561-  42 2.36  94 2.38  18 2.38  30 2.40
  83  0.114  0.071  0.697-  95 2.38 113 2.38  91 2.48 109 2.48
  84  0.864  0.696  0.833-  13 2.38  43 2.38 110 2.48  92 2.48
  85  0.114  0.696  0.629-  73 2.38   6 2.38  77 2.48 107 2.48
  86  0.864  0.321  0.765-  74 2.38 104 2.38  78 2.48 108 2.48
  87  0.729  0.819  0.092-  50 2.35  68 2.35  57 2.35  49 2.35
  88  0.614  0.946  0.629-  66 2.38  97 2.38  80 2.48 101 2.48
  89  0.364  0.571  0.765-  77 2.38  98 2.38  81 2.48 102 2.48
  90  0.479  0.652  0.000-  50 2.35  61 2.35  96 2.35  13 2.42
  91  0.114  0.196  0.629-  24 2.38  72 2.38  83 2.48 104 2.48
  92  0.864  0.821  0.765-  80 2.38 107 2.38  25 2.48  84 2.48
  93  0.614  0.446  0.901-  81 2.38 108 2.38
  94  0.614  0.446  0.629-  82 2.38   5 2.38  74 2.48  98 2.48
  95  0.364  0.071  0.765-  83 2.38 101 2.38  99 2.48  75 2.48
  96  0.729  0.569  0.000- 114 2.35  90 2.35  14 2.35
  97  0.864  0.946  0.561-  88 2.38 109 2.38
  98  0.614  0.571  0.697- 110 2.38  89 2.38 115 2.48  94 2.48
  99  0.364  0.196  0.833- 111 2.38  31 2.38 116 2.48  95 2.48
 100  0.979  0.319  0.369-  53 2.35  71 2.35  60 2.35  52 2.35
 101  0.614  0.071  0.697-  95 2.38 113 2.38 118 2.48  88 2.48
 102  0.364  0.696  0.833-  13 2.38  43 2.38  89 2.48 119 2.48
 103  0.729  0.152  0.461- 106 2.35  54 2.35  53 2.35  24 2.42
 104  0.114  0.321  0.697-  86 2.38 116 2.38  18 2.48  91 2.48
 105  0.479  0.319  0.000-  44 2.35  55 2.35 120 2.35
 106  0.979  0.069  0.461- 103 2.35  17 2.35  79 2.35
 107  0.114  0.821  0.697-  92 2.38 119 2.38 109 2.48  85 2.48
 108  0.864  0.446  0.833-  37 2.38  93 2.38 110 2.48  86 2.48
 109  0.114  0.946  0.629-  66 2.38  97 2.38 107 2.48  83 2.48
 110  0.864  0.571  0.765-  98 2.38  77 2.38  84 2.48 108 2.48
 111  0.614  0.196  0.901- 120 2.33  99 2.38  78 2.38
 112  0.729  0.819  0.461-  76 2.35  48 2.35  47 2.35
 113  0.864  0.071  0.765-  83 2.38 101 2.38  25 2.48  78 2.48
 114  0.979  0.652  0.000-  68 2.35  96 2.35  61 2.35  43 2.42
 115  0.614  0.696  0.629-  73 2.38   6 2.38  98 2.48  80 2.48
 116  0.364  0.321  0.765-  74 2.38 104 2.38  99 2.48  81 2.48
 117  0.114  0.946  0.901-  67 2.36  25 2.38  75 2.38   1 2.40
 118  0.614  0.196  0.629-  24 2.38  72 2.38  74 2.48 101 2.48
 119  0.364  0.821  0.765-  80 2.38 107 2.38  75 2.48 102 2.48
 120  0.729  0.236  0.000- 111 2.33   7 2.35   8 2.35 105 2.35
 
  LATTYP: Found a simple orthorhombic cell.
 ALAT       =     7.6805944440
 B/A-ratio  =     2.1213200862
 C/A-ratio  =     2.7086627530
  
  Lattice vectors:
  
 A1 = (   7.6805944440,   0.0000000000,   0.0000000000)
 A2 = (   0.0000000000,  16.2929992680,   0.0000000000)
 A3 = (   0.0000000000,   0.0000000000,  20.8041400910)


Analysis of symmetry for initial positions (statically):
=====================================================================
 Subroutine PRICEL returns:
 Original cell was already a primitive cell.
 

 Routine SETGRP: Setting up the symmetry group for a 
 simple orthorhombic supercell.


 Subroutine GETGRP returns: Found  1 space group operations
 (whereof  1 operations were pure point group operations)
 out of a pool of  8 trial point group operations.


The static configuration has the point symmetry C_1 .


Analysis of symmetry for dynamics (positions and initial velocities):
=====================================================================
 Subroutine PRICEL returns:
 Original cell was already a primitive cell.
 

 Routine SETGRP: Setting up the symmetry group for a 
 simple orthorhombic supercell.


 Subroutine GETGRP returns: Found  1 space group operations
 (whereof  1 operations were pure point group operations)
 out of a pool of  8 trial point group operations.


The dynamic configuration has the point symmetry C_1 .


Analysis of structural, dynamic, and magnetic symmetry:
=====================================================================
 Subroutine PRICEL returns:
 Original cell was already a primitive cell.
 

 Routine SETGRP: Setting up the symmetry group for a 
 simple orthorhombic supercell.


 Subroutine GETGRP returns: Found  1 space group operations
 (whereof  1 operations were pure point group operations)
 out of a pool of  8 trial point group operations.


The overall configuration has the point symmetry C_1 .


 Subroutine INISYM returns: Found  1 space group operations
 (whereof  1 operations are pure point group operations),
 and found     1 'primitive' translations


----------------------------------------------------------------------------------------

                                     Primitive cell                                     

  volume of cell :    2603.4284

  direct lattice vectors                    reciprocal lattice vectors
     7.680594444  0.000000000  0.000000000     0.130198256  0.000000000  0.000000000
     0.000000000 16.292999268  0.000000000     0.000000000  0.061376054  0.000000000
     0.000000000  0.000000000 20.804140091     0.000000000  0.000000000  0.048067356

  length of vectors
     7.680594444 16.292999268 20.804140091     0.130198256  0.061376054  0.048067356

  position of ions in fractional coordinates (direct lattice)
     0.978517294  0.985678196  0.000000001
     0.614321470  0.946336031  0.900713384
     0.478517175  0.652344763  0.184592947
     0.228517234  0.485678136  0.276889384
     0.864321470  0.446336091  0.560769081
     0.364321470  0.696336091  0.560769081
     0.978517294  0.319011539  0.000000001
     0.728517234  0.152344853  0.092296474
     0.478517175  0.985678136  0.184592947
     0.228517234  0.819011509  0.276889384
     0.978517175  0.652344763  0.369185865
     0.728517175  0.485678077  0.461482346
     0.614321470  0.696336091  0.900713384
     0.728517234  0.485678196  0.092296474
     0.478517175  0.319011509  0.184592947
     0.228517234  0.152344868  0.276889384
     0.978517175  0.985678136  0.369185865
     0.114321470  0.446336091  0.628757894
     0.478517294  0.985678196  0.000000000
     0.228517249  0.819011450  0.092296474
     0.978517234  0.652344763  0.184592947
     0.728517294  0.485678136  0.276889354
     0.478517175  0.319011390  0.369185865
     0.864321470  0.196336150  0.560769081
     0.864321470  0.946336150  0.832724512
     0.228517249  0.152344853  0.092296474
     0.978517234  0.985678136  0.184592947
     0.728517294  0.819011509  0.276889354
     0.478517175  0.652344763  0.369185865
     0.228517115  0.485678077  0.461482346
     0.114321470  0.196336031  0.900713384
     0.228517249  0.485678196  0.092296474
     0.978517234  0.319011509  0.184592947
     0.728517294  0.152344868  0.276889354
     0.478517175  0.985678136  0.369185865
     0.228517115  0.819011390  0.461482346
     0.114321470  0.446336091  0.900713384
     0.478517294  0.069011487  0.092296466
     0.228517264  0.902344763  0.184592947
     0.978517294  0.735678136  0.276889384
     0.728517234  0.569011450  0.369185865
     0.478517234  0.402344644  0.461482286
     0.114321470  0.696336091  0.900713384
     0.478517294  0.402344882  0.092296466
     0.228517264  0.235678196  0.184592947
     0.978517294  0.069011539  0.276889384
     0.728517234  0.902344823  0.369185865
     0.478517234  0.735678077  0.461482286
     0.728517354  0.902344942  0.000000000
     0.478517294  0.735678196  0.092296466
     0.228517264  0.569011509  0.184592947
     0.978517294  0.402344853  0.276889384
     0.728517234  0.235678121  0.369185865
     0.478517234  0.069011383  0.461482286
     0.228517294  0.235678196  0.000000001
     0.978517234  0.069011487  0.092296474
     0.728517175  0.902344763  0.184592947
     0.478517294  0.735678136  0.276889354
     0.228517175  0.569011450  0.369185865
     0.978517056  0.402344644  0.461482346
     0.228517294  0.569011629  0.000000001
     0.978517234  0.402344882  0.092296474
     0.728517175  0.235678196  0.184592947
     0.478517294  0.069011539  0.276889354
     0.228517175  0.902344823  0.369185865
     0.364321470  0.946336031  0.560769081
     0.228517294  0.902344942  0.000000001
     0.978517234  0.735678196  0.092296474
     0.728517175  0.569011509  0.184592947
     0.478517294  0.402344853  0.276889354
     0.228517175  0.235678121  0.369185865
     0.364321470  0.196336150  0.560769081
     0.864321470  0.696336031  0.560769081
     0.614321470  0.321336091  0.696746767
     0.364321470  0.946336150  0.832724512
     0.978517056  0.735678077  0.461482346
     0.114321470  0.571336091  0.696746767
     0.864321470  0.196336150  0.832724512
     0.228517115  0.152344704  0.461482346
     0.614321470  0.821336150  0.696746767
     0.364321470  0.446336091  0.832724512
     0.364321470  0.446336061  0.560769081
     0.114321470  0.071336150  0.696746767
     0.864321470  0.696336091  0.832724512
     0.114321470  0.696336031  0.628757894
     0.864321470  0.321336091  0.764735699
     0.728517234  0.819011450  0.092296474
     0.614321470  0.946336031  0.628757894
     0.364321470  0.571336091  0.764735699
     0.478517294  0.652344942  0.000000000
     0.114321470  0.196336150  0.628757894
     0.864321470  0.821336150  0.764735699
     0.614321470  0.446336091  0.900713384
     0.614321470  0.446336061  0.628757894
     0.364321470  0.071336150  0.764735699
     0.728517354  0.569011629  0.000000000
     0.864321470  0.946336091  0.560769081
     0.614321589  0.571336150  0.696746767
     0.364321470  0.196336150  0.832724512
     0.978517175  0.319011390  0.369185865
     0.614321470  0.071336150  0.696746767
     0.364321470  0.696336091  0.832724512
     0.728517175  0.152344704  0.461482346
     0.114321470  0.321336150  0.696746767
     0.478517294  0.319011539  0.000000000
     0.978517056  0.069011383  0.461482346
     0.114321470  0.821336091  0.696746767
     0.864321470  0.446336150  0.832724512
     0.114321589  0.946336091  0.628757894
     0.864321470  0.571336150  0.764735699
     0.614321470  0.196336150  0.900713384
     0.728517175  0.819011390  0.461482346
     0.864321470  0.071336150  0.764735699
     0.978517294  0.652344942  0.000000001
     0.614321470  0.696336031  0.628757894
     0.364321470  0.321336061  0.764735699
     0.114321470  0.946336031  0.900713384
     0.614321470  0.196336150  0.628757894
     0.364321470  0.821336150  0.764735699
     0.728517354  0.235678196  0.000000000

  ion indices of the primitive-cell ions
   primitive index   ion index
                 1           1
                 2           2
                 3           3
                 4           4
                 5           5
                 6           6
                 7           7
                 8           8
                 9           9
                10          10
                11          11
                12          12
                13          13
                14          14
                15          15
                16          16
                17          17
                18          18
                19          19
                20          20
                21          21
                22          22
                23          23
                24          24
                25          25
                26          26
                27          27
                28          28
                29          29
                30          30
                31          31
                32          32
                33          33
                34          34
                35          35
                36          36
                37          37
                38          38
                39          39
                40          40
                41          41
                42          42
                43          43
                44          44
                45          45
                46          46
                47          47
                48          48
                49          49
                50          50
                51          51
                52          52
                53          53
                54          54
                55          55
                56          56
                57          57
                58          58
                59          59
                60          60
                61          61
                62          62
                63          63
                64          64
                65          65
                66          66
                67          67
                68          68
                69          69
                70          70
                71          71
                72          72
                73          73
                74          74
                75          75
                76          76
                77          77
                78          78
                79          79
                80          80
                81          81
                82          82
                83          83
                84          84
                85          85
                86          86
                87          87
                88          88
                89          89
                90          90
                91          91
                92          92
                93          93
                94          94
                95          95
                96          96
                97          97
                98          98
                99          99
               100         100
               101         101
               102         102
               103         103
               104         104
               105         105
               106         106
               107         107
               108         108
               109         109
               110         110
               111         111
               112         112
               113         113
               114         114
               115         115
               116         116
               117         117
               118         118
               119         119
               120         120

----------------------------------------------------------------------------------------

 
 
 KPOINTS: Automatic KPOINTS generated             

Automatic generation of k-mesh.
 Grid dimensions read from file:
 generate k-points for:    4    2    2

 Generating k-lattice:

  Cartesian coordinates                     Fractional coordinates (reciprocal lattice)
     0.032549564  0.000000000  0.000000000     0.250000000  0.000000000  0.000000000
     0.000000000  0.030688027  0.000000000     0.000000000  0.500000000  0.000000000
     0.000000000  0.000000000  0.024033678     0.000000000  0.000000000  0.500000000

  Length of vectors
     0.032549564  0.030688027  0.024033678

  Shift w.r.t. Gamma in fractional coordinates (k-lattice)
     0.000000000  0.000000000  0.000000000

 
 Subroutine IBZKPT returns following result:
 ===========================================
 
 Found     12 irreducible k-points:
 
 Following reciprocal coordinates:
            Coordinates               Weight
  0.000000  0.000000  0.000000      1.000000
  0.250000  0.000000  0.000000      2.000000
  0.500000  0.000000  0.000000      1.000000
  0.000000  0.500000  0.000000      1.000000
  0.250000  0.500000  0.000000      2.000000
  0.500000  0.500000  0.000000      1.000000
  0.000000  0.000000  0.500000      1.000000
  0.250000  0.000000  0.500000      2.000000
  0.500000  0.000000  0.500000      1.000000
  0.000000  0.500000  0.500000      1.000000
  0.250000  0.500000  0.500000      2.000000
  0.500000  0.500000  0.500000      1.000000
 
 Following cartesian coordinates:
            Coordinates               Weight
  0.000000  0.000000  0.000000      1.000000
  0.032550  0.000000  0.000000      2.000000
  0.065099  0.000000  0.000000      1.000000
  0.000000  0.030688  0.000000      1.000000
  0.032550  0.030688  0.000000      2.000000
  0.065099  0.030688  0.000000      1.000000
  0.000000  0.000000  0.024034      1.000000
  0.032550  0.000000  0.024034      2.000000
  0.065099  0.000000  0.024034      1.000000
  0.000000  0.030688  0.024034      1.000000
  0.032550  0.030688  0.024034      2.000000
  0.065099  0.030688  0.024034      1.000000
 


--------------------------------------------------------------------------------------------------------




 Dimension of arrays:
   k-points           NKPTS =     12   k-points in BZ     NKDIM =     12   number of bands    NBANDS=    288
   number of dos      NEDOS =    301   number of ions     NIONS =    120
   non local maximal  LDIM  =      5   non local SUM 2l+1 LMDIM =     13
   total plane-waves  NPLWV = 756000
   max r-space proj   IRMAX =   2403   max aug-charges    IRDMAX= 126445
   dimension x,y,z NGX =    50 NGY =  108 NGZ =  140
   dimension x,y,z NGXF=   100 NGYF=  216 NGZF=  280
   support grid    NGXF=   200 NGYF=  432 NGZF=  560
   ions per type =              72  48
   NGX,Y,Z   is equivalent  to a cutoff of  10.82, 11.02, 11.19 a.u.
   NGXF,Y,Z  is equivalent  to a cutoff of  21.64, 22.04, 22.37 a.u.

 SYSTEM =  Si and Ge interface calculation         
 POSCAR =  Si+Ge                                   

 Startparameter for this run:
   NWRITE =      2    write-flag & timer
   PREC   = normal    normal or accurate (medium, high low for compatibility)
   ISTART =      0    job   : 0-new  1-cont  2-samecut
   ICHARG =      2    charge: 1-file 2-atom 10-const
   ISPIN  =      2    spin polarized calculation?
   LNONCOLLINEAR =      F non collinear calculations
   LSORBIT =      F    spin-orbit coupling
   INIWAV =      1    electr: 0-lowe 1-rand  2-diag
   LASPH  =      T    aspherical Exc in radial PAW
 Electronic Relaxation 1
   ENCUT  =  700.0 eV  51.45 Ry    7.17 a.u.  16.57 35.15 44.88*2*pi/ulx,y,z
   ENINI  =  700.0     initial cutoff
   ENAUG  =  900.0 eV  augmentation charge cutoff
   NELM   =    100;   NELMIN=  2; NELMDL= -5     # of ELM steps 
   EDIFF  = 0.1E-06   stopping-criterion for ELM
   LREAL  =      T    real-space projection
   NLSPLINE    = F    spline interpolate recip. space projectors
   LCOMPAT=      F    compatible to vasp.4.4
   GGA_COMPAT  = T    GGA compatible to vasp.4.4-vasp.4.6
   LMAXPAW     = -100 max onsite density
   LMAXMIX     =    6 max onsite mixed and CHGCAR
   VOSKOWN=      0    Vosko Wilk Nusair interpolation
   ROPT   =   -0.00050  -0.00050
 Ionic relaxation
   EDIFFG = 0.1E-05   stopping-criterion for IOM
   NSW    =      0    number of steps for IOM
   NBLOCK =      1;   KBLOCK =      1    inner block; outer block 
   IBRION =     -1    ionic relax: 0-MD 1-quasi-New 2-CG
   NFREE  =      0    steps in history (QN), initial steepest desc. (CG)
   ISIF   =      2    stress and relaxation
   IWAVPR =     10    prediction:  0-non 1-charg 2-wave 3-comb
   ISYM   =      2    0-nonsym 1-usesym 2-fastsym
   LCORR  =      T    Harris-Foulkes like correction to forces

   POTIM  = 0.5000    time-step for ionic-motion
   TEIN   =    0.0    initial temperature
   TEBEG  =    0.0;   TEEND  =   0.0 temperature during run
   SMASS  =  -3.00    Nose mass-parameter (am)
   estimated Nose-frequenzy (Omega)   =  0.10E-29 period in steps = 0.13E+47 mass=  -0.135E-26a.u.
   SCALEE = 1.0000    scale energy and forces
   NPACO  =    256;   APACO  = 10.0  distance and # of slots for P.C.
   PSTRESS=    0.0 pullay stress

  Mass of Ions in am
   POMASS =  28.09 72.61
  Ionic Valenz
   ZVAL   =   4.00  4.00
  Atomic Wigner-Seitz radii
   RWIGS  =  -1.00 -1.00
  virtual crystal weights 
   VCA    =   1.00  1.00
   NELECT =     480.0000    total number of electrons
   NUPDOWN=       1.0000    fix difference up-down

 DOS related values:
   EMIN   =  10.00;   EMAX   =-10.00  energy-range for DOS
   EFERMI =   0.00;   METHOD = LEGACY      
   ISMEAR =     0;   SIGMA  =   0.01  broadening in eV -4-tet -1-fermi 0-gaus

 Electronic relaxation 2 (details)
   IALGO  =     38    algorithm
   LDIAG  =      T    sub-space diagonalisation (order eigenvalues)
   LSUBROT=      F    optimize rotation matrix (better conditioning)
   TURBO    =      0    0=normal 1=particle mesh
   IRESTART =      0    0=no restart 2=restart with 2 vectors
   NREBOOT  =      0    no. of reboots
   NMIN     =      0    reboot dimension
   EREF     =   0.00    reference energy to select bands
   IMIX   =      4    mixing-type and parameters
     AMIX     =   0.60;   BMIX     =  1.00
     AMIX_MAG =   2.40;   BMIX_MAG =  1.00
     AMIN     =   0.10
     WC   =   100.;   INIMIX=   1;  MIXPRE=   1;  MAXMIX= -45

 Intra band minimization:
   WEIMIN = 0.0000     energy-eigenvalue tresh-hold
   EBREAK =  0.87E-10  absolut break condition
   DEPER  =   0.30     relativ break condition  

   TIME   =   0.40     timestep for ELM

  volume/ion in A,a.u.               =      21.70       146.41
  Fermi-wavevector in a.u.,A,eV,Ry     =   0.931766  1.760782 11.812404  0.868187
  Thomas-Fermi vector in A             =   2.058293
 
 Write flags
   LWAVE        =      F    write WAVECAR
   LDOWNSAMPLE  =      F    k-point downsampling of WAVECAR
   LCHARG       =      T    write CHGCAR
   LVTOT        =      F    write LOCPOT, total local potential
   LVHAR        =      T    write LOCPOT, Hartree potential only
   WRT_POTENTIAL=  hartree ionic  ! write potential to hdf5 file
   LELF         =      F    write electronic localiz. function (ELF)
   LORBIT       =      0    0 simple, 1 ext, 2 COOP (PROOUT), +10 PAW based schemes


 Dipole corrections
   LMONO      =      F    monopole corrections only (constant potential shift)
   LDIPOL     =      F    correct potential (dipole corrections)
   IDIPOL     =      0    1-x, 2-y, 3-z, 4-all directions 
   EPSILON    =  1.0000000 bulk dielectric constant
   LVACPOTAV  =      F  vacuum potentials using an averaging scheme for the charge density
   VACPOTFLAT =  0.1000000 required flatness to determine vacuum potential
 Exchange correlation treatment:
   GGA     = PE    functional components
   XC_C    = 1    coefficients multiplying the functional components
   LIBXC   =     F    Libxc                    
   VOSKOWN =     0    Vosko Wilk Nusair interpolation
   LHFCALC =     F    Hartree Fock is set to
   LHFONE  =     F    Hartree Fock one center treatment
   AEXX    =    0.0000 exact exchange contribution

 Parameters of functionals:
   PE:
     No parameter
 
 Van der Waals corrections
   IVDW    =     0    specifies the selected vdW correction

 Linear response parameters
   LEPSILON=     F    determine dielectric tensor
   LRPA    =     F    only Hartree local field effects (RPA)
   LNABLA  =     F    use nabla operator in PAW spheres
   LVEL    =     F    velocity operator in full k-point grid
   CSHIFT  =0.1000    complex shift for real part using Kramers Kronig
   OMEGAMAX=  -1.0    maximum frequency
   DEG_THRESHOLD= 0.2000000E-02 threshold for treating states as degnerate
   RTIME   =   -0.100 relaxation time in fs
  (WPLASMAI=    0.000 imaginary part of plasma frequency in eV, 0.658/RTIME)
   DFIELD  = 0.0000000 0.0000000 0.0000000 field for delta impulse in time
 
  Optional k-point grid parameters
   LKPOINTS_OPT  =     F    use optional k-point grid
   KPOINTS_OPT_MODE=     1    mode for optional k-point grid
 
 Orbital magnetization related:
   ORBITALMAG=     F  switch on orbital magnetization
   LCHIMAG   =     F  perturbation theory with respect to B field
   DQ        =  0.001000  dq finite difference perturbation B field
   LLRAUG    =     F  two centre corrections for induced B field
   LBONE     =     F  B-component reconstruction in AE one-centre
   LVGVCALC  =     T  calculate vGv susceptibility
   LVGVAPPL  =     F  apply vGv susceptibility instead of pGv for G=0

 Random number generation:
   RANDOM_GENERATOR = DEFAULT
   PCG_SEED         = not used


--------------------------------------------------------------------------------------------------------


 Static calculation
 charge density and potential will be updated during run
 spin polarized calculation
 Variant of blocked Davidson
 Davidson routine will perform the subspace rotation
 perform sub-space diagonalisation
    after iterative eigenvector-optimisation
 modified Broyden-mixing scheme, WC =      100.0
 initial mixing is a Kerker type mixing with AMIX =  0.6000 and BMIX =      1.0000
 Hartree-type preconditioning will be used
 using additional bands           48
 real space projection scheme for non local part
 use partial core corrections
 calculate Harris-corrections to forces 
   (improved forces if not selfconsistent)
 use gradient corrections 
 use of overlap-Matrix (Vanderbilt PP)
 Gauss-broadening in eV      SIGMA  =   0.01


--------------------------------------------------------------------------------------------------------


  energy-cutoff  :      700.00
  volume of cell :     2603.43
      direct lattice vectors                 reciprocal lattice vectors
     7.680594444  0.000000000  0.000000000     0.130198256  0.000000000  0.000000000
     0.000000000 16.292999268  0.000000000     0.000000000  0.061376054  0.000000000
     0.000000000  0.000000000 20.804140091     0.000000000  0.000000000  0.048067356

  length of vectors
     7.680594444 16.292999268 20.804140091     0.130198256  0.061376054  0.048067356


 
 k-points in units of 2pi/SCALE and weight: Automatic KPOINTS generated             
   0.00000000  0.00000000  0.00000000       0.062
   0.03254956  0.00000000  0.00000000       0.125
   0.06509913  0.00000000  0.00000000       0.062
   0.00000000  0.03068803  0.00000000       0.062
   0.03254956  0.03068803  0.00000000       0.125
   0.06509913  0.03068803  0.00000000       0.062
   0.00000000  0.00000000  0.02403368       0.062
   0.03254956  0.00000000  0.02403368       0.125
   0.06509913  0.00000000  0.02403368       0.062
   0.00000000  0.03068803  0.02403368       0.062
   0.03254956  0.03068803  0.02403368       0.125
   0.06509913  0.03068803  0.02403368       0.062
 
 k-points in reciprocal lattice and weights: Automatic KPOINTS generated             
   0.00000000  0.00000000  0.00000000       0.062
   0.25000000  0.00000000  0.00000000       0.125
   0.50000000  0.00000000  0.00000000       0.062
   0.00000000  0.50000000  0.00000000       0.062
   0.25000000  0.50000000  0.00000000       0.125
   0.50000000  0.50000000  0.00000000       0.062
   0.00000000  0.00000000  0.50000000       0.062
   0.25000000  0.00000000  0.50000000       0.125
   0.50000000  0.00000000  0.50000000       0.062
   0.00000000  0.50000000  0.50000000       0.062
   0.25000000  0.50000000  0.50000000       0.125
   0.50000000  0.50000000  0.50000000       0.062
 
 position of ions in fractional coordinates (direct lattice) 
   0.97851729  0.98567820  0.00000000
   0.61432147  0.94633603  0.90071338
   0.47851718  0.65234476  0.18459295
   0.22851723  0.48567814  0.27688938
   0.86432147  0.44633609  0.56076908
   0.36432147  0.69633609  0.56076908
   0.97851729  0.31901154  0.00000000
   0.72851723  0.15234485  0.09229647
   0.47851718  0.98567814  0.18459295
   0.22851723  0.81901151  0.27688938
   0.97851718  0.65234476  0.36918586
   0.72851718  0.48567808  0.46148235
   0.61432147  0.69633609  0.90071338
   0.72851723  0.48567820  0.09229647
   0.47851718  0.31901151  0.18459295
   0.22851723  0.15234487  0.27688938
   0.97851718  0.98567814  0.36918586
   0.11432147  0.44633609  0.62875789
   0.47851729  0.98567820  0.00000000
   0.22851725  0.81901145  0.09229647
   0.97851723  0.65234476  0.18459295
   0.72851729  0.48567814  0.27688935
   0.47851718  0.31901139  0.36918586
   0.86432147  0.19633615  0.56076908
   0.86432147  0.94633615  0.83272451
   0.22851725  0.15234485  0.09229647
   0.97851723  0.98567814  0.18459295
   0.72851729  0.81901151  0.27688935
   0.47851718  0.65234476  0.36918586
   0.22851712  0.48567808  0.46148235
   0.11432147  0.19633603  0.90071338
   0.22851725  0.48567820  0.09229647
   0.97851723  0.31901151  0.18459295
   0.72851729  0.15234487  0.27688935
   0.47851718  0.98567814  0.36918586
   0.22851712  0.81901139  0.46148235
   0.11432147  0.44633609  0.90071338
   0.47851729  0.06901149  0.09229647
   0.22851726  0.90234476  0.18459295
   0.97851729  0.73567814  0.27688938
   0.72851723  0.56901145  0.36918586
   0.47851723  0.40234464  0.46148229
   0.11432147  0.69633609  0.90071338
   0.47851729  0.40234488  0.09229647
   0.22851726  0.23567820  0.18459295
   0.97851729  0.06901154  0.27688938
   0.72851723  0.90234482  0.36918586
   0.47851723  0.73567808  0.46148229
   0.72851735  0.90234494  0.00000000
   0.47851729  0.73567820  0.09229647
   0.22851726  0.56901151  0.18459295
   0.97851729  0.40234485  0.27688938
   0.72851723  0.23567812  0.36918586
   0.47851723  0.06901138  0.46148229
   0.22851729  0.23567820  0.00000000
   0.97851723  0.06901149  0.09229647
   0.72851718  0.90234476  0.18459295
   0.47851729  0.73567814  0.27688935
   0.22851718  0.56901145  0.36918586
   0.97851706  0.40234464  0.46148235
   0.22851729  0.56901163  0.00000000
   0.97851723  0.40234488  0.09229647
   0.72851718  0.23567820  0.18459295
   0.47851729  0.06901154  0.27688935
   0.22851718  0.90234482  0.36918586
   0.36432147  0.94633603  0.56076908
   0.22851729  0.90234494  0.00000000
   0.97851723  0.73567820  0.09229647
   0.72851718  0.56901151  0.18459295
   0.47851729  0.40234485  0.27688935
   0.22851718  0.23567812  0.36918586
   0.36432147  0.19633615  0.56076908
   0.86432147  0.69633603  0.56076908
   0.61432147  0.32133609  0.69674677
   0.36432147  0.94633615  0.83272451
   0.97851706  0.73567808  0.46148235
   0.11432147  0.57133609  0.69674677
   0.86432147  0.19633615  0.83272451
   0.22851712  0.15234470  0.46148235
   0.61432147  0.82133615  0.69674677
   0.36432147  0.44633609  0.83272451
   0.36432147  0.44633606  0.56076908
   0.11432147  0.07133615  0.69674677
   0.86432147  0.69633609  0.83272451
   0.11432147  0.69633603  0.62875789
   0.86432147  0.32133609  0.76473570
   0.72851723  0.81901145  0.09229647
   0.61432147  0.94633603  0.62875789
   0.36432147  0.57133609  0.76473570
   0.47851729  0.65234494  0.00000000
   0.11432147  0.19633615  0.62875789
   0.86432147  0.82133615  0.76473570
   0.61432147  0.44633609  0.90071338
   0.61432147  0.44633606  0.62875789
   0.36432147  0.07133615  0.76473570
   0.72851735  0.56901163  0.00000000
   0.86432147  0.94633609  0.56076908
   0.61432159  0.57133615  0.69674677
   0.36432147  0.19633615  0.83272451
   0.97851718  0.31901139  0.36918586
   0.61432147  0.07133615  0.69674677
   0.36432147  0.69633609  0.83272451
   0.72851718  0.15234470  0.46148235
   0.11432147  0.32133615  0.69674677
   0.47851729  0.31901154  0.00000000
   0.97851706  0.06901138  0.46148235
   0.11432147  0.82133609  0.69674677
   0.86432147  0.44633615  0.83272451
   0.11432159  0.94633609  0.62875789
   0.86432147  0.57133615  0.76473570
   0.61432147  0.19633615  0.90071338
   0.72851718  0.81901139  0.46148235
   0.86432147  0.07133615  0.76473570
   0.97851729  0.65234494  0.00000000
   0.61432147  0.69633603  0.62875789
   0.36432147  0.32133606  0.76473570
   0.11432147  0.94633603  0.90071338
   0.61432147  0.19633615  0.62875789
   0.36432147  0.82133615  0.76473570
   0.72851735  0.23567820  0.00000000
 
 position of ions in cartesian coordinates  (Angst):
   7.51559449 16.05965413  0.00000002
   4.71835407 15.41865226 18.73856742
   3.67529636 10.62865275  3.84029753
   1.75514820  7.91315351  5.76044553
   6.63850268  7.27215360 11.66631852
   2.79820546 11.34540342 11.66631852
   7.51559449  5.19765477  0.00000002
   5.59544542  2.48215458  1.92014878
   3.67529636 16.05965315  3.84029753
   1.75514820 13.34415392  5.76044553
   7.51559358 10.62865275  7.68059446
   5.59544497  7.91315255  9.60074338
   4.71835407 11.34540342 18.73856742
   5.59544542  7.91315449  1.92014878
   3.67529636  5.19765428  3.84029753
   1.75514820  2.48215482  5.76044553
   7.51559358 16.05965315  7.68059446
   0.87805685  7.27215360 13.08076731
   3.67529727 16.05965413  0.00000000
   1.75514831 13.34415296  1.92014878
   7.51559403 10.62865275  3.84029753
   5.59544588  7.91315351  5.76044491
   3.67529636  5.19765234  7.68059446
   6.63850268  3.19890475 11.66631852
   6.63850268 15.41865420 17.32411740
   1.75514831  2.48215458  1.92014878
   7.51559403 16.05965315  3.84029753
   5.59544588 13.34415392  5.76044491
   3.67529636 10.62865275  7.68059446
   1.75514728  7.91315255  9.60074338
   0.87805685  3.19890281 18.73856742
   1.75514831  7.91315449  1.92014878
   7.51559403  5.19765428  3.84029753
   5.59544588  2.48215482  5.76044491
   3.67529636 16.05965315  7.68059446
   1.75514728 13.34415198  9.60074338
   0.87805685  7.27215360 18.73856742
   3.67529727  1.12440411  1.92014861
   1.75514843 14.70190256  3.84029753
   7.51559449 11.98640333  5.76044553
   5.59544542  9.27090314  7.68059446
   3.67529681  6.55540099  9.60074213
   0.87805685 11.34540342 18.73856742
   3.67529727  6.55540487  1.92014861
   1.75514843  3.83990467  3.84029753
   7.51559449  1.12440495  5.76044553
   5.59544542 14.70190354  7.68059446
   3.67529681 11.98640237  9.60074213
   5.59544634 14.70190548  0.00000000
   3.67529727 11.98640431  1.92014861
   1.75514843  9.27090410  3.84029753
   7.51559449  6.55540440  5.76044553
   5.59544542  3.83990345  7.68059446
   3.67529681  1.12440241  9.60074213
   1.75514866  3.83990467  0.00000002
   7.51559403  1.12440411  1.92014878
   5.59544497 14.70190256  3.84029753
   3.67529727 11.98640333  5.76044491
   1.75514774  9.27090314  7.68059446
   7.51559266  6.55540099  9.60074338
   1.75514866  9.27090605  0.00000002
   7.51559403  6.55540487  1.92014878
   5.59544497  3.83990467  3.84029753
   3.67529727  1.12440495  5.76044491
   1.75514774 14.70190354  7.68059446
   2.79820546 15.41865226 11.66631852
   1.75514866 14.70190548  0.00000002
   7.51559403 11.98640431  1.92014878
   5.59544497  9.27090410  3.84029753
   3.67529727  6.55540440  5.76044491
   1.75514774  3.83990345  7.68059446
   2.79820546  3.19890475 11.66631852
   6.63850268 11.34540244 11.66631852
   4.71835407  5.23552870 14.49521735
   2.79820546 15.41865420 17.32411740
   7.51559266 11.98640237  9.60074338
   0.87805685  9.30877851 14.49521735
   6.63850268  3.19890475 17.32411740
   1.75514728  2.48215215  9.60074338
   4.71835407 13.38202929 14.49521735
   2.79820546  7.27215360 17.32411740
   2.79820546  7.27215312 11.66631852
   0.87805685  1.16227984 14.49521735
   6.63850268 11.34540342 17.32411740
   0.87805685 11.34540244 13.08076731
   6.63850268  5.23552870 15.90966861
   5.59544542 13.34415296  1.92014878
   4.71835407 15.41865226 13.08076731
   2.79820546  9.30877851 15.90966861
   3.67529727 10.62865566  0.00000000
   0.87805685  3.19890475 13.08076731
   6.63850268 13.38202929 15.90966861
   4.71835407  7.27215360 18.73856742
   4.71835407  7.27215312 13.08076731
   2.79820546  1.16227984 15.90966861
   5.59544634  9.27090605  0.00000000
   6.63850268 15.41865324 11.66631852
   4.71835498  9.30877947 14.49521735
   2.79820546  3.19890475 17.32411740
   7.51559358  5.19765234  7.68059446
   4.71835407  1.16227984 14.49521735
   2.79820546 11.34540342 17.32411740
   5.59544497  2.48215215  9.60074338
   0.87805685  5.23552966 14.49521735
   3.67529727  5.19765477  0.00000000
   7.51559266  1.12440241  9.60074338
   0.87805685 13.38202833 14.49521735
   6.63850268  7.27215457 17.32411740
   0.87805776 15.41865324 13.08076731
   6.63850268  9.30877947 15.90966861
   4.71835407  3.19890475 18.73856742
   5.59544497 13.34415198  9.60074338
   6.63850268  1.16227984 15.90966861
   7.51559449 10.62865566  0.00000002
   4.71835407 11.34540244 13.08076731
   2.79820546  5.23552821 15.90966861
   0.87805685 15.41865226 18.73856742
   4.71835407  3.19890475 13.08076731
   2.79820546 13.38202929 15.90966861
   5.59544634  3.83990467  0.00000000
 


--------------------------------------------------------------------------------------------------------


 k-point     1 :   0.0000 0.0000 0.0000  plane waves:  109471
 k-point     2 :   0.2500 0.0000 0.0000  plane waves:  109475
 k-point     3 :   0.5000 0.0000 0.0000  plane waves:  109458
 k-point     4 :   0.0000 0.5000 0.0000  plane waves:  109558
 k-point     5 :   0.2500 0.5000 0.0000  plane waves:  109496
 k-point     6 :   0.5000 0.5000 0.0000  plane waves:  109460
 k-point     7 :   0.0000 0.0000 0.5000  plane waves:  109486
 k-point     8 :   0.2500 0.0000 0.5000  plane waves:  109462
 k-point     9 :   0.5000 0.0000 0.5000  plane waves:  109440
 k-point    10 :   0.0000 0.5000 0.5000  plane waves:  109640
 k-point    11 :   0.2500 0.5000 0.5000  plane waves:  109512
 k-point    12 :   0.5000 0.5000 0.5000  plane waves:  109336

 maximum and minimum number of plane-waves per node :      6888     6794

 maximum number of plane-waves:    109640
 maximum index in each direction: 
   IXMAX=   16   IYMAX=   35   IZMAX=   44
   IXMIN=  -17   IYMIN=  -35   IZMIN=  -45


 real space projection operators:
  total allocation   :      17741.06 KBytes
  max/ min on nodes  :       1451.24       1029.18


 parallel 3D FFT for wavefunctions:
    minimum data exchange during FFTs selected (reduces bandwidth)
 parallel 3D FFT for charge:
    minimum data exchange during FFTs selected (reduces bandwidth)


 total amount of memory used by VASP MPI-rank0   262190. kBytes
=======================================================================

   base      :      30000. kBytes
   nonlr-proj:       6634. kBytes
   fftplans  :      18524. kBytes
   grid      :      14584. kBytes
   one-center:        129. kBytes
   wavefun   :     192319. kBytes
 
     INWAV:  cpu time      0.0001: real time      0.0005
 Broyden mixing: mesh for mixing (old mesh)
   NGX = 33   NGY = 71   NGZ = 89
  (NGX  =100   NGY  =216   NGZ  =280)
  gives a total of 208527 points

 initial charge density was supplied:
 charge density of overlapping atoms calculated
 number of electron     480.0000000 magnetization       1.0000000
 keeping initial charge density in first step


--------------------------------------------------------------------------------------------------------


 Maximum index for non-local projection operator          422
 Maximum index for augmentation-charges         5964 (set IRDMAX)


--------------------------------------------------------------------------------------------------------


 First call to EWALD:  gamma=   0.129
 Maximum number of real-space cells 5x 2x 2
 Maximum number of reciprocal cells 2x 3x 4

    FEWALD:  cpu time      0.0031: real time      0.0031


--------------------------------------- Ionic step        1  -------------------------------------------




--------------------------------------- Iteration      1(   1)  ---------------------------------------


    POTLOK:  cpu time      0.2074: real time      0.2095
    SETDIJ:  cpu time      1.0259: real time      1.0319
     EDDAV:  cpu time     35.7593: real time     36.0725
       DOS:  cpu time      0.0028: real time      0.0028
    --------------------------------------------
      LOOP:  cpu time     36.9954: real time     37.3167

 eigenvalue-minimisations  : 13824
 total energy-change (2. order) : 0.1968639E+04  (-0.2144103E+05)
 number of electron     480.0000000 magnetization       1.0000000
 augmentation part      480.0000000 magnetization       1.0000000

 Free energy of the ion-electron system (eV)
  ---------------------------------------------------
  alpha Z        PSCENC =       534.59184046
  Ewald energy   TEWEN  =    -12842.15681451
  -Hartree energ DENC   =     -1178.11183445
  -exchange      EXHF   =         0.00000000
  -V(xc)+E(xc)   XCENC  =     -1034.23585305
  PAW double counting   =     10575.88222728    -8613.76247617
  entropy T*S    EENTRO =        -0.00174356
  eigenvalues    EBANDS =      2065.83331462
  atomic energy  EATOM  =     12460.60057749
  Solvation  Ediel_sol  =         0.00000000
  ---------------------------------------------------
  free energy    TOTEN  =      1968.63923812 eV

  energy without entropy =     1968.64098168  energy(sigma->0) =     1968.64010990


--------------------------------------------------------------------------------------------------------




--------------------------------------- Iteration      1(   2)  ---------------------------------------


     EDDAV:  cpu time     40.2513: real time     40.6103
       DOS:  cpu time      0.0022: real time      0.0022
    --------------------------------------------
      LOOP:  cpu time     40.2535: real time     40.6125

 eigenvalue-minimisations  : 16208
 total energy-change (2. order) :-0.2329648E+04  (-0.2247142E+04)
 number of electron     480.0000000 magnetization       1.0000000
 augmentation part      480.0000000 magnetization       1.0000000

 Free energy of the ion-electron system (eV)
  ---------------------------------------------------
  alpha Z        PSCENC =       534.59184046
  Ewald energy   TEWEN  =    -12842.15681451
  -Hartree energ DENC   =     -1178.11183445
  -exchange      EXHF   =         0.00000000
  -V(xc)+E(xc)   XCENC  =     -1034.23585305
  PAW double counting   =     10575.88222728    -8613.76247617
  entropy T*S    EENTRO =        -0.00173420
  eigenvalues    EBANDS =      -263.81502515
  atomic energy  EATOM  =     12460.60057749
  Solvation  Ediel_sol  =         0.00000000
  ---------------------------------------------------
  free energy    TOTEN  =      -361.00909229 eV

  energy without entropy =     -361.00735810  energy(sigma->0) =     -361.00822520


--------------------------------------------------------------------------------------------------------




--------------------------------------- Iteration      1(   3)  ---------------------------------------


     EDDAV:  cpu time     42.0107: real time     42.3938
       DOS:  cpu time      0.0022: real time      0.0023
    --------------------------------------------
      LOOP:  cpu time     42.0129: real time     42.3960

 eigenvalue-minimisations  : 17008
 total energy-change (2. order) :-0.2162733E+03  (-0.2100279E+03)
 number of electron     480.0000000 magnetization       1.0000000
 augmentation part      480.0000000 magnetization       1.0000000

 Free energy of the ion-electron system (eV)
  ---------------------------------------------------
  alpha Z        PSCENC =       534.59184046
  Ewald energy   TEWEN  =    -12842.15681451
  -Hartree energ DENC   =     -1178.11183445
  -exchange      EXHF   =         0.00000000
  -V(xc)+E(xc)   XCENC  =     -1034.23585305
  PAW double counting   =     10575.88222728    -8613.76247617
  entropy T*S    EENTRO =        -0.00153243
  eigenvalues    EBANDS =      -480.08853309
  atomic energy  EATOM  =     12460.60057749
  Solvation  Ediel_sol  =         0.00000000
  ---------------------------------------------------
  free energy    TOTEN  =      -577.28239846 eV

  energy without entropy =     -577.28086603  energy(sigma->0) =     -577.28163225


--------------------------------------------------------------------------------------------------------




--------------------------------------- Iteration      1(   4)  ---------------------------------------


     EDDAV:  cpu time     40.7085: real time     41.0644
       DOS:  cpu time      0.0022: real time      0.0022
    --------------------------------------------
      LOOP:  cpu time     40.7106: real time     41.0665

 eigenvalue-minimisations  : 16336
 total energy-change (2. order) :-0.7802463E+01  (-0.7677608E+01)
 number of electron     480.0000000 magnetization       1.0000000
 augmentation part      480.0000000 magnetization       1.0000000

 Free energy of the ion-electron system (eV)
  ---------------------------------------------------
  alpha Z        PSCENC =       534.59184046
  Ewald energy   TEWEN  =    -12842.15681451
  -Hartree energ DENC   =     -1178.11183445
  -exchange      EXHF   =         0.00000000
  -V(xc)+E(xc)   XCENC  =     -1034.23585305
  PAW double counting   =     10575.88222728    -8613.76247617
  entropy T*S    EENTRO =        -0.00131942
  eigenvalues    EBANDS =      -487.89120945
  atomic energy  EATOM  =     12460.60057749
  Solvation  Ediel_sol  =         0.00000000
  ---------------------------------------------------
  free energy    TOTEN  =      -585.08486181 eV

  energy without entropy =     -585.08354240  energy(sigma->0) =     -585.08420211


--------------------------------------------------------------------------------------------------------




--------------------------------------- Iteration      1(   5)  ---------------------------------------


     EDDAV:  cpu time     44.3792: real time     44.7685
       DOS:  cpu time      0.0021: real time      0.0022
    CHARGE:  cpu time      1.7879: real time      1.8085
    MIXING:  cpu time      0.0046: real time      0.0047
    --------------------------------------------
      LOOP:  cpu time     46.1739: real time     46.5838

 eigenvalue-minimisations  : 18200
 total energy-change (2. order) :-0.2923786E+00  (-0.2906844E+00)
 number of electron     479.9999997 magnetization       1.0000000
 augmentation part      -48.5239380 magnetization      -0.0669057

 Broyden mixing:
  rms(total) = 0.31871E+01    rms(broyden)= 0.31871E+01
  rms(prec ) = 0.33346E+01
  weight for this iteration     100.00

 Free energy of the ion-electron system (eV)
  ---------------------------------------------------
  alpha Z        PSCENC =       534.59184046
  Ewald energy   TEWEN  =    -12842.15681451
  -Hartree energ DENC   =     -1178.11183445
  -exchange      EXHF   =         0.00000000
  -V(xc)+E(xc)   XCENC  =     -1034.23585305
  PAW double counting   =     10575.88222728    -8613.76247617
  entropy T*S    EENTRO =        -0.00121265
  eigenvalues    EBANDS =      -488.18369486
  atomic energy  EATOM  =     12460.60057749
  Solvation  Ediel_sol  =         0.00000000
  ---------------------------------------------------
  free energy    TOTEN  =      -585.37724045 eV

  energy without entropy =     -585.37602780  energy(sigma->0) =     -585.37663413


--------------------------------------------------------------------------------------------------------




--------------------------------------- Iteration      1(   6)  ---------------------------------------


    POTLOK:  cpu time      0.1757: real time      0.1782
    SETDIJ:  cpu time      1.0130: real time      1.0186
     EDDAV:  cpu time     41.2219: real time     41.5955
       DOS:  cpu time      0.0023: real time      0.0023
    CHARGE:  cpu time      1.7716: real time      1.7854
    MIXING:  cpu time      0.0050: real time      0.0051
    --------------------------------------------
      LOOP:  cpu time     44.1895: real time     44.5852

 eigenvalue-minimisations  : 16600
 total energy-change (2. order) : 0.9152460E+01  (-0.1439338E+01)
 number of electron     479.9999997 magnetization       1.0000000
 augmentation part      -48.1061044 magnetization      -0.0532473

 Broyden mixing:
  rms(total) = 0.14495E+01    rms(broyden)= 0.14495E+01
  rms(prec ) = 0.15307E+01
  weight for this iteration     100.00

 eigenvalues of (default mixing * dielectric matrix)
  average eigenvalue GAMMA=   1.7090
  1.7090

 Free energy of the ion-electron system (eV)
  ---------------------------------------------------
  alpha Z        PSCENC =       534.59184046
  Ewald energy   TEWEN  =    -12842.15681451
  -Hartree energ DENC   =     -1311.70775354
  -exchange      EXHF   =         0.00000000
  -V(xc)+E(xc)   XCENC  =     -1015.06613439
  PAW double counting   =     22510.62773950   -20557.50262590
  entropy T*S    EENTRO =        -0.00201894
  eigenvalues    EBANDS =      -355.60959021
  atomic energy  EATOM  =     12460.60057749
  Solvation  Ediel_sol  =         0.00000000
  ---------------------------------------------------
  free energy    TOTEN  =      -576.22478003 eV

  energy without entropy =     -576.22276109  energy(sigma->0) =     -576.22377056


--------------------------------------------------------------------------------------------------------




--------------------------------------- Iteration      1(   7)  ---------------------------------------


    POTLOK:  cpu time      0.1759: real time      0.1779
    SETDIJ:  cpu time      1.0133: real time      1.0191
     EDDAV:  cpu time     41.2860: real time     41.6726
       DOS:  cpu time      0.0022: real time      0.0022
    CHARGE:  cpu time      1.7595: real time      1.7731
    MIXING:  cpu time      0.0051: real time      0.0051
    --------------------------------------------
      LOOP:  cpu time     44.2420: real time     44.6501

 eigenvalue-minimisations  : 16680
 total energy-change (2. order) : 0.4283673E-01  (-0.1436055E+01)
 number of electron     479.9999997 magnetization       1.0000000
 augmentation part      -47.9967065 magnetization      -0.0497349

 Broyden mixing:
  rms(total) = 0.62689E+00    rms(broyden)= 0.62689E+00
  rms(prec ) = 0.81149E+00
  weight for this iteration     100.00

 eigenvalues of (default mixing * dielectric matrix)
  average eigenvalue GAMMA=   1.1951
  1.8555  0.5348

 Free energy of the ion-electron system (eV)
  ---------------------------------------------------
  alpha Z        PSCENC =       534.59184046
  Ewald energy   TEWEN  =    -12842.15681451
  -Hartree energ DENC   =     -1373.02766006
  -exchange      EXHF   =         0.00000000
  -V(xc)+E(xc)   XCENC  =     -1001.79507595
  PAW double counting   =     34619.05065899   -32671.82268156
  entropy T*S    EENTRO =        -0.00166803
  eigenvalues    EBANDS =      -301.62112014
  atomic energy  EATOM  =     12460.60057749
  Solvation  Ediel_sol  =         0.00000000
  ---------------------------------------------------
  free energy    TOTEN  =      -576.18194330 eV

  energy without entropy =     -576.18027527  energy(sigma->0) =     -576.18110928


--------------------------------------------------------------------------------------------------------




--------------------------------------- Iteration      1(   8)  ---------------------------------------


    POTLOK:  cpu time      0.1749: real time      0.1770
    SETDIJ:  cpu time      1.0147: real time      1.0202
     EDDAV:  cpu time     41.5483: real time     41.9174
       DOS:  cpu time      0.0022: real time      0.0022
    CHARGE:  cpu time      1.7602: real time      1.7736
    MIXING:  cpu time      0.0052: real time      0.0053
    --------------------------------------------
      LOOP:  cpu time     44.5056: real time     44.8956

 eigenvalue-minimisations  : 16728
 total energy-change (2. order) : 0.7112152E+00  (-0.3789770E+00)
 number of electron     479.9999997 magnetization       1.0000000
 augmentation part      -47.7409733 magnetization      -0.0528022

 Broyden mixing:
  rms(total) = 0.16679E+00    rms(broyden)= 0.16679E+00
  rms(prec ) = 0.18638E+00
  weight for this iteration     100.00

 eigenvalues of (default mixing * dielectric matrix)
  average eigenvalue GAMMA=   1.2200
  1.8453  1.2080  0.6066

 Free energy of the ion-electron system (eV)
  ---------------------------------------------------
  alpha Z        PSCENC =       534.59184046
  Ewald energy   TEWEN  =    -12842.15681451
  -Hartree energ DENC   =     -1393.79283831
  -exchange      EXHF   =         0.00000000
  -V(xc)+E(xc)   XCENC  =      -999.26292058
  PAW double counting   =     38969.40731670   -37023.33834065
  entropy T*S    EENTRO =        -0.00164303
  eigenvalues    EBANDS =      -281.51790566
  atomic energy  EATOM  =     12460.60057749
  Solvation  Ediel_sol  =         0.00000000
  ---------------------------------------------------
  free energy    TOTEN  =      -575.47072808 eV

  energy without entropy =     -575.46908505  energy(sigma->0) =     -575.46990656


--------------------------------------------------------------------------------------------------------




--------------------------------------- Iteration      1(   9)  ---------------------------------------


    POTLOK:  cpu time      0.1763: real time      0.1780
    SETDIJ:  cpu time      1.0143: real time      1.0200
     EDDAV:  cpu time     40.6535: real time     41.0220
       DOS:  cpu time      0.0022: real time      0.0022
    CHARGE:  cpu time      1.7573: real time      1.7705
    MIXING:  cpu time      0.0053: real time      0.0053
    --------------------------------------------
      LOOP:  cpu time     43.6089: real time     43.9979

 eigenvalue-minimisations  : 16344
 total energy-change (2. order) :-0.2692748E-01  (-0.1016176E+00)
 number of electron     479.9999997 magnetization       1.0000000
 augmentation part      -47.7839554 magnetization      -0.0544329

 Broyden mixing:
  rms(total) = 0.12432E+00    rms(broyden)= 0.12432E+00
  rms(prec ) = 0.14652E+00
  weight for this iteration     100.00

 eigenvalues of (default mixing * dielectric matrix)
  average eigenvalue GAMMA=   1.1429
  1.6876  1.6876  0.6676  0.5286

 Free energy of the ion-electron system (eV)
  ---------------------------------------------------
  alpha Z        PSCENC =       534.59184046
  Ewald energy   TEWEN  =    -12842.15681451
  -Hartree energ DENC   =     -1385.48096567
  -exchange      EXHF   =         0.00000000
  -V(xc)+E(xc)   XCENC  =      -999.99868660
  PAW double counting   =     39644.54066598   -37698.18179906
  entropy T*S    EENTRO =        -0.00193018
  eigenvalues    EBANDS =      -289.41054348
  atomic energy  EATOM  =     12460.60057749
  Solvation  Ediel_sol  =         0.00000000
  ---------------------------------------------------
  free energy    TOTEN  =      -575.49765556 eV

  energy without entropy =     -575.49572538  energy(sigma->0) =     -575.49669047


--------------------------------------------------------------------------------------------------------




--------------------------------------- Iteration      1(  10)  ---------------------------------------


    POTLOK:  cpu time      0.1738: real time      0.1767
    SETDIJ:  cpu time      1.0124: real time      1.0182
     EDDAV:  cpu time     40.8650: real time     41.2263
       DOS:  cpu time      0.0022: real time      0.0022
    CHARGE:  cpu time      1.7595: real time      1.7730
    MIXING:  cpu time      0.0052: real time      0.0052
    --------------------------------------------
      LOOP:  cpu time     43.8182: real time     44.2017

 eigenvalue-minimisations  : 16432
 total energy-change (2. order) : 0.1675928E-01  (-0.2092109E-01)
 number of electron     479.9999997 magnetization       1.0000000
 augmentation part      -47.8233110 magnetization      -0.0541278

 Broyden mixing:
  rms(total) = 0.73324E-01    rms(broyden)= 0.73324E-01
  rms(prec ) = 0.82480E-01
  weight for this iteration     100.00

 eigenvalues of (default mixing * dielectric matrix)
  average eigenvalue GAMMA=   1.0907
  1.7560  1.7560  0.8746  0.5335  0.5335

 Free energy of the ion-electron system (eV)
  ---------------------------------------------------
  alpha Z        PSCENC =       534.59184046
  Ewald energy   TEWEN  =    -12842.15681451
  -Hartree energ DENC   =     -1379.93433611
  -exchange      EXHF   =         0.00000000
  -V(xc)+E(xc)   XCENC  =     -1000.50926055
  PAW double counting   =     39840.75097255   -37894.17856763
  entropy T*S    EENTRO =        -0.00191085
  eigenvalues    EBANDS =      -294.64339713
  atomic energy  EATOM  =     12460.60057749
  Solvation  Ediel_sol  =         0.00000000
  ---------------------------------------------------
  free energy    TOTEN  =      -575.48089628 eV

  energy without entropy =     -575.47898543  energy(sigma->0) =     -575.47994085


--------------------------------------------------------------------------------------------------------




--------------------------------------- Iteration      1(  11)  ---------------------------------------


    POTLOK:  cpu time      0.1749: real time      0.1767
    SETDIJ:  cpu time      1.0157: real time      1.0218
     EDDAV:  cpu time     41.3201: real time     41.7091
       DOS:  cpu time      0.0021: real time      0.0021
    CHARGE:  cpu time      1.7743: real time      1.7880
    MIXING:  cpu time      0.0060: real time      0.0060
    --------------------------------------------
      LOOP:  cpu time     44.2931: real time     44.7038

 eigenvalue-minimisations  : 16648
 total energy-change (2. order) : 0.4482147E-04  (-0.5461304E-02)
 number of electron     479.9999997 magnetization       1.0000000
 augmentation part      -47.8276397 magnetization      -0.0538085

 Broyden mixing:
  rms(total) = 0.45338E-01    rms(broyden)= 0.45338E-01
  rms(prec ) = 0.58710E-01
  weight for this iteration     100.00

 eigenvalues of (default mixing * dielectric matrix)
  average eigenvalue GAMMA=   1.0511
  1.5990  1.5990  1.2932  0.6896  0.6896  0.4359

 Free energy of the ion-electron system (eV)
  ---------------------------------------------------
  alpha Z        PSCENC =       534.59184046
  Ewald energy   TEWEN  =    -12842.15681451
  -Hartree energ DENC   =     -1378.57306645
  -exchange      EXHF   =         0.00000000
  -V(xc)+E(xc)   XCENC  =     -1000.64961767
  PAW double counting   =     39942.99891787   -37996.37141542
  entropy T*S    EENTRO =        -0.00190185
  eigenvalues    EBANDS =      -295.91937139
  atomic energy  EATOM  =     12460.60057749
  Solvation  Ediel_sol  =         0.00000000
  ---------------------------------------------------
  free energy    TOTEN  =      -575.48085146 eV

  energy without entropy =     -575.47894961  energy(sigma->0) =     -575.47990054


--------------------------------------------------------------------------------------------------------




--------------------------------------- Iteration      1(  12)  ---------------------------------------


    POTLOK:  cpu time      0.1756: real time      0.1773
    SETDIJ:  cpu time      1.0170: real time      1.0226
     EDDAV:  cpu time     41.6562: real time     42.0462
       DOS:  cpu time      0.0022: real time      0.0023
    CHARGE:  cpu time      1.7745: real time      1.7880
    MIXING:  cpu time      0.0049: real time      0.0049
    --------------------------------------------
      LOOP:  cpu time     44.6304: real time     45.0413

 eigenvalue-minimisations  : 16800
 total energy-change (2. order) : 0.1000672E-02  (-0.2739916E-02)
 number of electron     479.9999997 magnetization       1.0000000
 augmentation part      -47.8254138 magnetization      -0.0534139

 Broyden mixing:
  rms(total) = 0.29304E-01    rms(broyden)= 0.29304E-01
  rms(prec ) = 0.39948E-01
  weight for this iteration     100.00

 eigenvalues of (default mixing * dielectric matrix)
  average eigenvalue GAMMA=   1.0373
  1.6666  1.6102  1.6102  0.8013  0.6768  0.5234  0.3725

 Free energy of the ion-electron system (eV)
  ---------------------------------------------------
  alpha Z        PSCENC =       534.59184046
  Ewald energy   TEWEN  =    -12842.15681451
  -Hartree energ DENC   =     -1379.26358573
  -exchange      EXHF   =         0.00000000
  -V(xc)+E(xc)   XCENC  =     -1000.61070306
  PAW double counting   =     39936.18466836   -37989.57660226
  entropy T*S    EENTRO =        -0.00183284
  eigenvalues    EBANDS =      -295.24739870
  atomic energy  EATOM  =     12460.60057749
  Solvation  Ediel_sol  =         0.00000000
  ---------------------------------------------------
  free energy    TOTEN  =      -575.47985079 eV

  energy without entropy =     -575.47801795  energy(sigma->0) =     -575.47893437


--------------------------------------------------------------------------------------------------------




--------------------------------------- Iteration      1(  13)  ---------------------------------------


    POTLOK:  cpu time      0.1741: real time      0.1766
    SETDIJ:  cpu time      1.0144: real time      1.0200
     EDDAV:  cpu time     41.4509: real time     41.8249
       DOS:  cpu time      0.0022: real time      0.0022
    CHARGE:  cpu time      1.7870: real time      1.8007
    MIXING:  cpu time      0.0061: real time      0.0061
    --------------------------------------------
      LOOP:  cpu time     44.4345: real time     44.8306

 eigenvalue-minimisations  : 16704
 total energy-change (2. order) : 0.1542310E-02  (-0.7729950E-03)
 number of electron     479.9999997 magnetization       1.0000000
 augmentation part      -47.8234738 magnetization      -0.0529361

 Broyden mixing:
  rms(total) = 0.14867E-01    rms(broyden)= 0.14867E-01
  rms(prec ) = 0.15506E-01
  weight for this iteration     100.00

 eigenvalues of (default mixing * dielectric matrix)
  average eigenvalue GAMMA=   1.1056
  2.0449  2.0449  1.6066  0.8352  0.7352  0.7352  0.4930  0.3498

 Free energy of the ion-electron system (eV)
  ---------------------------------------------------
  alpha Z        PSCENC =       534.59184046
  Ewald energy   TEWEN  =    -12842.15681451
[...]
   -.447E-01 0.277E+00 0.105E+02   0.102E-01 -.124E+00 -.105E+02   0.200E-01 -.454E-01 -.323E-01   -.533E-06 0.309E-05 0.144E-04
   -.398E-01 0.239E+00 -.105E+02   0.953E-02 -.143E+00 0.105E+02   0.146E-01 -.151E-01 -.980E-02   -.732E-06 -.117E-04 -.143E-04
   -.184E+00 -.949E+00 -.335E+02   -.255E+00 0.101E+01 0.335E+02   0.237E+00 0.462E-01 0.547E-01   -.224E-05 -.248E-04 -.475E-04
   0.190E+00 0.953E+00 -.496E+01   -.168E+00 -.103E+01 0.554E+01   -.237E-02 0.138E+00 -.242E+01   0.200E-05 -.123E-04 -.434E-04
   -.705E+01 0.266E+02 0.411E+02   0.667E+01 -.248E+02 -.395E+02   0.490E+00 -.232E+01 -.743E+00   0.868E-05 0.103E-04 0.106E-03
   0.516E+00 -.134E+01 0.342E+02   -.259E+00 0.176E+01 -.335E+02   0.195E+00 -.257E+00 -.258E+00   -.936E-06 0.851E-05 0.848E-04
   -.397E-01 0.249E+00 0.105E+02   0.954E-02 -.143E+00 -.105E+02   0.179E-01 -.143E-01 -.365E-02   -.179E-05 -.923E-05 0.340E-04
   -.263E-01 0.258E+00 -.107E+02   0.102E-01 -.165E+00 0.105E+02   0.208E-02 0.267E-01 0.235E+00   -.951E-06 -.483E-05 -.181E-04
   0.510E+00 -.134E+01 -.342E+02   -.259E+00 0.176E+01 0.335E+02   0.200E+00 -.254E+00 0.257E+00   -.548E-05 -.305E-05 -.709E-04
   -.595E+01 -.146E+02 -.190E+02   0.494E+01 0.161E+02 0.198E+02   0.516E+00 -.111E+01 -.918E+00   0.245E-05 -.244E-04 -.320E-04
   0.568E+01 0.154E+02 -.225E+02   -.527E+01 -.164E+02 0.229E+02   -.421E+00 0.178E+00 0.161E+00   0.289E-05 0.291E-04 -.527E-04
   -.291E+00 0.449E+00 0.356E+01   0.136E-01 -.364E+00 -.305E+01   -.456E-01 -.575E-01 -.107E+01   0.867E-05 -.678E-06 -.316E-05
   0.543E+00 -.104E+00 0.169E+02   -.162E-01 0.105E+00 -.166E+02   -.300E-01 -.332E-02 -.733E+00   0.168E-04 -.613E-05 -.358E-05
   -.686E+01 0.976E+01 -.398E+02   0.695E+01 -.933E+01 0.386E+02   0.440E+00 -.648E+00 0.327E+00   -.347E-05 0.361E-04 -.102E-03
   0.237E+00 -.729E+00 0.345E+01   -.125E-01 0.336E+00 -.309E+01   0.430E-01 -.108E-01 -.123E+01   -.472E-06 0.490E-06 -.368E-05
   -.998E+00 0.325E+01 0.143E+02   0.304E+00 -.313E+01 -.135E+02   0.944E+00 -.134E-01 -.718E+00   -.314E-04 0.617E-05 -.155E-04
   0.765E+01 -.965E+01 -.420E+02   -.651E+01 0.948E+01 0.414E+02   -.136E+00 0.732E+00 0.890E+00   -.124E-04 -.274E-04 -.105E-03
   0.318E+00 -.260E+00 0.221E+01   -.142E-01 0.364E+00 -.205E+01   -.691E-01 -.324E-01 -.707E+00   0.282E-05 0.375E-05 -.658E-05
   -.360E+00 0.135E+00 0.111E+02   0.116E-01 -.111E+00 -.102E+02   -.155E+00 -.192E-01 -.107E+01   0.863E-05 0.289E-05 0.209E-04
   -.615E+00 -.146E+01 -.369E+02   0.155E+00 0.137E+01 0.371E+02   -.162E+00 0.159E+00 0.413E+00   0.921E-06 0.536E-05 -.438E-04
   -.260E+00 0.267E+00 0.211E+01   0.130E-01 -.336E+00 -.201E+01   0.445E-01 0.308E-01 -.611E+00   -.987E-05 -.457E-05 -.181E-04
   0.141E+01 -.328E+01 0.144E+02   -.303E+00 0.314E+01 -.133E+02   -.806E+00 0.486E-02 -.737E+00   -.442E-04 -.325E-05 0.145E-05
   -.995E+00 0.322E+01 -.143E+02   0.304E+00 -.313E+01 0.135E+02   0.942E+00 0.838E-02 0.701E+00   -.965E-06 0.969E-05 -.178E-04
   0.337E+00 -.296E+00 -.222E+01   -.142E-01 0.364E+00 0.205E+01   -.571E-01 -.188E-01 0.694E+00   -.842E-05 0.284E-05 -.143E-04
   -.199E-01 0.980E+00 0.341E+02   0.208E+00 -.137E+01 -.341E+02   -.126E+00 0.714E-01 -.180E+00   -.390E-05 0.161E-04 0.709E-04
   -.360E+00 0.136E+00 -.111E+02   0.116E-01 -.111E+00 0.102E+02   -.155E+00 -.168E-01 0.106E+01   0.888E-05 0.149E-05 -.296E-04
   -.289E+00 0.267E+00 -.212E+01   0.131E-01 -.336E+00 0.201E+01   0.513E-01 0.301E-01 0.609E+00   0.861E-05 -.475E-05 -.367E-05
   0.667E+01 -.962E+01 0.420E+02   -.651E+01 0.948E+01 -.414E+02   -.232E+00 0.758E+00 -.896E+00   0.195E-04 -.653E-05 0.664E-04
   0.141E+01 -.326E+01 -.144E+02   -.303E+00 0.314E+01 0.133E+02   -.807E+00 -.209E-01 0.721E+00   -.403E-04 -.719E-05 -.701E-05
   -.299E+00 0.771E+00 -.335E+01   0.137E-01 -.364E+00 0.305E+01   -.410E-01 0.914E-02 0.112E+01   -.134E-04 0.504E-05 -.125E-04
   0.171E+00 0.972E+00 0.653E+01   -.168E+00 -.103E+01 -.554E+01   -.337E-02 0.984E-01 0.124E+01   -.207E-05 -.250E-05 0.436E-04
   0.544E+00 -.102E+00 -.169E+02   -.162E-01 0.105E+00 0.166E+02   -.334E-01 -.798E-02 0.729E+00   0.230E-05 -.536E-05 -.428E-05
   0.267E+00 -.417E+00 -.367E+01   -.125E-01 0.336E+00 0.309E+01   0.426E-01 0.494E-01 0.116E+01   0.104E-04 -.406E-05 -.177E-04
   -.387E+01 0.158E+02 0.522E+02   0.325E+01 -.164E+02 -.515E+02   0.104E+00 -.113E+01 -.180E+01   -.169E-04 -.120E-04 0.699E-04
   0.167E+00 0.971E+00 -.653E+01   -.168E+00 -.103E+01 0.554E+01   0.528E-02 0.932E-01 -.122E+01   -.281E-05 0.144E-05 -.461E-04
   0.273E+00 -.423E+00 0.366E+01   -.125E-01 0.336E+00 -.309E+01   0.330E-01 0.545E-01 -.115E+01   0.213E-05 0.125E-05 0.241E-05
   -.183E+01 0.320E+01 0.142E+02   0.304E+00 -.313E+01 -.135E+02   0.795E+00 0.183E-01 -.588E+00   0.318E-04 0.504E-05 -.129E-04
   -.171E-01 0.980E+00 -.341E+02   0.208E+00 -.137E+01 0.341E+02   -.139E+00 0.460E-01 0.188E+00   -.359E-05 0.645E-05 -.637E-04
   -.324E+00 0.258E+00 0.213E+01   0.131E-01 -.336E+00 -.201E+01   0.759E-01 0.252E-01 -.633E+00   0.758E-05 -.457E-05 -.119E-04
   0.142E+01 -.324E+01 0.144E+02   -.303E+00 0.314E+01 -.133E+02   -.820E+00 -.410E-01 -.744E+00   0.451E-04 -.126E-05 0.172E-05
   0.667E+01 -.963E+01 -.420E+02   -.651E+01 0.948E+01 0.414E+02   -.249E+00 0.737E+00 0.894E+00   0.201E-04 -.209E-04 -.754E-04
   -.331E+00 0.766E+00 0.336E+01   0.136E-01 -.364E+00 -.305E+01   -.220E-01 0.898E-02 -.115E+01   -.107E-04 0.530E-06 -.641E-05
   0.319E+01 -.171E+02 0.528E+02   -.322E+01 0.173E+02 -.522E+02   -.112E-01 0.114E+01 -.161E+01   0.901E-05 0.830E-05 0.985E-04
   -.388E+01 0.158E+02 -.522E+02   0.325E+01 -.164E+02 0.515E+02   0.883E-01 -.113E+01 0.180E+01   -.197E-04 -.461E-05 -.844E-04
   0.370E+00 -.287E+00 0.222E+01   -.143E-01 0.364E+00 -.205E+01   -.828E-01 -.253E-01 -.705E+00   -.694E-06 0.435E-05 -.166E-04
   0.295E+00 0.138E+00 0.111E+02   0.116E-01 -.111E+00 -.102E+02   0.184E+00 -.148E-01 -.107E+01   -.928E-05 0.237E-05 0.188E-04
   0.294E+00 0.139E+00 -.111E+02   0.116E-01 -.111E+00 0.102E+02   0.188E+00 -.214E-01 0.106E+01   -.975E-05 0.888E-07 -.287E-04
   -.297E+00 0.258E+00 -.212E+01   0.131E-01 -.336E+00 0.201E+01   0.847E-01 0.189E-01 0.611E+00   -.110E-04 -.536E-05 -.419E-05
   0.567E+01 0.154E+02 0.225E+02   -.527E+01 -.164E+02 -.229E+02   -.419E+00 0.177E+00 -.150E+00   -.197E-05 0.118E-04 0.408E-04
   0.318E+01 -.170E+02 -.528E+02   -.322E+01 0.173E+02 0.522E+02   -.212E-01 0.111E+01 0.161E+01   0.282E-05 -.279E-05 -.101E-03
   0.243E+00 -.734E+00 -.344E+01   -.125E-01 0.336E+00 0.309E+01   0.490E-01 -.125E-01 0.120E+01   -.805E-05 -.118E-05 -.232E-04
   0.765E+01 -.965E+01 0.420E+02   -.651E+01 0.948E+01 -.414E+02   -.123E+00 0.756E+00 -.886E+00   -.157E-04 -.139E-04 0.954E-04
   -.183E+01 0.322E+01 -.142E+02   0.304E+00 -.313E+01 0.135E+02   0.799E+00 -.408E-02 0.589E+00   -.835E-06 0.830E-05 -.166E-04
   0.351E+00 -.248E+00 -.221E+01   -.143E-01 0.364E+00 0.205E+01   -.796E-01 -.470E-01 0.694E+00   0.110E-04 0.692E-05 -.841E-05
   -.594E+00 -.144E+01 0.369E+02   0.155E+00 0.137E+01 -.371E+02   -.181E+00 0.149E+00 -.396E+00   -.146E-05 -.462E-05 0.366E-04
   0.142E+01 -.326E+01 -.144E+02   -.303E+00 0.314E+01 0.133E+02   -.818E+00 -.203E-01 0.745E+00   0.418E-04 -.412E-05 -.999E-05
   -.324E+00 0.446E+00 -.357E+01   0.136E-01 -.364E+00 0.305E+01   -.107E-01 -.663E-01 0.107E+01   0.109E-04 0.155E-05 -.111E-04
   -.686E+01 0.976E+01 0.398E+02   0.695E+01 -.933E+01 -.386E+02   0.462E+00 -.648E+00 -.327E+00   -.797E-05 0.312E-04 0.107E-03
 -----------------------------------------------------------------------------------------------
   -.192E+01 0.345E+01 0.106E-01   0.995E-13 -.162E-12 0.227E-12   0.190E+01 -.349E+01 -.251E+00   -.754E-05 0.152E-04 0.622E-04
 
 
 POSITION                                       TOTAL-FORCE (eV/Angst)
 -----------------------------------------------------------------------------------
      7.51559     16.05965      0.00000        -0.005058      0.486037      0.680665
      4.71835     15.41865     18.73857         0.306886      0.050854     -0.096510
      3.67530     10.62865      3.84030         0.009211     -0.093128     -0.046959
      1.75515      7.91315      5.76045        -0.003693     -0.104301      0.061536
      6.63850      7.27215     11.66632         0.308962      0.045628      0.100093
      2.79821     11.34540     11.66632         0.458503     -0.323870     -0.036086
      7.51559      5.19765      0.00000         1.240850      0.963799     -0.792235
      5.59545      2.48215      1.92015         0.058717     -0.535838      0.415706
      3.67530     16.05965      3.84030         0.018698     -0.116254     -0.053199
      1.75515     13.34415      5.76045         0.020962     -0.082983      0.007912
      7.51559     10.62865      7.68059         0.064519     -0.534591     -0.420581
      5.59544      7.91315      9.60074         0.243329      0.356682     -0.204392
      4.71835     11.34540     18.73857        -0.567047      0.440372      0.030486
      5.59545      7.91315      1.92015         0.180398     -0.515396      0.439092
      3.67530      5.19765      3.84030         0.024216     -0.092296     -0.005715
      1.75515      2.48215      5.76045         0.016797     -0.087211      0.051469
      7.51559     16.05965      7.68059         0.186335     -0.509602     -0.445089
      0.87806      7.27215     13.08077        -0.444410     -0.011918      0.237594
      3.67530     16.05965      0.00000         0.236594      0.359049      0.205117
      1.75515     13.34415      1.92015         0.064986     -0.344645     -0.231583
      7.51559     10.62865      3.84030         0.019068     -0.104356     -0.042097
      5.59545      7.91315      5.76044         0.018108     -0.115222      0.061678
      3.67530      5.19765      7.68059         0.071769     -0.342755      0.228660
      6.63850      3.19890     11.66632        -0.571686      0.440069     -0.033162
      6.63850     15.41865     17.32412        -0.453562     -0.014711     -0.235619
      1.75515      2.48215      1.92015         0.046515     -0.175960     -0.063692
      7.51559     16.05965      3.84030        -0.000587     -0.118956     -0.056425
      5.59545     13.34415      5.76044         0.018812     -0.080762      0.008990
      3.67530     10.62865      7.68059         0.054841     -0.169853      0.058646
      1.75515      7.91315      9.60074        -0.000221      0.485652     -0.674325
      0.87806      3.19890     18.73857         0.462150     -0.318630      0.038379
      1.75515      7.91315      1.92015         0.208026     -0.128909     -0.083872
      7.51559      5.19765      3.84030         0.018886     -0.088262      0.003045
      5.59545      2.48215      5.76044         0.008412     -0.094773      0.051225
      3.67530     16.05965      7.68059         0.216507     -0.126574      0.079240
      1.75515     13.34415      9.60074         1.248358      0.962963      0.792986
      0.87806      7.27215     18.73857         0.024854      0.063035      1.835734
      3.67530      1.12440      1.92015        -0.040551      0.291822     -0.247780
      1.75515     14.70190      3.84030        -0.010452      0.116931     -0.057835
      7.51559     11.98640      5.76045        -0.017395      0.108023      0.050305
      5.59545      9.27090      7.68059        -0.040326      0.297085      0.244900
      3.67530      6.55540      9.60074         0.105056     -0.531364     -0.838224
      0.87806     11.34540     18.73857        -0.494885      0.367953      0.109562
      3.67530      6.55540      1.92015        -0.151469      0.486921      0.391231
      1.75515      3.83990      3.84030        -0.013567      0.102552     -0.050149
      7.51559      1.12440      5.76045        -0.017398      0.088073      0.020978
      5.59545     14.70190      7.68059        -0.148607      0.492855     -0.398498
      3.67530     11.98640      9.60074        -1.037544     -0.145602     -0.140333
      5.59545     14.70191      0.00000        -0.098566     -0.018326     -0.194398
      3.67530     11.98640      1.92015        -0.536194      0.160756      0.406295
      1.75515      9.27090      3.84030        -0.010505      0.081802     -0.018693
      7.51559      6.55540      5.76045        -0.012635      0.465152     -0.425543
      5.59545      3.83990      7.68059        -0.533966      0.166725     -0.412082
      3.67530      1.12440      9.60074        -0.684488     -1.412737      0.920664
      1.75515      3.83990      0.00000        -1.038620     -0.153501      0.146785
      7.51559      1.12440      1.92015        -0.057049      0.283760     -0.244064
      5.59544     14.70190      3.84030        -0.006044      0.472592      0.419952
      3.67530     11.98640      5.76044        -0.020473      0.097712      0.047359
      1.75515      9.27090      7.68059        -0.055340      0.284975      0.237530
      7.51559      6.55540      9.60074        -0.093678     -0.012827      0.199614
      1.75515      9.27091      0.00000        -0.688882     -1.422473     -0.911971
      7.51559      6.55540      1.92015        -0.200878      0.110647     -0.099520
      5.59544      3.83990      3.84030        -0.014282      0.107368     -0.055849
      3.67530      1.12440      5.76044        -0.015505      0.081318      0.012499
      1.75515     14.70190      7.68059        -0.201878      0.108552      0.095315
      2.79821     15.41865     11.66632         0.019192      0.059254     -1.833664
      1.75515     14.70191      0.00000         0.103218     -0.536556      0.843193
      7.51559     11.98640      1.92015         0.451686      0.163547      0.409491
      5.59544      9.27090      3.84030        -0.012132      0.092414     -0.023391
      3.67530      6.55540      5.76044        -0.013846      0.119677      0.054970
      1.75515      3.83990      7.68059         0.451484      0.163507     -0.415286
      2.79821      3.19890     11.66632        -0.499838      0.358149     -0.108633
      6.63850     11.34540     11.66632        -0.010643     -0.835511      0.568991
      4.71835      5.23553     14.49522        -0.323123      0.027976     -0.555024
      2.79821     15.41865     17.32412         0.496847     -0.002345     -0.427823
      7.51559     11.98640      9.60074         0.528683     -0.213127     -0.886915
      0.87806      9.30878     14.49522         0.268148     -0.403170     -0.865302
      6.63850      3.19890     17.32412         0.250741      0.099947      0.054510
      1.75515      2.48215      9.60074         1.005055      0.565147      0.234868
      4.71835     13.38203     14.49522         0.234900      0.071805     -0.544339
      2.79821      7.27215     17.32412        -0.502688      0.004939     -0.160765
      2.79821      7.27215     11.66632        -0.622420      0.077160      0.586217
      0.87806      1.16228     14.49522        -0.202725     -0.038092     -0.511572
      6.63850     11.34540     17.32412         0.301872     -0.135313      0.342710
      0.87806     11.34540     13.08077         0.251561      0.101197     -0.060635
      6.63850      5.23553     15.90967         0.265388      0.050125      0.530427
      5.59545     13.34415      1.92015         0.063011     -0.319073     -0.209499
      4.71835     15.41865     13.08077        -0.503560      0.008668      0.160977
      2.79821      9.30878     15.90967        -0.224781     -0.038686      0.502163
      3.67530     10.62866      0.00000        -0.078208      0.617118     -0.229489
      0.87806      3.19890     13.08077         0.302344     -0.141676     -0.345859
      6.63850     13.38203     15.90967        -0.326714      0.416755      0.824755
      4.71835      7.27215     18.73857        -0.000392      0.038020      2.228985
      4.71835      7.27215     13.08077         0.494965     -0.005094      0.423492
      2.79821      1.16228     15.90967         0.297403     -0.031103      0.584533
      5.59545      9.27091      0.00000        -0.520900     -1.673036     -1.112905
      6.63850     15.41865     11.66632         0.003710      0.031876     -2.211695
      4.71835      9.30878     14.49522         0.293465     -0.032194     -0.585618
      2.79821      3.19890     17.32412        -0.729575      0.083199      0.102597
      7.51559      5.19765      7.68059         0.052153     -0.344974      0.222526
      4.71835      1.16228     14.49522        -0.235326     -0.052488     -0.512387
      2.79821     11.34540     17.32412         0.301839     -0.141516      0.335676
      5.59544      2.48215      9.60074        -0.095252      0.591685      0.241649
      0.87806      5.23553     14.49522        -0.338783      0.411131     -0.837501
      3.67530      5.19765      0.00000        -0.044189      1.369057     -0.960412
      7.51559      1.12440      9.60074        -0.540436     -1.679012      1.109828
      0.87806     13.38203     14.49522         0.272771      0.052000     -0.541266
      6.63850      7.27215     17.32412         0.491031      0.012137     -0.171566
      0.87806     15.41865     13.08077         0.494109      0.006580      0.161571
      6.63850      9.30878     15.90967        -0.198616     -0.059027      0.503993
      4.71835      3.19890     18.73857        -0.018623     -0.832922     -0.549551
      5.59544     13.34415      9.60074        -0.061744      1.348527      0.969852
      6.63850      1.16228     15.90967         0.279690     -0.409776      0.851704
      7.51559     10.62866      0.00000         1.017629      0.585539     -0.229611
      4.71835     11.34540     13.08077        -0.728876      0.080290     -0.107032
      2.79821      5.23553     15.90967         0.257607      0.069469      0.539607
      0.87806     15.41865     18.73857        -0.620189      0.082233     -0.564574
      4.71835      3.19890     13.08077         0.303727     -0.138762     -0.340420
      2.79821     13.38203     15.90967        -0.320541      0.016221      0.551256
      5.59545      3.83990      0.00000         0.546005     -0.211024      0.887434
 -----------------------------------------------------------------------------------
    total drift:                               -0.020602     -0.043667     -0.240283


--------------------------------------------------------------------------------------------------------



  FREE ENERGIE OF THE ION-ELECTRON SYSTEM (eV)
  ---------------------------------------------------
  free  energy   TOTEN  =      -575.47842196 eV

  energy  without entropy=     -575.47665785  energy(sigma->0) =     -575.47753991
 


--------------------------------------------------------------------------------------------------------


    POTLOK:  cpu time      1.1975: real time      1.2048


--------------------------------------------------------------------------------------------------------


     LOOP+:  cpu time   1120.9941: real time   1131.3649
    4ORBIT:  cpu time      0.0000: real time      0.0000

 total amount of memory used by VASP MPI-rank0   262190. kBytes
=======================================================================

   base      :      30000. kBytes
   nonlr-proj:       6634. kBytes
   fftplans  :      18524. kBytes
   grid      :      14584. kBytes
   one-center:        129. kBytes
   wavefun   :     192319. kBytes
 
  
  
 General timing and accounting informations for this job:
 ========================================================
  
                  Total CPU time used (sec):     1200.975
                            User time (sec):     1143.599
                          System time (sec):       57.376
                         Elapsed time (sec):     1213.931
  
                   Maximum memory used (kb):      528628.
                   Average memory used (kb):          N/A
  
                          Minor page faults:       187661
                          Major page faults:           39
                 Voluntary context switches:         2037
