 264 264   0   0
  0.2774202E+02  0.1958175E-08  0.1958175E-08  0.1910025E-08  0.5000000E-15
  1.000000000000000E-004
  CAR 
 Si and Ge interface calculation         
      6.63063233     -9.02437639  301      4.03866735      1.00000000
     -9.024  0.0000E+00  0.0000E+00  0.0000E+00  0.0000E+00
     -8.972  0.0000E+00  0.0000E+00  0.0000E+00  0.0000E+00
     -8.920  0.0000E+00  0.0000E+00  0.0000E+00  0.0000E+00
     -8.868  0.0000E+00  0.0000E+00  0.0000E+00  0.0000E+00
     -8.816  0.0000E+00  0.0000E+00  0.0000E+00  0.0000E+00
     -8.763  0.0000E+00  0.0000E+00  0.0000E+00  0.0000E+00
     -8.711  0.0000E+00  0.0000E+00  0.0000E+00  0.0000E+00
     -8.659  0.0000E+00  0.0000E+00  0.0000E+00  0.0000E+00
     -8.607  0.0000E+00  0.0000E+00  0.0000E+00  0.0000E+00
     -8.555  0.0000E+00  0.0000E+00  0.0000E+00  0.0000E+00
     -8.503  0.0000E+00  0.0000E+00  0.0000E+00  0.0000E+00
     -8.450  0.0000E+00  0.0000E+00  0.0000E+00  0.0000E+00
     -8.398  0.0000E+00  0.0000E+00  0.0000E+00  0.0000E+00
     -8.346  0.1250E-04  0.3621E-05  0.6524E-06  0.1890E-06
     -8.294  0.9723E+01  0.9602E+01  0.5074E+00  0.5011E+00
     -8.242  0.1898E+02  0.1903E+02  0.1498E+01  0.1494E+01
     -8.189  0.2146E+02  0.2085E+02  0.2618E+01  0.2582E+01
     -8.137  0.1697E+02  0.1762E+02  0.3504E+01  0.3502E+01
     -8.085  0.9513E+01  0.9551E+01  0.4000E+01  0.4000E+01
     -8.033  0.1695E+02  0.1612E+02  0.4884E+01  0.4841E+01
     -7.981  0.2051E+02  0.2085E+02  0.5955E+01  0.5930E+01
     -7.929  0.1289E+02  0.1248E+02  0.6627E+01  0.6581E+01
     -7.876  0.1673E+02  0.1762E+02  0.7500E+01  0.7500E+01
     -7.824  0.1819E+02  0.1684E+02  0.8449E+01  0.8379E+01
     -7.772  0.2016E+02  0.2150E+02  0.9502E+01  0.9501E+01
     -7.720  0.1913E+02  0.1915E+02  0.1050E+02  0.1050E+02
     -7.668  0.9947E+01  0.8425E+01  0.1102E+02  0.1094E+02
     -7.615  0.2823E+02  0.2936E+02  0.1249E+02  0.1247E+02
     -7.563  0.1794E+02  0.1646E+02  0.1343E+02  0.1333E+02
     -7.511  0.3314E+02  0.3425E+02  0.1516E+02  0.1512E+02
     -7.459  0.2482E+02  0.2486E+02  0.1645E+02  0.1642E+02
     -7.407  0.1917E+02  0.1952E+02  0.1745E+02  0.1743E+02
     -7.355  0.9819E+01  0.9755E+01  0.1797E+02  0.1794E+02
     -7.302  0.1993E+02  0.1870E+02  0.1901E+02  0.1892E+02
     -7.250  0.3371E+02  0.3392E+02  0.2077E+02  0.2069E+02
     -7.198  0.2786E+02  0.2793E+02  0.2222E+02  0.2215E+02
     -7.146  0.2608E+02  0.2683E+02  0.2358E+02  0.2355E+02
     -7.094  0.4326E+02  0.4226E+02  0.2584E+02  0.2575E+02
     -7.041  0.4993E+02  0.5082E+02  0.2844E+02  0.2840E+02
     -6.989  0.1517E+02  0.1486E+02  0.2924E+02  0.2918E+02
     -6.937  0.2132E+02  0.2057E+02  0.3035E+02  0.3025E+02
     -6.885  0.4582E+02  0.4613E+02  0.3274E+02  0.3266E+02
     -6.833  0.4316E+02  0.4220E+02  0.3499E+02  0.3486E+02
     -6.780  0.5790E+02  0.5901E+02  0.3801E+02  0.3794E+02
     -6.728  0.4649E+02  0.4627E+02  0.4044E+02  0.4036E+02
     -6.676  0.4071E+02  0.4113E+02  0.4256E+02  0.4250E+02
     -6.624  0.4782E+02  0.4645E+02  0.4506E+02  0.4493E+02
     -6.572  0.4619E+02  0.4682E+02  0.4747E+02  0.4737E+02
     -6.520  0.2359E+02  0.2453E+02  0.4870E+02  0.4865E+02
     -6.467  0.3403E+02  0.3464E+02  0.5048E+02  0.5046E+02
     -6.415  0.3995E+02  0.3820E+02  0.5256E+02  0.5245E+02
     -6.363  0.3780E+02  0.3952E+02  0.5453E+02  0.5451E+02
     -6.311  0.3527E+02  0.3327E+02  0.5637E+02  0.5625E+02
     -6.259  0.5314E+02  0.5324E+02  0.5915E+02  0.5903E+02
     -6.206  0.5279E+02  0.5305E+02  0.6190E+02  0.6180E+02
     -6.154  0.6882E+02  0.6674E+02  0.6549E+02  0.6528E+02
     -6.102  0.6195E+02  0.6423E+02  0.6872E+02  0.6863E+02
     -6.050  0.8855E+02  0.8628E+02  0.7335E+02  0.7313E+02
     -5.998  0.7418E+02  0.7687E+02  0.7722E+02  0.7715E+02
     -5.946  0.5190E+02  0.4905E+02  0.7992E+02  0.7970E+02
     -5.893  0.5750E+02  0.5922E+02  0.8293E+02  0.8280E+02
     -5.841  0.7002E+02  0.6917E+02  0.8658E+02  0.8640E+02
     -5.789  0.9364E+02  0.9254E+02  0.9147E+02  0.9123E+02
     -5.737  0.8756E+02  0.8889E+02  0.9603E+02  0.9587E+02
     -5.685  0.8960E+02  0.8888E+02  0.1007E+03  0.1005E+03
     -5.632  0.8526E+02  0.8481E+02  0.1052E+03  0.1049E+03
     -5.580  0.5953E+02  0.6117E+02  0.1083E+03  0.1081E+03
     -5.528  0.6025E+02  0.5998E+02  0.1114E+03  0.1113E+03
     -5.476  0.7981E+02  0.7948E+02  0.1156E+03  0.1154E+03
     -5.424  0.8330E+02  0.8341E+02  0.1199E+03  0.1198E+03
     -5.372  0.7184E+02  0.6965E+02  0.1237E+03  0.1234E+03
     -5.319  0.6961E+02  0.7284E+02  0.1273E+03  0.1272E+03
     -5.267  0.8174E+02  0.8120E+02  0.1316E+03  0.1314E+03
     -5.215  0.7097E+02  0.6957E+02  0.1353E+03  0.1351E+03
     -5.163  0.6837E+02  0.6892E+02  0.1388E+03  0.1387E+03
     -5.111  0.8248E+02  0.8095E+02  0.1431E+03  0.1429E+03
     -5.058  0.8019E+02  0.8008E+02  0.1473E+03  0.1471E+03
     -5.006  0.7763E+02  0.7878E+02  0.1514E+03  0.1512E+03
     -4.954  0.5283E+02  0.5400E+02  0.1541E+03  0.1540E+03
     -4.902  0.7046E+02  0.7156E+02  0.1578E+03  0.1577E+03
     -4.850  0.7304E+02  0.6900E+02  0.1616E+03  0.1613E+03
     -4.798  0.8889E+02  0.9063E+02  0.1663E+03  0.1661E+03
     -4.745  0.1093E+03  0.1065E+03  0.1720E+03  0.1716E+03
     -4.693  0.1341E+03  0.1357E+03  0.1790E+03  0.1787E+03
     -4.641  0.1012E+03  0.1005E+03  0.1842E+03  0.1839E+03
     -4.589  0.9767E+02  0.9795E+02  0.1893E+03  0.1891E+03
     -4.537  0.9642E+02  0.9459E+02  0.1944E+03  0.1940E+03
     -4.484  0.1073E+03  0.1078E+03  0.2000E+03  0.1996E+03
     -4.432  0.8380E+02  0.8695E+02  0.2043E+03  0.2042E+03
     -4.380  0.1005E+03  0.9824E+02  0.2096E+03  0.2093E+03
     -4.328  0.7980E+02  0.8154E+02  0.2138E+03  0.2135E+03
     -4.276  0.7051E+02  0.6767E+02  0.2174E+03  0.2171E+03
     -4.224  0.7119E+02  0.7089E+02  0.2211E+03  0.2208E+03
     -4.171  0.9245E+02  0.9145E+02  0.2260E+03  0.2255E+03
     -4.119  0.9109E+02  0.9447E+02  0.2307E+03  0.2305E+03
     -4.067  0.7684E+02  0.7768E+02  0.2347E+03  0.2345E+03
     -4.015  0.7257E+02  0.7271E+02  0.2385E+03  0.2383E+03
     -3.963  0.4227E+02  0.4362E+02  0.2407E+03  0.2406E+03
     -3.910  0.4159E+02  0.3988E+02  0.2429E+03  0.2427E+03
     -3.858  0.5125E+02  0.5206E+02  0.2456E+03  0.2454E+03
     -3.806  0.6032E+02  0.6049E+02  0.2487E+03  0.2485E+03
     -3.754  0.5189E+02  0.4937E+02  0.2514E+03  0.2511E+03
     -3.702  0.7269E+02  0.7215E+02  0.2552E+03  0.2549E+03
     -3.649  0.7430E+02  0.7464E+02  0.2591E+03  0.2588E+03
     -3.597  0.7640E+02  0.7609E+02  0.2631E+03  0.2628E+03
     -3.545  0.5085E+02  0.5625E+02  0.2657E+03  0.2657E+03
     -3.493  0.8291E+02  0.7877E+02  0.2701E+03  0.2698E+03
     -3.441  0.7159E+02  0.7207E+02  0.2738E+03  0.2736E+03
     -3.389  0.7148E+02  0.6861E+02  0.2775E+03  0.2771E+03
     -3.336  0.8958E+02  0.9236E+02  0.2822E+03  0.2820E+03
     -3.284  0.7390E+02  0.7295E+02  0.2861E+03  0.2858E+03
     -3.232  0.7023E+02  0.6958E+02  0.2897E+03  0.2894E+03
     -3.180  0.7321E+02  0.7316E+02  0.2935E+03  0.2932E+03
     -3.128  0.8369E+02  0.8370E+02  0.2979E+03  0.2976E+03
     -3.075  0.5903E+02  0.5875E+02  0.3010E+03  0.3006E+03
     -3.023  0.7109E+02  0.7227E+02  0.3047E+03  0.3044E+03
     -2.971  0.7219E+02  0.7372E+02  0.3085E+03  0.3083E+03
     -2.919  0.1085E+03  0.1067E+03  0.3141E+03  0.3138E+03
     -2.867  0.9094E+02  0.9309E+02  0.3189E+03  0.3187E+03
     -2.815  0.8138E+02  0.7801E+02  0.3231E+03  0.3228E+03
     -2.762  0.1192E+03  0.1198E+03  0.3294E+03  0.3290E+03
     -2.710  0.9571E+02  0.9637E+02  0.3343E+03  0.3340E+03
     -2.658  0.9535E+02  0.9574E+02  0.3393E+03  0.3390E+03
     -2.606  0.9771E+02  0.9708E+02  0.3444E+03  0.3441E+03
     -2.554  0.1196E+03  0.1199E+03  0.3507E+03  0.3504E+03
     -2.501  0.1074E+03  0.1070E+03  0.3563E+03  0.3559E+03
     -2.449  0.1045E+03  0.1075E+03  0.3617E+03  0.3616E+03
     -2.397  0.8468E+02  0.8243E+02  0.3661E+03  0.3659E+03
     -2.345  0.1101E+03  0.1092E+03  0.3719E+03  0.3716E+03
     -2.293  0.1035E+03  0.1014E+03  0.3773E+03  0.3768E+03
     -2.241  0.8630E+02  0.9099E+02  0.3818E+03  0.3816E+03
     -2.188  0.4773E+02  0.5080E+02  0.3843E+03  0.3842E+03
     -2.136  0.3430E+02  0.2943E+02  0.3861E+03  0.3858E+03
     -2.084  0.7117E+02  0.7231E+02  0.3898E+03  0.3896E+03
     -2.032  0.6256E+02  0.6017E+02  0.3930E+03  0.3927E+03
     -1.980  0.9527E+02  0.9730E+02  0.3980E+03  0.3978E+03
     -1.927  0.9781E+02  0.9709E+02  0.4031E+03  0.4028E+03
     -1.875  0.9845E+02  0.1017E+03  0.4083E+03  0.4082E+03
     -1.823  0.5760E+02  0.5544E+02  0.4113E+03  0.4110E+03
     -1.771  0.8431E+02  0.8125E+02  0.4157E+03  0.4153E+03
     -1.719  0.1080E+03  0.1093E+03  0.4213E+03  0.4210E+03
     -1.667  0.1005E+03  0.9852E+02  0.4265E+03  0.4261E+03
     -1.614  0.5809E+02  0.6158E+02  0.4296E+03  0.4293E+03
     -1.562  0.9887E+02  0.9613E+02  0.4347E+03  0.4344E+03
     -1.510  0.6687E+02  0.6981E+02  0.4382E+03  0.4380E+03
     -1.458  0.5582E+02  0.5786E+02  0.4411E+03  0.4410E+03
     -1.406  0.6242E+02  0.6079E+02  0.4444E+03  0.4442E+03
     -1.353  0.5953E+02  0.5713E+02  0.4475E+03  0.4472E+03
     -1.301  0.5356E+02  0.5917E+02  0.4503E+03  0.4503E+03
     -1.249  0.5240E+02  0.4573E+02  0.4530E+03  0.4526E+03
     -1.197  0.6206E+02  0.6757E+02  0.4563E+03  0.4562E+03
     -1.145  0.4585E+02  0.4374E+02  0.4587E+03  0.4585E+03
     -1.093  0.4646E+02  0.4923E+02  0.4611E+03  0.4610E+03
     -1.040  0.5283E+02  0.4998E+02  0.4638E+03  0.4636E+03
     -0.988  0.5922E+02  0.6073E+02  0.4669E+03  0.4668E+03
     -0.936  0.2997E+02  0.2859E+02  0.4685E+03  0.4683E+03
     -0.884  0.4174E+02  0.4093E+02  0.4707E+03  0.4704E+03
     -0.832  0.7591E+02  0.7464E+02  0.4746E+03  0.4743E+03
     -0.779  0.7367E+02  0.7647E+02  0.4785E+03  0.4783E+03
     -0.727  0.2594E+02  0.2665E+02  0.4798E+03  0.4797E+03
     -0.675  0.9262E+02  0.8764E+02  0.4847E+03  0.4843E+03
     -0.623  0.4923E+02  0.5511E+02  0.4872E+03  0.4872E+03
     -0.571  0.2653E+02  0.2699E+02  0.4886E+03  0.4886E+03
     -0.518  0.2182E+02  0.2144E+02  0.4898E+03  0.4897E+03
     -0.466  0.2642E+02  0.2546E+02  0.4911E+03  0.4910E+03
     -0.414  0.3227E+02  0.3227E+02  0.4928E+03  0.4927E+03
     -0.362  0.4089E+02  0.4136E+02  0.4950E+03  0.4949E+03
     -0.310  0.6724E+02  0.6530E+02  0.4985E+03  0.4983E+03
     -0.258  0.7914E+02  0.7704E+02  0.5026E+03  0.5023E+03
     -0.205  0.8053E+02  0.8151E+02  0.5068E+03  0.5065E+03
     -0.153  0.1010E+03  0.1020E+03  0.5121E+03  0.5119E+03
     -0.101  0.1038E+03  0.1023E+03  0.5175E+03  0.5172E+03
     -0.049  0.1221E+03  0.1227E+03  0.5239E+03  0.5236E+03
      0.003  0.1158E+03  0.1141E+03  0.5299E+03  0.5295E+03
      0.056  0.1386E+03  0.1397E+03  0.5371E+03  0.5368E+03
      0.108  0.1216E+03  0.1193E+03  0.5435E+03  0.5431E+03
      0.160  0.1130E+03  0.1174E+03  0.5494E+03  0.5492E+03
      0.212  0.7619E+02  0.7630E+02  0.5534E+03  0.5532E+03
      0.264  0.8233E+02  0.8176E+02  0.5576E+03  0.5574E+03
      0.316  0.9802E+02  0.9866E+02  0.5628E+03  0.5626E+03
      0.369  0.8019E+02  0.7926E+02  0.5669E+03  0.5667E+03
      0.421  0.1169E+03  0.1138E+03  0.5730E+03  0.5727E+03
      0.473  0.8097E+02  0.8329E+02  0.5773E+03  0.5770E+03
      0.525  0.8800E+02  0.8498E+02  0.5819E+03  0.5814E+03
      0.577  0.1270E+03  0.1297E+03  0.5885E+03  0.5882E+03
      0.630  0.1304E+03  0.1311E+03  0.5953E+03  0.5951E+03
      0.682  0.1383E+03  0.1330E+03  0.6025E+03  0.6020E+03
      0.734  0.1428E+03  0.1474E+03  0.6100E+03  0.6097E+03
      0.786  0.1219E+03  0.1205E+03  0.6163E+03  0.6160E+03
      0.838  0.1068E+03  0.1104E+03  0.6219E+03  0.6217E+03
      0.890  0.1043E+03  0.1022E+03  0.6273E+03  0.6271E+03
      0.943  0.9455E+02  0.9342E+02  0.6323E+03  0.6320E+03
      0.995  0.1341E+03  0.1347E+03  0.6393E+03  0.6390E+03
      1.047  0.1020E+03  0.1009E+03  0.6446E+03  0.6443E+03
      1.099  0.1844E+03  0.1838E+03  0.6542E+03  0.6538E+03
      1.151  0.1704E+03  0.1686E+03  0.6631E+03  0.6626E+03
      1.204  0.1803E+03  0.1802E+03  0.6725E+03  0.6720E+03
      1.256  0.1874E+03  0.1885E+03  0.6823E+03  0.6819E+03
      1.308  0.1703E+03  0.1666E+03  0.6912E+03  0.6906E+03
      1.360  0.1899E+03  0.1934E+03  0.7011E+03  0.7007E+03
      1.412  0.1468E+03  0.1496E+03  0.7088E+03  0.7085E+03
      1.464  0.1386E+03  0.1354E+03  0.7160E+03  0.7155E+03
      1.517  0.2226E+03  0.2205E+03  0.7276E+03  0.7270E+03
      1.569  0.1851E+03  0.1856E+03  0.7373E+03  0.7367E+03
      1.621  0.1978E+03  0.1981E+03  0.7476E+03  0.7471E+03
      1.673  0.1694E+03  0.1684E+03  0.7564E+03  0.7559E+03
      1.725  0.1918E+03  0.1930E+03  0.7664E+03  0.7659E+03
      1.778  0.1946E+03  0.1961E+03  0.7766E+03  0.7762E+03
      1.830  0.1600E+03  0.1568E+03  0.7849E+03  0.7843E+03
      1.882  0.1473E+03  0.1504E+03  0.7926E+03  0.7922E+03
      1.934  0.2025E+03  0.1978E+03  0.8032E+03  0.8025E+03
      1.986  0.1932E+03  0.2003E+03  0.8133E+03  0.8130E+03
      2.038  0.1560E+03  0.1520E+03  0.8214E+03  0.8209E+03
      2.091  0.1955E+03  0.1939E+03  0.8316E+03  0.8310E+03
      2.143  0.2078E+03  0.2072E+03  0.8425E+03  0.8418E+03
      2.195  0.1532E+03  0.1587E+03  0.8505E+03  0.8501E+03
      2.247  0.1636E+03  0.1591E+03  0.8590E+03  0.8584E+03
      2.299  0.1465E+03  0.1488E+03  0.8667E+03  0.8662E+03
      2.352  0.1518E+03  0.1467E+03  0.8746E+03  0.8738E+03
      2.404  0.2202E+03  0.2227E+03  0.8861E+03  0.8854E+03
      2.456  0.1550E+03  0.1573E+03  0.8942E+03  0.8936E+03
      2.508  0.1272E+03  0.1285E+03  0.9008E+03  0.9004E+03
      2.560  0.1409E+03  0.1398E+03  0.9081E+03  0.9077E+03
      2.613  0.1325E+03  0.1344E+03  0.9151E+03  0.9147E+03
      2.665  0.1279E+03  0.1273E+03  0.9217E+03  0.9213E+03
      2.717  0.1341E+03  0.1241E+03  0.9287E+03  0.9278E+03
      2.769  0.1613E+03  0.1692E+03  0.9371E+03  0.9366E+03
      2.821  0.1332E+03  0.1269E+03  0.9441E+03  0.9432E+03
      2.873  0.1514E+03  0.1553E+03  0.9520E+03  0.9513E+03
      2.926  0.1311E+03  0.1333E+03  0.9588E+03  0.9583E+03
      2.978  0.1087E+03  0.1092E+03  0.9645E+03  0.9640E+03
      3.030  0.1481E+03  0.1470E+03  0.9722E+03  0.9717E+03
      3.082  0.1127E+03  0.1143E+03  0.9781E+03  0.9776E+03
      3.134  0.1123E+03  0.1096E+03  0.9840E+03  0.9834E+03
      3.187  0.1199E+03  0.1179E+03  0.9902E+03  0.9895E+03
      3.239  0.1053E+03  0.1054E+03  0.9957E+03  0.9950E+03
      3.291  0.1042E+03  0.1027E+03  0.1001E+04  0.1000E+04
      3.343  0.1185E+03  0.1220E+03  0.1007E+04  0.1007E+04
      3.395  0.6411E+02  0.7166E+02  0.1011E+04  0.1010E+04
      3.447  0.8783E+02  0.7512E+02  0.1015E+04  0.1014E+04
      3.500  0.1044E+03  0.1126E+03  0.1021E+04  0.1020E+04
      3.552  0.8407E+02  0.8739E+02  0.1025E+04  0.1025E+04
      3.604  0.1087E+03  0.1018E+03  0.1031E+04  0.1030E+04
      3.656  0.5977E+02  0.5972E+02  0.1034E+04  0.1033E+04
      3.708  0.6230E+02  0.6790E+02  0.1037E+04  0.1037E+04
      3.761  0.4227E+02  0.3827E+02  0.1039E+04  0.1039E+04
      3.813  0.5240E+02  0.5787E+02  0.1042E+04  0.1042E+04
      3.865  0.3550E+02  0.3862E+02  0.1044E+04  0.1044E+04
      3.917  0.4364E+02  0.3382E+02  0.1046E+04  0.1046E+04
      3.969  0.7162E+02  0.7400E+02  0.1050E+04  0.1049E+04
      4.021  0.8453E+02  0.7416E+02  0.1054E+04  0.1053E+04
      4.074  0.1223E+03  0.1226E+03  0.1061E+04  0.1060E+04
      4.126  0.7947E+02  0.8660E+02  0.1065E+04  0.1064E+04
      4.178  0.9788E+02  0.9297E+02  0.1070E+04  0.1069E+04
      4.230  0.8926E+02  0.9337E+02  0.1075E+04  0.1074E+04
      4.282  0.9478E+02  0.9212E+02  0.1080E+04  0.1079E+04
      4.335  0.1210E+03  0.1141E+03  0.1086E+04  0.1085E+04
      4.387  0.1164E+03  0.1224E+03  0.1092E+04  0.1091E+04
      4.439  0.1064E+03  0.1061E+03  0.1098E+04  0.1097E+04
      4.491  0.1137E+03  0.1197E+03  0.1103E+04  0.1103E+04
      4.543  0.1162E+03  0.1143E+03  0.1110E+04  0.1109E+04
      4.595  0.8655E+02  0.8638E+02  0.1114E+04  0.1113E+04
      4.648  0.1341E+03  0.1295E+03  0.1121E+04  0.1120E+04
      4.700  0.9609E+02  0.9944E+02  0.1126E+04  0.1125E+04
      4.752  0.1301E+03  0.1329E+03  0.1133E+04  0.1132E+04
      4.804  0.1057E+03  0.1007E+03  0.1138E+04  0.1137E+04
      4.856  0.1424E+03  0.1449E+03  0.1146E+04  0.1145E+04
      4.909  0.1100E+03  0.1097E+03  0.1152E+04  0.1151E+04
      4.961  0.1064E+03  0.1111E+03  0.1157E+04  0.1157E+04
      5.013  0.1165E+03  0.1085E+03  0.1163E+04  0.1162E+04
      5.065  0.1475E+03  0.1537E+03  0.1171E+04  0.1170E+04
      5.117  0.1107E+03  0.1126E+03  0.1177E+04  0.1176E+04
      5.169  0.1033E+03  0.1018E+03  0.1182E+04  0.1181E+04
      5.222  0.9104E+02  0.9145E+02  0.1187E+04  0.1186E+04
      5.274  0.1117E+03  0.1134E+03  0.1193E+04  0.1192E+04
      5.326  0.1075E+03  0.1049E+03  0.1198E+04  0.1198E+04
      5.378  0.1256E+03  0.1298E+03  0.1205E+04  0.1204E+04
      5.430  0.1395E+03  0.1374E+03  0.1212E+04  0.1212E+04
      5.483  0.1400E+03  0.1349E+03  0.1219E+04  0.1219E+04
      5.535  0.1646E+03  0.1669E+03  0.1228E+04  0.1227E+04
      5.587  0.1701E+03  0.1731E+03  0.1237E+04  0.1236E+04
      5.639  0.1191E+03  0.1210E+03  0.1243E+04  0.1243E+04
      5.691  0.1102E+03  0.1086E+03  0.1249E+04  0.1248E+04
      5.744  0.1036E+03  0.1056E+03  0.1254E+04  0.1254E+04
      5.796  0.1184E+03  0.1156E+03  0.1260E+04  0.1260E+04
      5.848  0.1340E+03  0.1361E+03  0.1267E+04  0.1267E+04
      5.900  0.7658E+02  0.8104E+02  0.1271E+04  0.1271E+04
      5.952  0.1145E+02  0.1551E+02  0.1272E+04  0.1272E+04
      6.004  0.0000E+00  0.0000E+00  0.1272E+04  0.1272E+04
      6.057  0.0000E+00  0.0000E+00  0.1272E+04  0.1272E+04
      6.109  0.0000E+00  0.0000E+00  0.1272E+04  0.1272E+04
      6.161  0.0000E+00  0.0000E+00  0.1272E+04  0.1272E+04
      6.213  0.0000E+00  0.0000E+00  0.1272E+04  0.1272E+04
      6.265  0.0000E+00  0.0000E+00  0.1272E+04  0.1272E+04
      6.318  0.0000E+00  0.0000E+00  0.1272E+04  0.1272E+04
      6.370  0.0000E+00  0.0000E+00  0.1272E+04  0.1272E+04
      6.422  0.0000E+00  0.0000E+00  0.1272E+04  0.1272E+04
      6.474  0.0000E+00  0.0000E+00  0.1272E+04  0.1272E+04
      6.526  0.0000E+00  0.0000E+00  0.1272E+04  0.1272E+04
      6.578  0.0000E+00  0.0000E+00  0.1272E+04  0.1272E+04
      6.631  0.0000E+00  0.0000E+00  0.1272E+04  0.1272E+04
