  96  96   0   0
  0.2155260E+02  0.1789154E-08  0.1789153E-08  0.1482856E-08  0.5000000E-15
  1.000000000000000E-004
  CAR 
 Si and Ge interface calculation         
      7.41911074    -14.51713238  301      4.00966825      1.00000000
    -14.517  0.0000E+00  0.0000E+00  0.0000E+00  0.0000E+00
    -14.444  0.0000E+00  0.0000E+00  0.0000E+00  0.0000E+00
    -14.371  0.0000E+00  0.0000E+00  0.0000E+00  0.0000E+00
    -14.298  0.0000E+00  0.0000E+00  0.0000E+00  0.0000E+00
    -14.225  0.0000E+00  0.0000E+00  0.0000E+00  0.0000E+00
    -14.152  0.0000E+00  0.0000E+00  0.0000E+00  0.0000E+00
    -14.078  0.0000E+00  0.0000E+00  0.0000E+00  0.0000E+00
    -14.005  0.0000E+00  0.0000E+00  0.0000E+00  0.0000E+00
    -13.932  0.0000E+00  0.0000E+00  0.0000E+00  0.0000E+00
    -13.859  0.0000E+00  0.0000E+00  0.0000E+00  0.0000E+00
    -13.786  0.0000E+00  0.0000E+00  0.0000E+00  0.0000E+00
    -13.713  0.0000E+00  0.0000E+00  0.0000E+00  0.0000E+00
    -13.640  0.0000E+00  0.0000E+00  0.0000E+00  0.0000E+00
    -13.567  0.2355E-09  0.6168E-14  0.1722E-10  0.4510E-15
    -13.493  0.1367E+02  0.1351E+02  0.9999E+00  0.9879E+00
    -13.420  0.6869E-06  0.9221E-10  0.1000E+01  0.1000E+01
    -13.347  0.2735E+02  0.2734E+02  0.3000E+01  0.2999E+01
    -13.274  0.0000E+00  0.0000E+00  0.3000E+01  0.3000E+01
    -13.201  0.0000E+00  0.0000E+00  0.3000E+01  0.3000E+01
    -13.128  0.0000E+00  0.0000E+00  0.3000E+01  0.3000E+01
    -13.055  0.0000E+00  0.0000E+00  0.3000E+01  0.3000E+01
    -12.982  0.9022E+01  0.3008E+01  0.3660E+01  0.3220E+01
    -12.908  0.1760E+02  0.2434E+02  0.5000E+01  0.5000E+01
    -12.835  0.0000E+00  0.0000E+00  0.5000E+01  0.5000E+01
    -12.762  0.0000E+00  0.0000E+00  0.5000E+01  0.5000E+01
    -12.689  0.0000E+00  0.0000E+00  0.5000E+01  0.5000E+01
    -12.616  0.0000E+00  0.0000E+00  0.5000E+01  0.5000E+01
    -12.543  0.0000E+00  0.0000E+00  0.5000E+01  0.5000E+01
    -12.470  0.0000E+00  0.0000E+00  0.5000E+01  0.5000E+01
    -12.397  0.2524E-13  0.0000E+00  0.5000E+01  0.5000E+01
    -12.324  0.2711E+02  0.2351E+02  0.6982E+01  0.6719E+01
    -12.250  0.0000E+00  0.0000E+00  0.7000E+01  0.7000E+01
    -12.177  0.0000E+00  0.0000E+00  0.7000E+01  0.7000E+01
    -12.104  0.0000E+00  0.0000E+00  0.7000E+01  0.7000E+01
    -12.031  0.0000E+00  0.0000E+00  0.7000E+01  0.7000E+01
    -11.958  0.0000E+00  0.0000E+00  0.7000E+01  0.7000E+01
    -11.885  0.1640E-09  0.7952E-13  0.7000E+01  0.7000E+01
    -11.812  0.1367E+02  0.1361E+02  0.8000E+01  0.7995E+01
    -11.739  0.0000E+00  0.0000E+00  0.8000E+01  0.8000E+01
    -11.665  0.0000E+00  0.0000E+00  0.8000E+01  0.8000E+01
    -11.592  0.0000E+00  0.0000E+00  0.8000E+01  0.8000E+01
    -11.519  0.0000E+00  0.0000E+00  0.8000E+01  0.8000E+01
    -11.446  0.0000E+00  0.0000E+00  0.8000E+01  0.8000E+01
    -11.373  0.0000E+00  0.0000E+00  0.8000E+01  0.8000E+01
    -11.300  0.0000E+00  0.0000E+00  0.8000E+01  0.8000E+01
    -11.227  0.0000E+00  0.0000E+00  0.8000E+01  0.8000E+01
    -11.154  0.0000E+00  0.0000E+00  0.8000E+01  0.8000E+01
    -11.080  0.0000E+00  0.0000E+00  0.8000E+01  0.8000E+01
    -11.007  0.0000E+00  0.0000E+00  0.8000E+01  0.8000E+01
    -10.934  0.0000E+00  0.0000E+00  0.8000E+01  0.8000E+01
    -10.861  0.0000E+00  0.0000E+00  0.8000E+01  0.8000E+01
    -10.788  0.0000E+00  0.0000E+00  0.8000E+01  0.8000E+01
    -10.715  0.0000E+00  0.0000E+00  0.8000E+01  0.8000E+01
    -10.642  0.0000E+00  0.0000E+00  0.8000E+01  0.8000E+01
    -10.569  0.0000E+00  0.0000E+00  0.8000E+01  0.8000E+01
    -10.495  0.1475E-06  0.2178E-12  0.8000E+01  0.8000E+01
    -10.422  0.1368E+02  0.1360E+02  0.9000E+01  0.8994E+01
    -10.349  0.0000E+00  0.0000E+00  0.9000E+01  0.9000E+01
    -10.276  0.0000E+00  0.0000E+00  0.9000E+01  0.9000E+01
    -10.203  0.0000E+00  0.0000E+00  0.9000E+01  0.9000E+01
    -10.130  0.0000E+00  0.0000E+00  0.9000E+01  0.9000E+01
    -10.057  0.0000E+00  0.0000E+00  0.9000E+01  0.9000E+01
     -9.984  0.0000E+00  0.0000E+00  0.9000E+01  0.9000E+01
     -9.911  0.0000E+00  0.0000E+00  0.9000E+01  0.9000E+01
     -9.837  0.0000E+00  0.0000E+00  0.9000E+01  0.9000E+01
     -9.764  0.2314E-08  0.4175E-14  0.9000E+01  0.9000E+01
     -9.691  0.2735E+02  0.2670E+02  0.1100E+02  0.1095E+02
     -9.618  0.0000E+00  0.0000E+00  0.1100E+02  0.1100E+02
     -9.545  0.0000E+00  0.0000E+00  0.1100E+02  0.1100E+02
     -9.472  0.0000E+00  0.0000E+00  0.1100E+02  0.1100E+02
     -9.399  0.0000E+00  0.0000E+00  0.1100E+02  0.1100E+02
     -9.326  0.0000E+00  0.0000E+00  0.1100E+02  0.1100E+02
     -9.252  0.0000E+00  0.0000E+00  0.1100E+02  0.1100E+02
     -9.179  0.0000E+00  0.0000E+00  0.1100E+02  0.1100E+02
     -9.106  0.0000E+00  0.0000E+00  0.1100E+02  0.1100E+02
     -9.033  0.0000E+00  0.0000E+00  0.1100E+02  0.1100E+02
     -8.960  0.0000E+00  0.0000E+00  0.1100E+02  0.1100E+02
     -8.887  0.0000E+00  0.0000E+00  0.1100E+02  0.1100E+02
     -8.814  0.0000E+00  0.0000E+00  0.1100E+02  0.1100E+02
     -8.741  0.4232E-04  0.1090E-06  0.1100E+02  0.1100E+02
     -8.667  0.6338E+01  0.5478E+01  0.1146E+02  0.1140E+02
     -8.594  0.7425E+01  0.5020E+01  0.1201E+02  0.1177E+02
     -8.521  0.2114E+02  0.1882E+02  0.1357E+02  0.1315E+02
     -8.448  0.2942E+02  0.3437E+02  0.1576E+02  0.1566E+02
     -8.375  0.9833E+01  0.1049E+02  0.1649E+02  0.1643E+02
     -8.302  0.4323E-03  0.9485E+00  0.1650E+02  0.1650E+02
     -8.229  0.6827E+01  0.6698E+01  0.1700E+02  0.1699E+02
     -8.156  0.2893E+01  0.2585E+01  0.1721E+02  0.1719E+02
     -8.083  0.9569E+01  0.7676E+01  0.1791E+02  0.1775E+02
     -8.009  0.2524E+02  0.2506E+02  0.1976E+02  0.1959E+02
     -7.936  0.1752E+02  0.1725E+02  0.2105E+02  0.2088E+02
     -7.863  0.1906E+02  0.1973E+02  0.2245E+02  0.2234E+02
     -7.790  0.1338E+02  0.1095E+02  0.2343E+02  0.2317E+02
     -7.717  0.2809E+02  0.2743E+02  0.2549E+02  0.2519E+02
     -7.644  0.2325E+02  0.2449E+02  0.2721E+02  0.2698E+02
     -7.571  0.2072E+02  0.2138E+02  0.2873E+02  0.2855E+02
     -7.498  0.1642E+02  0.1800E+02  0.2995E+02  0.2987E+02
     -7.424  0.1836E+02  0.1514E+02  0.3130E+02  0.3100E+02
     -7.351  0.1927E+02  0.2245E+02  0.3276E+02  0.3265E+02
     -7.278  0.1564E+02  0.1533E+02  0.3392E+02  0.3377E+02
     -7.205  0.1471E+02  0.1495E+02  0.3500E+02  0.3487E+02
     -7.132  0.2459E+02  0.2303E+02  0.3680E+02  0.3656E+02
     -7.059  0.2077E+02  0.1914E+02  0.3833E+02  0.3797E+02
     -6.986  0.3604E+02  0.3648E+02  0.4097E+02  0.4065E+02
     -6.913  0.3530E+02  0.3607E+02  0.4357E+02  0.4334E+02
     -6.839  0.3183E+02  0.3238E+02  0.4590E+02  0.4573E+02
     -6.766  0.2774E+02  0.2572E+02  0.4794E+02  0.4761E+02
     -6.693  0.3076E+02  0.3092E+02  0.5020E+02  0.4989E+02
     -6.620  0.2781E+02  0.2900E+02  0.5228E+02  0.5205E+02
     -6.547  0.3793E+02  0.3613E+02  0.5505E+02  0.5470E+02
     -6.474  0.2702E+02  0.2724E+02  0.5707E+02  0.5674E+02
     -6.401  0.2914E+02  0.2922E+02  0.5923E+02  0.5889E+02
     -6.328  0.3164E+02  0.3511E+02  0.6154E+02  0.6147E+02
     -6.254  0.3696E+02  0.3384E+02  0.6425E+02  0.6394E+02
     -6.181  0.3809E+02  0.3787E+02  0.6705E+02  0.6676E+02
     -6.108  0.2597E+02  0.2771E+02  0.6898E+02  0.6881E+02
     -6.035  0.2956E+02  0.2977E+02  0.7115E+02  0.7101E+02
     -5.962  0.2325E+02  0.2152E+02  0.7286E+02  0.7259E+02
     -5.889  0.2300E+02  0.2340E+02  0.7456E+02  0.7431E+02
     -5.816  0.3239E+02  0.3244E+02  0.7695E+02  0.7670E+02
     -5.743  0.3300E+02  0.3165E+02  0.7939E+02  0.7904E+02
     -5.670  0.2710E+02  0.2860E+02  0.8139E+02  0.8115E+02
     -5.596  0.2683E+02  0.2782E+02  0.8338E+02  0.8318E+02
     -5.523  0.2012E+02  0.1967E+02  0.8487E+02  0.8463E+02
     -5.450  0.2530E+02  0.2670E+02  0.8673E+02  0.8659E+02
     -5.377  0.1513E+02  0.1501E+02  0.8784E+02  0.8770E+02
     -5.304  0.1910E+02  0.1920E+02  0.8924E+02  0.8913E+02
     -5.231  0.2015E+02  0.1765E+02  0.9073E+02  0.9048E+02
     -5.158  0.2174E+02  0.2180E+02  0.9233E+02  0.9210E+02
     -5.085  0.2044E+02  0.2154E+02  0.9385E+02  0.9370E+02
     -5.011  0.2915E+02  0.2911E+02  0.9598E+02  0.9584E+02
     -4.938  0.1624E+02  0.1707E+02  0.9718E+02  0.9710E+02
     -4.865  0.2098E+02  0.1544E+02  0.9872E+02  0.9824E+02
     -4.792  0.2770E+02  0.2868E+02  0.1008E+03  0.1004E+03
     -4.719  0.2763E+02  0.2901E+02  0.1028E+03  0.1025E+03
     -4.646  0.2502E+02  0.2612E+02  0.1047E+03  0.1045E+03
     -4.573  0.2207E+02  0.2146E+02  0.1063E+03  0.1061E+03
     -4.500  0.2414E+02  0.2349E+02  0.1081E+03  0.1078E+03
     -4.426  0.2719E+02  0.2708E+02  0.1101E+03  0.1098E+03
     -4.353  0.3430E+02  0.3383E+02  0.1126E+03  0.1123E+03
     -4.280  0.2523E+02  0.2670E+02  0.1145E+03  0.1143E+03
     -4.207  0.2550E+02  0.2536E+02  0.1164E+03  0.1162E+03
     -4.134  0.3390E+02  0.3306E+02  0.1189E+03  0.1186E+03
     -4.061  0.2330E+02  0.2398E+02  0.1206E+03  0.1204E+03
     -3.988  0.1809E+02  0.1592E+02  0.1219E+03  0.1216E+03
     -3.915  0.2062E+02  0.2257E+02  0.1235E+03  0.1233E+03
     -3.841  0.2385E+02  0.2327E+02  0.1252E+03  0.1250E+03
     -3.768  0.2738E+02  0.2781E+02  0.1273E+03  0.1270E+03
     -3.695  0.1870E+02  0.1882E+02  0.1286E+03  0.1284E+03
     -3.622  0.2682E+02  0.2830E+02  0.1306E+03  0.1305E+03
     -3.549  0.2556E+02  0.2504E+02  0.1325E+03  0.1323E+03
     -3.476  0.2759E+02  0.2753E+02  0.1345E+03  0.1343E+03
     -3.403  0.2965E+02  0.2999E+02  0.1367E+03  0.1365E+03
     -3.330  0.2404E+02  0.2316E+02  0.1385E+03  0.1383E+03
     -3.257  0.2788E+02  0.2802E+02  0.1405E+03  0.1403E+03
     -3.183  0.2483E+02  0.2403E+02  0.1423E+03  0.1421E+03
     -3.110  0.2322E+02  0.2297E+02  0.1440E+03  0.1438E+03
     -3.037  0.2397E+02  0.2385E+02  0.1458E+03  0.1456E+03
     -2.964  0.2215E+02  0.2287E+02  0.1475E+03  0.1472E+03
     -2.891  0.3130E+02  0.2903E+02  0.1498E+03  0.1494E+03
     -2.818  0.2611E+02  0.2773E+02  0.1517E+03  0.1514E+03
     -2.745  0.2193E+02  0.2276E+02  0.1533E+03  0.1531E+03
     -2.672  0.2325E+02  0.2057E+02  0.1550E+03  0.1546E+03
     -2.598  0.3074E+02  0.3214E+02  0.1573E+03  0.1570E+03
     -2.525  0.2391E+02  0.2474E+02  0.1590E+03  0.1588E+03
     -2.452  0.3168E+02  0.3091E+02  0.1613E+03  0.1611E+03
     -2.379  0.1696E+02  0.1693E+02  0.1626E+03  0.1623E+03
     -2.306  0.1814E+02  0.1998E+02  0.1639E+03  0.1638E+03
     -2.233  0.2019E+02  0.1885E+02  0.1654E+03  0.1652E+03
     -2.160  0.2267E+02  0.2412E+02  0.1671E+03  0.1670E+03
     -2.087  0.2974E+02  0.2892E+02  0.1693E+03  0.1691E+03
     -2.013  0.2847E+02  0.2580E+02  0.1714E+03  0.1710E+03
     -1.940  0.2644E+02  0.2878E+02  0.1734E+03  0.1731E+03
     -1.867  0.3477E+02  0.3019E+02  0.1759E+03  0.1753E+03
     -1.794  0.3196E+02  0.3530E+02  0.1783E+03  0.1779E+03
     -1.721  0.2680E+02  0.2765E+02  0.1802E+03  0.1799E+03
     -1.648  0.2287E+02  0.2296E+02  0.1819E+03  0.1816E+03
     -1.575  0.2979E+02  0.3182E+02  0.1841E+03  0.1840E+03
     -1.502  0.3351E+02  0.2980E+02  0.1866E+03  0.1862E+03
     -1.429  0.2908E+02  0.2909E+02  0.1887E+03  0.1883E+03
     -1.355  0.2870E+02  0.3097E+02  0.1909E+03  0.1906E+03
     -1.282  0.2190E+02  0.2268E+02  0.1925E+03  0.1923E+03
     -1.209  0.3116E+02  0.2977E+02  0.1948E+03  0.1945E+03
     -1.136  0.2997E+02  0.3076E+02  0.1970E+03  0.1967E+03
     -1.063  0.2884E+02  0.2899E+02  0.1991E+03  0.1989E+03
     -0.990  0.3197E+02  0.3149E+02  0.2015E+03  0.2012E+03
     -0.917  0.2478E+02  0.2380E+02  0.2033E+03  0.2030E+03
     -0.844  0.2009E+02  0.2176E+02  0.2048E+03  0.2046E+03
     -0.770  0.2750E+02  0.2702E+02  0.2068E+03  0.2066E+03
     -0.697  0.2313E+02  0.2181E+02  0.2085E+03  0.2082E+03
     -0.624  0.2167E+02  0.2496E+02  0.2101E+03  0.2101E+03
     -0.551  0.1014E+02  0.1029E+02  0.2109E+03  0.2108E+03
     -0.478  0.2132E+02  0.2048E+02  0.2125E+03  0.2123E+03
     -0.405  0.2412E+02  0.2314E+02  0.2142E+03  0.2140E+03
     -0.332  0.1464E+02  0.1621E+02  0.2153E+03  0.2152E+03
     -0.259  0.1472E+02  0.1401E+02  0.2164E+03  0.2163E+03
     -0.185  0.1354E+02  0.1404E+02  0.2174E+03  0.2173E+03
     -0.112  0.6761E+01  0.7743E+01  0.2179E+03  0.2179E+03
     -0.039  0.1868E+02  0.1741E+02  0.2193E+03  0.2191E+03
      0.034  0.1125E+02  0.1041E+02  0.2201E+03  0.2199E+03
      0.107  0.1757E+02  0.1758E+02  0.2214E+03  0.2212E+03
      0.180  0.3056E+02  0.3050E+02  0.2236E+03  0.2234E+03
      0.253  0.2871E+02  0.2761E+02  0.2258E+03  0.2255E+03
      0.326  0.3025E+02  0.3190E+02  0.2280E+03  0.2278E+03
      0.400  0.4216E+02  0.4067E+02  0.2311E+03  0.2308E+03
      0.473  0.4649E+02  0.4599E+02  0.2345E+03  0.2342E+03
      0.546  0.3969E+02  0.3977E+02  0.2375E+03  0.2371E+03
      0.619  0.3696E+02  0.3798E+02  0.2402E+03  0.2400E+03
      0.692  0.4164E+02  0.4005E+02  0.2433E+03  0.2429E+03
      0.765  0.4752E+02  0.4470E+02  0.2468E+03  0.2462E+03
      0.838  0.4262E+02  0.4470E+02  0.2499E+03  0.2495E+03
      0.911  0.4403E+02  0.4521E+02  0.2531E+03  0.2529E+03
      0.984  0.5505E+02  0.5393E+02  0.2572E+03  0.2568E+03
      1.058  0.4941E+02  0.4902E+02  0.2608E+03  0.2604E+03
      1.131  0.5300E+02  0.5066E+02  0.2647E+03  0.2642E+03
      1.204  0.5362E+02  0.5525E+02  0.2687E+03  0.2682E+03
      1.277  0.4516E+02  0.4609E+02  0.2720E+03  0.2717E+03
      1.350  0.5220E+02  0.5367E+02  0.2759E+03  0.2756E+03
      1.423  0.5744E+02  0.5278E+02  0.2801E+03  0.2795E+03
      1.496  0.5738E+02  0.5940E+02  0.2844E+03  0.2839E+03
      1.569  0.5301E+02  0.5451E+02  0.2883E+03  0.2879E+03
      1.643  0.4940E+02  0.4865E+02  0.2920E+03  0.2915E+03
      1.716  0.4802E+02  0.4834E+02  0.2955E+03  0.2950E+03
      1.789  0.4678E+02  0.4661E+02  0.2990E+03  0.2985E+03
      1.862  0.3525E+02  0.3860E+02  0.3016E+03  0.3013E+03
      1.935  0.4151E+02  0.3941E+02  0.3046E+03  0.3042E+03
      2.008  0.3197E+02  0.3246E+02  0.3070E+03  0.3066E+03
      2.081  0.4102E+02  0.4100E+02  0.3100E+03  0.3097E+03
      2.154  0.3959E+02  0.3934E+02  0.3129E+03  0.3126E+03
      2.228  0.3724E+02  0.3721E+02  0.3157E+03  0.3153E+03
      2.301  0.4434E+02  0.4522E+02  0.3190E+03  0.3186E+03
      2.374  0.3436E+02  0.3448E+02  0.3215E+03  0.3211E+03
      2.447  0.3773E+02  0.3791E+02  0.3243E+03  0.3239E+03
      2.520  0.3799E+02  0.3524E+02  0.3271E+03  0.3266E+03
      2.593  0.4207E+02  0.4138E+02  0.3302E+03  0.3296E+03
      2.666  0.3585E+02  0.3842E+02  0.3328E+03  0.3325E+03
      2.739  0.3564E+02  0.3352E+02  0.3355E+03  0.3350E+03
      2.812  0.3067E+02  0.3191E+02  0.3377E+03  0.3373E+03
      2.886  0.3432E+02  0.3394E+02  0.3403E+03  0.3398E+03
      2.959  0.4459E+02  0.4378E+02  0.3435E+03  0.3430E+03
      3.032  0.4353E+02  0.4516E+02  0.3468E+03  0.3463E+03
      3.105  0.3919E+02  0.3961E+02  0.3497E+03  0.3493E+03
      3.178  0.3300E+02  0.3292E+02  0.3521E+03  0.3517E+03
      3.251  0.3366E+02  0.3396E+02  0.3546E+03  0.3542E+03
      3.324  0.4377E+02  0.3917E+02  0.3578E+03  0.3571E+03
      3.397  0.4416E+02  0.4566E+02  0.3611E+03  0.3604E+03
      3.471  0.3519E+02  0.3798E+02  0.3637E+03  0.3633E+03
      3.544  0.3851E+02  0.3591E+02  0.3665E+03  0.3659E+03
      3.617  0.3818E+02  0.4077E+02  0.3694E+03  0.3689E+03
      3.690  0.3608E+02  0.3559E+02  0.3720E+03  0.3716E+03
      3.763  0.3544E+02  0.3167E+02  0.3746E+03  0.3739E+03
      3.836  0.2848E+02  0.3098E+02  0.3768E+03  0.3762E+03
      3.909  0.3751E+02  0.3804E+02  0.3795E+03  0.3790E+03
      3.982  0.4327E+02  0.4260E+02  0.3827E+03  0.3821E+03
      4.056  0.3538E+02  0.3644E+02  0.3853E+03  0.3848E+03
      4.129  0.3580E+02  0.3589E+02  0.3879E+03  0.3875E+03
      4.202  0.3745E+02  0.3270E+02  0.3907E+03  0.3899E+03
      4.275  0.3435E+02  0.3838E+02  0.3932E+03  0.3927E+03
      4.348  0.2493E+02  0.2872E+02  0.3951E+03  0.3948E+03
      4.421  0.3128E+02  0.2796E+02  0.3973E+03  0.3969E+03
      4.494  0.3306E+02  0.3232E+02  0.3998E+03  0.3992E+03
      4.567  0.2964E+02  0.3137E+02  0.4020E+03  0.4015E+03
      4.641  0.2990E+02  0.2727E+02  0.4041E+03  0.4036E+03
      4.714  0.3037E+02  0.3233E+02  0.4064E+03  0.4059E+03
      4.787  0.3604E+02  0.3614E+02  0.4090E+03  0.4086E+03
      4.860  0.3260E+02  0.2973E+02  0.4114E+03  0.4108E+03
      4.933  0.3564E+02  0.3553E+02  0.4141E+03  0.4134E+03
      5.006  0.2530E+02  0.2782E+02  0.4160E+03  0.4155E+03
      5.079  0.3537E+02  0.3687E+02  0.4186E+03  0.4182E+03
      5.152  0.4341E+02  0.4495E+02  0.4218E+03  0.4214E+03
      5.225  0.3170E+02  0.2986E+02  0.4241E+03  0.4237E+03
      5.299  0.5438E+02  0.5046E+02  0.4281E+03  0.4274E+03
      5.372  0.3945E+02  0.3963E+02  0.4311E+03  0.4303E+03
      5.445  0.4347E+02  0.4770E+02  0.4343E+03  0.4338E+03
      5.518  0.4242E+02  0.4282E+02  0.4374E+03  0.4370E+03
      5.591  0.4599E+02  0.4220E+02  0.4408E+03  0.4401E+03
      5.664  0.3910E+02  0.4222E+02  0.4437E+03  0.4433E+03
      5.737  0.3853E+02  0.4003E+02  0.4465E+03  0.4462E+03
      5.810  0.3985E+02  0.3875E+02  0.4495E+03  0.4490E+03
      5.884  0.3765E+02  0.3540E+02  0.4523E+03  0.4516E+03
      5.957  0.3798E+02  0.4243E+02  0.4551E+03  0.4547E+03
      6.030  0.2529E+02  0.2390E+02  0.4569E+03  0.4565E+03
      6.103  0.3784E+02  0.4035E+02  0.4597E+03  0.4595E+03
      6.176  0.2676E+02  0.2512E+02  0.4617E+03  0.4614E+03
      6.249  0.2188E+02  0.2394E+02  0.4633E+03  0.4631E+03
      6.322  0.7349E+01  0.9708E+01  0.4639E+03  0.4638E+03
      6.395  0.1067E+01  0.1545E+01  0.4639E+03  0.4639E+03
      6.469  0.8408E+00  0.8547E+00  0.4640E+03  0.4640E+03
      6.542  0.0000E+00  0.0000E+00  0.4640E+03  0.4640E+03
      6.615  0.0000E+00  0.0000E+00  0.4640E+03  0.4640E+03
      6.688  0.0000E+00  0.0000E+00  0.4640E+03  0.4640E+03
      6.761  0.0000E+00  0.0000E+00  0.4640E+03  0.4640E+03
      6.834  0.0000E+00  0.0000E+00  0.4640E+03  0.4640E+03
      6.907  0.0000E+00  0.0000E+00  0.4640E+03  0.4640E+03
      6.980  0.0000E+00  0.0000E+00  0.4640E+03  0.4640E+03
      7.054  0.0000E+00  0.0000E+00  0.4640E+03  0.4640E+03
      7.127  0.0000E+00  0.0000E+00  0.4640E+03  0.4640E+03
      7.200  0.0000E+00  0.0000E+00  0.4640E+03  0.4640E+03
      7.273  0.0000E+00  0.0000E+00  0.4640E+03  0.4640E+03
      7.346  0.0000E+00  0.0000E+00  0.4640E+03  0.4640E+03
      7.419  0.0000E+00  0.0000E+00  0.4640E+03  0.4640E+03
