 vasp.6.4.3 19Mar24 (build Oct 22 2024 11:23:12) complex                        
  
 executed on             LinuxIFC date 2025.06.04  10:40:54
 running   64 mpi-ranks, on    4 nodes
 distrk:  each k-point on   64 cores,    1 groups
 distr:  one band on NCORE=  16 cores,    4 groups


--------------------------------------------------------------------------------------------------------


 INCAR:
   SYSTEM = Si and Ge interface calculation
   ISTART = 0
   ICHARG = 2
   LWAVE = .FALSE.
   LREAL = AUTO
   ENCUT = 700
   ENAUG = 900
   ADDGRID = .TRUE.
   LMAXMIX = 6
   LASPH = .TRUE.
   LMIXTAU = .TRUE.
   NCORE = 16
   NELM = 100
   NBANDS = 231
   EDIFF = 1d-7
   AMIX = 0.6
   ISMEAR = 0
   SIGMA = 0.01
   NELECT = 384
   ISPIN = 2
   NUPDOWN = 1
   LVTOT = .FALSE.
   LVHAR = .TRUE.

 POTCAR:    PAW_PBE Ge 05Jan2001                  
 -----------------------------------------------------------------------------
|                                                                             |
|           W    W    AA    RRRRR   N    N  II  N    N   GGGG   !!!           |
|           W    W   A  A   R    R  NN   N  II  NN   N  G    G  !!!           |
|           W    W  A    A  R    R  N N  N  II  N N  N  G       !!!           |
|           W WW W  AAAAAA  RRRRR   N  N N  II  N  N N  G  GGG   !            |
|           WW  WW  A    A  R   R   N   NN  II  N   NN  G    G                |
|           W    W  A    A  R    R  N    N  II  N    N   GGGG   !!!           |
|                                                                             |
|     You use a magnetic or noncollinear calculation, but did not specify     |
|     the initial magnetic moment with the MAGMOM tag. Note that a            |
|     default of 0.01 will be used for all atoms. This ferromagnetic          |
|     setup may break the symmetry of the crystal, in particular it may       |
|     rule out finding an antiferromagnetic solution. Thence, we              |
|     recommend setting the initial magnetic moment manually or verifying     |
|     carefully that this magnetic setup is desired.                          |
|                                                                             |
 -----------------------------------------------------------------------------

 POTCAR:    PAW_PBE Ge 05Jan2001                  
   VRHFIN =Ge: s2p2                                                                                 
   LEXCH  = PE                                                                                      
   EATOM  =   104.9960 eV,    7.7170 Ry                                                             
                                                                                                    
   TITEL  = PAW_PBE Ge 05Jan2001                                                                    
   LULTRA =        F    use ultrasoft PP ?                                                          
   IUNSCR =        1    unscreen: 0-lin 1-nonlin 2-no                                               
   RPACOR =    2.170    partial core radius                                                         
   POMASS =   72.610; ZVAL   =    4.000    mass and valenz                                          
   RCORE  =    2.300    outmost cutoff radius                                                       
   RWIGS  =    2.300; RWIGS  =    1.217    wigner-seitz radius (au A)                               
   ENMAX  =  173.807; ENMIN  =  130.355 eV                                                          
   ICORE  =        3    local potential                                                             
   LCOR   =        T    correct aug charges                                                         
   LPAW   =        T    paw PP                                                                      
   EAUG   =  385.843                                                                                
   DEXC   =    0.000                                                                                
   RMAX   =    2.342    core radius for proj-oper                                                   
   RAUG   =    1.300    factor for augmentation sphere                                              
   RDEP   =    2.318    radius for radial grids                                                     
   RDEPT  =    2.103    core radius for aug-charge                                                  
                                                                                                    
   Atomic configuration                                                                             
   10 entries                                                                                       
     n  l   j            E        occ.                                                              
     1  0  0.50    -10959.8463   2.0000                                                             
     2  0  0.50     -1371.6056   2.0000                                                             
     2  1  1.50     -1198.4791   6.0000                                                             
     3  0  0.50      -168.4733   2.0000                                                             
     3  1  1.50      -115.6019   6.0000                                                             
     3  2  2.50       -29.3106  10.0000                                                             
     4  0  0.50       -11.7309   2.0000                                                             
     4  1  0.50        -3.8952   2.0000                                                             
     4  2  1.50        -4.0817   0.0000                                                             
     4  3  2.50        -4.0817   0.0000                                                             
   Description                                                                                      
     l       E           TYP  RCUT    TYP  RCUT                                                     
     0    -11.7309493     23  2.300                                                                 
     0     -7.4578696     23  2.300                                                                 
     1     -3.8952261     23  2.300                                                                 
     1      6.1178114     23  2.300                                                                 
     2     -4.0817478     23  2.300                                                                 
     3     -1.3605826      7  2.300                                                                 
  local pseudopotential read in
  partial core-charges read in
  partial kinetic energy density read in
  atomic valenz-charges read in
  non local Contribution for L=           0  read in
    real space projection operators read in
  non local Contribution for L=           0  read in
    real space projection operators read in
  non local Contribution for L=           1  read in
    real space projection operators read in
  non local Contribution for L=           1  read in
    real space projection operators read in
  non local Contribution for L=           2  read in
    real space projection operators read in
    PAW grid and wavefunctions read in
 
   number of l-projection  operators is LMAX  =           5
   number of lm-projection operators is LMMAX =          13
 
 Optimization of the real space projectors (new method)

 maximal supplied QI-value         = 16.25
 optimisation between [QCUT,QGAM] = [ 13.49, 26.98] = [ 50.95,203.80] Ry 
 Optimized for a Real-space Cutoff    1.25 Angstroem

   l    n(q)    QCUT    max X(q) W(low)/X(q) W(high)/X(q)  e(spline) 
   0     10    13.489    65.336    0.91E-04    0.11E-03    0.34E-06
   0     10    13.489    52.220    0.89E-04    0.11E-03    0.34E-06
   1     10    13.489    36.409    0.22E-03    0.27E-03    0.14E-06
   1     10    13.489    21.334    0.21E-03    0.27E-03    0.14E-06
   2      9    13.489     4.673    0.11E-03    0.12E-03    0.19E-06
  PAW_PBE Ge 05Jan2001                  :
 energy of atom  1       EATOM= -104.9960
 kinetic energy error for atom=    0.0001 (will be added to EATOM!!)
 
 
 POSCAR: Ge+Ge
  positions in direct lattice
  No initial velocities read in


 exchange-correlation table for PE
   RHO(1)=    0.500       N(1)  =     2000
   RHO(2)=  100.500       N(2)  =     4000
 


--------------------------------------------------------------------------------------------------------


 ion  position               nearest neighbor table
   1  0.812  0.188  0.438-  11 2.45  42 2.45  80 2.45  31 2.45
   2  0.023  0.977  0.000-  73 1.27  55 1.68  21 2.45  44 2.45  32 2.45
   3  0.181  0.819  0.088-  22 2.45  45 2.45  33 2.45
   4  0.339  0.661  0.175-  23 2.45  46 2.45  34 2.45   8 2.45
   5  0.496  0.504  0.263-  24 2.45  47 2.45   9 2.45  35 2.45
   6  0.571  0.732  0.609-  92 2.45  41 2.45  87 2.45  53 2.45
   7  0.154  0.346  0.350-  42 2.45  80 2.45  34 2.45  24 2.45  12 2.45
   8  0.312  0.688  0.022-  79 1.27  38 2.45  26 2.45   4 2.45  61 2.48
   9  0.470  0.530  0.109-  14 2.45  39 2.45  27 2.45   5 2.45
  10  0.628  0.372  0.197-  15 2.45  40 2.45  57 2.45  28 2.45
  11  0.786  0.214  0.284-  16 2.45   1 2.45  75 2.45  29 2.45
  12  0.944  0.056  0.372-  17 2.45  43 2.45   7 2.45  93 2.46
  13  0.913  0.890  0.522-  62 0.00  88 2.45  93 2.45  92 2.45
  14  0.523  0.477  0.000-  85 1.27  67 1.68   9 2.45  44 2.45  32 2.45
  15  0.681  0.319  0.088-  10 2.45  45 2.45  33 2.45
  16  0.839  0.161  0.175-  11 2.45  20 2.45  46 2.45  34 2.45
  17  0.996  0.004  0.263-  12 2.45  47 2.45  21 2.45  35 2.45
  18  0.154  0.846  0.350-  30 2.45  22 2.45  82 2.45  36 2.45
  19  0.312  0.188  0.438-  68 0.00  35 2.45  30 2.45  25 2.45
  20  0.812  0.188  0.022-  91 1.27  16 2.45  38 2.45  26 2.45  49 2.48
  21  0.970  0.030  0.109-   2 2.45  39 2.45  27 2.45  17 2.45
  22  0.128  0.872  0.197-   3 2.45  18 2.45  40 2.45  28 2.45
  23  0.286  0.714  0.284-   4 2.45  75 2.45  29 2.45
  24  0.444  0.556  0.372-   5 2.45  43 2.45   7 2.45  92 2.46
  25  0.602  0.398  0.460-  57 2.45  19 2.45  68 2.45  63 2.46
  26  0.523  0.977  0.000-  61 1.27  91 1.68  45 2.45   8 2.45  20 2.45
  27  0.681  0.819  0.088-  46 2.45  21 2.45   9 2.45
  28  0.839  0.661  0.175-  47 2.45  32 2.45  22 2.45  10 2.45
  29  0.996  0.504  0.263-  82 2.45  33 2.45  23 2.45  11 2.45
  30  0.102  0.898  0.460-  18 2.45  19 2.45  68 2.45  51 2.46
  31  0.602  0.898  0.460-  43 2.45   1 2.45  87 2.46
  32  0.812  0.688  0.022-  67 1.27  28 2.45   2 2.45  14 2.45  73 2.48
  33  0.970  0.530  0.109-  38 2.45  29 2.45   3 2.45  15 2.45
  34  0.128  0.372  0.197-  39 2.45   7 2.45   4 2.45  16 2.45
  35  0.286  0.214  0.284-  40 2.45  19 2.45  68 2.45   5 2.45  17 2.45
  36  0.444  0.056  0.372-  75 2.45  57 2.45  18 2.45  86 2.46
  37  0.124  0.679  0.500-  81 0.00  50 2.45  56 2.45  82 2.46
  38  0.023  0.477  0.000-  49 1.27  79 1.68  33 2.45   8 2.45  20 2.45
  39  0.181  0.319  0.088-  34 2.45  21 2.45   9 2.45
  40  0.339  0.161  0.175-  35 2.45  10 2.45  22 2.45  44 2.45
  41  0.282  0.522  0.588-  94 2.45   6 2.45  69 2.45  80 2.46  42 2.46
  42  0.102  0.398  0.460-  80 0.00   7 2.45   1 2.45  41 2.46
  43  0.654  0.846  0.350-  31 2.45  46 2.45  24 2.45  12 2.45
  44  0.312  0.188  0.022-  55 1.27  40 2.45   2 2.45  14 2.45  85 2.48
  45  0.470  0.030  0.109-  26 2.45  75 2.45   3 2.45  15 2.45
  46  0.628  0.872  0.197-  27 2.45  43 2.45   4 2.45  16 2.45
  47  0.786  0.714  0.284-  28 2.45  17 2.45   5 2.45
  48  0.729  0.074  0.697-  87 2.45  52 2.45  78 2.45  64 2.45
  49  0.913  0.390  0.938-  38 1.27  59 2.45  79 2.45  91 2.45  20 2.48
  50  0.071  0.732  0.609-  37 2.45  81 2.45  89 2.45  51 2.45  63 2.45
  51  0.282  0.022  0.588-  70 2.45  74 2.45  50 2.45  30 2.46
  52  0.440  0.864  0.675-  71 2.45  48 2.45  56 2.45  94 2.45
  53  0.598  0.706  0.763-  72 2.45  83 2.45  95 2.45   6 2.45
  54  0.756  0.548  0.850-  67 2.45  84 2.45  58 2.45  96 2.45
  55  0.203  0.100  0.960-  44 1.27   2 1.68  66 2.45  73 2.45  85 2.45
  56  0.413  0.890  0.522-  37 2.45  81 2.45  86 2.45  52 2.45
  57  0.654  0.346  0.350-  25 2.45  10 2.45  82 2.45  36 2.45
  58  0.729  0.574  0.697-  63 2.45  76 2.45  88 2.45  54 2.45
  59  0.887  0.416  0.784-  64 2.45  77 2.45  49 2.45  89 2.45
  60  0.045  0.258  0.872-  65 2.45  78 2.45  90 2.45
  61  0.413  0.890  0.938-  26 1.27  71 2.45  79 2.45  91 2.45   8 2.48
  62  0.913  0.890  0.522-  13 0.00  88 2.45  93 2.45  92 2.45
  63  0.782  0.522  0.588-  58 2.45  74 2.45  50 2.45  25 2.46
  64  0.940  0.364  0.675-  59 2.45  48 2.45  94 2.45
  65  0.098  0.206  0.763-  60 2.45  69 2.45  83 2.45  95 2.45
  66  0.256  0.048  0.850-  55 2.45  70 2.45  84 2.45  96 2.45
  67  0.703  0.600  0.960-  32 1.27  14 1.68  54 2.45  73 2.45  85 2.45
  68  0.312  0.188  0.438-  19 0.00  35 2.45  30 2.45  25 2.45
  69  0.071  0.232  0.609-  93 2.45  65 2.45  41 2.45  87 2.45
  70  0.229  0.074  0.697-  51 2.45  76 2.45  66 2.45  88 2.45
  71  0.387  0.916  0.784-  52 2.45  61 2.45  77 2.45  89 2.45
  72  0.545  0.758  0.872-  53 2.45  78 2.45  90 2.45
  73  0.913  0.890  0.938-   2 1.27  83 2.45  67 2.45  55 2.45  32 2.48
  74  0.571  0.232  0.609-  86 2.45  77 2.45  51 2.45  63 2.45
  75  0.496  0.004  0.263-  36 2.45  45 2.45  11 2.45  23 2.45
  76  0.440  0.364  0.675-  95 2.45  58 2.45  70 2.45
  77  0.598  0.206  0.763-  96 2.45  71 2.45  74 2.45  59 2.45
  78  0.756  0.048  0.850-  91 2.45  72 2.45  60 2.45  48 2.45
  79  0.203  0.600  0.960-   8 1.27  38 1.68  90 2.45  49 2.45  61 2.45
  80  0.102  0.398  0.460-  42 0.00   7 2.45   1 2.45  41 2.46
  81  0.124  0.679  0.500-  37 0.00  50 2.45  56 2.45  82 2.46
  82  0.944  0.556  0.372-  29 2.45  57 2.45  18 2.45  37 2.46  81 2.46
  83  0.887  0.916  0.784-  88 2.45  73 2.45  53 2.45  65 2.45
  84  0.045  0.758  0.872-  89 2.45  66 2.45  54 2.45
  85  0.413  0.390  0.938-  14 1.27  95 2.45  67 2.45  55 2.45  44 2.48
  86  0.624  0.179  0.500-  74 2.45  56 2.45  36 2.46
  87  0.782  0.022  0.588-  48 2.45   6 2.45  69 2.45  31 2.46
  88  0.940  0.864  0.675-  13 2.45  62 2.45  83 2.45  58 2.45  70 2.45
  89  0.098  0.706  0.763-  84 2.45  50 2.45  71 2.45  59 2.45
  90  0.256  0.548  0.850-  79 2.45  94 2.45  60 2.45  72 2.45
  91  0.703  0.100  0.960-  20 1.27  26 1.68  78 2.45  49 2.45  61 2.45
  92  0.624  0.679  0.500-   6 2.45  13 2.45  62 2.45  24 2.46
  93  0.124  0.179  0.500-  69 2.45  62 2.45  13 2.45  12 2.46
  94  0.229  0.574  0.697-  41 2.45  90 2.45  52 2.45  64 2.45
  95  0.387  0.416  0.784-  76 2.45  85 2.45  53 2.45  65 2.45
  96  0.545  0.258  0.872-  77 2.45  54 2.45  66 2.45
 
 -----------------------------------------------------------------------------
|                                                                             |
|           W    W    AA    RRRRR   N    N  II  N    N   GGGG   !!!           |
|           W    W   A  A   R    R  NN   N  II  NN   N  G    G  !!!           |
|           W    W  A    A  R    R  N N  N  II  N N  N  G       !!!           |
|           W WW W  AAAAAA  RRRRR   N  N N  II  N  N N  G  GGG   !            |
|           WW  WW  A    A  R   R   N   NN  II  N   NN  G    G                |
|           W    W  A    A  R    R  N    N  II  N    N   GGGG   !!!           |
|                                                                             |
|     The distance between some ions is very small. Please check the          |
|     nearest-neighbor list in the OUTCAR file.                               |
|     I HOPE YOU KNOW WHAT YOU ARE DOING!                                     |
|                                                                             |
 -----------------------------------------------------------------------------

  LATTYP: Found a base centered orthorhombic cell.
 ALAT       =     8.0013379485
 B/A-ratio  =     4.3588986951
 C/A-ratio  =     1.8532600386
  
  Lattice vectors:
  
 A1 = (  17.8915348050,   0.0000000000,   0.0000000000)
 A2 = ( -16.1023807530,   7.7987394330,   0.0000000000)
 A3 = (   0.0000003040,  -0.0000000700,  14.8285598750)


Analysis of symmetry for initial positions (statically):
=====================================================================
 Subroutine PRICEL returns:
 Original cell was already a primitive cell.
 

 Routine SETGRP: Setting up the symmetry group for a 
 base centered orthorhombic supercell.


 Subroutine GETGRP returns: Found  2 space group operations
 (whereof  1 operations were pure point group operations)
 out of a pool of  8 trial point group operations.


The static configuration has the point symmetry C_1 .
 The point group associated with its full space group is S_2 .


Analysis of symmetry for dynamics (positions and initial velocities):
=====================================================================
 Subroutine PRICEL returns:
 Original cell was already a primitive cell.
 

 Routine SETGRP: Setting up the symmetry group for a 
 base centered orthorhombic supercell.


 Subroutine GETGRP returns: Found  2 space group operations
 (whereof  1 operations were pure point group operations)
 out of a pool of  8 trial point group operations.


The dynamic configuration has the point symmetry C_1 .
 The point group associated with its full space group is S_2 .


Analysis of structural, dynamic, and magnetic symmetry:
=====================================================================
 Subroutine PRICEL returns:
 Original cell was already a primitive cell.
 

 Routine SETGRP: Setting up the symmetry group for a 
 base centered orthorhombic supercell.


 Subroutine GETGRP returns: Found  2 space group operations
 (whereof  1 operations were pure point group operations)
 out of a pool of  8 trial point group operations.


The overall configuration has the point symmetry C_1 .
 The point group associated with its full space group is S_2 .


 Subroutine INISYM returns: Found  2 space group operations
 (whereof  1 operations are pure point group operations),
 and found     1 'primitive' translations


----------------------------------------------------------------------------------------

                                     Primitive cell                                     

  volume of cell :    2069.0500

  direct lattice vectors                    reciprocal lattice vectors
    17.891534805  0.000000000  0.000000000     0.055892354  0.115403262 -0.000000001
   -16.102380753  7.798739433  0.000000000     0.000000000  0.128225851  0.000000001
     0.000000304 -0.000000070 14.828559875     0.000000000  0.000000000  0.067437432

  length of vectors
    17.891534805 17.891534385 14.828559875     0.128225848  0.128225851  0.067437432

  position of ions in fractional coordinates (direct lattice)
     0.812287450  0.187712550  0.437665254
     0.022813324  0.977186680  0.000000009
     0.180708155  0.819291830  0.087533057
     0.338602990  0.661396980  0.175066113
     0.496497810  0.503502190  0.262599170
     0.571305394  0.732065320  0.609416306
     0.154392600  0.345607400  0.350132227
     0.312287062  0.687712908  0.021883292
     0.470181882  0.529818058  0.109416328
     0.628076732  0.371923268  0.196949422
     0.785971582  0.214028403  0.284482479
     0.943866432  0.056133550  0.372015506
     0.913410902  0.889960051  0.521883428
     0.522813261  0.477186650  0.000000000
     0.680708110  0.319291830  0.087533049
     0.838602960  0.161397010  0.175066084
     0.996497810  0.003502154  0.262599140
     0.154392600  0.845607400  0.350132227
     0.312287450  0.187712491  0.437665313
     0.812287092  0.187712908  0.021883449
     0.970181823  0.029818127  0.109416448
     0.128076673  0.871923268  0.196949586
     0.285971522  0.714028358  0.284482598
     0.443866372  0.556133628  0.372015655
     0.601761222  0.398238838  0.459548652
     0.522813261  0.977186680  0.000000010
     0.680708110  0.819291890  0.087533049
     0.838602960  0.661397040  0.175066084
     0.996497750  0.503502250  0.262599140
     0.101761222  0.898238838  0.459548503
     0.601761460  0.898238719  0.459548622
     0.812287271  0.687712848  0.021883423
     0.970182121  0.529818058  0.109416470
     0.128076911  0.371923238  0.196949497
     0.285971761  0.214028388  0.284482569
     0.443866730  0.056133520  0.372015625
     0.123936981  0.679433823  0.500000000
     0.022813387  0.477186650  0.000000013
     0.180708200  0.319291830  0.087533042
     0.338603050  0.161396980  0.175066113
     0.281831741  0.521538973  0.587532997
     0.101761222  0.398238778  0.459548652
     0.654392660  0.845607340  0.350132227
     0.312287062  0.187712878  0.021883436
     0.470181882  0.029818086  0.109416470
     0.628076732  0.871923268  0.196949542
     0.785971522  0.714028418  0.284482569
     0.729200184  0.074170351  0.696949542
     0.913410783  0.389959753  0.937665343
     0.071305633  0.732065201  0.609416485
     0.281831712  0.021538973  0.587533057
     0.439726502  0.863644183  0.675066113
     0.597621262  0.705749333  0.762599170
     0.755516052  0.547854483  0.850132287
     0.202884585  0.100485921  0.959548593
     0.413410664  0.889960110  0.521883309
     0.654392600  0.345607400  0.350132227
     0.729200184  0.574170411  0.696949422
     0.887095034  0.416275561  0.784482479
     0.044989824  0.258380681  0.872015595
     0.413410693  0.889959753  0.937665343
     0.913410902  0.889960051  0.521883428
     0.781831622  0.521539032  0.587532997
     0.939726412  0.363644123  0.675066113
     0.097621202  0.205749318  0.762599170
     0.255515963  0.047854424  0.850132167
     0.702884555  0.600485921  0.959548712
     0.312287450  0.187712491  0.437665313
     0.071305394  0.232065260  0.609416485
     0.229200274  0.074170470  0.696949482
     0.387095004  0.916275620  0.784482598
     0.544989824  0.758380711  0.872015655
     0.913410842  0.889959633  0.937665224
     0.571305454  0.232065260  0.609416485
     0.496497840  0.003502190  0.262599140
     0.439726561  0.363644123  0.675066113
     0.597621322  0.205749318  0.762599170
     0.755516112  0.047854424  0.850132287
     0.202884585  0.600485861  0.959548712
     0.101761222  0.398238778  0.459548652
     0.123936981  0.679433823  0.500000000
     0.943866372  0.556133509  0.372015655
     0.887094975  0.916275620  0.784482539
     0.044989824  0.758380711  0.872015655
     0.413410813  0.389959693  0.937665224
     0.623936832  0.179433823  0.500000000
     0.781831622  0.021538973  0.587533057
     0.939726412  0.863644183  0.675066113
     0.097621202  0.705749452  0.762599170
     0.255515963  0.547854543  0.850132167
     0.702884793  0.100485802  0.959548712
     0.623936832  0.679433823  0.500000000
     0.123936914  0.179433823  0.500000000
     0.229200512  0.574170351  0.696949482
     0.387095243  0.416275561  0.784482539
     0.544990063  0.258380651  0.872015655

  ion indices of the primitive-cell ions
   primitive index   ion index
                 1           1
                 2           2
                 3           3
                 4           4
                 5           5
                 6           6
                 7           7
                 8           8
                 9           9
                10          10
                11          11
                12          12
                13          13
                14          14
                15          15
                16          16
                17          17
                18          18
                19          19
                20          20
                21          21
                22          22
                23          23
                24          24
                25          25
                26          26
                27          27
                28          28
                29          29
                30          30
                31          31
                32          32
                33          33
                34          34
                35          35
                36          36
                37          37
                38          38
                39          39
                40          40
                41          41
                42          42
                43          43
                44          44
                45          45
                46          46
                47          47
                48          48
                49          49
                50          50
                51          51
                52          52
                53          53
                54          54
                55          55
                56          56
                57          57
                58          58
                59          59
                60          60
                61          61
                62          62
                63          63
                64          64
                65          65
                66          66
                67          67
                68          68
                69          69
                70          70
                71          71
                72          72
                73          73
                74          74
                75          75
                76          76
                77          77
                78          78
                79          79
                80          80
                81          81
                82          82
                83          83
                84          84
                85          85
                86          86
                87          87
                88          88
                89          89
                90          90
                91          91
                92          92
                93          93
                94          94
                95          95
                96          96

----------------------------------------------------------------------------------------

 
 
 KPOINTS: Automatic KPOINTS generated             

Automatic generation of k-mesh.
 Grid dimensions read from file:
 generate k-points for:    4    4    2

 Generating k-lattice:

  Cartesian coordinates                     Fractional coordinates (reciprocal lattice)
     0.013973089  0.028850815 -0.000000000     0.250000000  0.000000000  0.000000000
     0.000000000  0.032056463  0.000000000     0.000000000  0.250000000  0.000000000
     0.000000000  0.000000000  0.033718716     0.000000000  0.000000000  0.500000000

  Length of vectors
     0.032056462  0.032056463  0.033718716

  Shift w.r.t. Gamma in fractional coordinates (k-lattice)
     0.000000000  0.000000000  0.000000000

 
 Subroutine IBZKPT returns following result:
 ===========================================
 
 Found     20 irreducible k-points:
 
 Following reciprocal coordinates:
            Coordinates               Weight
  0.000000  0.000000  0.000000      1.000000
  0.250000 -0.000000 -0.000000      2.000000
  0.000000  0.250000  0.000000      2.000000
  0.500000 -0.000000  0.000000      1.000000
  0.000000  0.500000 -0.000000      1.000000
  0.250000  0.250000 -0.000000      2.000000
  0.500000  0.250000  0.000000      2.000000
  0.250000  0.500000 -0.000000      2.000000
 -0.250000  0.250000  0.000000      2.000000
  0.500000  0.500000  0.000000      1.000000
  0.000000  0.000000  0.500000      1.000000
  0.250000 -0.000000  0.500000      2.000000
  0.000000  0.250000  0.500000      2.000000
  0.500000 -0.000000  0.500000      1.000000
  0.000000  0.500000  0.500000      1.000000
  0.250000  0.250000  0.500000      2.000000
  0.500000  0.250000  0.500000      2.000000
  0.250000  0.500000  0.500000      2.000000
 -0.250000  0.250000  0.500000      2.000000
  0.500000  0.500000  0.500000      1.000000
 
 Following cartesian coordinates:
            Coordinates               Weight
  0.000000  0.000000  0.000000      1.000000
  0.013973  0.028851 -0.000000      2.000000
  0.000000  0.032056  0.000000      2.000000
  0.027946  0.057702 -0.000000      1.000000
  0.000000  0.064113  0.000000      1.000000
  0.013973  0.060907  0.000000      2.000000
  0.027946  0.089758 -0.000000      2.000000
  0.013973  0.092964  0.000000      2.000000
 -0.013973  0.003206  0.000000      2.000000
  0.027946  0.121815  0.000000      1.000000
  0.000000  0.000000  0.033719      1.000000
  0.013973  0.028851  0.033719      2.000000
  0.000000  0.032056  0.033719      2.000000
  0.027946  0.057702  0.033719      1.000000
  0.000000  0.064113  0.033719      1.000000
  0.013973  0.060907  0.033719      2.000000
  0.027946  0.089758  0.033719      2.000000
  0.013973  0.092964  0.033719      2.000000
 -0.013973  0.003206  0.033719      2.000000
  0.027946  0.121815  0.033719      1.000000
 
 -----------------------------------------------------------------------------
|                                                                             |
|           W    W    AA    RRRRR   N    N  II  N    N   GGGG   !!!           |
|           W    W   A  A   R    R  NN   N  II  NN   N  G    G  !!!           |
|           W    W  A    A  R    R  N N  N  II  N N  N  G       !!!           |
|           W WW W  AAAAAA  RRRRR   N  N N  II  N  N N  G  GGG   !            |
|           WW  WW  A    A  R   R   N   NN  II  N   NN  G    G                |
|           W    W  A    A  R    R  N    N  II  N    N   GGGG   !!!           |
|                                                                             |
|     The number of bands has been changed from the values supplied in        |
|     the INCAR file. This is a result of running the parallel version.       |
|     The orbitals not found in the WAVECAR file will be initialized with     |
|     random numbers, which is usually adequate. For correlated               |
|     calculations, however, you should redo the groundstate calculation.     |
|     I found NBANDS = 231. Now, NBANDS = 232.                                |
|                                                                             |
 -----------------------------------------------------------------------------



--------------------------------------------------------------------------------------------------------




 Dimension of arrays:
   k-points           NKPTS =     20   k-points in BZ     NKDIM =     20   number of bands    NBANDS=    232
   number of dos      NEDOS =    301   number of ions     NIONS =     96
   non local maximal  LDIM  =      5   non local SUM 2l+1 LMDIM =     13
   total plane-waves  NPLWV = ******
   max r-space proj   IRMAX =   5465   max aug-charges    IRDMAX= 290671
   dimension x,y,z NGX =   120 NGY =  120 NGZ =   96
   dimension x,y,z NGXF=   240 NGYF=  240 NGZF=  192
   support grid    NGXF=   480 NGYF=  480 NGZF=  384
   ions per type =              96
   NGX,Y,Z   is equivalent  to a cutoff of  11.15, 11.15, 10.76 a.u.
   NGXF,Y,Z  is equivalent  to a cutoff of  22.30, 22.30, 21.53 a.u.

 SYSTEM =  Si and Ge interface calculation         
 POSCAR =  Ge+Ge                                   

 Startparameter for this run:
   NWRITE =      2    write-flag & timer
   PREC   = normal    normal or accurate (medium, high low for compatibility)
   ISTART =      0    job   : 0-new  1-cont  2-samecut
   ICHARG =      2    charge: 1-file 2-atom 10-const
   ISPIN  =      2    spin polarized calculation?
   LNONCOLLINEAR =      F non collinear calculations
   LSORBIT =      F    spin-orbit coupling
   INIWAV =      1    electr: 0-lowe 1-rand  2-diag
   LASPH  =      T    aspherical Exc in radial PAW
 Electronic Relaxation 1
   ENCUT  =  700.0 eV  51.45 Ry    7.17 a.u.  38.60 38.60 31.99*2*pi/ulx,y,z
   ENINI  =  700.0     initial cutoff
   ENAUG  =  900.0 eV  augmentation charge cutoff
   NELM   =    100;   NELMIN=  2; NELMDL= -5     # of ELM steps 
   EDIFF  = 0.1E-06   stopping-criterion for ELM
   LREAL  =      T    real-space projection
   NLSPLINE    = F    spline interpolate recip. space projectors
   LCOMPAT=      F    compatible to vasp.4.4
   GGA_COMPAT  = T    GGA compatible to vasp.4.4-vasp.4.6
   LMAXPAW     = -100 max onsite density
   LMAXMIX     =    6 max onsite mixed and CHGCAR
   VOSKOWN=      0    Vosko Wilk Nusair interpolation
   ROPT   =   -0.00050
 Ionic relaxation
   EDIFFG = 0.1E-05   stopping-criterion for IOM
   NSW    =      0    number of steps for IOM
   NBLOCK =      1;   KBLOCK =      1    inner block; outer block 
   IBRION =     -1    ionic relax: 0-MD 1-quasi-New 2-CG
   NFREE  =      0    steps in history (QN), initial steepest desc. (CG)
   ISIF   =      2    stress and relaxation
   IWAVPR =     10    prediction:  0-non 1-charg 2-wave 3-comb
   ISYM   =      2    0-nonsym 1-usesym 2-fastsym
   LCORR  =      T    Harris-Foulkes like correction to forces

   POTIM  = 0.5000    time-step for ionic-motion
   TEIN   =    0.0    initial temperature
   TEBEG  =    0.0;   TEEND  =   0.0 temperature during run
   SMASS  =  -3.00    Nose mass-parameter (am)
   estimated Nose-frequenzy (Omega)   =  0.10E-29 period in steps = 0.13E+47 mass=  -0.732E-26a.u.
   SCALEE = 1.0000    scale energy and forces
   NPACO  =    256;   APACO  = 10.0  distance and # of slots for P.C.
   PSTRESS=    0.0 pullay stress

  Mass of Ions in am
   POMASS =  72.61
  Ionic Valenz
   ZVAL   =   4.00
  Atomic Wigner-Seitz radii
   RWIGS  =  -1.00
  virtual crystal weights 
   VCA    =   1.00
   NELECT =     384.0000    total number of electrons
   NUPDOWN=       1.0000    fix difference up-down

 DOS related values:
   EMIN   =  10.00;   EMAX   =-10.00  energy-range for DOS
   EFERMI =   0.00;   METHOD = LEGACY      
   ISMEAR =     0;   SIGMA  =   0.01  broadening in eV -4-tet -1-fermi 0-gaus

 Electronic relaxation 2 (details)
   IALGO  =     38    algorithm
   LDIAG  =      T    sub-space diagonalisation (order eigenvalues)
   LSUBROT=      F    optimize rotation matrix (better conditioning)
   TURBO    =      0    0=normal 1=particle mesh
   IRESTART =      0    0=no restart 2=restart with 2 vectors
   NREBOOT  =      0    no. of reboots
   NMIN     =      0    reboot dimension
   EREF     =   0.00    reference energy to select bands
   IMIX   =      4    mixing-type and parameters
     AMIX     =   0.60;   BMIX     =  1.00
     AMIX_MAG =   2.40;   BMIX_MAG =  1.00
     AMIN     =   0.10
     WC   =   100.;   INIMIX=   1;  MIXPRE=   1;  MAXMIX= -45

 Intra band minimization:
   WEIMIN = 0.0000     energy-eigenvalue tresh-hold
   EBREAK =  0.11E-09  absolut break condition
   DEPER  =   0.30     relativ break condition  

   TIME   =   0.40     timestep for ELM

  volume/ion in A,a.u.               =      21.55       145.44
  Fermi-wavevector in a.u.,A,eV,Ry     =   0.933817  1.764657 11.864463  0.872013
  Thomas-Fermi vector in A             =   2.060557
 
 Write flags
   LWAVE        =      F    write WAVECAR
   LDOWNSAMPLE  =      F    k-point downsampling of WAVECAR
   LCHARG       =      T    write CHGCAR
   LVTOT        =      F    write LOCPOT, total local potential
   LVHAR        =      T    write LOCPOT, Hartree potential only
   WRT_POTENTIAL=  hartree ionic  ! write potential to hdf5 file
   LELF         =      F    write electronic localiz. function (ELF)
   LORBIT       =      0    0 simple, 1 ext, 2 COOP (PROOUT), +10 PAW based schemes


 Dipole corrections
   LMONO      =      F    monopole corrections only (constant potential shift)
   LDIPOL     =      F    correct potential (dipole corrections)
   IDIPOL     =      0    1-x, 2-y, 3-z, 4-all directions 
   EPSILON    =  1.0000000 bulk dielectric constant
   LVACPOTAV  =      F  vacuum potentials using an averaging scheme for the charge density
   VACPOTFLAT =  0.1000000 required flatness to determine vacuum potential
 Exchange correlation treatment:
   GGA     = PE    functional components
   XC_C    = 1    coefficients multiplying the functional components
   LIBXC   =     F    Libxc                    
   VOSKOWN =     0    Vosko Wilk Nusair interpolation
   LHFCALC =     F    Hartree Fock is set to
   LHFONE  =     F    Hartree Fock one center treatment
   AEXX    =    0.0000 exact exchange contribution

 Parameters of functionals:
   PE:
     No parameter
 
 Van der Waals corrections
   IVDW    =     0    specifies the selected vdW correction

 Linear response parameters
   LEPSILON=     F    determine dielectric tensor
   LRPA    =     F    only Hartree local field effects (RPA)
   LNABLA  =     F    use nabla operator in PAW spheres
   LVEL    =     F    velocity operator in full k-point grid
   CSHIFT  =0.1000    complex shift for real part using Kramers Kronig
   OMEGAMAX=  -1.0    maximum frequency
   DEG_THRESHOLD= 0.2000000E-02 threshold for treating states as degnerate
   RTIME   =   -0.100 relaxation time in fs
  (WPLASMAI=    0.000 imaginary part of plasma frequency in eV, 0.658/RTIME)
   DFIELD  = 0.0000000 0.0000000 0.0000000 field for delta impulse in time
 
  Optional k-point grid parameters
   LKPOINTS_OPT  =     F    use optional k-point grid
   KPOINTS_OPT_MODE=     1    mode for optional k-point grid
 
 Orbital magnetization related:
   ORBITALMAG=     F  switch on orbital magnetization
   LCHIMAG   =     F  perturbation theory with respect to B field
   DQ        =  0.001000  dq finite difference perturbation B field
   LLRAUG    =     F  two centre corrections for induced B field
   LBONE     =     F  B-component reconstruction in AE one-centre
   LVGVCALC  =     T  calculate vGv susceptibility
   LVGVAPPL  =     F  apply vGv susceptibility instead of pGv for G=0

 Random number generation:
   RANDOM_GENERATOR = DEFAULT
   PCG_SEED         = not used


--------------------------------------------------------------------------------------------------------


 Static calculation
 charge density and potential will be updated during run
 spin polarized calculation
 Variant of blocked Davidson
 Davidson routine will perform the subspace rotation
 perform sub-space diagonalisation
    after iterative eigenvector-optimisation
 modified Broyden-mixing scheme, WC =      100.0
 initial mixing is a Kerker type mixing with AMIX =  0.6000 and BMIX =      1.0000
 Hartree-type preconditioning will be used
 using additional bands           40
 real space projection scheme for non local part
 use partial core corrections
 calculate Harris-corrections to forces 
   (improved forces if not selfconsistent)
 use gradient corrections 
 use of overlap-Matrix (Vanderbilt PP)
 Gauss-broadening in eV      SIGMA  =   0.01


--------------------------------------------------------------------------------------------------------


  energy-cutoff  :      700.00
  volume of cell :     2069.05
      direct lattice vectors                 reciprocal lattice vectors
    17.891534805  0.000000000  0.000000000     0.055892354  0.115403262 -0.000000001
   -16.102380753  7.798739433  0.000000000     0.000000000  0.128225851  0.000000001
     0.000000304 -0.000000070 14.828559875     0.000000000  0.000000000  0.067437432

  length of vectors
    17.891534805 17.891534385 14.828559875     0.128225848  0.128225851  0.067437432


 
 k-points in units of 2pi/SCALE and weight: Automatic KPOINTS generated             
   0.00000000  0.00000000  0.00000000       0.031
   0.01397309  0.02885082 -0.00000000       0.062
   0.00000000  0.03205646  0.00000000       0.062
   0.02794618  0.05770163 -0.00000000       0.031
   0.00000000  0.06411293  0.00000000       0.031
   0.01397309  0.06090728  0.00000000       0.062
   0.02794618  0.08975809 -0.00000000       0.062
   0.01397309  0.09296374  0.00000000       0.062
  -0.01397309  0.00320565  0.00000000       0.062
   0.02794618  0.12181456  0.00000000       0.031
   0.00000000  0.00000000  0.03371872       0.031
   0.01397309  0.02885082  0.03371872       0.062
   0.00000000  0.03205646  0.03371872       0.062
   0.02794618  0.05770163  0.03371872       0.031
   0.00000000  0.06411293  0.03371872       0.031
   0.01397309  0.06090728  0.03371872       0.062
   0.02794618  0.08975809  0.03371872       0.062
   0.01397309  0.09296374  0.03371872       0.062
  -0.01397309  0.00320565  0.03371872       0.062
   0.02794618  0.12181456  0.03371872       0.031
 
 k-points in reciprocal lattice and weights: Automatic KPOINTS generated             
   0.00000000  0.00000000  0.00000000       0.031
   0.25000000 -0.00000000 -0.00000000       0.062
   0.00000000  0.25000000  0.00000000       0.062
   0.50000000 -0.00000000  0.00000000       0.031
   0.00000000  0.50000000 -0.00000000       0.031
   0.25000000  0.25000000 -0.00000000       0.062
   0.50000000  0.25000000  0.00000000       0.062
   0.25000000  0.50000000 -0.00000000       0.062
  -0.25000000  0.25000000  0.00000000       0.062
   0.50000000  0.50000000  0.00000000       0.031
   0.00000000  0.00000000  0.50000000       0.031
   0.25000000 -0.00000000  0.50000000       0.062
   0.00000000  0.25000000  0.50000000       0.062
   0.50000000 -0.00000000  0.50000000       0.031
   0.00000000  0.50000000  0.50000000       0.031
   0.25000000  0.25000000  0.50000000       0.062
   0.50000000  0.25000000  0.50000000       0.062
   0.25000000  0.50000000  0.50000000       0.062
  -0.25000000  0.25000000  0.50000000       0.062
   0.50000000  0.50000000  0.50000000       0.031
 
 position of ions in fractional coordinates (direct lattice) 
   0.81228745  0.18771255  0.43766525
   0.02281332  0.97718668  0.00000001
   0.18070815  0.81929183  0.08753306
   0.33860299  0.66139698  0.17506611
   0.49649781  0.50350219  0.26259917
   0.57130539  0.73206532  0.60941631
   0.15439260  0.34560740  0.35013223
   0.31228706  0.68771291  0.02188329
   0.47018188  0.52981806  0.10941633
   0.62807673  0.37192327  0.19694942
   0.78597158  0.21402840  0.28448248
   0.94386643  0.05613355  0.37201551
   0.91341090  0.88996005  0.52188343
   0.52281326  0.47718665  0.00000000
   0.68070811  0.31929183  0.08753305
   0.83860296  0.16139701  0.17506608
   0.99649781  0.00350215  0.26259914
   0.15439260  0.84560740  0.35013223
   0.31228745  0.18771249  0.43766531
   0.81228709  0.18771291  0.02188345
   0.97018182  0.02981813  0.10941645
   0.12807667  0.87192327  0.19694959
   0.28597152  0.71402836  0.28448260
   0.44386637  0.55613363  0.37201565
   0.60176122  0.39823884  0.45954865
   0.52281326  0.97718668  0.00000001
   0.68070811  0.81929189  0.08753305
   0.83860296  0.66139704  0.17506608
   0.99649775  0.50350225  0.26259914
   0.10176122  0.89823884  0.45954850
   0.60176146  0.89823872  0.45954862
   0.81228727  0.68771285  0.02188342
   0.97018212  0.52981806  0.10941647
   0.12807691  0.37192324  0.19694950
   0.28597176  0.21402839  0.28448257
   0.44386673  0.05613352  0.37201563
   0.12393698  0.67943382  0.50000000
   0.02281339  0.47718665  0.00000001
   0.18070820  0.31929183  0.08753304
   0.33860305  0.16139698  0.17506611
   0.28183174  0.52153897  0.58753300
   0.10176122  0.39823878  0.45954865
   0.65439266  0.84560734  0.35013223
   0.31228706  0.18771288  0.02188344
   0.47018188  0.02981809  0.10941647
   0.62807673  0.87192327  0.19694954
   0.78597152  0.71402842  0.28448257
   0.72920018  0.07417035  0.69694954
   0.91341078  0.38995975  0.93766534
   0.07130563  0.73206520  0.60941648
   0.28183171  0.02153897  0.58753306
   0.43972650  0.86364418  0.67506611
   0.59762126  0.70574933  0.76259917
   0.75551605  0.54785448  0.85013229
   0.20288458  0.10048592  0.95954859
   0.41341066  0.88996011  0.52188331
   0.65439260  0.34560740  0.35013223
   0.72920018  0.57417041  0.69694942
   0.88709503  0.41627556  0.78448248
   0.04498982  0.25838068  0.87201560
   0.41341069  0.88995975  0.93766534
   0.91341090  0.88996005  0.52188343
   0.78183162  0.52153903  0.58753300
   0.93972641  0.36364412  0.67506611
   0.09762120  0.20574932  0.76259917
   0.25551596  0.04785442  0.85013217
   0.70288455  0.60048592  0.95954871
   0.31228745  0.18771249  0.43766531
   0.07130539  0.23206526  0.60941648
   0.22920027  0.07417047  0.69694948
   0.38709500  0.91627562  0.78448260
   0.54498982  0.75838071  0.87201565
   0.91341084  0.88995963  0.93766522
   0.57130545  0.23206526  0.60941648
   0.49649784  0.00350219  0.26259914
   0.43972656  0.36364412  0.67506611
   0.59762132  0.20574932  0.76259917
   0.75551611  0.04785442  0.85013229
   0.20288458  0.60048586  0.95954871
   0.10176122  0.39823878  0.45954865
   0.12393698  0.67943382  0.50000000
   0.94386637  0.55613351  0.37201565
   0.88709497  0.91627562  0.78448254
   0.04498982  0.75838071  0.87201565
   0.41341081  0.38995969  0.93766522
   0.62393683  0.17943382  0.50000000
   0.78183162  0.02153897  0.58753306
   0.93972641  0.86364418  0.67506611
   0.09762120  0.70574945  0.76259917
   0.25551596  0.54785454  0.85013217
   0.70288479  0.10048580  0.95954871
   0.62393683  0.67943382  0.50000000
   0.12393691  0.17943382  0.50000000
   0.22920051  0.57417035  0.69694948
   0.38709524  0.41627556  0.78448254
   0.54499006  0.25838065  0.87201565
 
 position of ions in cartesian coordinates  (Angst):
  11.51045036  1.46392124  6.48994542
 -15.32686661  7.62082429  0.00000013
  -9.95940272  6.38944350  1.29798918
  -4.59193877  5.15806270  2.59597834
   0.77552395  3.92668237  3.89396752
  -1.56646399  5.70918664  9.03676618
  -2.80278126  2.69530203  5.19195669
  -5.48652025  5.36329377  0.32449771
  -0.11905656  4.13191297  1.62248657
   5.24840670  2.90053264  2.92047630
  10.61587116  1.66915173  4.21846547
  15.98333544  0.43777090  5.51645421
   2.01184751  6.94056651  7.73877966
   1.67009053  3.72145434  0.00000000
   7.03755425  2.49007378  1.29798906
  12.40501799  1.25869321  2.59597791
  17.77248231  0.02731237  3.89396707
 -10.85397164  6.59467175  5.19195669
   2.56468391  1.46392077  6.48994630
  11.51043807  1.46392406  0.32450003
  16.87789905  0.23254380  1.62248835
 -11.74855214  6.79990236  2.92047873
  -6.38108696  5.56852109  4.21846724
  -1.01362467  4.33714123  5.51645641
   4.35383859  3.10576090  6.81444470
  -6.38110033  7.62082429  0.00000015
  -1.01363709  6.38944396  1.29798906
   4.35382713  5.15806316  2.59597791
   9.72128932  3.92668283  3.89396707
 -12.64311919  7.00513061  6.81444249
  -3.69734561  7.00512969  6.81444426
   3.45925186  5.36329330  0.32449965
   8.82671512  4.13191297  1.62248868
  -3.69735702  2.90053241  2.92047741
   1.67010721  1.66915161  4.21846681
   7.03757385  0.43777067  5.51645597
  -8.72307915  5.29872731  7.41427994
  -7.27567462  3.72145434  0.00000019
  -1.90821154  2.49007378  1.29798895
   3.45925268  1.25869298  2.59597834
  -3.35561654  4.06734651  8.71226822
  -4.59192785  3.10576043  6.81444470
  -1.90820220  6.59467128  5.19195669
   2.56467061  1.46392382  0.32449984
   7.93213337  0.23254348  1.62248868
  -2.80278368  6.79990236  2.92047808
   2.56467947  5.56852156  4.21846681
  11.85219145  0.57843519 10.33475801
  10.06304068  3.04119444 13.90422668
 -10.51222520  5.70918571  9.03676884
   4.69557332  0.16797680  8.71226911
  -6.03934525  6.73533590 10.01025828
  -0.67188264  5.50395510 11.30824745
   4.69558052  4.27257430 12.60623752
   2.01185435  0.78366345 14.22872376
  -6.93392510  6.94056697  7.73877790
   6.14298614  2.69530203  5.19195669
   3.80100011  4.47780538 10.33475623
   9.16846433  3.24642458 11.63274541
  -3.35560684  2.01504354 12.93073546
  -6.93391871  6.94056415 13.90422668
   2.01184751  6.94056651  7.73877966
   5.59014778  4.06734697  8.71226822
  10.95761189  2.83596571 10.01025828
  -1.56646049  1.60458527 11.30824745
   3.80100285  0.37320412 12.60623574
   2.90643083  4.68303316 14.22872553
   2.56468391  1.46392077  6.48994630
  -2.46104005  1.80981645  9.03676884
   2.90642374  0.57843612 10.33475712
  -7.82849493  7.14579475 11.63274718
  -2.46103029  5.91441350 12.93073635
   2.01185329  6.94056322 13.90422492
   6.48472842  1.80981645  9.03676884
   8.82671487  0.02731265  3.89396707
   2.01184715  2.83596571 10.01025828
   7.37930906  1.60458527 11.30824745
  12.74677292  0.37320412 12.60623752
  -6.03933506  4.68303270 14.22872553
  -4.59192785  3.10576043  6.81444470
  -8.72307915  5.29872731  7.41427994
   7.93214465  4.33714030  5.51645641
   1.11727195  7.14579475 11.63274630
 -11.40679770  5.91441350 12.93073635
   1.11727478  3.04119397 13.90422492
   8.27387596  1.39935760  7.41427994
  13.64133911  0.16797680  8.71226911
   2.90642054  6.73533590 10.01025828
  -9.61765303  5.50395603 11.30824745
  -4.25018944  4.27257477 12.60623574
  10.95762739  0.78366252 14.22872553
   0.22268558  5.29872731  7.41427994
  -0.67188998  1.39935760  7.41427994
  -5.14476046  4.47780491 10.33475712
   0.22270067  3.24642458 11.63274630
   5.59016532  2.01504331 12.93073635
 


--------------------------------------------------------------------------------------------------------


 k-point     1 :   0.0000 0.0000 0.0000  plane waves:   87041
 k-point     2 :   0.2500-0.0000-0.0000  plane waves:   86976
 k-point     3 :   0.0000 0.2500 0.0000  plane waves:   86976
 k-point     4 :   0.5000-0.0000 0.0000  plane waves:   86974
 k-point     5 :   0.0000 0.5000-0.0000  plane waves:   86974
 k-point     6 :   0.2500 0.2500-0.0000  plane waves:   86941
 k-point     7 :   0.5000 0.2500 0.0000  plane waves:   86977
 k-point     8 :   0.2500 0.5000-0.0000  plane waves:   86977
 k-point     9 :  -0.2500 0.2500 0.0000  plane waves:   87003
 k-point    10 :   0.5000 0.5000 0.0000  plane waves:   86978
 k-point    11 :   0.0000 0.0000 0.5000  plane waves:   87092
 k-point    12 :   0.2500-0.0000 0.5000  plane waves:   87024
 k-point    13 :   0.0000 0.2500 0.5000  plane waves:   87024
 k-point    14 :   0.5000-0.0000 0.5000  plane waves:   87024
 k-point    15 :   0.0000 0.5000 0.5000  plane waves:   87024
 k-point    16 :   0.2500 0.2500 0.5000  plane waves:   87062
 k-point    17 :   0.5000 0.2500 0.5000  plane waves:   86966
 k-point    18 :   0.2500 0.5000 0.5000  plane waves:   86966
 k-point    19 :  -0.2500 0.2500 0.5000  plane waves:   87042
 k-point    20 :   0.5000 0.5000 0.5000  plane waves:   87024

 maximum and minimum number of plane-waves per node :      5470     5398

 maximum number of plane-waves:     87092
 maximum index in each direction: 
   IXMAX=   38   IYMAX=   38   IZMAX=   31
   IXMIN=  -39   IYMIN=  -39   IZMIN=  -32


 real space projection operators:
  total allocation   :      51209.03 KBytes
  max/ min on nodes  :       3458.51       2944.30


 parallel 3D FFT for wavefunctions:
    minimum data exchange during FFTs selected (reduces bandwidth)
 parallel 3D FFT for charge:
    minimum data exchange during FFTs selected (reduces bandwidth)


 total amount of memory used by VASP MPI-rank0   298651. kBytes
=======================================================================

   base      :      30000. kBytes
   nonlr-proj:      13095. kBytes
   fftplans  :      29330. kBytes
   grid      :      20782. kBytes
   one-center:         97. kBytes
   wavefun   :     205347. kBytes
 
     INWAV:  cpu time      0.0000: real time      0.0002
 Broyden mixing: mesh for mixing (old mesh)
   NGX = 77   NGY = 77   NGZ = 63
  (NGX  =240   NGY  =240   NGZ  =192)
  gives a total of 373527 points

 initial charge density was supplied:
 charge density of overlapping atoms calculated
 number of electron     384.0000000 magnetization       1.0000000
 keeping initial charge density in first step


--------------------------------------------------------------------------------------------------------


 Maximum index for non-local projection operator          454
 Maximum index for augmentation-charges         6108 (set IRDMAX)


--------------------------------------------------------------------------------------------------------


 First call to EWALD:  gamma=   0.139
 Maximum number of real-space cells 4x 4x 2
 Maximum number of reciprocal cells 4x 4x 3

    FEWALD:  cpu time      0.0028: real time      0.0028


--------------------------------------- Ionic step        1  -------------------------------------------




--------------------------------------- Iteration      1(   1)  ---------------------------------------


    POTLOK:  cpu time      0.3509: real time      0.3546
    SETDIJ:  cpu time      1.8509: real time      1.8617
     EDDAV:  cpu time     67.4174: real time     68.0411
       DOS:  cpu time      0.0035: real time      0.0036
    --------------------------------------------
      LOOP:  cpu time     69.6227: real time     70.2609

 eigenvalue-minimisations  : 18560
 total energy-change (2. order) : 0.1769469E+04  (-0.1712933E+05)
 number of electron     384.0000000 magnetization       1.0000000
 augmentation part      384.0000000 magnetization       1.0000000

 Free energy of the ion-electron system (eV)
  ---------------------------------------------------
  alpha Z        PSCENC =       851.34503079
  Ewald energy   TEWEN  =    -10119.65586703
  -Hartree energ DENC   =     -1257.42462225
  -exchange      EXHF   =         0.00000000
  -V(xc)+E(xc)   XCENC  =      -738.86812736
  PAW double counting   =      8461.93788731    -7071.13096423
  entropy T*S    EENTRO =        -0.00094776
  eigenvalues    EBANDS =      1563.65903427
  atomic energy  EATOM  =     10079.60734648
  Solvation  Ediel_sol  =         0.00000000
  ---------------------------------------------------
  free energy    TOTEN  =      1769.46877021 eV

  energy without entropy =     1769.46971797  energy(sigma->0) =     1769.46924409


--------------------------------------------------------------------------------------------------------




--------------------------------------- Iteration      1(   2)  ---------------------------------------


     EDDAV:  cpu time     76.1148: real time     76.8052
       DOS:  cpu time      0.0031: real time      0.0031
    --------------------------------------------
      LOOP:  cpu time     76.1178: real time     76.8082

 eigenvalue-minimisations  : 21776
 total energy-change (2. order) :-0.2179579E+04  (-0.2109306E+04)
 number of electron     384.0000000 magnetization       1.0000000
 augmentation part      384.0000000 magnetization       1.0000000

 Free energy of the ion-electron system (eV)
  ---------------------------------------------------
  alpha Z        PSCENC =       851.34503079
  Ewald energy   TEWEN  =    -10119.65586703
  -Hartree energ DENC   =     -1257.42462225
  -exchange      EXHF   =         0.00000000
  -V(xc)+E(xc)   XCENC  =      -738.86812736
  PAW double counting   =      8461.93788731    -7071.13096423
  entropy T*S    EENTRO =        -0.00124677
  eigenvalues    EBANDS =      -615.91968669
  atomic energy  EATOM  =     10079.60734648
  Solvation  Ediel_sol  =         0.00000000
  ---------------------------------------------------
  free energy    TOTEN  =      -410.11024976 eV

  energy without entropy =     -410.10900299  energy(sigma->0) =     -410.10962637


--------------------------------------------------------------------------------------------------------




--------------------------------------- Iteration      1(   3)  ---------------------------------------


     EDDAV:  cpu time     79.5643: real time     80.2942
       DOS:  cpu time      0.0032: real time      0.0032
    --------------------------------------------
      LOOP:  cpu time     79.5675: real time     80.2973

 eigenvalue-minimisations  : 23080
 total energy-change (2. order) :-0.2376902E+03  (-0.2282735E+03)
 number of electron     384.0000000 magnetization       1.0000000
 augmentation part      384.0000000 magnetization       1.0000000

 Free energy of the ion-electron system (eV)
  ---------------------------------------------------
  alpha Z        PSCENC =       851.34503079
  Ewald energy   TEWEN  =    -10119.65586703
  -Hartree energ DENC   =     -1257.42462225
  -exchange      EXHF   =         0.00000000
  -V(xc)+E(xc)   XCENC  =      -738.86812736
  PAW double counting   =      8461.93788731    -7071.13096423
  entropy T*S    EENTRO =        -0.00199433
  eigenvalues    EBANDS =      -853.60912535
  atomic energy  EATOM  =     10079.60734648
  Solvation  Ediel_sol  =         0.00000000
  ---------------------------------------------------
  free energy    TOTEN  =      -647.80043598 eV

  energy without entropy =     -647.79844165  energy(sigma->0) =     -647.79943881


--------------------------------------------------------------------------------------------------------




--------------------------------------- Iteration      1(   4)  ---------------------------------------


     EDDAV:  cpu time     78.3426: real time     79.0574
       DOS:  cpu time      0.0030: real time      0.0030
    --------------------------------------------
      LOOP:  cpu time     78.3455: real time     79.0604

 eigenvalue-minimisations  : 22632
 total energy-change (2. order) :-0.1079101E+02  (-0.1037260E+02)
 number of electron     384.0000000 magnetization       1.0000000
 augmentation part      384.0000000 magnetization       1.0000000

 Free energy of the ion-electron system (eV)
  ---------------------------------------------------
  alpha Z        PSCENC =       851.34503079
  Ewald energy   TEWEN  =    -10119.65586703
  -Hartree energ DENC   =     -1257.42462225
  -exchange      EXHF   =         0.00000000
  -V(xc)+E(xc)   XCENC  =      -738.86812736
  PAW double counting   =      8461.93788731    -7071.13096423
  entropy T*S    EENTRO =        -0.00206102
  eigenvalues    EBANDS =      -864.40006791
  atomic energy  EATOM  =     10079.60734648
  Solvation  Ediel_sol  =         0.00000000
  ---------------------------------------------------
  free energy    TOTEN  =      -658.59144523 eV

  energy without entropy =     -658.58938421  energy(sigma->0) =     -658.59041472


--------------------------------------------------------------------------------------------------------




--------------------------------------- Iteration      1(   5)  ---------------------------------------


     EDDAV:  cpu time     82.3384: real time     83.0944
       DOS:  cpu time      0.0031: real time      0.0031
    CHARGE:  cpu time      4.6336: real time      4.6833
    MIXING:  cpu time      0.0099: real time      0.0100
    --------------------------------------------
      LOOP:  cpu time     86.9849: real time     87.7908

 eigenvalue-minimisations  : 24152
 total energy-change (2. order) :-0.4980405E+00  (-0.4894575E+00)
 number of electron     383.9999997 magnetization       1.0000000
 augmentation part      -64.7266957 magnetization      -0.0616072

 Broyden mixing:
  rms(total) = 0.68794E+01    rms(broyden)= 0.68794E+01
  rms(prec ) = 0.69820E+01
  weight for this iteration     100.00

 Free energy of the ion-electron system (eV)
  ---------------------------------------------------
  alpha Z        PSCENC =       851.34503079
  Ewald energy   TEWEN  =    -10119.65586703
  -Hartree energ DENC   =     -1257.42462225
  -exchange      EXHF   =         0.00000000
  -V(xc)+E(xc)   XCENC  =      -738.86812736
  PAW double counting   =      8461.93788731    -7071.13096423
  entropy T*S    EENTRO =        -0.00223255
  eigenvalues    EBANDS =      -864.89793689
  atomic energy  EATOM  =     10079.60734648
  Solvation  Ediel_sol  =         0.00000000
  ---------------------------------------------------
  free energy    TOTEN  =      -659.08948574 eV

  energy without entropy =     -659.08725319  energy(sigma->0) =     -659.08836946


--------------------------------------------------------------------------------------------------------




--------------------------------------- Iteration      1(   6)  ---------------------------------------


    POTLOK:  cpu time      0.3433: real time      0.3456
    SETDIJ:  cpu time      1.8516: real time      1.8625
     EDDAV:  cpu time     71.7279: real time     72.4417
       DOS:  cpu time      0.0030: real time      0.0030
    CHARGE:  cpu time      4.6465: real time      4.6910
    MIXING:  cpu time      0.0126: real time      0.0127
    --------------------------------------------
      LOOP:  cpu time     78.5849: real time     79.3566

 eigenvalue-minimisations  : 20160
 total energy-change (2. order) : 0.2226330E+02  (-0.1223141E+02)
 number of electron     383.9999996 magnetization       1.0000000
 augmentation part      -65.0187329 magnetization      -0.0915435

 Broyden mixing:
  rms(total) = 0.31672E+01    rms(broyden)= 0.31672E+01
  rms(prec ) = 0.34482E+01
  weight for this iteration     100.00

 eigenvalues of (default mixing * dielectric matrix)
  average eigenvalue GAMMA=   1.6071
  1.6071

 Free energy of the ion-electron system (eV)
  ---------------------------------------------------
  alpha Z        PSCENC =       851.34503079
  Ewald energy   TEWEN  =    -10119.65586703
  -Hartree energ DENC   =     -1388.10161196
  -exchange      EXHF   =         0.00000000
  -V(xc)+E(xc)   XCENC  =      -721.46567610
  PAW double counting   =     20469.73904163   -19110.99894208
  entropy T*S    EENTRO =        -0.00189967
  eigenvalues    EBANDS =      -697.29360888
  atomic energy  EATOM  =     10079.60734648
  Solvation  Ediel_sol  =         0.00000000
  ---------------------------------------------------
  free energy    TOTEN  =      -636.82618683 eV

  energy without entropy =     -636.82428716  energy(sigma->0) =     -636.82523699


--------------------------------------------------------------------------------------------------------




--------------------------------------- Iteration      1(   7)  ---------------------------------------


    POTLOK:  cpu time      0.3392: real time      0.3415
    SETDIJ:  cpu time      1.8496: real time      1.8604
     EDDAV:  cpu time     96.0465: real time     96.9005
       DOS:  cpu time      0.0029: real time      0.0029
    CHARGE:  cpu time      4.6113: real time      4.6496
    MIXING:  cpu time      0.0138: real time      0.0139
    --------------------------------------------
      LOOP:  cpu time    102.8633: real time    103.7688

 eigenvalue-minimisations  : 28904
 total energy-change (2. order) :-0.1331076E+02  (-0.1163813E+02)
 number of electron     383.9999997 magnetization       1.0000000
 augmentation part      -58.5469770 magnetization      -0.0807552

 Broyden mixing:
  rms(total) = 0.35203E+01    rms(broyden)= 0.35203E+01
  rms(prec ) = 0.57378E+01
  weight for this iteration     100.00

 eigenvalues of (default mixing * dielectric matrix)
  average eigenvalue GAMMA=   1.0779
  1.8399  0.3159

 Free energy of the ion-electron system (eV)
  ---------------------------------------------------
  alpha Z        PSCENC =       851.34503079
  Ewald energy   TEWEN  =    -10119.65586703
  -Hartree energ DENC   =     -1331.08657579
  -exchange      EXHF   =         0.00000000
  -V(xc)+E(xc)   XCENC  =      -710.17501624
  PAW double counting   =     30871.54868524   -29521.94620893
  entropy T*S    EENTRO =        -0.00193346
  eigenvalues    EBANDS =      -769.77240331
  atomic energy  EATOM  =     10079.60734648
  Solvation  Ediel_sol  =         0.00000000
  ---------------------------------------------------
  free energy    TOTEN  =      -650.13694226 eV

  energy without entropy =     -650.13500879  energy(sigma->0) =     -650.13597553


--------------------------------------------------------------------------------------------------------




--------------------------------------- Iteration      1(   8)  ---------------------------------------


    POTLOK:  cpu time      0.3424: real time      0.3444
    SETDIJ:  cpu time      1.8571: real time      1.8669
     EDDAV:  cpu time     92.1553: real time     92.9823
       DOS:  cpu time      0.0030: real time      0.0030
    CHARGE:  cpu time      4.5972: real time      4.6362
    MIXING:  cpu time      0.0117: real time      0.0118
    --------------------------------------------
      LOOP:  cpu time     98.9668: real time     99.8448

 eigenvalue-minimisations  : 27624
 total energy-change (2. order) : 0.2293875E+02  (-0.4966142E+02)
 number of electron     383.9999997 magnetization       1.0000000
 augmentation part      -64.0957636 magnetization      -0.0872322

 Broyden mixing:
  rms(total) = 0.10305E+01    rms(broyden)= 0.10305E+01
  rms(prec ) = 0.19131E+01
  weight for this iteration     100.00

 eigenvalues of (default mixing * dielectric matrix)
  average eigenvalue GAMMA=   0.9823
  2.0292  0.6522  0.2657

 Free energy of the ion-electron system (eV)
  ---------------------------------------------------
  alpha Z        PSCENC =       851.34503079
  Ewald energy   TEWEN  =    -10119.65586703
  -Hartree energ DENC   =     -1376.99845414
  -exchange      EXHF   =         0.00000000
  -V(xc)+E(xc)   XCENC  =      -707.53789502
  PAW double counting   =     37113.47518602   -35786.89286459
  entropy T*S    EENTRO =        -0.00157062
  eigenvalues    EBANDS =      -680.53910536
  atomic energy  EATOM  =     10079.60734648
  Solvation  Ediel_sol  =         0.00000000
  ---------------------------------------------------
  free energy    TOTEN  =      -627.19819348 eV

  energy without entropy =     -627.19662287  energy(sigma->0) =     -627.19740817


--------------------------------------------------------------------------------------------------------




--------------------------------------- Iteration      1(   9)  ---------------------------------------


    POTLOK:  cpu time      0.3431: real time      0.3453
    SETDIJ:  cpu time      1.8551: real time      1.8648
     EDDAV:  cpu time     74.7542: real time     75.4184
       DOS:  cpu time      0.0030: real time      0.0030
    CHARGE:  cpu time      4.6032: real time      4.6415
    MIXING:  cpu time      0.0104: real time      0.0105
    --------------------------------------------
      LOOP:  cpu time     81.5689: real time     82.2836

 eigenvalue-minimisations  : 21200
 total energy-change (2. order) :-0.3213986E+01  (-0.8426103E+01)
 number of electron     383.9999997 magnetization       1.0000000
 augmentation part      -64.6988672 magnetization      -0.0866653

 Broyden mixing:
  rms(total) = 0.94592E+00    rms(broyden)= 0.94592E+00
  rms(prec ) = 0.12958E+01
  weight for this iteration     100.00

 eigenvalues of (default mixing * dielectric matrix)
  average eigenvalue GAMMA=   0.8037
  2.0380  0.6508  0.2629  0.2629

 Free energy of the ion-electron system (eV)
  ---------------------------------------------------
  alpha Z        PSCENC =       851.34503079
  Ewald energy   TEWEN  =    -10119.65586703
  -Hartree energ DENC   =     -1390.01807610
  -exchange      EXHF   =         0.00000000
  -V(xc)+E(xc)   XCENC  =      -706.13914881
  PAW double counting   =     39983.75862943   -38660.89476021
  entropy T*S    EENTRO =        -0.00157675
  eigenvalues    EBANDS =      -668.41375684
  atomic energy  EATOM  =     10079.60734648
  Solvation  Ediel_sol  =         0.00000000
  ---------------------------------------------------
  free energy    TOTEN  =      -630.41217906 eV

  energy without entropy =     -630.41060230  energy(sigma->0) =     -630.41139068


--------------------------------------------------------------------------------------------------------




--------------------------------------- Iteration      1(  10)  ---------------------------------------


    POTLOK:  cpu time      0.3421: real time      0.3456
    SETDIJ:  cpu time      1.8578: real time      1.8676
     EDDAV:  cpu time     74.1403: real time     74.7997
       DOS:  cpu time      0.0032: real time      0.0032
    CHARGE:  cpu time      4.6257: real time      4.6662
    MIXING:  cpu time      0.0133: real time      0.0133
    --------------------------------------------
      LOOP:  cpu time     80.9824: real time     81.6955

 eigenvalue-minimisations  : 20976
 total energy-change (2. order) : 0.2729871E+01  (-0.9430566E+00)
 number of electron     383.9999997 magnetization       1.0000000
 augmentation part      -64.8330840 magnetization      -0.0840842

 Broyden mixing:
  rms(total) = 0.77979E+00    rms(broyden)= 0.77979E+00
  rms(prec ) = 0.10592E+01
  weight for this iteration     100.00

 eigenvalues of (default mixing * dielectric matrix)
  average eigenvalue GAMMA=   0.7364
  2.0727  0.6033  0.2525  0.3767  0.3767

 Free energy of the ion-electron system (eV)
  ---------------------------------------------------
  alpha Z        PSCENC =       851.34503079
  Ewald energy   TEWEN  =    -10119.65586703
  -Hartree energ DENC   =     -1384.79010279
  -exchange      EXHF   =         0.00000000
  -V(xc)+E(xc)   XCENC  =      -706.28738518
  PAW double counting   =     40179.09222390   -38854.05876093
  entropy T*S    EENTRO =        -0.00200023
  eigenvalues    EBANDS =      -672.93279292
  atomic energy  EATOM  =     10079.60734648
  Solvation  Ediel_sol  =         0.00000000
  ---------------------------------------------------
  free energy    TOTEN  =      -627.68230792 eV

  energy without entropy =     -627.68030769  energy(sigma->0) =     -627.68130780


--------------------------------------------------------------------------------------------------------




--------------------------------------- Iteration      1(  11)  ---------------------------------------


    POTLOK:  cpu time      0.3443: real time      0.3465
    SETDIJ:  cpu time      1.8467: real time      1.8579
     EDDAV:  cpu time     76.4781: real time     77.2365
       DOS:  cpu time      0.0029: real time      0.0029
    CHARGE:  cpu time      4.7097: real time      4.7538
    MIXING:  cpu time      0.0183: real time      0.0184
    --------------------------------------------
      LOOP:  cpu time     83.4003: real time     84.2162

 eigenvalue-minimisations  : 21872
 total energy-change (2. order) : 0.1395313E+01  (-0.1533332E+00)
 number of electron     383.9999997 magnetization       1.0000000
 augmentation part      -64.8401789 magnetization      -0.0825261

 Broyden mixing:
  rms(total) = 0.66119E+00    rms(broyden)= 0.66119E+00
  rms(prec ) = 0.90133E+00
  weight for this iteration     100.00

 eigenvalues of (default mixing * dielectric matrix)
  average eigenvalue GAMMA=   0.8373
  2.1926  0.8216  0.8216  0.2689  0.4596  0.4596

 Free energy of the ion-electron system (eV)
  ---------------------------------------------------
  alpha Z        PSCENC =       851.34503079
  Ewald energy   TEWEN  =    -10119.65586703
  -Hartree energ DENC   =     -1380.67659711
  -exchange      EXHF   =         0.00000000
  -V(xc)+E(xc)   XCENC  =      -706.33245917
  PAW double counting   =     40374.17887339   -39047.87733825
  entropy T*S    EENTRO =        -0.00215443
  eigenvalues    EBANDS =      -676.87382991
  atomic energy  EATOM  =     10079.60734648
  Solvation  Ediel_sol  =         0.00000000
  ---------------------------------------------------
  free energy    TOTEN  =      -626.28699525 eV

  energy without entropy =     -626.28484082  energy(sigma->0) =     -626.28591803


--------------------------------------------------------------------------------------------------------




--------------------------------------- Iteration      1(  12)  ---------------------------------------


    POTLOK:  cpu time      0.3490: real time      0.3514
    SETDIJ:  cpu time      1.8483: real time      1.8592
     EDDAV:  cpu time     72.8072: real time     73.8339
       DOS:  cpu time      0.0032: real time      0.0032
    CHARGE:  cpu time      4.7045: real time      4.7483
    MIXING:  cpu time      0.0130: real time      0.0131
    --------------------------------------------
      LOOP:  cpu time     79.7252: real time     80.8090

 eigenvalue-minimisations  : 20472
 total energy-change (2. order) : 0.1983434E+01  (-0.2021001E+00)
 number of electron     383.9999997 magnetization       1.0000000
 augmentation part      -64.7153422 magnetization      -0.0790366

 Broyden mixing:
  rms(total) = 0.43529E+00    rms(broyden)= 0.43529E+00
  rms(prec ) = 0.59862E+00
  weight for this iteration     100.00

 eigenvalues of (default mixing * dielectric matrix)
  average eigenvalue GAMMA=   0.9111
  2.2152  1.2387  1.2387  0.2671  0.4818  0.4818  0.4543

 Free energy of the ion-electron system (eV)
  ---------------------------------------------------
  alpha Z        PSCENC =       851.34503079
  Ewald energy   TEWEN  =    -10119.65586703
  -Hartree energ DENC   =     -1376.26419186
  -exchange      EXHF   =         0.00000000
  -V(xc)+E(xc)   XCENC  =      -706.14677868
  PAW double counting   =     40785.60289998   -39456.84453651
  entropy T*S    EENTRO =        -0.00175194
  eigenvalues    EBANDS =      -681.94571202
  atomic energy  EATOM  =     10079.60734648
  Solvation  Ediel_sol  =         0.00000000
  ---------------------------------------------------
  free energy    TOTEN  =      -624.30356080 eV

  energy without entropy =     -624.30180886  energy(sigma->0) =     -624.30268483


--------------------------------------------------------------------------------------------------------




--------------------------------------- Iteration      1(  13)  ---------------------------------------


    POTLOK:  cpu time      0.3401: real time      0.3422
    SETDIJ:  cpu time      1.8467: real time      1.8579
     EDDAV:  cpu time     77.5251: real time     78.2779
       DOS:  cpu time      0.0032: real time      0.0032
    CHARGE:  cpu time      4.6925: real time      4.7354
    MIXING:  cpu time      0.0171: real time      0.0172
    --------------------------------------------
      LOOP:  cpu time     84.4248: real time     85.2339

 eigenvalue-minimisations  : 22072
 total energy-change (2. order) : 0.1170938E+01  (-0.3415436E+00)
 number of electron     383.9999997 magnetization       1.0000000
 augmentation part      -64.5103378 magnetization      -0.0735662

 Broyden mixing:
  rms(total) = 0.17049E+00    rms(broyden)= 0.17049E+00
  rms(prec ) = 0.25672E+00
  weight for this iteration     100.00

 eigenvalues of (default mixing * dielectric matrix)
  average eigenvalue GAMMA=   0.8831
  2.1511  1.3600  1.3600  0.5230  0.5230  0.5536  0.2664  0.3276

 Free energy of the ion-electron system (eV)
  ---------------------------------------------------
  alpha Z        PSCENC =       851.34503079
  Ewald energy   TEWEN  =    -10119.65586703
  -Hartree energ DENC   =     -1372.72763601
  -exchange      EXHF   =         0.00000000
  -V(xc)+E(xc)   XCENC  =      -706.20084913
  PAW double counting   =     40612.64769280   -39280.41165653
  entropy T*S    EENTRO =        -0.00209920
  eigenvalues    EBANDS =      -687.73458525
  atomic energy  EATOM  =     10079.60734648
  Solvation  Ediel_sol  =         0.00000000
  ---------------------------------------------------
  free energy    TOTEN  =      -623.13262309 eV

  energy without entropy =     -623.13052388  energy(sigma->0) =     -623.13157348


--------------------------------------------------------------------------------------------------------




--------------------------------------- Iteration      1(  14)  ---------------------------------------


    POTLOK:  cpu time      0.3408: real time      0.3436
    SETDIJ:  cpu time      1.8502: real time      1.8600
     EDDAV:  cpu time     79.2814: real time     80.0012
       DOS:  cpu time      0.0032: real time      0.0032
    CHARGE:  cpu time      4.6941: real time      4.7348
    MIXING:  cpu time      0.0198: real time      0.0199
    --------------------------------------------
      LOOP:  cpu time     86.1893: real time     86.9626

 eigenvalue-minimisations  : 22824
 total energy-change (2. order) : 0.1355116E+00  (-0.1035896E+00)
 number of electron     383.9999997 magnetization       1.0000000
 augmentation part      -64.4165967 magnetization      -0.0713320

 Broyden mixing:
  rms(total) = 0.79449E-01    rms(broyden)= 0.79449E-01
  rms(prec ) = 0.99333E-01
  weight for this iteration     100.00

 eigenvalues of (default mixing * dielectric matrix)
  average eigenvalue GAMMA=   0.8708
  2.1174  1.4199  1.4199  0.6614  0.6614  0.4934  0.4934  0.2659  0.3046

 Free energy of the ion-electron system (eV)
  ---------------------------------------------------
  alpha Z        PSCENC =       851.34503079
  Ewald energy   TEWEN  =    -10119.65586703
  -Hartree energ DENC   =     -1371.70717399
  -exchange      EXHF   =         0.00000000
  -V(xc)+E(xc)   XCENC  =      -706.36582641
  PAW double counting   =     40230.31778252   -38896.18103489
  entropy T*S    EENTRO =        -0.00162049
  eigenvalues    EBANDS =      -690.35574845
  atomic energy  EATOM  =     10079.60734648
  Solvation  Ediel_sol  =         0.00000000
  ---------------------------------------------------
  free energy    TOTEN  =      -622.99711147 eV

  energy without entropy =     -622.99549098  energy(sigma->0) =     -622.99630123


--------------------------------------------------------------------------------------------------------




--------------------------------------- Iteration      1(  15)  ---------------------------------------


    POTLOK:  cpu time      0.3450: real time      0.3477
    SETDIJ:  cpu time      1.8499: real time      1.8598
     EDDAV:  cpu time     77.7925: real time     78.4910
       DOS:  cpu time      0.0030: real time      0.0030
    CHARGE:  cpu time      4.7173: real time      4.7581
    MIXING:  cpu time      0.0208: real time      0.0209
    --------------------------------------------
      LOOP:  cpu time     84.7284: real time     85.4803

 eigenvalue-minimisations  : 22408
 total energy-change (2. order) : 0.5789431E-02  (-0.1929426E-01)
 number of electron     383.9999997 magnetization       1.0000000
 augmentation part      -64.4163709 magnetization      -0.0714414

 Broyden mixing:
  rms(total) = 0.48878E-01    rms(broyden)= 0.48878E-01
  rms(prec ) = 0.65507E-01
  weight for this iteration     100.00

 eigenvalues of (default mixing * dielectric matrix)
  average eigenvalue GAMMA=   0.8770
  2.0467  1.5116  1.5116  0.8929  0.7836  0.4933  0.4933  0.4545  0.2661  0.3169

 Free energy of the ion-electron system (eV)
  ---------------------------------------------------
  alpha Z        PSCENC =       851.34503079
  Ewald energy   TEWEN  =    -10119.65586703
  -Hartree energ DENC   =     -1371.40471722
  -exchange      EXHF   =         0.00000000
  -V(xc)+E(xc)   XCENC  =      -706.42698411
  PAW double counting   =     40109.45489786   -38774.95071295
  entropy T*S    EENTRO =        -0.00155862
  eigenvalues    EBANDS =      -690.95875723
  atomic energy  EATOM  =     10079.60734648
  Solvation  Ediel_sol  =         0.00000000
  ---------------------------------------------------
  free energy    TOTEN  =      -622.99132204 eV

  energy without entropy =     -622.98976342  energy(sigma->0) =     -622.99054273


--------------------------------------------------------------------------------------------------------




--------------------------------------- Iteration      1(  16)  ---------------------------------------


    POTLOK:  cpu time      0.3443: real time      0.3485
    SETDIJ:  cpu time      1.8555: real time      1.8654
     EDDAV:  cpu time     76.6859: real time     77.4365
       DOS:  cpu time      0.0032: real time      0.0032
    CHARGE:  cpu time      4.6861: real time      4.7275
    MIXING:  cpu time      0.0166: real time      0.0499
    --------------------------------------------
      LOOP:  cpu time     83.5917: real time     84.4311

 eigenvalue-minimisations  : 21872
 total energy-change (2. order) : 0.4317136E-02  (-0.3150867E-02)
 number of electron     383.9999997 magnetization       1.0000000
 augmentation part      -64.4309879 magnetization      -0.0706507

 Broyden mixing:
  rms(total) = 0.28327E-01    rms(broyden)= 0.28327E-01
  rms(prec ) = 0.35346E-01
  weight for this iteration     100.00

 eigenvalues of (default mixing * dielectric matrix)
  average eigenvalue GAMMA=   0.8799
[...]
   -.145E+02 0.110E+00 -.227E+02   0.148E+02 -.208E+00 0.236E+02   -.140E+00 0.776E-01 -.184E+00   0.394E-04 0.685E-04 -.265E-03
   -.122E+00 0.487E+01 0.332E+01   0.378E+00 -.467E+01 -.336E+01   0.848E-01 -.408E+00 -.135E+00   -.348E-04 0.715E-04 -.127E-03
   -.143E+01 -.413E+02 0.332E+01   0.181E+01 0.423E+02 -.323E+01   0.328E+00 0.619E+00 -.251E+00   0.128E-03 0.452E-04 0.316E-06
   0.335E+02 -.732E+01 -.441E+02   -.136E+02 0.393E+02 0.106E+03   0.587E+01 0.138E+02 0.336E+02   0.220E-04 -.199E-04 -.409E-04
   0.240E+02 -.547E+01 0.235E+02   -.246E+02 0.511E+01 -.244E+02   0.236E+00 0.100E+00 -.323E+00   -.155E-03 0.312E-04 -.173E-04
   -.173E+02 0.415E+01 -.132E+02   0.167E+02 -.435E+01 0.130E+02   0.467E+00 0.271E+00 0.438E+00   0.902E-04 -.317E-04 -.326E-04
   -.294E+00 0.167E+01 -.249E+01   0.802E+00 -.146E+01 0.197E+01   -.150E+00 -.173E+00 0.540E+00   0.196E-04 -.274E-04 -.267E-03
   0.408E+01 0.508E+02 0.105E+02   -.489E+01 -.527E+02 -.955E+01   0.626E+00 -.459E+00 -.748E+00   0.161E-03 -.125E-03 -.270E-04
   0.282E+02 0.222E+02 0.101E+02   -.296E+02 -.236E+02 -.940E+01   0.614E+00 0.814E+00 -.516E+00   0.719E-05 0.228E-04 -.406E-04
   -.650E+02 -.595E+01 -.507E+02   0.103E+03 0.472E+02 0.107E+03   0.167E+02 0.197E+02 0.310E+02   0.103E-03 -.128E-04 0.362E-04
   0.290E+02 -.713E+01 -.899E+01   -.292E+02 0.776E+01 0.101E+02   -.313E+00 0.225E+00 -.291E-02   0.497E-04 -.207E-04 -.137E-03
   -.584E+01 -.606E+00 0.102E+02   0.584E+01 0.822E+00 -.103E+02   -.790E-01 -.227E-01 -.157E+00   -.464E-04 0.188E-04 -.209E-03
   0.662E+01 -.798E+01 0.219E+02   -.719E+01 0.801E+01 -.234E+02   -.146E+00 0.554E-01 -.731E-01   -.126E-04 0.507E-04 -.223E-03
   -.322E+01 -.206E+01 0.128E+02   0.387E+01 0.231E+01 -.123E+02   -.585E+00 -.307E+00 -.672E+00   0.647E-04 0.786E-04 -.124E-03
   -.225E+02 0.231E+02 -.730E+01   0.255E+02 -.238E+02 0.659E+01   -.195E+01 0.226E+00 0.712E+00   -.258E-04 0.375E-04 0.523E-04
   0.338E+02 -.730E+01 -.439E+02   -.138E+02 0.393E+02 0.105E+03   0.570E+01 0.138E+02 0.334E+02   0.209E-04 -.356E-04 -.459E-04
   0.240E+02 -.678E+01 0.246E+02   -.243E+02 0.628E+01 -.254E+02   -.623E-01 0.183E+00 -.442E+00   -.141E-03 0.337E-04 -.366E-04
   -.197E+02 0.246E+01 -.298E+01   0.195E+02 -.266E+01 0.235E+01   0.252E+00 0.226E+00 0.789E+00   0.116E-03 -.162E-04 -.681E-04
   -.110E+02 -.230E+02 -.221E+02   0.114E+02 0.232E+02 0.227E+02   0.651E+00 0.809E+00 0.471E+00   0.889E-04 0.107E-03 0.248E-03
   0.225E+02 -.231E+02 0.730E+01   -.255E+02 0.238E+02 -.659E+01   0.195E+01 -.226E+00 -.712E+00   0.257E-04 -.374E-04 -.579E-04
   0.114E+02 0.297E+01 0.134E+02   -.122E+02 -.302E+01 -.131E+02   0.616E+00 0.200E+00 -.302E+00   -.642E-04 0.156E-04 -.147E-03
   -.650E+02 -.666E+01 -.492E+02   0.103E+03 0.481E+02 0.105E+03   0.165E+02 0.196E+02 0.310E+02   0.104E-03 -.859E-05 0.348E-04
   0.283E+02 -.729E+01 -.886E+01   -.286E+02 0.803E+01 0.101E+02   -.159E+00 0.127E+00 -.168E+00   0.668E-04 -.607E-05 -.129E-03
   -.364E+01 0.330E+01 0.507E+01   0.381E+01 -.323E+01 -.480E+01   -.993E-01 -.293E-01 -.350E+00   -.559E-04 0.990E-05 -.139E-03
   -.123E+02 0.951E+01 -.195E+02   0.129E+02 -.967E+01 0.206E+02   -.211E+00 0.331E-01 -.332E+00   -.611E-05 -.474E-04 -.121E-03
   0.258E+01 -.562E+00 0.301E+01   -.236E+01 0.714E+00 -.305E+01   -.310E+00 -.100E+00 -.132E+00   -.375E-04 -.715E-05 0.182E-03
   0.643E+02 0.685E+01 0.510E+02   -.102E+03 -.481E+02 -.107E+03   -.167E+02 -.197E+02 -.308E+02   0.428E-04 -.330E-04 0.677E-04
   0.110E+02 0.519E+01 -.289E+02   -.120E+02 -.468E+01 0.300E+02   -.158E+00 -.260E+00 0.200E+00   -.710E-04 0.200E-04 0.268E-03
   -.128E+02 -.582E+01 -.180E+02   0.125E+02 0.617E+01 0.179E+02   0.361E+00 -.559E-01 0.282E+00   0.128E-03 0.426E-04 0.153E-03
   -.161E+01 -.203E+01 0.557E+01   0.142E+01 0.221E+01 -.612E+01   0.306E+00 -.208E+00 0.526E+00   0.270E-04 0.651E-04 0.213E-03
   0.102E+02 0.106E+01 -.712E+01   -.104E+02 -.128E+01 0.668E+01   0.178E+00 0.706E-01 0.596E+00   -.110E-03 0.175E-04 0.109E-03
   -.314E+02 0.865E+01 0.819E+01   0.317E+02 -.944E+01 -.933E+01   0.140E+00 -.229E-01 0.652E-01   0.164E-03 -.469E-04 0.190E-04
   -.343E+02 0.706E+01 0.437E+02   0.143E+02 -.391E+02 -.105E+03   -.565E+01 -.137E+02 -.333E+02   0.598E-04 -.159E-04 -.346E-04
   -.399E+02 -.922E+01 0.545E+01   0.407E+02 0.971E+01 -.586E+01   0.886E+00 -.103E-01 0.644E+00   0.138E-03 0.216E-03 0.683E-04
   -.105E+01 -.797E+01 0.121E+02   0.781E+00 0.737E+01 -.123E+02   -.252E+00 0.328E+00 -.146E+00   0.593E-04 -.392E-04 -.132E-03
   -.319E+01 0.561E+01 0.346E+01   0.315E+01 -.630E+01 -.317E+01   -.274E-01 0.472E+00 -.400E+00   0.576E-04 -.610E-04 0.103E-03
   0.149E+02 -.546E+00 0.133E+02   -.142E+02 0.666E+00 -.135E+02   -.648E+00 -.181E+00 -.295E+00   0.100E-04 -.343E-04 0.175E-03
   -.206E+02 0.492E+01 -.240E+02   0.211E+02 -.455E+01 0.247E+02   -.491E-01 -.142E+00 0.541E+00   -.110E-03 0.228E-04 0.763E-04
   0.639E+02 0.644E+01 0.504E+02   -.101E+03 -.477E+02 -.107E+03   -.168E+02 -.197E+02 -.311E+02   0.496E-04 -.891E-05 0.617E-04
   -.787E+01 0.225E+02 0.543E+01   0.892E+01 -.227E+02 -.606E+01   -.377E+00 -.344E+00 0.237E+00   -.141E-03 -.980E-04 0.820E-04
   0.122E+00 -.487E+01 -.332E+01   -.378E+00 0.467E+01 0.336E+01   -.848E-01 0.408E+00 0.135E+00   0.339E-04 -.713E-04 0.124E-03
   0.145E+02 -.110E+00 0.227E+02   -.148E+02 0.208E+00 -.236E+02   0.140E+00 -.776E-01 0.184E+00   -.391E-04 -.686E-04 0.263E-03
   0.883E+01 -.585E+01 -.893E+01   -.898E+01 0.589E+01 0.866E+01   0.839E-01 -.164E-01 0.318E+00   -.103E-03 0.297E-04 0.131E-03
   -.319E+02 0.708E+01 0.697E+01   0.322E+02 -.777E+01 -.804E+01   0.744E-01 -.164E+00 0.173E-01   0.168E-03 -.319E-04 0.282E-04
   -.343E+02 0.781E+01 0.435E+02   0.142E+02 -.398E+02 -.105E+03   -.574E+01 -.138E+02 -.335E+02   0.618E-04 -.177E-04 -.237E-04
   0.787E+01 -.225E+02 -.543E+01   -.892E+01 0.227E+02 0.606E+01   0.377E+00 0.344E+00 -.237E+00   0.142E-03 0.979E-04 -.850E-04
   -.727E+01 -.301E+01 -.211E+02   0.752E+01 0.287E+01 0.212E+02   -.903E-01 -.247E+00 0.361E+00   -.213E-04 -.213E-04 0.192E-03
   -.674E+01 -.409E+01 -.761E+01   0.691E+01 0.444E+01 0.805E+01   -.114E+00 -.168E+00 -.440E+00   0.102E-03 0.223E-04 0.157E-03
   0.143E+02 -.419E+01 0.865E+01   -.138E+02 0.440E+01 -.842E+01   -.409E+00 -.298E+00 -.438E+00   0.247E-04 0.339E-04 0.189E-03
   -.207E+02 0.571E+01 -.236E+02   0.211E+02 -.529E+01 0.242E+02   -.185E-01 -.110E+00 0.574E+00   -.108E-03 0.304E-04 0.717E-04
   0.650E+02 0.666E+01 0.492E+02   -.103E+03 -.481E+02 -.105E+03   -.165E+02 -.196E+02 -.310E+02   -.104E-03 0.860E-05 -.318E-04
   -.114E+02 -.297E+01 -.134E+02   0.122E+02 0.302E+01 0.131E+02   -.616E+00 -.200E+00 0.302E+00   0.630E-04 -.154E-04 0.144E-03
   -.258E+01 0.562E+00 -.301E+01   0.236E+01 -.714E+00 0.305E+01   0.310E+00 0.100E+00 0.132E+00   0.384E-04 0.690E-05 -.183E-03
   0.123E+02 -.951E+01 0.195E+02   -.129E+02 0.967E+01 -.206E+02   0.211E+00 -.331E-01 0.332E+00   0.613E-05 0.474E-04 0.119E-03
   0.364E+01 -.330E+01 -.507E+01   -.381E+01 0.323E+01 0.480E+01   0.993E-01 0.293E-01 0.350E+00   0.547E-04 -.965E-05 0.140E-03
   -.283E+02 0.729E+01 0.886E+01   0.286E+02 -.803E+01 -.101E+02   0.159E+00 -.127E+00 0.168E+00   -.659E-04 0.583E-05 0.133E-03
   -.338E+02 0.730E+01 0.439E+02   0.138E+02 -.393E+02 -.105E+03   -.570E+01 -.138E+02 -.334E+02   -.206E-04 0.355E-04 0.521E-04
   0.225E+02 -.231E+02 0.730E+01   -.255E+02 0.238E+02 -.659E+01   0.195E+01 -.226E+00 -.712E+00   0.257E-04 -.374E-04 -.579E-04
   -.225E+02 0.231E+02 -.730E+01   0.255E+02 -.238E+02 0.659E+01   -.195E+01 0.226E+00 0.712E+00   -.258E-04 0.375E-04 0.523E-04
   0.110E+02 0.230E+02 0.221E+02   -.114E+02 -.232E+02 -.227E+02   -.651E+00 -.809E+00 -.471E+00   -.882E-04 -.107E-03 -.252E-03
   0.197E+02 -.246E+01 0.298E+01   -.195E+02 0.266E+01 -.235E+01   -.252E+00 -.226E+00 -.789E+00   -.115E-03 0.161E-04 0.693E-04
   -.240E+02 0.678E+01 -.246E+02   0.243E+02 -.628E+01 0.254E+02   0.623E-01 -.183E+00 0.442E+00   0.140E-03 -.335E-04 0.398E-04
   0.650E+02 0.595E+01 0.507E+02   -.103E+03 -.472E+02 -.107E+03   -.167E+02 -.197E+02 -.310E+02   -.103E-03 0.128E-04 -.332E-04
   -.282E+02 -.222E+02 -.101E+02   0.296E+02 0.236E+02 0.940E+01   -.614E+00 -.814E+00 0.516E+00   -.731E-05 -.228E-04 0.351E-04
   0.322E+01 0.206E+01 -.128E+02   -.387E+01 -.231E+01 0.123E+02   0.585E+00 0.307E+00 0.672E+00   -.640E-04 -.788E-04 0.120E-03
   -.662E+01 0.798E+01 -.219E+02   0.719E+01 -.801E+01 0.234E+02   0.146E+00 -.554E-01 0.731E-01   0.127E-04 -.507E-04 0.222E-03
   0.584E+01 0.606E+00 -.102E+02   -.584E+01 -.823E+00 0.103E+02   0.790E-01 0.227E-01 0.157E+00   0.451E-04 -.185E-04 0.210E-03
   -.290E+02 0.713E+01 0.899E+01   0.292E+02 -.776E+01 -.101E+02   0.313E+00 -.225E+00 0.291E-02   -.488E-04 0.205E-04 0.141E-03
   -.335E+02 0.732E+01 0.441E+02   0.136E+02 -.393E+02 -.106E+03   -.587E+01 -.138E+02 -.336E+02   -.217E-04 0.198E-04 0.471E-04
   0.143E+01 0.413E+02 -.332E+01   -.181E+01 -.423E+02 0.323E+01   -.328E+00 -.619E+00 0.251E+00   -.128E-03 -.452E-04 -.371E-05
   -.408E+01 -.508E+02 -.105E+02   0.489E+01 0.527E+02 0.955E+01   -.626E+00 0.459E+00 0.748E+00   -.161E-03 0.125E-03 0.236E-04
   0.294E+00 -.167E+01 0.249E+01   -.803E+00 0.146E+01 -.197E+01   0.150E+00 0.173E+00 -.540E+00   -.187E-04 0.272E-04 0.266E-03
   0.173E+02 -.415E+01 0.132E+02   -.167E+02 0.435E+01 -.130E+02   -.467E+00 -.271E+00 -.438E+00   -.896E-04 0.316E-04 0.337E-04
   -.240E+02 0.547E+01 -.235E+02   0.246E+02 -.511E+01 0.244E+02   -.236E+00 -.100E+00 0.323E+00   0.154E-03 -.310E-04 0.205E-04
 -----------------------------------------------------------------------------------------------
   -.154E-01 0.208E-02 -.498E-02   0.103E-12 0.266E-12 0.576E-12   -.154E-13 -.726E-13 0.521E-13   0.247E-06 0.711E-08 0.596E-06
 
 
 POSITION                                       TOTAL-FORCE (eV/Angst)
 -----------------------------------------------------------------------------------
     11.51045      1.46392      6.48995        -1.691107     -0.482846     -0.229265
    -15.32687      7.62082      0.00000        25.590291     45.677683     94.956290
     -9.95940      6.38944      1.29799        -0.394275     -0.228246     -1.219267
     -4.59194      5.15806      2.59598        -0.073502      0.062107      0.481594
      0.77552      3.92668      3.89397         0.064798      0.218159      0.112713
     -1.56646      5.70919      9.03677         0.519779      0.264203      0.268808
     -2.80278      2.69530      5.19196         1.176308     -0.252690     -1.350811
     -5.48652      5.36329      0.32450        54.044919     60.932867     86.995262
     -0.11906      4.13191      1.62249        -0.407186      0.809858      1.072278
      5.24841      2.90053      2.92048         0.044824      0.148681     -0.157283
     10.61587      1.66915      4.21847        -0.121262      0.023302      0.025860
     15.98334      0.43777      5.51645        -0.063116     -0.298145     -0.183365
      2.01185      6.94057      7.73878         0.672817     -0.500254     -0.399943
      1.67009      3.72145      0.00000        25.832213     45.741184     95.010389
      7.03755      2.49007      1.29799        -0.369816     -0.308462     -1.183892
     12.40502      1.25869      2.59598        -0.174432      0.092304      0.206113
     17.77248      0.02731      3.89397        -0.052944     -0.179468      0.004882
    -10.85397      6.59467      5.19196        -0.160760      0.382725     -0.546722
      2.56468      1.46392      6.48995        -0.672817      0.500254      0.399943
     11.51044      1.46392      0.32450        54.247957     60.983850     87.311845
     16.87790      0.23254      1.62249        -0.384368      0.847961      1.046342
    -11.74855      6.79990      2.92048         0.057408     -0.015125     -0.047221
     -6.38109      5.56852      4.21847         0.173129     -0.019927      0.649919
     -1.01362      4.33714      5.51646         0.341058     -0.212896     -0.180434
      4.35384      3.10576      6.81444         0.710610      1.636518     -0.159360
     -6.38110      7.62082      0.00000        25.771998     45.707346     95.136840
     -1.01364      6.38944      1.29799        -0.327913     -0.257765     -1.222869
      4.35383      5.15806      2.59598        -0.115740      0.070981      0.271785
      9.72129      3.92668      3.89397         0.358962      0.038197      0.019868
    -12.64312      7.00513      6.81444        -0.186922     -2.348151      0.237347
     -3.69735      7.00513      6.81444        -0.784729     -0.583354      0.180805
      3.45925      5.36329      0.32450        54.221394     60.984865     87.196830
      8.82672      4.13191      1.62249        -0.533162      0.859341      1.062705
     -3.69736      2.90053      2.92048        -0.085583      0.194154     -0.278799
      1.67011      1.66915      4.21847        -0.719841      0.087309     -1.526261
      7.03757      0.43777      5.51646         0.068407     -0.056141     -0.133059
     -8.72308      5.29873      7.41428         1.003038     -0.409807      0.002429
     -7.27567      3.72145      0.00000        25.736362     45.812723     94.865924
     -1.90821      2.49007      1.29799        -0.413818     -0.318078     -1.232510
      3.45925      1.25869      2.59598         0.104204      0.032952      0.166066
     -3.35562      4.06735      8.71227         0.967678      0.947968      1.023143
     -4.59193      3.10576      6.81444        -1.003038      0.409807     -0.002429
     -1.90820      6.59467      5.19196        -0.168340      0.147881     -0.044416
      2.56467      1.46392      0.32450        54.175394     60.994263     87.152988
      7.93213      0.23254      1.62249        -0.403524      0.866923      1.082636
     -2.80278      6.79990      2.92048         0.072671      0.045679     -0.076303
      2.56468      5.56852      4.21847         0.371123     -0.129340      0.792797
     11.85219      0.57844     10.33476        -0.082069      0.052784     -0.174084
     10.06304      3.04119     13.90423       -54.044919    -60.932867    -86.995262
    -10.51223      5.70919      9.03677        -1.176308      0.252690      1.350811
      4.69557      0.16798      8.71227         0.063116      0.298145      0.183365
     -6.03935      6.73534     10.01026         0.121262     -0.023302     -0.025860
     -0.67188      5.50396     11.30825        -0.044824     -0.148681      0.157283
      4.69558      4.27257     12.60624         0.407186     -0.809858     -1.072278
      2.01185      0.78366     14.22872       -25.590291    -45.677683    -94.956290
     -6.93393      6.94057      7.73878         1.691107      0.482846      0.229265
      6.14299      2.69530      5.19196        -0.519779     -0.264203     -0.268808
      3.80100      4.47781     10.33476        -0.064798     -0.218159     -0.112713
      9.16846      3.24642     11.63275         0.073502     -0.062107     -0.481594
     -3.35561      2.01504     12.93074         0.394275      0.228246      1.219267
     -6.93392      6.94056     13.90423       -54.247957    -60.983850    -87.311845
      2.01185      6.94057      7.73878         0.672817     -0.500254     -0.399943
      5.59015      4.06735      8.71227        -0.341058      0.212896      0.180434
     10.95761      2.83597     10.01026        -0.173129      0.019927     -0.649919
     -1.56646      1.60459     11.30825        -0.057408      0.015125      0.047221
      3.80100      0.37320     12.60624         0.384368     -0.847961     -1.046342
      2.90643      4.68303     14.22873       -25.832213    -45.741184    -95.010389
      2.56468      1.46392      6.48995        -0.672817      0.500254      0.399943
     -2.46104      1.80982      9.03677         0.160760     -0.382725      0.546722
      2.90642      0.57844     10.33476         0.052944      0.179468     -0.004882
     -7.82849      7.14579     11.63275         0.174432     -0.092304     -0.206113
     -2.46103      5.91441     12.93074         0.369816      0.308462      1.183892
      2.01185      6.94056     13.90422       -54.175394    -60.994263    -87.152988
      6.48473      1.80982      9.03677         0.168340     -0.147881      0.044416
      8.82671      0.02731      3.89397         0.082069     -0.052784      0.174084
      2.01185      2.83597     10.01026        -0.371123      0.129340     -0.792797
      7.37931      1.60459     11.30825        -0.072671     -0.045679      0.076303
     12.74677      0.37320     12.60624         0.403524     -0.866923     -1.082636
     -6.03934      4.68303     14.22873       -25.736362    -45.812723    -94.865924
     -4.59193      3.10576      6.81444        -1.003038      0.409807     -0.002429
     -8.72308      5.29873      7.41428         1.003038     -0.409807      0.002429
      7.93214      4.33714      5.51646        -0.967678     -0.947968     -1.023143
      1.11727      7.14579     11.63275        -0.104204     -0.032952     -0.166066
    -11.40680      5.91441     12.93074         0.413818      0.318078      1.232510
      1.11727      3.04119     13.90422       -54.221394    -60.984865    -87.196830
      8.27388      1.39936      7.41428         0.784729      0.583354     -0.180805
     13.64134      0.16798      8.71227        -0.068407      0.056141      0.133059
      2.90642      6.73534     10.01026         0.719841     -0.087309      1.526261
     -9.61765      5.50396     11.30825         0.085583     -0.194154      0.278799
     -4.25019      4.27257     12.60624         0.533162     -0.859341     -1.062705
     10.95763      0.78366     14.22873       -25.771998    -45.707346    -95.136840
      0.22269      5.29873      7.41428        -0.710610     -1.636518      0.159360
     -0.67189      1.39936      7.41428         0.186922      2.348151     -0.237347
     -5.14476      4.47780     10.33476        -0.358962     -0.038197     -0.019868
      0.22270      3.24642     11.63275         0.115740     -0.070981     -0.271785
      5.59017      2.01504     12.93074         0.327913      0.257765      1.222869
 -----------------------------------------------------------------------------------
    total drift:                               -0.015438      0.002083     -0.004977


--------------------------------------------------------------------------------------------------------



  FREE ENERGIE OF THE ION-ELECTRON SYSTEM (eV)
  ---------------------------------------------------
  free  energy   TOTEN  =      -622.98553768 eV

  energy  without entropy=     -622.98396664  energy(sigma->0) =     -622.98475216
 


--------------------------------------------------------------------------------------------------------


    POTLOK:  cpu time      2.1785: real time      2.1898


--------------------------------------------------------------------------------------------------------


     LOOP+:  cpu time   2293.4903: real time   2315.1171
    4ORBIT:  cpu time      0.0000: real time      0.0000

 total amount of memory used by VASP MPI-rank0   298651. kBytes
=======================================================================

   base      :      30000. kBytes
   nonlr-proj:      13095. kBytes
   fftplans  :      29330. kBytes
   grid      :      20782. kBytes
   one-center:         97. kBytes
   wavefun   :     205347. kBytes
 
  
  
 General timing and accounting informations for this job:
 ========================================================
  
                  Total CPU time used (sec):     2400.335
                            User time (sec):     2227.119
                          System time (sec):      173.216
                         Elapsed time (sec):     2425.337
  
                   Maximum memory used (kb):      614044.
                   Average memory used (kb):          N/A
  
                          Minor page faults:       502953
                          Major page faults:           80
                 Voluntary context switches:         2174
