 216 216   0   0
  0.1851908E+02  0.1629300E-08  0.1717433E-08  0.1429526E-08  0.5000000E-15
  1.000000000000000E-004
  CAR 
 Si and Ge interface calculation         
      8.84187985    -11.75514715  301      5.91572934      1.00000000
    -11.755  0.0000E+00  0.0000E+00  0.0000E+00  0.0000E+00
    -11.686  0.0000E+00  0.0000E+00  0.0000E+00  0.0000E+00
    -11.618  0.0000E+00  0.0000E+00  0.0000E+00  0.0000E+00
    -11.549  0.0000E+00  0.0000E+00  0.0000E+00  0.0000E+00
    -11.481  0.0000E+00  0.0000E+00  0.0000E+00  0.0000E+00
    -11.412  0.0000E+00  0.0000E+00  0.0000E+00  0.0000E+00
    -11.343  0.0000E+00  0.0000E+00  0.0000E+00  0.0000E+00
    -11.275  0.0000E+00  0.0000E+00  0.0000E+00  0.0000E+00
    -11.206  0.0000E+00  0.0000E+00  0.0000E+00  0.0000E+00
    -11.137  0.0000E+00  0.0000E+00  0.0000E+00  0.0000E+00
    -11.069  0.0000E+00  0.0000E+00  0.0000E+00  0.0000E+00
    -11.000  0.0000E+00  0.0000E+00  0.0000E+00  0.0000E+00
    -10.931  0.0000E+00  0.0000E+00  0.0000E+00  0.0000E+00
    -10.863  0.7979E-08  0.3585E-08  0.5478E-09  0.2461E-09
    -10.794  0.2912E+02  0.2912E+02  0.2000E+01  0.1999E+01
    -10.725  0.1370E-11  0.2638E-12  0.2000E+01  0.2000E+01
    -10.657  0.2878E+02  0.2853E+02  0.3976E+01  0.3959E+01
    -10.588  0.0000E+00  0.0000E+00  0.4000E+01  0.4000E+01
    -10.519  0.0000E+00  0.0000E+00  0.4000E+01  0.4000E+01
    -10.451  0.0000E+00  0.0000E+00  0.4000E+01  0.4000E+01
    -10.382  0.0000E+00  0.0000E+00  0.4000E+01  0.4000E+01
    -10.313  0.0000E+00  0.0000E+00  0.4000E+01  0.4000E+01
    -10.245  0.8911E-02  0.8897E-02  0.4001E+01  0.4001E+01
    -10.176  0.2909E+02  0.2909E+02  0.5998E+01  0.5998E+01
    -10.107  0.4121E+02  0.4102E+02  0.8830E+01  0.8817E+01
    -10.039  0.4618E+02  0.4637E+02  0.1200E+02  0.1200E+02
     -9.970  0.2872E-12  0.2959E-12  0.1200E+02  0.1200E+02
     -9.901  0.1838E+02  0.1839E+02  0.1326E+02  0.1326E+02
     -9.833  0.1051E+02  0.1051E+02  0.1400E+02  0.1400E+02
     -9.764  0.2663E+01  0.1799E+01  0.1418E+02  0.1412E+02
     -9.695  0.5493E+02  0.5566E+02  0.1795E+02  0.1794E+02
     -9.627  0.2904E+02  0.2968E+02  0.2000E+02  0.2000E+02
     -9.558  0.0000E+00  0.0000E+00  0.2000E+02  0.2000E+02
     -9.489  0.1577E-13  0.1819E-14  0.2000E+02  0.2000E+02
     -9.421  0.1998E+02  0.1803E+02  0.2137E+02  0.2124E+02
     -9.352  0.6534E+02  0.6802E+02  0.2590E+02  0.2591E+02
     -9.284  0.4411E+00  0.4140E+00  0.2600E+02  0.2600E+02
     -9.215  0.0000E+00  0.0000E+00  0.2600E+02  0.2600E+02
     -9.146  0.1316E+02  0.1457E+02  0.2690E+02  0.2700E+02
     -9.078  0.1597E+02  0.1456E+02  0.2800E+02  0.2800E+02
     -9.009  0.0000E+00  0.0000E+00  0.2800E+02  0.2800E+02
     -8.940  0.0000E+00  0.0000E+00  0.2800E+02  0.2800E+02
     -8.872  0.0000E+00  0.0000E+00  0.2800E+02  0.2800E+02
     -8.803  0.6561E-02  0.4458E-04  0.2800E+02  0.2800E+02
     -8.734  0.2913E+02  0.2914E+02  0.3000E+02  0.3000E+02
     -8.666  0.2913E+02  0.2912E+02  0.3200E+02  0.3200E+02
     -8.597  0.0000E+00  0.0000E+00  0.3200E+02  0.3200E+02
     -8.528  0.0000E+00  0.0000E+00  0.3200E+02  0.3200E+02
     -8.460  0.2476E+02  0.2480E+02  0.3370E+02  0.3370E+02
     -8.391  0.6754E+01  0.5612E+01  0.3416E+02  0.3409E+02
     -8.322  0.2674E+02  0.2785E+02  0.3600E+02  0.3600E+02
     -8.254  0.4413E+00  0.3469E+00  0.3603E+02  0.3602E+02
     -8.185  0.2869E+02  0.2878E+02  0.3800E+02  0.3800E+02
     -8.116  0.7819E-10  0.3208E-10  0.3800E+02  0.3800E+02
     -8.048  0.2903E+02  0.2898E+02  0.3999E+02  0.3999E+02
     -7.979  0.0000E+00  0.0000E+00  0.4000E+02  0.4000E+02
     -7.910  0.2933E+00  0.3003E+00  0.4002E+02  0.4002E+02
     -7.842  0.2884E+02  0.2883E+02  0.4200E+02  0.4200E+02
     -7.773  0.1956E-02  0.6446E-03  0.4200E+02  0.4200E+02
     -7.704  0.2905E+02  0.2901E+02  0.4399E+02  0.4399E+02
     -7.636  0.0000E+00  0.0000E+00  0.4400E+02  0.4400E+02
     -7.567  0.1719E-01  0.1518E-01  0.4400E+02  0.4400E+02
     -7.498  0.2912E+02  0.2912E+02  0.4600E+02  0.4600E+02
     -7.430  0.1640E+02  0.1587E+02  0.4713E+02  0.4709E+02
     -7.361  0.1403E+02  0.1448E+02  0.4809E+02  0.4808E+02
     -7.292  0.3842E+02  0.3771E+02  0.5073E+02  0.5067E+02
     -7.224  0.3423E+02  0.3465E+02  0.5308E+02  0.5305E+02
     -7.155  0.4633E+02  0.4641E+02  0.5628E+02  0.5624E+02
     -7.086  0.3480E+02  0.3534E+02  0.5867E+02  0.5867E+02
     -7.018  0.2912E+02  0.2877E+02  0.6067E+02  0.6064E+02
     -6.949  0.1932E+02  0.1973E+02  0.6200E+02  0.6200E+02
     -6.881  0.1456E+02  0.1456E+02  0.6300E+02  0.6300E+02
     -6.812  0.1267E+02  0.1279E+02  0.6387E+02  0.6388E+02
     -6.743  0.1676E+02  0.1681E+02  0.6503E+02  0.6505E+02
     -6.675  0.1767E+02  0.1748E+02  0.6625E+02  0.6625E+02
     -6.606  0.1467E+02  0.1465E+02  0.6726E+02  0.6726E+02
     -6.537  0.2881E+02  0.2871E+02  0.6924E+02  0.6923E+02
     -6.469  0.1476E+02  0.1477E+02  0.7025E+02  0.7024E+02
     -6.400  0.3604E+02  0.3567E+02  0.7274E+02  0.7269E+02
     -6.331  0.3641E+02  0.3665E+02  0.7524E+02  0.7521E+02
     -6.263  0.1456E+02  0.1488E+02  0.7625E+02  0.7625E+02
     -6.194  0.3745E+02  0.3538E+02  0.7882E+02  0.7868E+02
     -6.125  0.1805E+02  0.1994E+02  0.8006E+02  0.8005E+02
     -6.057  0.3221E+02  0.3100E+02  0.8227E+02  0.8218E+02
     -5.988  0.3983E+02  0.3983E+02  0.8501E+02  0.8491E+02
     -5.919  0.4514E+02  0.4521E+02  0.8811E+02  0.8803E+02
     -5.851  0.3073E+02  0.3100E+02  0.9023E+02  0.9016E+02
     -5.782  0.2958E+02  0.2949E+02  0.9226E+02  0.9219E+02
     -5.713  0.3289E+02  0.3321E+02  0.9452E+02  0.9447E+02
     -5.645  0.3341E+02  0.3303E+02  0.9681E+02  0.9674E+02
     -5.576  0.3690E+02  0.3677E+02  0.9935E+02  0.9926E+02
     -5.507  0.4926E+02  0.4921E+02  0.1027E+03  0.1026E+03
     -5.439  0.3150E+02  0.3113E+02  0.1049E+03  0.1048E+03
     -5.370  0.4707E+02  0.4738E+02  0.1081E+03  0.1080E+03
     -5.301  0.3191E+02  0.3260E+02  0.1103E+03  0.1103E+03
     -5.233  0.4727E+02  0.4741E+02  0.1136E+03  0.1135E+03
     -5.164  0.5366E+02  0.5206E+02  0.1173E+03  0.1171E+03
     -5.095  0.5472E+02  0.5506E+02  0.1210E+03  0.1209E+03
     -5.027  0.5784E+02  0.5764E+02  0.1250E+03  0.1249E+03
     -4.958  0.5414E+02  0.5518E+02  0.1287E+03  0.1286E+03
     -4.889  0.4624E+02  0.4469E+02  0.1319E+03  0.1317E+03
     -4.821  0.6476E+02  0.6675E+02  0.1364E+03  0.1363E+03
     -4.752  0.6429E+02  0.6237E+02  0.1408E+03  0.1406E+03
     -4.684  0.7634E+02  0.7745E+02  0.1460E+03  0.1459E+03
     -4.615  0.5695E+02  0.5771E+02  0.1500E+03  0.1499E+03
     -4.546  0.7464E+02  0.7381E+02  0.1551E+03  0.1550E+03
     -4.478  0.4966E+02  0.5013E+02  0.1585E+03  0.1584E+03
     -4.409  0.4656E+02  0.4631E+02  0.1617E+03  0.1616E+03
     -4.340  0.5181E+02  0.5112E+02  0.1653E+03  0.1651E+03
     -4.272  0.5258E+02  0.5182E+02  0.1689E+03  0.1687E+03
     -4.203  0.6123E+02  0.6168E+02  0.1731E+03  0.1729E+03
     -4.134  0.5041E+02  0.5188E+02  0.1766E+03  0.1765E+03
     -4.066  0.5379E+02  0.5356E+02  0.1803E+03  0.1802E+03
     -3.997  0.6618E+02  0.6554E+02  0.1848E+03  0.1847E+03
     -3.928  0.5816E+02  0.5758E+02  0.1888E+03  0.1887E+03
     -3.860  0.6332E+02  0.6252E+02  0.1932E+03  0.1930E+03
     -3.791  0.5585E+02  0.5761E+02  0.1971E+03  0.1969E+03
     -3.722  0.5451E+02  0.5281E+02  0.2008E+03  0.2006E+03
     -3.654  0.4174E+02  0.4344E+02  0.2037E+03  0.2035E+03
     -3.585  0.3162E+02  0.3305E+02  0.2059E+03  0.2058E+03
     -3.516  0.5195E+02  0.4986E+02  0.2094E+03  0.2093E+03
     -3.448  0.4080E+02  0.4259E+02  0.2122E+03  0.2122E+03
     -3.379  0.6650E+02  0.6344E+02  0.2168E+03  0.2165E+03
     -3.310  0.4459E+02  0.4352E+02  0.2199E+03  0.2195E+03
     -3.242  0.4932E+02  0.5331E+02  0.2233E+03  0.2232E+03
     -3.173  0.4975E+02  0.4886E+02  0.2267E+03  0.2266E+03
     -3.104  0.5212E+02  0.5142E+02  0.2303E+03  0.2301E+03
     -3.036  0.5440E+02  0.5551E+02  0.2341E+03  0.2339E+03
     -2.967  0.5377E+02  0.5412E+02  0.2378E+03  0.2377E+03
     -2.898  0.4658E+02  0.4698E+02  0.2410E+03  0.2409E+03
     -2.830  0.5711E+02  0.5618E+02  0.2449E+03  0.2448E+03
     -2.761  0.5144E+02  0.5100E+02  0.2484E+03  0.2483E+03
     -2.692  0.5140E+02  0.5173E+02  0.2520E+03  0.2518E+03
     -2.624  0.5335E+02  0.5390E+02  0.2557E+03  0.2555E+03
     -2.555  0.4725E+02  0.4681E+02  0.2589E+03  0.2588E+03
     -2.486  0.6444E+02  0.6443E+02  0.2633E+03  0.2632E+03
     -2.418  0.6989E+02  0.6969E+02  0.2681E+03  0.2680E+03
     -2.349  0.6334E+02  0.6231E+02  0.2725E+03  0.2723E+03
     -2.281  0.5168E+02  0.5142E+02  0.2761E+03  0.2758E+03
     -2.212  0.5983E+02  0.6062E+02  0.2802E+03  0.2800E+03
     -2.143  0.4461E+02  0.4438E+02  0.2833E+03  0.2831E+03
     -2.075  0.5436E+02  0.5660E+02  0.2870E+03  0.2870E+03
     -2.006  0.5605E+02  0.5421E+02  0.2908E+03  0.2907E+03
     -1.937  0.6962E+02  0.6988E+02  0.2956E+03  0.2955E+03
     -1.869  0.5410E+02  0.5388E+02  0.2994E+03  0.2992E+03
     -1.800  0.5000E+02  0.4943E+02  0.3028E+03  0.3026E+03
     -1.731  0.5377E+02  0.5381E+02  0.3065E+03  0.3063E+03
     -1.663  0.7136E+02  0.6963E+02  0.3114E+03  0.3111E+03
     -1.594  0.5539E+02  0.5731E+02  0.3152E+03  0.3151E+03
     -1.525  0.5848E+02  0.5813E+02  0.3193E+03  0.3191E+03
     -1.457  0.5816E+02  0.5842E+02  0.3233E+03  0.3231E+03
     -1.388  0.5611E+02  0.5398E+02  0.3272E+03  0.3268E+03
     -1.319  0.6079E+02  0.6058E+02  0.3313E+03  0.3310E+03
     -1.251  0.6624E+02  0.6814E+02  0.3359E+03  0.3357E+03
     -1.182  0.4296E+02  0.4179E+02  0.3389E+03  0.3386E+03
     -1.113  0.7257E+02  0.7173E+02  0.3438E+03  0.3435E+03
     -1.045  0.6425E+02  0.6666E+02  0.3483E+03  0.3481E+03
     -0.976  0.5951E+02  0.6041E+02  0.3524E+03  0.3522E+03
     -0.907  0.4970E+02  0.4865E+02  0.3558E+03  0.3556E+03
     -0.839  0.5766E+02  0.5853E+02  0.3598E+03  0.3596E+03
     -0.770  0.5949E+02  0.5630E+02  0.3639E+03  0.3635E+03
     -0.701  0.5218E+02  0.5482E+02  0.3674E+03  0.3672E+03
     -0.633  0.7132E+02  0.7134E+02  0.3723E+03  0.3721E+03
     -0.564  0.6595E+02  0.6528E+02  0.3769E+03  0.3766E+03
     -0.495  0.5742E+02  0.5874E+02  0.3808E+03  0.3807E+03
     -0.427  0.4802E+02  0.4511E+02  0.3841E+03  0.3838E+03
     -0.358  0.5963E+02  0.6190E+02  0.3882E+03  0.3880E+03
     -0.289  0.5712E+02  0.5592E+02  0.3922E+03  0.3919E+03
     -0.221  0.5716E+02  0.5677E+02  0.3961E+03  0.3958E+03
     -0.152  0.5493E+02  0.5571E+02  0.3999E+03  0.3996E+03
     -0.083  0.5208E+02  0.4969E+02  0.4035E+03  0.4030E+03
     -0.015  0.5890E+02  0.6117E+02  0.4076E+03  0.4072E+03
      0.054  0.6117E+02  0.6435E+02  0.4118E+03  0.4117E+03
      0.122  0.5471E+02  0.5207E+02  0.4155E+03  0.4153E+03
      0.191  0.6385E+02  0.6295E+02  0.4199E+03  0.4196E+03
      0.260  0.5794E+02  0.5740E+02  0.4239E+03  0.4235E+03
      0.328  0.6837E+02  0.6628E+02  0.4286E+03  0.4281E+03
      0.397  0.4826E+02  0.5094E+02  0.4319E+03  0.4316E+03
      0.466  0.5743E+02  0.5712E+02  0.4359E+03  0.4355E+03
      0.534  0.6136E+02  0.6107E+02  0.4401E+03  0.4397E+03
      0.603  0.5731E+02  0.5686E+02  0.4440E+03  0.4436E+03
      0.672  0.6509E+02  0.6705E+02  0.4485E+03  0.4482E+03
      0.740  0.6857E+02  0.6554E+02  0.4532E+03  0.4527E+03
      0.809  0.5406E+02  0.5721E+02  0.4570E+03  0.4567E+03
      0.878  0.6242E+02  0.6214E+02  0.4613E+03  0.4610E+03
      0.946  0.5984E+02  0.5749E+02  0.4654E+03  0.4649E+03
      1.015  0.6582E+02  0.6394E+02  0.4699E+03  0.4693E+03
      1.084  0.6940E+02  0.7247E+02  0.4747E+03  0.4743E+03
      1.152  0.6084E+02  0.5734E+02  0.4789E+03  0.4782E+03
      1.221  0.6295E+02  0.6549E+02  0.4832E+03  0.4827E+03
      1.290  0.6790E+02  0.6050E+02  0.4879E+03  0.4869E+03
      1.358  0.6366E+02  0.7078E+02  0.4923E+03  0.4918E+03
      1.427  0.6267E+02  0.6711E+02  0.4966E+03  0.4964E+03
      1.496  0.6546E+02  0.6075E+02  0.5011E+03  0.5006E+03
      1.564  0.6044E+02  0.6302E+02  0.5053E+03  0.5049E+03
      1.633  0.6835E+02  0.6830E+02  0.5100E+03  0.5096E+03
      1.702  0.6929E+02  0.6775E+02  0.5147E+03  0.5143E+03
      1.770  0.8610E+02  0.8639E+02  0.5207E+03  0.5202E+03
      1.839  0.7829E+02  0.8138E+02  0.5260E+03  0.5258E+03
      1.908  0.7463E+02  0.7076E+02  0.5312E+03  0.5307E+03
      1.976  0.8666E+02  0.8917E+02  0.5371E+03  0.5368E+03
      2.045  0.8753E+02  0.8830E+02  0.5432E+03  0.5429E+03
      2.114  0.7925E+02  0.7780E+02  0.5486E+03  0.5483E+03
      2.182  0.9415E+02  0.9331E+02  0.5551E+03  0.5547E+03
      2.251  0.9672E+02  0.9548E+02  0.5618E+03  0.5612E+03
      2.319  0.9250E+02  0.9183E+02  0.5681E+03  0.5676E+03
      2.388  0.9127E+02  0.9454E+02  0.5744E+03  0.5741E+03
      2.457  0.1022E+03  0.9936E+02  0.5814E+03  0.5809E+03
      2.525  0.9035E+02  0.9384E+02  0.5876E+03  0.5873E+03
      2.594  0.8431E+02  0.8457E+02  0.5934E+03  0.5932E+03
      2.663  0.9496E+02  0.9236E+02  0.6000E+03  0.5995E+03
      2.731  0.9792E+02  0.9921E+02  0.6067E+03  0.6063E+03
      2.800  0.9619E+02  0.9879E+02  0.6133E+03  0.6131E+03
      2.869  0.1008E+03  0.9791E+02  0.6203E+03  0.6199E+03
      2.937  0.1074E+03  0.1057E+03  0.6277E+03  0.6272E+03
      3.006  0.1015E+03  0.1018E+03  0.6347E+03  0.6342E+03
      3.075  0.9466E+02  0.9655E+02  0.6412E+03  0.6408E+03
      3.143  0.9792E+02  0.9820E+02  0.6479E+03  0.6476E+03
      3.212  0.7907E+02  0.8029E+02  0.6534E+03  0.6531E+03
      3.281  0.8850E+02  0.8618E+02  0.6594E+03  0.6590E+03
      3.349  0.9320E+02  0.9358E+02  0.6659E+03  0.6655E+03
      3.418  0.8860E+02  0.8730E+02  0.6720E+03  0.6715E+03
      3.487  0.9532E+02  0.9748E+02  0.6785E+03  0.6782E+03
      3.555  0.8571E+02  0.8426E+02  0.6844E+03  0.6840E+03
      3.624  0.9811E+02  0.9906E+02  0.6912E+03  0.6908E+03
      3.693  0.7540E+02  0.7401E+02  0.6964E+03  0.6959E+03
      3.761  0.1058E+03  0.1060E+03  0.7037E+03  0.7032E+03
      3.830  0.8515E+02  0.8439E+02  0.7095E+03  0.7090E+03
      3.899  0.7168E+02  0.7151E+02  0.7145E+03  0.7139E+03
      3.967  0.7868E+02  0.8089E+02  0.7199E+03  0.7195E+03
      4.036  0.8426E+02  0.8353E+02  0.7257E+03  0.7253E+03
      4.105  0.9745E+02  0.9491E+02  0.7324E+03  0.7318E+03
      4.173  0.8057E+02  0.8116E+02  0.7379E+03  0.7374E+03
      4.242  0.6942E+02  0.7261E+02  0.7427E+03  0.7424E+03
      4.311  0.6705E+02  0.6411E+02  0.7473E+03  0.7468E+03
      4.379  0.7815E+02  0.7574E+02  0.7527E+03  0.7520E+03
      4.448  0.7428E+02  0.7850E+02  0.7578E+03  0.7574E+03
      4.517  0.8852E+02  0.8390E+02  0.7639E+03  0.7632E+03
      4.585  0.8278E+02  0.7837E+02  0.7696E+03  0.7686E+03
      4.654  0.5648E+02  0.6516E+02  0.7735E+03  0.7731E+03
      4.722  0.7027E+02  0.6795E+02  0.7783E+03  0.7777E+03
      4.791  0.6544E+02  0.6782E+02  0.7828E+03  0.7824E+03
      4.860  0.8230E+02  0.8196E+02  0.7885E+03  0.7881E+03
      4.928  0.8117E+02  0.8092E+02  0.7941E+03  0.7936E+03
      4.997  0.6053E+02  0.6150E+02  0.7983E+03  0.7979E+03
      5.066  0.7322E+02  0.7392E+02  0.8033E+03  0.8030E+03
      5.134  0.8003E+02  0.6950E+02  0.8088E+03  0.8077E+03
      5.203  0.7538E+02  0.7460E+02  0.8140E+03  0.8129E+03
      5.272  0.6433E+02  0.7130E+02  0.8184E+03  0.8178E+03
      5.340  0.6284E+02  0.5694E+02  0.8228E+03  0.8217E+03
      5.409  0.6986E+02  0.7043E+02  0.8276E+03  0.8265E+03
      5.478  0.6128E+02  0.6385E+02  0.8318E+03  0.8309E+03
      5.546  0.7865E+02  0.6555E+02  0.8372E+03  0.8354E+03
      5.615  0.7458E+02  0.8016E+02  0.8423E+03  0.8410E+03
      5.684  0.8624E+02  0.8034E+02  0.8483E+03  0.8465E+03
      5.752  0.7330E+02  0.6648E+02  0.8533E+03  0.8511E+03
      5.821  0.7194E+02  0.7031E+02  0.8583E+03  0.8559E+03
      5.890  0.6859E+02  0.7519E+02  0.8630E+03  0.8611E+03
      5.958  0.8207E+02  0.8405E+02  0.8686E+03  0.8669E+03
      6.027  0.7629E+02  0.7092E+02  0.8739E+03  0.8718E+03
      6.096  0.8078E+02  0.8812E+02  0.8794E+03  0.8778E+03
      6.164  0.7686E+02  0.7662E+02  0.8847E+03  0.8831E+03
      6.233  0.8196E+02  0.8824E+02  0.8904E+03  0.8891E+03
      6.302  0.7518E+02  0.7772E+02  0.8955E+03  0.8945E+03
      6.370  0.8073E+02  0.7410E+02  0.9011E+03  0.8996E+03
      6.439  0.8738E+02  0.9009E+02  0.9071E+03  0.9058E+03
      6.508  0.9508E+02  0.9715E+02  0.9136E+03  0.9125E+03
      6.576  0.8306E+02  0.8188E+02  0.9194E+03  0.9181E+03
      6.645  0.8356E+02  0.8893E+02  0.9251E+03  0.9242E+03
      6.714  0.9940E+02  0.9637E+02  0.9319E+03  0.9309E+03
      6.782  0.6791E+02  0.7293E+02  0.9366E+03  0.9359E+03
      6.851  0.8198E+02  0.8408E+02  0.9422E+03  0.9417E+03
      6.919  0.9847E+02  0.9559E+02  0.9490E+03  0.9482E+03
      6.988  0.9720E+02  0.1006E+03  0.9557E+03  0.9552E+03
      7.057  0.8617E+02  0.8417E+02  0.9616E+03  0.9609E+03
      7.125  0.8270E+02  0.8585E+02  0.9673E+03  0.9669E+03
      7.194  0.8352E+02  0.8376E+02  0.9731E+03  0.9726E+03
      7.263  0.1084E+03  0.1042E+03  0.9805E+03  0.9798E+03
      7.331  0.9994E+02  0.1036E+03  0.9874E+03  0.9869E+03
      7.400  0.1029E+03  0.1017E+03  0.9945E+03  0.9939E+03
      7.469  0.9587E+02  0.9488E+02  0.1001E+04  0.1000E+04
      7.537  0.8322E+02  0.8175E+02  0.1007E+04  0.1006E+04
      7.606  0.1136E+03  0.1154E+03  0.1015E+04  0.1014E+04
      7.675  0.1005E+03  0.1035E+03  0.1022E+04  0.1021E+04
      7.743  0.8483E+02  0.8303E+02  0.1027E+04  0.1027E+04
      7.812  0.1028E+03  0.1026E+03  0.1034E+04  0.1034E+04
      7.881  0.6664E+02  0.7107E+02  0.1039E+04  0.1039E+04
      7.949  0.1328E+02  0.1741E+02  0.1040E+04  0.1040E+04
      8.018  0.0000E+00  0.0000E+00  0.1040E+04  0.1040E+04
      8.087  0.0000E+00  0.0000E+00  0.1040E+04  0.1040E+04
      8.155  0.0000E+00  0.0000E+00  0.1040E+04  0.1040E+04
      8.224  0.0000E+00  0.0000E+00  0.1040E+04  0.1040E+04
      8.293  0.0000E+00  0.0000E+00  0.1040E+04  0.1040E+04
      8.361  0.0000E+00  0.0000E+00  0.1040E+04  0.1040E+04
      8.430  0.0000E+00  0.0000E+00  0.1040E+04  0.1040E+04
      8.499  0.0000E+00  0.0000E+00  0.1040E+04  0.1040E+04
      8.567  0.0000E+00  0.0000E+00  0.1040E+04  0.1040E+04
      8.636  0.0000E+00  0.0000E+00  0.1040E+04  0.1040E+04
      8.705  0.0000E+00  0.0000E+00  0.1040E+04  0.1040E+04
      8.773  0.0000E+00  0.0000E+00  0.1040E+04  0.1040E+04
      8.842  0.0000E+00  0.0000E+00  0.1040E+04  0.1040E+04
