  96  96   0   0
  0.1886566E+02  0.1265123E-08  0.1265123E-08  0.1154894E-08  0.5000000E-15
  1.000000000000000E-004
  CAR 
 Si and Ge interface calculation         
      8.44533130    -10.94838990  301      5.41326027      1.00000000
    -10.948  0.0000E+00  0.0000E+00  0.0000E+00  0.0000E+00
    -10.884  0.0000E+00  0.0000E+00  0.0000E+00  0.0000E+00
    -10.819  0.0000E+00  0.0000E+00  0.0000E+00  0.0000E+00
    -10.754  0.0000E+00  0.0000E+00  0.0000E+00  0.0000E+00
    -10.690  0.0000E+00  0.0000E+00  0.0000E+00  0.0000E+00
    -10.625  0.0000E+00  0.0000E+00  0.0000E+00  0.0000E+00
    -10.561  0.0000E+00  0.0000E+00  0.0000E+00  0.0000E+00
    -10.496  0.0000E+00  0.0000E+00  0.0000E+00  0.0000E+00
    -10.431  0.0000E+00  0.0000E+00  0.0000E+00  0.0000E+00
    -10.367  0.0000E+00  0.0000E+00  0.0000E+00  0.0000E+00
    -10.302  0.0000E+00  0.0000E+00  0.0000E+00  0.0000E+00
    -10.237  0.0000E+00  0.0000E+00  0.0000E+00  0.0000E+00
    -10.173  0.0000E+00  0.0000E+00  0.0000E+00  0.0000E+00
    -10.108  0.3416E-08  0.4716E-12  0.2208E-09  0.3049E-13
    -10.043  0.1145E+01  0.1119E+01  0.7405E-01  0.7233E-01
     -9.979  0.6100E+01  0.3934E+01  0.4684E+00  0.3266E+00
     -9.914  0.1253E+02  0.1408E+02  0.1279E+01  0.1237E+01
     -9.849  0.8879E+01  0.9171E+01  0.1853E+01  0.1830E+01
     -9.785  0.2150E+02  0.2003E+02  0.3245E+01  0.3125E+01
     -9.720  0.1671E+02  0.1757E+02  0.4325E+01  0.4261E+01
     -9.655  0.1807E+02  0.1865E+02  0.5493E+01  0.5467E+01
     -9.591  0.1696E+02  0.1014E+02  0.6590E+01  0.6122E+01
     -9.526  0.2351E+02  0.2849E+02  0.8110E+01  0.7964E+01
     -9.462  0.6438E+01  0.7454E+01  0.8526E+01  0.8447E+01
     -9.397  0.1713E+02  0.1616E+02  0.9634E+01  0.9493E+01
     -9.332  0.2578E+02  0.2236E+02  0.1130E+02  0.1094E+02
     -9.268  0.1858E+02  0.2227E+02  0.1250E+02  0.1238E+02
     -9.203  0.2699E+02  0.2475E+02  0.1425E+02  0.1398E+02
     -9.138  0.3154E+02  0.2928E+02  0.1629E+02  0.1588E+02
     -9.074  0.1960E+02  0.2451E+02  0.1755E+02  0.1746E+02
     -9.009  0.1541E+02  0.1462E+02  0.1855E+02  0.1841E+02
     -8.944  0.4661E+02  0.4074E+02  0.2156E+02  0.2104E+02
     -8.880  0.2359E+02  0.3040E+02  0.2309E+02  0.2301E+02
     -8.815  0.2172E+02  0.1595E+02  0.2449E+02  0.2404E+02
     -8.750  0.2398E+02  0.2341E+02  0.2605E+02  0.2556E+02
     -8.686  0.6187E+01  0.1375E+02  0.2644E+02  0.2644E+02
     -8.621  0.3313E+02  0.3018E+02  0.2859E+02  0.2840E+02
     -8.556  0.3116E+02  0.3349E+02  0.3060E+02  0.3056E+02
     -8.492  0.2130E+02  0.2085E+02  0.3198E+02  0.3191E+02
     -8.427  0.2009E+02  0.1919E+02  0.3328E+02  0.3316E+02
     -8.363  0.3601E+02  0.2556E+02  0.3561E+02  0.3481E+02
     -8.298  0.3805E+02  0.4572E+02  0.3807E+02  0.3776E+02
     -8.233  0.6829E+01  0.1048E+02  0.3851E+02  0.3844E+02
     -8.169  0.1576E+02  0.1316E+02  0.3953E+02  0.3929E+02
     -8.104  0.2259E+02  0.2518E+02  0.4099E+02  0.4092E+02
     -8.039  0.2604E+02  0.2631E+02  0.4267E+02  0.4262E+02
     -7.975  0.2051E+02  0.2096E+02  0.4400E+02  0.4398E+02
     -7.910  0.2305E+02  0.2126E+02  0.4549E+02  0.4535E+02
     -7.845  0.1819E+02  0.2028E+02  0.4667E+02  0.4666E+02
     -7.781  0.1104E+02  0.5382E+01  0.4738E+02  0.4701E+02
     -7.716  0.9584E+01  0.1524E+02  0.4800E+02  0.4800E+02
     -7.651  0.0000E+00  0.0000E+00  0.4800E+02  0.4800E+02
     -7.587  0.0000E+00  0.0000E+00  0.4800E+02  0.4800E+02
     -7.522  0.0000E+00  0.0000E+00  0.4800E+02  0.4800E+02
     -7.458  0.0000E+00  0.0000E+00  0.4800E+02  0.4800E+02
     -7.393  0.0000E+00  0.0000E+00  0.4800E+02  0.4800E+02
     -7.328  0.0000E+00  0.0000E+00  0.4800E+02  0.4800E+02
     -7.264  0.0000E+00  0.0000E+00  0.4800E+02  0.4800E+02
     -7.199  0.0000E+00  0.0000E+00  0.4800E+02  0.4800E+02
     -7.134  0.0000E+00  0.0000E+00  0.4800E+02  0.4800E+02
     -7.070  0.0000E+00  0.0000E+00  0.4800E+02  0.4800E+02
     -7.005  0.0000E+00  0.0000E+00  0.4800E+02  0.4800E+02
     -6.940  0.0000E+00  0.0000E+00  0.4800E+02  0.4800E+02
     -6.876  0.0000E+00  0.0000E+00  0.4800E+02  0.4800E+02
     -6.811  0.0000E+00  0.0000E+00  0.4800E+02  0.4800E+02
     -6.746  0.1310E-06  0.4342E-10  0.4800E+02  0.4800E+02
     -6.682  0.3559E+01  0.2805E+01  0.4823E+02  0.4818E+02
     -6.617  0.6752E+01  0.7390E+01  0.4867E+02  0.4866E+02
     -6.552  0.5095E-09  0.1042E+00  0.4867E+02  0.4867E+02
     -6.488  0.5560E+01  0.4418E+01  0.4903E+02  0.4895E+02
     -6.423  0.6903E+01  0.6214E+01  0.4947E+02  0.4935E+02
     -6.359  0.1479E+02  0.1514E+02  0.5043E+02  0.5033E+02
     -6.294  0.9924E+00  0.1817E+01  0.5049E+02  0.5045E+02
     -6.229  0.1873E+02  0.1553E+02  0.5170E+02  0.5145E+02
     -6.165  0.1138E+01  0.4981E+01  0.5178E+02  0.5178E+02
     -6.100  0.3147E-08  0.3762E-12  0.5178E+02  0.5178E+02
     -6.035  0.7842E+01  0.5099E+01  0.5228E+02  0.5211E+02
     -5.971  0.1728E+02  0.1901E+02  0.5340E+02  0.5334E+02
     -5.906  0.8042E+01  0.6974E+01  0.5392E+02  0.5379E+02
     -5.841  0.1926E+02  0.1612E+02  0.5517E+02  0.5483E+02
     -5.777  0.3444E+02  0.3490E+02  0.5740E+02  0.5709E+02
     -5.712  0.2949E+02  0.3055E+02  0.5931E+02  0.5906E+02
     -5.647  0.2095E+02  0.2221E+02  0.6067E+02  0.6050E+02
     -5.583  0.1830E+02  0.2007E+02  0.6185E+02  0.6179E+02
     -5.518  0.2019E+02  0.1751E+02  0.6316E+02  0.6293E+02
     -5.454  0.2830E+02  0.2867E+02  0.6499E+02  0.6478E+02
     -5.389  0.3040E+02  0.3183E+02  0.6696E+02  0.6684E+02
     -5.324  0.2128E+02  0.1870E+02  0.6834E+02  0.6805E+02
     -5.260  0.2239E+02  0.2479E+02  0.6978E+02  0.6966E+02
     -5.195  0.2817E+02  0.2480E+02  0.7161E+02  0.7126E+02
     -5.130  0.2728E+02  0.2538E+02  0.7337E+02  0.7290E+02
     -5.066  0.2408E+02  0.2684E+02  0.7493E+02  0.7464E+02
     -5.001  0.2659E+02  0.2875E+02  0.7665E+02  0.7649E+02
     -4.936  0.2664E+02  0.2370E+02  0.7837E+02  0.7803E+02
     -4.872  0.2502E+02  0.2348E+02  0.7999E+02  0.7955E+02
     -4.807  0.2340E+02  0.2516E+02  0.8150E+02  0.8117E+02
     -4.742  0.2236E+02  0.2612E+02  0.8295E+02  0.8286E+02
     -4.678  0.1405E+02  0.1361E+02  0.8385E+02  0.8374E+02
     -4.613  0.3272E+02  0.2596E+02  0.8597E+02  0.8542E+02
     -4.548  0.2257E+02  0.3051E+02  0.8743E+02  0.8740E+02
     -4.484  0.2458E+02  0.2237E+02  0.8902E+02  0.8884E+02
     -4.419  0.3096E+02  0.2884E+02  0.9102E+02  0.9071E+02
     -4.355  0.2154E+02  0.2078E+02  0.9242E+02  0.9205E+02
     -4.290  0.2099E+02  0.2548E+02  0.9378E+02  0.9370E+02
     -4.225  0.8158E+01  0.9171E+01  0.9430E+02  0.9430E+02
     -4.161  0.2044E+02  0.1978E+02  0.9563E+02  0.9558E+02
     -4.096  0.1824E+02  0.1724E+02  0.9681E+02  0.9669E+02
     -4.031  0.1554E+02  0.1510E+02  0.9781E+02  0.9767E+02
     -3.967  0.1671E+02  0.1648E+02  0.9889E+02  0.9873E+02
     -3.902  0.1841E+02  0.1810E+02  0.1001E+03  0.9990E+02
     -3.837  0.2263E+02  0.2250E+02  0.1015E+03  0.1014E+03
     -3.773  0.2049E+02  0.2255E+02  0.1029E+03  0.1028E+03
     -3.708  0.1449E+02  0.1359E+02  0.1038E+03  0.1037E+03
     -3.643  0.2046E+02  0.1657E+02  0.1051E+03  0.1048E+03
     -3.579  0.1340E+02  0.1844E+02  0.1060E+03  0.1060E+03
     -3.514  0.1146E+02  0.1207E+02  0.1067E+03  0.1067E+03
     -3.449  0.4472E+01  0.2772E+01  0.1070E+03  0.1069E+03
     -3.385  0.2343E+02  0.2283E+02  0.1085E+03  0.1084E+03
     -3.320  0.1572E+02  0.1783E+02  0.1096E+03  0.1095E+03
     -3.256  0.3141E+02  0.2644E+02  0.1116E+03  0.1113E+03
     -3.191  0.3419E+02  0.3558E+02  0.1138E+03  0.1136E+03
     -3.126  0.2080E+02  0.2192E+02  0.1151E+03  0.1150E+03
     -3.062  0.2806E+02  0.2457E+02  0.1170E+03  0.1166E+03
     -2.997  0.2167E+02  0.2573E+02  0.1184E+03  0.1182E+03
     -2.932  0.7420E+01  0.8199E+01  0.1188E+03  0.1188E+03
     -2.868  0.3437E+02  0.3440E+02  0.1211E+03  0.1210E+03
     -2.803  0.2663E+02  0.2475E+02  0.1228E+03  0.1226E+03
     -2.738  0.3398E+02  0.3467E+02  0.1250E+03  0.1248E+03
     -2.674  0.3543E+02  0.3564E+02  0.1273E+03  0.1271E+03
     -2.609  0.2833E+02  0.2529E+02  0.1291E+03  0.1288E+03
     -2.544  0.3410E+02  0.3428E+02  0.1313E+03  0.1310E+03
     -2.480  0.2974E+02  0.3280E+02  0.1332E+03  0.1331E+03
     -2.415  0.2702E+02  0.2412E+02  0.1350E+03  0.1347E+03
     -2.351  0.1929E+02  0.2352E+02  0.1362E+03  0.1362E+03
     -2.286  0.2158E+02  0.1945E+02  0.1376E+03  0.1375E+03
     -2.221  0.2155E+02  0.2202E+02  0.1390E+03  0.1389E+03
     -2.157  0.4474E+02  0.3803E+02  0.1419E+03  0.1413E+03
     -2.092  0.2907E+02  0.3382E+02  0.1438E+03  0.1435E+03
     -2.027  0.3081E+02  0.3087E+02  0.1458E+03  0.1455E+03
     -1.963  0.3522E+02  0.3490E+02  0.1481E+03  0.1478E+03
     -1.898  0.2251E+02  0.2408E+02  0.1495E+03  0.1493E+03
     -1.833  0.1984E+02  0.1690E+02  0.1508E+03  0.1504E+03
     -1.769  0.2901E+02  0.2786E+02  0.1527E+03  0.1522E+03
     -1.704  0.1876E+02  0.2396E+02  0.1539E+03  0.1538E+03
     -1.639  0.2602E+02  0.2463E+02  0.1556E+03  0.1554E+03
     -1.575  0.1145E+02  0.1314E+02  0.1563E+03  0.1562E+03
     -1.510  0.3345E+02  0.2944E+02  0.1585E+03  0.1581E+03
     -1.445  0.2918E+02  0.3453E+02  0.1604E+03  0.1604E+03
     -1.381  0.1766E+02  0.1543E+02  0.1615E+03  0.1614E+03
     -1.316  0.1844E+02  0.1800E+02  0.1627E+03  0.1625E+03
     -1.252  0.2053E+02  0.2116E+02  0.1640E+03  0.1639E+03
     -1.187  0.1515E+02  0.1629E+02  0.1650E+03  0.1650E+03
     -1.122  0.1302E+02  0.1383E+02  0.1659E+03  0.1658E+03
     -1.058  0.2271E+02  0.2189E+02  0.1673E+03  0.1673E+03
     -0.993  0.2304E+02  0.2353E+02  0.1688E+03  0.1688E+03
     -0.928  0.2124E+02  0.1985E+02  0.1702E+03  0.1701E+03
     -0.864  0.1833E+02  0.1853E+02  0.1714E+03  0.1713E+03
     -0.799  0.2231E+02  0.2204E+02  0.1728E+03  0.1727E+03
     -0.734  0.1006E+02  0.6107E+01  0.1735E+03  0.1731E+03
     -0.670  0.2248E+02  0.2686E+02  0.1749E+03  0.1748E+03
     -0.605  0.3030E+02  0.2764E+02  0.1769E+03  0.1766E+03
     -0.540  0.3477E+02  0.3645E+02  0.1791E+03  0.1790E+03
     -0.476  0.2528E+02  0.2056E+02  0.1808E+03  0.1803E+03
     -0.411  0.2563E+02  0.3087E+02  0.1824E+03  0.1823E+03
     -0.346  0.2920E+02  0.2723E+02  0.1843E+03  0.1841E+03
     -0.282  0.3387E+02  0.3382E+02  0.1865E+03  0.1863E+03
     -0.217  0.1764E+02  0.1566E+02  0.1876E+03  0.1873E+03
     -0.153  0.3454E+02  0.3447E+02  0.1899E+03  0.1895E+03
     -0.088  0.3893E+02  0.3778E+02  0.1924E+03  0.1919E+03
     -0.023  0.3026E+02  0.3516E+02  0.1944E+03  0.1942E+03
      0.041  0.2874E+02  0.2700E+02  0.1962E+03  0.1960E+03
      0.106  0.2247E+02  0.2014E+02  0.1977E+03  0.1973E+03
      0.171  0.4397E+02  0.3983E+02  0.2005E+03  0.1998E+03
      0.235  0.5430E+02  0.6117E+02  0.2040E+03  0.2038E+03
      0.300  0.4730E+02  0.4660E+02  0.2071E+03  0.2068E+03
      0.365  0.2847E+02  0.2591E+02  0.2089E+03  0.2085E+03
      0.429  0.5290E+02  0.5382E+02  0.2124E+03  0.2120E+03
      0.494  0.3666E+02  0.3894E+02  0.2147E+03  0.2145E+03
      0.559  0.5142E+02  0.4029E+02  0.2180E+03  0.2171E+03
      0.623  0.3498E+02  0.4430E+02  0.2203E+03  0.2200E+03
      0.688  0.5864E+02  0.5178E+02  0.2241E+03  0.2233E+03
      0.752  0.1532E+02  0.2582E+02  0.2251E+03  0.2250E+03
      0.817  0.3077E+02  0.2505E+02  0.2271E+03  0.2266E+03
      0.882  0.4066E+02  0.4257E+02  0.2297E+03  0.2294E+03
      0.946  0.4164E+02  0.4163E+02  0.2324E+03  0.2320E+03
      1.011  0.4343E+02  0.3488E+02  0.2352E+03  0.2343E+03
      1.076  0.4102E+02  0.4635E+02  0.2379E+03  0.2373E+03
      1.140  0.4378E+02  0.4669E+02  0.2407E+03  0.2403E+03
      1.205  0.3324E+02  0.3366E+02  0.2429E+03  0.2425E+03
      1.270  0.3589E+02  0.3459E+02  0.2452E+03  0.2447E+03
      1.334  0.2445E+02  0.2893E+02  0.2468E+03  0.2466E+03
      1.399  0.3831E+02  0.3247E+02  0.2492E+03  0.2487E+03
      1.464  0.3471E+02  0.4115E+02  0.2515E+03  0.2514E+03
      1.528  0.4326E+02  0.4043E+02  0.2543E+03  0.2540E+03
      1.593  0.3160E+02  0.2962E+02  0.2563E+03  0.2559E+03
      1.658  0.4556E+02  0.4860E+02  0.2593E+03  0.2590E+03
      1.722  0.4182E+02  0.4006E+02  0.2620E+03  0.2616E+03
      1.787  0.4548E+02  0.4426E+02  0.2649E+03  0.2645E+03
      1.851  0.2559E+02  0.2393E+02  0.2666E+03  0.2661E+03
      1.916  0.5310E+02  0.5617E+02  0.2700E+03  0.2697E+03
      1.981  0.4172E+02  0.4033E+02  0.2727E+03  0.2723E+03
      2.045  0.5223E+02  0.5133E+02  0.2761E+03  0.2756E+03
      2.110  0.3875E+02  0.4162E+02  0.2786E+03  0.2783E+03
      2.175  0.3382E+02  0.3073E+02  0.2808E+03  0.2803E+03
      2.239  0.3833E+02  0.4017E+02  0.2832E+03  0.2829E+03
      2.304  0.5346E+02  0.5509E+02  0.2867E+03  0.2865E+03
      2.369  0.4192E+02  0.3473E+02  0.2894E+03  0.2887E+03
      2.433  0.5203E+02  0.6158E+02  0.2928E+03  0.2927E+03
      2.498  0.3194E+02  0.2929E+02  0.2948E+03  0.2946E+03
      2.563  0.2301E+02  0.2404E+02  0.2963E+03  0.2961E+03
      2.627  0.2144E+02  0.2423E+02  0.2977E+03  0.2977E+03
      2.692  0.3431E+02  0.2864E+02  0.2999E+03  0.2996E+03
      2.757  0.2878E+02  0.3101E+02  0.3018E+03  0.3016E+03
      2.821  0.2887E+02  0.3087E+02  0.3037E+03  0.3036E+03
      2.886  0.4724E+02  0.4279E+02  0.3067E+03  0.3063E+03
      2.950  0.3590E+02  0.3439E+02  0.3090E+03  0.3086E+03
      3.015  0.3735E+02  0.3880E+02  0.3115E+03  0.3111E+03
      3.080  0.1819E+02  0.2300E+02  0.3126E+03  0.3125E+03
      3.144  0.3860E+02  0.3546E+02  0.3151E+03  0.3148E+03
      3.209  0.1839E+02  0.1502E+02  0.3163E+03  0.3158E+03
      3.274  0.2889E+02  0.2901E+02  0.3182E+03  0.3177E+03
      3.338  0.4882E+02  0.5178E+02  0.3213E+03  0.3210E+03
      3.403  0.4215E+02  0.3539E+02  0.3241E+03  0.3233E+03
      3.468  0.4168E+02  0.4456E+02  0.3268E+03  0.3262E+03
      3.532  0.3658E+02  0.4103E+02  0.3291E+03  0.3289E+03
      3.597  0.2665E+02  0.2821E+02  0.3309E+03  0.3307E+03
      3.662  0.3555E+02  0.2679E+02  0.3332E+03  0.3324E+03
      3.726  0.2366E+02  0.3305E+02  0.3347E+03  0.3346E+03
      3.791  0.2198E+02  0.1568E+02  0.3361E+03  0.3356E+03
      3.855  0.2383E+02  0.3006E+02  0.3376E+03  0.3375E+03
      3.920  0.2482E+02  0.2116E+02  0.3393E+03  0.3389E+03
      3.985  0.8890E+01  0.1125E+02  0.3398E+03  0.3396E+03
      4.049  0.2427E+02  0.1923E+02  0.3414E+03  0.3409E+03
      4.114  0.3707E+02  0.4075E+02  0.3438E+03  0.3435E+03
      4.179  0.2981E+02  0.2902E+02  0.3457E+03  0.3454E+03
      4.243  0.3161E+02  0.3068E+02  0.3478E+03  0.3473E+03
      4.308  0.2989E+02  0.3235E+02  0.3497E+03  0.3494E+03
      4.373  0.4309E+02  0.3596E+02  0.3525E+03  0.3518E+03
      4.437  0.1987E+02  0.3096E+02  0.3538E+03  0.3538E+03
      4.502  0.2435E+02  0.1684E+02  0.3554E+03  0.3549E+03
      4.567  0.2687E+02  0.2755E+02  0.3571E+03  0.3566E+03
      4.631  0.5036E+02  0.4889E+02  0.3603E+03  0.3598E+03
      4.696  0.2251E+02  0.3046E+02  0.3618E+03  0.3618E+03
      4.761  0.4345E+02  0.3796E+02  0.3646E+03  0.3642E+03
      4.825  0.3216E+02  0.2760E+02  0.3667E+03  0.3660E+03
      4.890  0.2427E+02  0.2939E+02  0.3683E+03  0.3679E+03
      4.954  0.4462E+02  0.4531E+02  0.3712E+03  0.3708E+03
      5.019  0.2614E+02  0.2389E+02  0.3728E+03  0.3724E+03
      5.084  0.2351E+02  0.2940E+02  0.3744E+03  0.3743E+03
      5.148  0.3414E+02  0.2885E+02  0.3766E+03  0.3762E+03
      5.213  0.2525E+02  0.2525E+02  0.3782E+03  0.3778E+03
      5.278  0.1175E+02  0.1566E+02  0.3790E+03  0.3788E+03
      5.342  0.2949E+02  0.2147E+02  0.3809E+03  0.3802E+03
      5.407  0.3636E+02  0.3921E+02  0.3832E+03  0.3827E+03
      5.472  0.2888E+02  0.3280E+02  0.3851E+03  0.3849E+03
      5.536  0.3186E+02  0.2672E+02  0.3871E+03  0.3866E+03
      5.601  0.2989E+02  0.3285E+02  0.3891E+03  0.3887E+03
      5.666  0.4531E+02  0.3558E+02  0.3920E+03  0.3910E+03
      5.730  0.4605E+02  0.5457E+02  0.3950E+03  0.3945E+03
      5.795  0.3843E+02  0.4011E+02  0.3975E+03  0.3971E+03
      5.860  0.3117E+02  0.3042E+02  0.3995E+03  0.3991E+03
      5.924  0.1912E+02  0.2077E+02  0.4007E+03  0.4004E+03
      5.989  0.3889E+02  0.3968E+02  0.4032E+03  0.4030E+03
      6.053  0.5001E+02  0.4403E+02  0.4065E+03  0.4059E+03
      6.118  0.3303E+02  0.3451E+02  0.4086E+03  0.4081E+03
      6.183  0.3867E+02  0.4253E+02  0.4111E+03  0.4108E+03
      6.247  0.4497E+02  0.3959E+02  0.4140E+03  0.4134E+03
      6.312  0.4459E+02  0.4647E+02  0.4169E+03  0.4164E+03
      6.377  0.3800E+02  0.3722E+02  0.4194E+03  0.4188E+03
      6.441  0.3137E+02  0.3689E+02  0.4214E+03  0.4212E+03
      6.506  0.3296E+02  0.2573E+02  0.4235E+03  0.4229E+03
      6.571  0.4322E+02  0.4599E+02  0.4263E+03  0.4258E+03
      6.635  0.5539E+02  0.5766E+02  0.4299E+03  0.4296E+03
      6.700  0.3260E+02  0.2811E+02  0.4320E+03  0.4314E+03
      6.765  0.2313E+02  0.2503E+02  0.4335E+03  0.4330E+03
      6.829  0.4358E+02  0.4470E+02  0.4363E+03  0.4359E+03
      6.894  0.4987E+02  0.4328E+02  0.4396E+03  0.4387E+03
      6.958  0.4604E+02  0.5597E+02  0.4425E+03  0.4423E+03
      7.023  0.4077E+02  0.3839E+02  0.4452E+03  0.4448E+03
      7.088  0.4250E+02  0.4329E+02  0.4479E+03  0.4476E+03
      7.152  0.3148E+02  0.2698E+02  0.4500E+03  0.4493E+03
      7.217  0.4470E+02  0.5039E+02  0.4528E+03  0.4526E+03
      7.282  0.4754E+02  0.4371E+02  0.4559E+03  0.4554E+03
      7.346  0.2533E+02  0.2759E+02  0.4576E+03  0.4572E+03
      7.411  0.5595E+02  0.4985E+02  0.4612E+03  0.4604E+03
      7.476  0.3462E+02  0.3299E+02  0.4634E+03  0.4626E+03
      7.540  0.6023E+01  0.1740E+02  0.4638E+03  0.4637E+03
      7.605  0.3001E+01  0.4581E+01  0.4640E+03  0.4640E+03
      7.670  0.0000E+00  0.0000E+00  0.4640E+03  0.4640E+03
      7.734  0.0000E+00  0.0000E+00  0.4640E+03  0.4640E+03
      7.799  0.0000E+00  0.0000E+00  0.4640E+03  0.4640E+03
      7.864  0.0000E+00  0.0000E+00  0.4640E+03  0.4640E+03
      7.928  0.0000E+00  0.0000E+00  0.4640E+03  0.4640E+03
      7.993  0.0000E+00  0.0000E+00  0.4640E+03  0.4640E+03
      8.057  0.0000E+00  0.0000E+00  0.4640E+03  0.4640E+03
      8.122  0.0000E+00  0.0000E+00  0.4640E+03  0.4640E+03
      8.187  0.0000E+00  0.0000E+00  0.4640E+03  0.4640E+03
      8.251  0.0000E+00  0.0000E+00  0.4640E+03  0.4640E+03
      8.316  0.0000E+00  0.0000E+00  0.4640E+03  0.4640E+03
      8.381  0.0000E+00  0.0000E+00  0.4640E+03  0.4640E+03
      8.445  0.0000E+00  0.0000E+00  0.4640E+03  0.4640E+03
