       N       E                     dE             d eps       ncg     rms          rms(c)
DAV:   1     0.239522491829E+04    0.23952E+04   -0.17592E+05  9280   0.176E+03
DAV:   2     0.132697359502E+03   -0.22625E+04   -0.21902E+04 10872   0.225E+02
DAV:   3    -0.100725804214E+03   -0.23342E+03   -0.22381E+03 11424   0.682E+01
DAV:   4    -0.110503289533E+03   -0.97775E+01   -0.94436E+01 11088   0.129E+01
DAV:   5    -0.110884347044E+03   -0.38106E+00   -0.37606E+00 11680   0.210E+00    0.273E+01
DAV:   6    -0.982848362413E+02    0.12600E+02   -0.28323E+01 10504   0.811E+00    0.132E+01
DAV:   7    -0.969099093697E+02    0.13749E+01   -0.68934E+00 10296   0.461E+00    0.405E+00
DAV:   8    -0.968194044825E+02    0.90505E-01   -0.64299E-01 10616   0.147E+00    0.120E+00
DAV:   9    -0.968070973046E+02    0.12307E-01   -0.10472E-01 11000   0.566E-01    0.524E-01
DAV:  10    -0.968096647228E+02   -0.25674E-02   -0.26721E-02 10392   0.300E-01    0.353E-01
DAV:  11    -0.968114997875E+02   -0.18351E-02   -0.37882E-03 10456   0.137E-01    0.106E-01
DAV:  12    -0.968115142166E+02   -0.14429E-04   -0.72135E-04 10992   0.514E-02    0.604E-02
DAV:  13    -0.968115766214E+02   -0.62405E-04   -0.20632E-04 10272   0.294E-02    0.189E-02
DAV:  14    -0.968115794737E+02   -0.28523E-05   -0.21949E-05 11240   0.903E-03    0.882E-03
DAV:  15    -0.968115802005E+02   -0.72678E-06   -0.53987E-06 10464   0.476E-03    0.365E-03
DAV:  16    -0.968115801814E+02    0.19081E-07   -0.68196E-07 10152   0.180E-03
   1 F= -.96811580E+02 E0= -.96810888E+02  d E =-.138383E-02  mag=     1.0000
