Si and Ge interface calculation         
           1
    12.651226    0.000000    0.000000
     2.530245   12.395620    0.000000
     0.000000    0.000000   11.548944
   Ge
    96
Direct configuration=     1
   0.78425658  0.48979867  0.50000006
   0.99259037  0.94813251  0.00000003
   0.95092356  0.65646577  0.10000004
   0.90925682  0.36479890  0.20000006
   0.86759007  0.07313222  0.30000004
   0.82592332  0.78146553  0.39999998
   0.28425661  0.98979878  0.50000006
   0.49259037  0.44813251  0.00000003
   0.45092362  0.15646577  0.10000004
   0.40925688  0.86479896  0.20000006
   0.36759013  0.57313228  0.30000004
   0.32592338  0.28146553  0.40000004
   0.15925664  0.36479878  0.50000006
   0.36759040  0.82313263  0.00000001
   0.32592362  0.53146583  0.10000004
   0.28425688  0.23979901  0.20000009
   0.24259017  0.94813240  0.30000001
   0.20092338  0.65646565  0.40000004
   0.65925658  0.86479867  0.50000006
   0.86759049  0.32313258  0.00000001
   0.82592368  0.03146578  0.10000004
   0.78425688  0.73979890  0.20000006
   0.74259013  0.44813234  0.30000001
   0.70092338  0.15646553  0.39999998
   0.03425656  0.23979878  0.50000006
   0.24259035  0.69813263  0.00000000
   0.20092359  0.40646580  0.10000003
   0.15925685  0.11479896  0.20000006
   0.11759009  0.82313240  0.30000001
   0.07592334  0.53146553  0.39999998
   0.53425670  0.73979867  0.50000006
   0.74259043  0.19813251  0.00000003
   0.70092362  0.90646571  0.10000005
   0.65925688  0.61479890  0.20000006
   0.61759025  0.32313234  0.30000004
   0.57592344  0.03146547  0.39999998
   0.90925658  0.61479878  0.50000006
   0.11759036  0.07313251  0.00000003
   0.07592360  0.78146577  0.10000004
   0.03425685  0.48979896  0.20000006
   0.99259007  0.19813222  0.30000004
   0.95092338  0.90646553  0.40000004
   0.40925661  0.11479884  0.50000006
   0.61759049  0.57313258  0.00000001
   0.57592362  0.28146583  0.10000003
   0.53425694  0.98979902  0.20000009
   0.49259019  0.69813228  0.30000007
   0.45092344  0.40646553  0.40000007
   0.48979867  0.78425658  0.00000024
   0.94813251  0.99259037  0.50000006
   0.65646565  0.95092356  0.60000008
   0.36479896  0.90925682  0.70000011
   0.07313222  0.86759007  0.80000013
   0.78146553  0.82592332  0.90000016
   0.98979867  0.28425661  0.00000024
   0.44813251  0.49259037  0.50000006
   0.15646572  0.45092359  0.60000008
   0.86479902  0.40925690  0.70000011
   0.57313228  0.36759013  0.80000013
   0.28146547  0.32592338  0.90000016
   0.36479878  0.15925665  0.00000024
   0.82313263  0.36759040  0.50000006
   0.53146583  0.32592362  0.60000008
   0.23979907  0.28425690  0.70000011
   0.94813240  0.24259017  0.80000013
   0.65646565  0.20092340  0.90000016
   0.86479867  0.65925664  0.00000012
   0.32313258  0.86759049  0.50000006
   0.03146578  0.82592368  0.60000008
   0.73979902  0.78425688  0.70000011
   0.44813234  0.74259019  0.80000013
   0.15646553  0.70092338  0.90000016
   0.23979872  0.03425659  0.00000024
   0.69813258  0.24259037  0.50000006
   0.40646580  0.20092359  0.60000008
   0.11479903  0.15925685  0.70000011
   0.82313234  0.11759010  0.80000007
   0.53146553  0.07592335  0.90000004
   0.73979867  0.53425670  0.00000024
   0.19813251  0.74259043  0.50000006
   0.90646571  0.70092368  0.60000008
   0.61479896  0.65925688  0.70000011
   0.32313228  0.61759025  0.80000013
   0.03146547  0.57592344  0.90000016
   0.61479867  0.90925658  0.00000024
   0.07313251  0.11759036  0.50000006
   0.78146571  0.07592361  0.60000008
   0.48979902  0.03425687  0.70000011
   0.19813222  0.99259013  0.80000007
   0.90646553  0.95092338  0.90000016
   0.11479878  0.40925670  0.00000024
   0.57313258  0.61759049  0.50000006
   0.28146577  0.57592362  0.60000008
   0.98979908  0.53425694  0.70000011
   0.69813228  0.49259019  0.80000013
   0.40646553  0.45092344  0.90000016
