Si and Ge interface calculation         
           1
    17.891535    0.000000    0.000000
   -16.102381    7.798739    0.000000
     0.000000   -0.000000   13.828835
   Ge
    96
Direct configuration=     1
   0.81228745  0.18771255  0.46930525
   0.02281332  0.97718668  0.00000001
   0.18070815  0.81929183  0.09386106
   0.33860299  0.66139698  0.18772212
   0.49649781  0.50350219  0.28158316
   0.65439260  0.34560740  0.37544423
   0.10176122  0.89823884  0.49277046
   0.31228706  0.68771291  0.02346529
   0.47018188  0.52981806  0.11732632
   0.62807673  0.37192327  0.21118741
   0.78597158  0.21402840  0.30504847
   0.94386643  0.05613355  0.39890954
   0.31228733  0.68771261  0.46930522
   0.52281326  0.47718665  0.00000000
   0.68070811  0.31929183  0.09386105
   0.83860296  0.16139701  0.18772209
   0.99649781  0.00350215  0.28158313
   0.15439260  0.84560740  0.37544423
   0.65439266  0.84560734  0.37544423
   0.81228709  0.18771291  0.02346546
   0.97018182  0.02981813  0.11732645
   0.12807667  0.87192327  0.21118759
   0.28597152  0.71402836  0.30504861
   0.44386637  0.55613363  0.39890966
   0.12807691  0.37192324  0.21118751
   0.52281326  0.97718668  0.00000001
   0.68070811  0.81929189  0.09386105
   0.83860296  0.66139704  0.18772209
   0.99649775  0.50350225  0.28158313
   0.19135273  0.74123156  0.49999994
   0.49649784  0.00350219  0.28158313
   0.81228727  0.68771285  0.02346543
   0.97018212  0.52981806  0.11732648
   0.31228745  0.18771249  0.46930528
   0.84924740  0.08333683  0.59386104
   0.00714219  0.92544192  0.68772209
   0.81228751  0.68771249  0.46930525
   0.02281339  0.47718665  0.00000001
   0.18070820  0.31929183  0.09386104
   0.33860305  0.16139698  0.18772212
   0.60176146  0.89823872  0.49277064
   0.66503704  0.26754707  0.78158313
   0.94386637  0.55613351  0.39890966
   0.31228706  0.18771288  0.02346545
   0.47018188  0.02981809  0.11732648
   0.63872117  0.29386300  0.61732644
   0.78597152  0.71402842  0.30504861
   0.10176122  0.39823878  0.49277067
   0.98082656  0.45175749  0.96930522
   0.19135265  0.24123168  0.49999994
   0.34924746  0.08333683  0.59386104
   0.50714225  0.92544192  0.68772209
   0.66503698  0.76754707  0.78158313
   0.82293183  0.60965222  0.87544423
   0.27030033  0.16228366  0.99277061
   0.48082638  0.95175785  0.52346528
   0.63872117  0.79386306  0.61732626
   0.79661596  0.63596815  0.71118736
   0.95451081  0.47807330  0.80504847
   0.11240554  0.32017845  0.89890951
   0.48082644  0.95175749  0.96930522
   0.63872117  0.29386300  0.61732644
   0.84924740  0.58333677  0.59386092
   0.00714219  0.42544189  0.68772209
   0.16503692  0.26754707  0.78158313
   0.32293171  0.10965228  0.87544411
   0.77030033  0.66228366  0.99277073
   0.98082638  0.45175788  0.52346540
   0.13872111  0.29386303  0.61732644
   0.29661602  0.13596821  0.71118742
   0.45451075  0.97807336  0.80504859
   0.61240560  0.82017845  0.89890963
   0.98082662  0.95175737  0.96930510
   0.34924748  0.58333671  0.59386092
   0.19135273  0.74123156  0.49999994
   0.50714231  0.42544186  0.68772209
   0.65439266  0.84560734  0.37544423
   0.82293189  0.10965228  0.87544423
   0.27030033  0.66228360  0.99277073
   0.48082638  0.45175782  0.52346540
   0.62807673  0.87192327  0.21118756
   0.69135261  0.24123168  0.49999994
   0.95451075  0.97807336  0.80504852
   0.11240554  0.82017845  0.89890963
   0.48082656  0.45175743  0.96930510
   0.79661596  0.13596821  0.71118748
   0.28597176  0.21402839  0.30504861
   0.44386673  0.05613352  0.39890963
   0.98082668  0.95175779  0.52346540
   0.32293171  0.60965228  0.87544411
   0.77030057  0.16228366  0.99277073
   0.16503692  0.76754719  0.78158313
   0.10176122  0.39823878  0.49277067
   0.29661626  0.63596809  0.71118742
   0.45451099  0.47807330  0.80504852
   0.61240584  0.32017839  0.89890963
