  96  96   0   0
  0.2009955E+02  0.1789154E-08  0.1789153E-08  0.1382884E-08  0.5000000E-15
  1.000000000000000E-004
  CAR 
 Si and Ge interface calculation         
      8.08051361    -10.05684682  301      4.63918370      1.00000000
    -10.057  0.0000E+00  0.0000E+00  0.0000E+00  0.0000E+00
     -9.996  0.0000E+00  0.0000E+00  0.0000E+00  0.0000E+00
     -9.936  0.0000E+00  0.0000E+00  0.0000E+00  0.0000E+00
     -9.875  0.0000E+00  0.0000E+00  0.0000E+00  0.0000E+00
     -9.815  0.0000E+00  0.0000E+00  0.0000E+00  0.0000E+00
     -9.755  0.0000E+00  0.0000E+00  0.0000E+00  0.0000E+00
     -9.694  0.0000E+00  0.0000E+00  0.0000E+00  0.0000E+00
     -9.634  0.0000E+00  0.0000E+00  0.0000E+00  0.0000E+00
     -9.573  0.0000E+00  0.0000E+00  0.0000E+00  0.0000E+00
     -9.513  0.0000E+00  0.0000E+00  0.0000E+00  0.0000E+00
     -9.452  0.0000E+00  0.0000E+00  0.0000E+00  0.0000E+00
     -9.392  0.0000E+00  0.0000E+00  0.0000E+00  0.0000E+00
     -9.331  0.0000E+00  0.0000E+00  0.0000E+00  0.0000E+00
     -9.271  0.2912E-07  0.5675E-11  0.1761E-08  0.3431E-12
     -9.210  0.1051E+02  0.5852E+01  0.6355E+00  0.3538E+00
     -9.150  0.6542E+01  0.1071E+02  0.1031E+01  0.1001E+01
     -9.090  0.3257E+02  0.3298E+02  0.3000E+01  0.2995E+01
     -9.029  0.0000E+00  0.7835E-01  0.3000E+01  0.3000E+01
     -8.969  0.0000E+00  0.0000E+00  0.3000E+01  0.3000E+01
     -8.908  0.5071E-05  0.2839E-08  0.3000E+01  0.3000E+01
     -8.848  0.3188E+02  0.2537E+02  0.4927E+01  0.4534E+01
     -8.787  0.1196E+01  0.7709E+01  0.5000E+01  0.5000E+01
     -8.727  0.3064E+01  0.1136E+01  0.5185E+01  0.5069E+01
     -8.666  0.3141E+01  0.5063E+01  0.5375E+01  0.5375E+01
     -8.606  0.7571E+01  0.3740E+01  0.5833E+01  0.5601E+01
     -8.545  0.8868E+01  0.9752E+01  0.6369E+01  0.6191E+01
     -8.485  0.7739E+01  0.8787E+01  0.6837E+01  0.6722E+01
     -8.424  0.4015E+02  0.3728E+02  0.9264E+01  0.8976E+01
     -8.364  0.1814E+01  0.6595E+01  0.9375E+01  0.9375E+01
     -8.304  0.1889E+01  0.1113E+01  0.9489E+01  0.9442E+01
     -8.243  0.1051E+02  0.1039E+02  0.1012E+02  0.1007E+02
     -8.183  0.4852E+01  0.2895E+01  0.1042E+02  0.1025E+02
     -8.122  0.7566E+01  0.1040E+02  0.1088E+02  0.1087E+02
     -8.062  0.2738E+02  0.2128E+02  0.1253E+02  0.1216E+02
     -8.001  0.9836E+01  0.1595E+02  0.1313E+02  0.1312E+02
     -7.941  0.6708E+01  0.3108E+01  0.1353E+02  0.1331E+02
     -7.880  0.1561E+01  0.5163E+01  0.1362E+02  0.1362E+02
     -7.820  0.7133E-02  0.1549E-05  0.1363E+02  0.1363E+02
     -7.759  0.1661E+02  0.1417E+02  0.1463E+02  0.1448E+02
     -7.699  0.4059E+01  0.6503E+01  0.1487E+02  0.1487E+02
     -7.639  0.5865E-01  0.8892E-03  0.1488E+02  0.1488E+02
     -7.578  0.3045E+01  0.3097E+01  0.1506E+02  0.1506E+02
     -7.518  0.1690E+02  0.1015E+02  0.1608E+02  0.1568E+02
     -7.457  0.2305E+02  0.2407E+02  0.1748E+02  0.1713E+02
     -7.397  0.1771E+02  0.2295E+02  0.1855E+02  0.1852E+02
     -7.336  0.1714E+02  0.1359E+02  0.1958E+02  0.1934E+02
     -7.276  0.8292E+01  0.8996E+01  0.2009E+02  0.1989E+02
     -7.215  0.2588E+02  0.2476E+02  0.2165E+02  0.2138E+02
     -7.155  0.1418E+02  0.1769E+02  0.2251E+02  0.2245E+02
     -7.094  0.1614E+02  0.1588E+02  0.2348E+02  0.2341E+02
     -7.034  0.1417E+02  0.1012E+02  0.2434E+02  0.2402E+02
     -6.973  0.2044E+02  0.2031E+02  0.2558E+02  0.2525E+02
     -6.913  0.5576E+02  0.5786E+02  0.2895E+02  0.2875E+02
     -6.853  0.2540E+02  0.2640E+02  0.3048E+02  0.3035E+02
     -6.792  0.1742E+02  0.1704E+02  0.3154E+02  0.3138E+02
     -6.732  0.2401E+02  0.1918E+02  0.3299E+02  0.3254E+02
     -6.671  0.2209E+02  0.2189E+02  0.3432E+02  0.3386E+02
     -6.611  0.3031E+02  0.3583E+02  0.3616E+02  0.3603E+02
     -6.550  0.2251E+02  0.2201E+02  0.3752E+02  0.3736E+02
     -6.490  0.2345E+02  0.2172E+02  0.3894E+02  0.3867E+02
     -6.429  0.2753E+02  0.2756E+02  0.4060E+02  0.4034E+02
     -6.369  0.2723E+02  0.2597E+02  0.4225E+02  0.4191E+02
     -6.308  0.4027E+02  0.4247E+02  0.4468E+02  0.4447E+02
     -6.248  0.2718E+02  0.2612E+02  0.4633E+02  0.4605E+02
     -6.188  0.2344E+02  0.2567E+02  0.4774E+02  0.4761E+02
     -6.127  0.3300E+02  0.2994E+02  0.4974E+02  0.4942E+02
     -6.067  0.4330E+02  0.4195E+02  0.5236E+02  0.5195E+02
     -6.006  0.3509E+02  0.3852E+02  0.5448E+02  0.5428E+02
     -5.946  0.2781E+02  0.2625E+02  0.5616E+02  0.5587E+02
     -5.885  0.2784E+02  0.2998E+02  0.5784E+02  0.5768E+02
     -5.825  0.3584E+02  0.3432E+02  0.6001E+02  0.5976E+02
     -5.764  0.3182E+02  0.3138E+02  0.6194E+02  0.6165E+02
     -5.704  0.2469E+02  0.2621E+02  0.6343E+02  0.6324E+02
     -5.643  0.4496E+02  0.4211E+02  0.6615E+02  0.6578E+02
     -5.583  0.2515E+02  0.2727E+02  0.6767E+02  0.6743E+02
     -5.523  0.4010E+02  0.3216E+02  0.7009E+02  0.6938E+02
     -5.462  0.4177E+02  0.4865E+02  0.7262E+02  0.7232E+02
     -5.402  0.2812E+02  0.2415E+02  0.7432E+02  0.7378E+02
     -5.341  0.4685E+02  0.4335E+02  0.7715E+02  0.7640E+02
     -5.281  0.3095E+02  0.3900E+02  0.7902E+02  0.7876E+02
     -5.220  0.3711E+02  0.3548E+02  0.8127E+02  0.8090E+02
     -5.160  0.2263E+02  0.2501E+02  0.8263E+02  0.8241E+02
     -5.099  0.2910E+02  0.3013E+02  0.8439E+02  0.8424E+02
     -5.039  0.2155E+02  0.2018E+02  0.8570E+02  0.8546E+02
     -4.978  0.4302E+02  0.4311E+02  0.8830E+02  0.8806E+02
     -4.918  0.1488E+02  0.1823E+02  0.8920E+02  0.8917E+02
     -4.857  0.1086E+02  0.9983E+01  0.8985E+02  0.8977E+02
     -4.797  0.2133E+02  0.1502E+02  0.9114E+02  0.9068E+02
     -4.737  0.2110E+02  0.2666E+02  0.9242E+02  0.9229E+02
     -4.676  0.1481E+02  0.1487E+02  0.9331E+02  0.9319E+02
     -4.616  0.1832E+02  0.1769E+02  0.9442E+02  0.9426E+02
     -4.555  0.1498E+02  0.1691E+02  0.9533E+02  0.9528E+02
     -4.495  0.1501E+02  0.1105E+02  0.9624E+02  0.9595E+02
     -4.434  0.2425E+02  0.2426E+02  0.9770E+02  0.9742E+02
     -4.374  0.2309E+02  0.2385E+02  0.9910E+02  0.9886E+02
     -4.313  0.1585E+02  0.1653E+02  0.1001E+03  0.9986E+02
     -4.253  0.1776E+02  0.1744E+02  0.1011E+03  0.1009E+03
     -4.192  0.4147E+02  0.3854E+02  0.1036E+03  0.1032E+03
     -4.132  0.1326E+02  0.1978E+02  0.1044E+03  0.1044E+03
     -4.072  0.9157E+01  0.6746E+01  0.1050E+03  0.1048E+03
     -4.011  0.3672E+02  0.3309E+02  0.1072E+03  0.1068E+03
     -3.951  0.3298E+02  0.3608E+02  0.1092E+03  0.1090E+03
     -3.890  0.1936E+02  0.2093E+02  0.1104E+03  0.1103E+03
     -3.830  0.2417E+02  0.1860E+02  0.1118E+03  0.1114E+03
     -3.769  0.2024E+02  0.2352E+02  0.1131E+03  0.1128E+03
     -3.709  0.1769E+02  0.1839E+02  0.1141E+03  0.1140E+03
     -3.648  0.3321E+02  0.3149E+02  0.1161E+03  0.1159E+03
     -3.588  0.2457E+02  0.2624E+02  0.1176E+03  0.1174E+03
     -3.527  0.2389E+02  0.2057E+02  0.1191E+03  0.1187E+03
     -3.467  0.2102E+02  0.2464E+02  0.1203E+03  0.1202E+03
     -3.406  0.1359E+02  0.1394E+02  0.1212E+03  0.1210E+03
     -3.346  0.1697E+02  0.1622E+02  0.1222E+03  0.1220E+03
     -3.286  0.2348E+02  0.2131E+02  0.1236E+03  0.1233E+03
     -3.225  0.2578E+02  0.2655E+02  0.1252E+03  0.1249E+03
     -3.165  0.2444E+02  0.2559E+02  0.1266E+03  0.1264E+03
     -3.104  0.3478E+02  0.2923E+02  0.1287E+03  0.1282E+03
     -3.044  0.3829E+02  0.4232E+02  0.1311E+03  0.1308E+03
     -2.983  0.1923E+02  0.2259E+02  0.1322E+03  0.1321E+03
     -2.923  0.3378E+02  0.2951E+02  0.1343E+03  0.1339E+03
     -2.862  0.2404E+02  0.2505E+02  0.1357E+03  0.1354E+03
     -2.802  0.3134E+02  0.3052E+02  0.1376E+03  0.1373E+03
     -2.741  0.3974E+02  0.3972E+02  0.1400E+03  0.1397E+03
     -2.681  0.2707E+02  0.2954E+02  0.1417E+03  0.1415E+03
     -2.621  0.1650E+02  0.1605E+02  0.1427E+03  0.1424E+03
     -2.560  0.2459E+02  0.2567E+02  0.1441E+03  0.1440E+03
     -2.500  0.2459E+02  0.2194E+02  0.1456E+03  0.1453E+03
     -2.439  0.2864E+02  0.3110E+02  0.1474E+03  0.1472E+03
     -2.379  0.2546E+02  0.2520E+02  0.1489E+03  0.1487E+03
     -2.318  0.2466E+02  0.2602E+02  0.1504E+03  0.1503E+03
     -2.258  0.2782E+02  0.2566E+02  0.1521E+03  0.1518E+03
     -2.197  0.2558E+02  0.2570E+02  0.1536E+03  0.1534E+03
     -2.137  0.2490E+02  0.2161E+02  0.1551E+03  0.1547E+03
     -2.076  0.2295E+02  0.2689E+02  0.1565E+03  0.1563E+03
     -2.016  0.2662E+02  0.2688E+02  0.1581E+03  0.1580E+03
     -1.955  0.2632E+02  0.2427E+02  0.1597E+03  0.1594E+03
     -1.895  0.1199E+02  0.1654E+02  0.1604E+03  0.1604E+03
     -1.835  0.5537E+01  0.4061E+01  0.1608E+03  0.1607E+03
     -1.774  0.2260E+02  0.2066E+02  0.1621E+03  0.1619E+03
     -1.714  0.2108E+02  0.1982E+02  0.1634E+03  0.1631E+03
     -1.653  0.2776E+02  0.2631E+02  0.1651E+03  0.1647E+03
     -1.593  0.2134E+02  0.2206E+02  0.1664E+03  0.1660E+03
     -1.532  0.1583E+02  0.2019E+02  0.1673E+03  0.1673E+03
     -1.472  0.3103E+02  0.2693E+02  0.1692E+03  0.1689E+03
     -1.411  0.1834E+02  0.2188E+02  0.1703E+03  0.1702E+03
     -1.351  0.1387E+02  0.9955E+01  0.1712E+03  0.1708E+03
     -1.290  0.1904E+02  0.2210E+02  0.1723E+03  0.1722E+03
     -1.230  0.3419E+02  0.3223E+02  0.1744E+03  0.1741E+03
     -1.170  0.3064E+02  0.3026E+02  0.1762E+03  0.1759E+03
     -1.109  0.2898E+02  0.2956E+02  0.1780E+03  0.1777E+03
     -1.049  0.2751E+02  0.2848E+02  0.1796E+03  0.1794E+03
     -0.988  0.1314E+02  0.1435E+02  0.1804E+03  0.1803E+03
     -0.928  0.2382E+02  0.2316E+02  0.1819E+03  0.1817E+03
     -0.867  0.9307E+01  0.1042E+02  0.1824E+03  0.1823E+03
     -0.807  0.2180E+02  0.2131E+02  0.1838E+03  0.1836E+03
     -0.746  0.2921E+02  0.2639E+02  0.1855E+03  0.1852E+03
     -0.686  0.1690E+02  0.1886E+02  0.1866E+03  0.1864E+03
     -0.625  0.2793E+02  0.2849E+02  0.1882E+03  0.1881E+03
     -0.565  0.2429E+02  0.2217E+02  0.1897E+03  0.1894E+03
     -0.505  0.1155E+02  0.1491E+02  0.1904E+03  0.1903E+03
     -0.444  0.1960E+02  0.1717E+02  0.1916E+03  0.1914E+03
     -0.384  0.1299E+02  0.1477E+02  0.1924E+03  0.1923E+03
     -0.323  0.1180E+02  0.1118E+02  0.1931E+03  0.1929E+03
     -0.263  0.1825E+02  0.1856E+02  0.1942E+03  0.1941E+03
     -0.202  0.1262E+02  0.1251E+02  0.1950E+03  0.1948E+03
     -0.142  0.1478E+02  0.1190E+02  0.1959E+03  0.1955E+03
     -0.081  0.1575E+02  0.1784E+02  0.1968E+03  0.1966E+03
     -0.021  0.2659E+02  0.2152E+02  0.1984E+03  0.1979E+03
      0.040  0.1494E+02  0.2224E+02  0.1993E+03  0.1993E+03
      0.100  0.2304E+02  0.1444E+02  0.2007E+03  0.2001E+03
      0.161  0.2962E+02  0.3641E+02  0.2025E+03  0.2023E+03
      0.221  0.2271E+02  0.1996E+02  0.2039E+03  0.2035E+03
      0.281  0.3330E+02  0.2661E+02  0.2059E+03  0.2051E+03
      0.342  0.2573E+02  0.3448E+02  0.2074E+03  0.2072E+03
      0.402  0.3832E+02  0.2982E+02  0.2098E+03  0.2090E+03
      0.463  0.4695E+02  0.4850E+02  0.2126E+03  0.2120E+03
      0.523  0.4302E+02  0.4610E+02  0.2152E+03  0.2148E+03
      0.584  0.2842E+02  0.3172E+02  0.2169E+03  0.2167E+03
      0.644  0.4168E+02  0.3295E+02  0.2194E+03  0.2187E+03
      0.705  0.3102E+02  0.3950E+02  0.2213E+03  0.2211E+03
      0.765  0.3216E+02  0.3132E+02  0.2233E+03  0.2229E+03
      0.826  0.4305E+02  0.4279E+02  0.2259E+03  0.2255E+03
      0.886  0.2846E+02  0.2986E+02  0.2276E+03  0.2273E+03
      0.946  0.3121E+02  0.2759E+02  0.2295E+03  0.2290E+03
      1.007  0.3210E+02  0.3407E+02  0.2314E+03  0.2311E+03
      1.067  0.3255E+02  0.3485E+02  0.2334E+03  0.2332E+03
      1.128  0.3393E+02  0.3136E+02  0.2354E+03  0.2351E+03
      1.188  0.4449E+02  0.4576E+02  0.2381E+03  0.2378E+03
      1.249  0.5073E+02  0.4865E+02  0.2412E+03  0.2408E+03
      1.309  0.2504E+02  0.2908E+02  0.2427E+03  0.2425E+03
      1.370  0.4693E+02  0.4325E+02  0.2455E+03  0.2452E+03
      1.430  0.4159E+02  0.4186E+02  0.2481E+03  0.2477E+03
      1.491  0.3956E+02  0.3719E+02  0.2504E+03  0.2499E+03
      1.551  0.4112E+02  0.4630E+02  0.2529E+03  0.2527E+03
      1.612  0.5239E+02  0.5068E+02  0.2561E+03  0.2558E+03
      1.672  0.2969E+02  0.3146E+02  0.2579E+03  0.2577E+03
      1.732  0.3357E+02  0.2930E+02  0.2599E+03  0.2595E+03
      1.793  0.5128E+02  0.4919E+02  0.2630E+03  0.2624E+03
      1.853  0.6207E+02  0.6128E+02  0.2668E+03  0.2661E+03
      1.914  0.5197E+02  0.5495E+02  0.2699E+03  0.2695E+03
      1.974  0.5545E+02  0.5507E+02  0.2733E+03  0.2728E+03
      2.035  0.5413E+02  0.5547E+02  0.2765E+03  0.2762E+03
      2.095  0.4975E+02  0.4938E+02  0.2796E+03  0.2791E+03
      2.156  0.4433E+02  0.4517E+02  0.2822E+03  0.2819E+03
      2.216  0.6558E+02  0.6283E+02  0.2862E+03  0.2857E+03
      2.277  0.4213E+02  0.4180E+02  0.2887E+03  0.2882E+03
      2.337  0.4009E+02  0.4303E+02  0.2912E+03  0.2908E+03
      2.397  0.4439E+02  0.4573E+02  0.2939E+03  0.2936E+03
      2.458  0.4774E+02  0.4711E+02  0.2967E+03  0.2964E+03
      2.518  0.4338E+02  0.3976E+02  0.2994E+03  0.2988E+03
      2.579  0.5908E+02  0.5767E+02  0.3029E+03  0.3023E+03
      2.639  0.5722E+02  0.6183E+02  0.3064E+03  0.3060E+03
      2.700  0.4658E+02  0.4537E+02  0.3092E+03  0.3088E+03
      2.760  0.3793E+02  0.3852E+02  0.3115E+03  0.3111E+03
      2.821  0.3655E+02  0.3424E+02  0.3137E+03  0.3132E+03
      2.881  0.5152E+02  0.5048E+02  0.3168E+03  0.3162E+03
      2.942  0.3928E+02  0.4017E+02  0.3192E+03  0.3187E+03
      3.002  0.3997E+02  0.4423E+02  0.3216E+03  0.3213E+03
      3.063  0.2848E+02  0.2881E+02  0.3233E+03  0.3231E+03
      3.123  0.3988E+02  0.3864E+02  0.3258E+03  0.3254E+03
      3.183  0.4361E+02  0.4213E+02  0.3284E+03  0.3280E+03
      3.244  0.4708E+02  0.4687E+02  0.3312E+03  0.3308E+03
      3.304  0.4019E+02  0.4062E+02  0.3337E+03  0.3333E+03
      3.365  0.5120E+02  0.4664E+02  0.3368E+03  0.3361E+03
      3.425  0.4254E+02  0.4996E+02  0.3393E+03  0.3391E+03
      3.486  0.3263E+02  0.2934E+02  0.3413E+03  0.3409E+03
      3.546  0.3563E+02  0.3824E+02  0.3435E+03  0.3432E+03
      3.607  0.3485E+02  0.3577E+02  0.3456E+03  0.3453E+03
      3.667  0.3706E+02  0.3537E+02  0.3478E+03  0.3475E+03
      3.728  0.3911E+02  0.3530E+02  0.3502E+03  0.3496E+03
      3.788  0.4505E+02  0.4970E+02  0.3529E+03  0.3526E+03
      3.848  0.3066E+02  0.2947E+02  0.3548E+03  0.3544E+03
      3.909  0.3600E+02  0.3615E+02  0.3569E+03  0.3566E+03
      3.969  0.3418E+02  0.3364E+02  0.3590E+03  0.3586E+03
      4.030  0.3883E+02  0.3554E+02  0.3613E+03  0.3608E+03
      4.090  0.4569E+02  0.4912E+02  0.3641E+03  0.3637E+03
      4.151  0.2762E+02  0.2810E+02  0.3658E+03  0.3654E+03
      4.211  0.4762E+02  0.4293E+02  0.3687E+03  0.3680E+03
      4.272  0.4750E+02  0.4567E+02  0.3715E+03  0.3708E+03
      4.332  0.3783E+02  0.4295E+02  0.3738E+03  0.3734E+03
      4.393  0.3410E+02  0.3544E+02  0.3759E+03  0.3755E+03
      4.453  0.3004E+02  0.2946E+02  0.3777E+03  0.3773E+03
      4.513  0.3994E+02  0.3654E+02  0.3801E+03  0.3795E+03
      4.574  0.2716E+02  0.3018E+02  0.3818E+03  0.3814E+03
      4.634  0.2631E+02  0.2524E+02  0.3833E+03  0.3829E+03
      4.695  0.3384E+02  0.2813E+02  0.3854E+03  0.3846E+03
      4.755  0.4667E+02  0.5101E+02  0.3882E+03  0.3877E+03
      4.816  0.3051E+02  0.3484E+02  0.3901E+03  0.3898E+03
      4.876  0.3389E+02  0.2556E+02  0.3921E+03  0.3913E+03
      4.937  0.2572E+02  0.3479E+02  0.3937E+03  0.3934E+03
      4.997  0.4052E+02  0.3997E+02  0.3961E+03  0.3958E+03
      5.058  0.2539E+02  0.2028E+02  0.3976E+03  0.3971E+03
      5.118  0.3767E+02  0.3890E+02  0.3999E+03  0.3994E+03
      5.179  0.3233E+02  0.3494E+02  0.4019E+03  0.4015E+03
      5.239  0.1474E+02  0.1653E+02  0.4028E+03  0.4025E+03
      5.299  0.1719E+02  0.1684E+02  0.4038E+03  0.4035E+03
      5.360  0.2565E+02  0.2461E+02  0.4054E+03  0.4050E+03
      5.420  0.2307E+02  0.2561E+02  0.4068E+03  0.4066E+03
      5.481  0.2699E+02  0.2456E+02  0.4084E+03  0.4081E+03
      5.541  0.3782E+02  0.3278E+02  0.4107E+03  0.4101E+03
      5.602  0.3660E+02  0.4339E+02  0.4129E+03  0.4127E+03
      5.662  0.3679E+02  0.3618E+02  0.4151E+03  0.4149E+03
      5.723  0.3515E+02  0.3037E+02  0.4172E+03  0.4167E+03
      5.783  0.3619E+02  0.3960E+02  0.4194E+03  0.4191E+03
      5.844  0.3380E+02  0.3241E+02  0.4215E+03  0.4211E+03
      5.904  0.2577E+02  0.2762E+02  0.4230E+03  0.4227E+03
      5.964  0.3395E+02  0.3170E+02  0.4251E+03  0.4246E+03
      6.025  0.3002E+02  0.3257E+02  0.4269E+03  0.4266E+03
      6.085  0.2802E+02  0.2409E+02  0.4286E+03  0.4281E+03
      6.146  0.4075E+02  0.4660E+02  0.4311E+03  0.4309E+03
      6.206  0.2765E+02  0.2840E+02  0.4327E+03  0.4326E+03
      6.267  0.2524E+02  0.1946E+02  0.4343E+03  0.4338E+03
      6.327  0.3734E+02  0.3876E+02  0.4365E+03  0.4361E+03
      6.388  0.3587E+02  0.3796E+02  0.4387E+03  0.4384E+03
      6.448  0.2519E+02  0.2414E+02  0.4402E+03  0.4399E+03
      6.509  0.3659E+02  0.3305E+02  0.4424E+03  0.4419E+03
      6.569  0.4151E+02  0.4591E+02  0.4449E+03  0.4447E+03
      6.630  0.3670E+02  0.3358E+02  0.4471E+03  0.4467E+03
      6.690  0.2853E+02  0.2941E+02  0.4489E+03  0.4485E+03
      6.750  0.3807E+02  0.3840E+02  0.4512E+03  0.4508E+03
      6.811  0.3668E+02  0.3643E+02  0.4534E+03  0.4530E+03
      6.871  0.2315E+02  0.2809E+02  0.4548E+03  0.4547E+03
      6.932  0.4214E+02  0.3821E+02  0.4573E+03  0.4570E+03
      6.992  0.3190E+02  0.3302E+02  0.4593E+03  0.4590E+03
      7.053  0.3776E+02  0.3767E+02  0.4615E+03  0.4613E+03
      7.113  0.2132E+02  0.2404E+02  0.4628E+03  0.4627E+03
      7.174  0.1098E+02  0.1107E+02  0.4635E+03  0.4634E+03
      7.234  0.3734E+01  0.4938E+01  0.4637E+03  0.4637E+03
      7.295  0.4542E+01  0.5149E+01  0.4640E+03  0.4640E+03
      7.355  0.0000E+00  0.0000E+00  0.4640E+03  0.4640E+03
      7.415  0.0000E+00  0.0000E+00  0.4640E+03  0.4640E+03
      7.476  0.0000E+00  0.0000E+00  0.4640E+03  0.4640E+03
      7.536  0.0000E+00  0.0000E+00  0.4640E+03  0.4640E+03
      7.597  0.0000E+00  0.0000E+00  0.4640E+03  0.4640E+03
      7.657  0.0000E+00  0.0000E+00  0.4640E+03  0.4640E+03
      7.718  0.0000E+00  0.0000E+00  0.4640E+03  0.4640E+03
      7.778  0.0000E+00  0.0000E+00  0.4640E+03  0.4640E+03
      7.839  0.0000E+00  0.0000E+00  0.4640E+03  0.4640E+03
      7.899  0.0000E+00  0.0000E+00  0.4640E+03  0.4640E+03
      7.960  0.0000E+00  0.0000E+00  0.4640E+03  0.4640E+03
      8.020  0.0000E+00  0.0000E+00  0.4640E+03  0.4640E+03
      8.081  0.0000E+00  0.0000E+00  0.4640E+03  0.4640E+03
