<?xml version="1.0" encoding="ISO-8859-1"?>
<modeling>
 <generator>
  <i name="program" type="string">vasp </i>
  <i name="version" type="string">6.4.3  </i>
  <i name="subversion" type="string">19Mar24 (build Oct 22 2024 11:23:12) complex                          parallel </i>
  <i name="platform" type="string">LinuxIFC </i>
  <i name="date" type="string">2025 06 04 </i>
  <i name="time" type="string">13:58:52 </i>
 </generator>
 <incar>
  <i type="string" name="SYSTEM">Si and Ge interface calculation</i>
  <i type="int" name="ISTART">     0</i>
  <i type="logical" name="ADDGRID"> T  </i>
  <i type="int" name="ISPIN">     2</i>
  <i name="AMIX">      0.60000000</i>
  <i type="int" name="ICHARG">     2</i>
  <i type="int" name="NELM">   100</i>
  <i name="EDIFF">      0.00000010</i>
  <i name="ENCUT">    700.00000000</i>
  <i name="ENAUG">    900.00000000</i>
  <i type="int" name="NBANDS">   231</i>
  <i name="NUPDOWN">      1.00000000</i>
  <i name="NELECT">    384.00000000</i>
  <i type="string" name="LREAL">AUTO</i>
  <i type="int" name="ISMEAR">     0</i>
  <i name="SIGMA">      0.01000000</i>
  <i type="int" name="LMAXMIX">     6</i>
  <i type="logical" name="LWAVE"> F  </i>
  <i type="logical" name="LVTOT"> F  </i>
  <i type="logical" name="LVHAR"> T  </i>
  <i type="logical" name="LASPH"> T  </i>
  <i type="logical" name="LMIXTAU"> T  </i>
 </incar>
 <primitive_cell>
  <structure name="primitive_cell" >
   <crystal>
    <varray name="basis" >
     <v>       8.94576628      -0.00000000       0.00000001 </v>
     <v>      -8.05118877       3.89936948       0.00000006 </v>
     <v>       0.00000028      -0.00000006      13.82883549 </v>
    </varray>
    <i name="volume">    482.38916648 </i>
    <varray name="rec_basis" >
     <v>       0.11178472       0.23080652      -0.00000000 </v>
     <v>      -0.00000000       0.25645172       0.00000000 </v>
     <v>      -0.00000000      -0.00000000       0.07231267 </v>
    </varray>
   </crystal>
   <varray name="positions" >
    <v>       0.62457506       0.37542512       0.46930524 </v>
    <v>       0.04562641       0.95437348       0.00000000 </v>
    <v>       0.36141631       0.63858370       0.09386105 </v>
    <v>       0.67720609       0.32279404       0.18772208 </v>
    <v>       0.99299587       0.00700431       0.28158313 </v>
    <v>       0.30878528       0.69121484       0.37544423 </v>
    <v>       0.20352250       0.79647772       0.49277067 </v>
    <v>       0.62457434       0.37542584       0.02346546 </v>
    <v>       0.94036388       0.05963626       0.11732645 </v>
    <v>       0.25615353       0.74384658       0.21118740 </v>
    <v>       0.57194331       0.42805683       0.30504846 </v>
    <v>       0.88773309       0.11226711       0.39890954 </v>
    <v>       0.95041729       0.89227890       0.96930509 </v>
    <v>       0.37146937       0.47122720       0.49999994 </v>
    <v>       0.68725903       0.15543748       0.59386104 </v>
    <v>       0.00304831       0.83964788       0.68772208 </v>
    <v>       0.31883822       0.52385822       0.78158313 </v>
    <v>       0.63462800       0.20806838       0.87544423 </v>
    <v>       0.52936534       0.31333115       0.99277073 </v>
    <v>       0.95041741       0.89227974       0.52346539 </v>
    <v>       0.26620647       0.57649008       0.61732643 </v>
    <v>       0.58199613       0.26070024       0.71118748 </v>
    <v>       0.89778554       0.94491088       0.80504852 </v>
    <v>       0.21357579       0.62912086       0.89890962 </v>
   </varray>
  </structure>
  <varray name="primitive_index" >
   <v type="int" >        1 </v>
   <v type="int" >        2 </v>
   <v type="int" >       15 </v>
   <v type="int" >       16 </v>
   <v type="int" >       17 </v>
   <v type="int" >        6 </v>
   <v type="int" >       19 </v>
   <v type="int" >       20 </v>
   <v type="int" >       21 </v>
   <v type="int" >       10 </v>
   <v type="int" >       11 </v>
   <v type="int" >       12 </v>
   <v type="int" >       73 </v>
   <v type="int" >       86 </v>
   <v type="int" >       87 </v>
   <v type="int" >       64 </v>
   <v type="int" >       77 </v>
   <v type="int" >       78 </v>
   <v type="int" >       91 </v>
   <v type="int" >       92 </v>
   <v type="int" >       81 </v>
   <v type="int" >       82 </v>
   <v type="int" >       83 </v>
   <v type="int" >       96 </v>
  </varray>
 </primitive_cell>
 <kpoints>
  <generation param="Gamma">
   <v type="int" name="divisions">       4        4        2 </v>
   <v name="usershift">      0.00000000       0.00000000       0.00000000 </v>
   <v name="genvec1">      0.25000000      -0.00000000       0.00000000 </v>
   <v name="genvec2">      0.00000000       0.25000000       0.00000000 </v>
   <v name="genvec3">      0.00000000       0.00000000       0.50000000 </v>
   <v name="shift">      0.00000000       0.00000000       0.00000000 </v>
  </generation>
  <varray name="kpointlist" >
   <v>       0.00000000       0.00000000       0.00000000 </v>
   <v>       0.25000000       0.00000000      -0.00000000 </v>
   <v>       0.00000000       0.25000000       0.00000000 </v>
   <v>       0.50000000       0.00000000      -0.00000000 </v>
   <v>       0.00000000       0.50000000       0.00000000 </v>
   <v>       0.25000000       0.25000000      -0.00000000 </v>
   <v>       0.50000000       0.25000000      -0.00000000 </v>
   <v>       0.25000000       0.50000000       0.00000000 </v>
   <v>      -0.25000000       0.25000000      -0.00000000 </v>
   <v>       0.50000000       0.50000000      -0.00000000 </v>
   <v>       0.00000000       0.00000000       0.50000000 </v>
   <v>       0.25000000       0.00000000       0.50000000 </v>
   <v>       0.00000000       0.25000000       0.50000000 </v>
   <v>       0.50000000       0.00000000       0.50000000 </v>
   <v>       0.00000000       0.50000000       0.50000000 </v>
   <v>       0.25000000       0.25000000       0.50000000 </v>
   <v>       0.50000000       0.25000000       0.50000000 </v>
   <v>       0.25000000       0.50000000       0.50000000 </v>
   <v>      -0.25000000       0.25000000       0.50000000 </v>
   <v>       0.50000000       0.50000000       0.50000000 </v>
  </varray>
  <varray name="weights" >
   <v>       0.03125000 </v>
   <v>       0.06250000 </v>
   <v>       0.06250000 </v>
   <v>       0.03125000 </v>
   <v>       0.03125000 </v>
   <v>       0.06250000 </v>
   <v>       0.06250000 </v>
   <v>       0.06250000 </v>
   <v>       0.06250000 </v>
   <v>       0.03125000 </v>
   <v>       0.03125000 </v>
   <v>       0.06250000 </v>
   <v>       0.06250000 </v>
   <v>       0.03125000 </v>
   <v>       0.03125000 </v>
   <v>       0.06250000 </v>
   <v>       0.06250000 </v>
   <v>       0.06250000 </v>
   <v>       0.06250000 </v>
   <v>       0.03125000 </v>
  </varray>
 </kpoints>
 <parameters>
  <separator name="general" >
   <i type="string" name="SYSTEM">Si and Ge interface calculation</i>
   <i type="logical" name="LCOMPAT"> F  </i>
  </separator>
  <separator name="electronic" >
   <i type="string" name="PREC">normal</i>
   <i name="ENMAX">    700.00000000</i>
   <i name="ENAUG">    900.00000000</i>
   <i name="EDIFF">      0.00000010</i>
   <i type="int" name="IALGO">    38</i>
   <i type="int" name="IWAVPR">    10</i>
   <i type="int" name="NBANDS">   232</i>
   <i type="int" name="NBANDSLOW">    -1</i>
   <i type="int" name="NBANDSHIGH">    -1</i>
   <i name="NELECT">    384.00000000</i>
   <i type="int" name="TURBO">     0</i>
   <i type="int" name="IRESTART">     0</i>
   <i type="int" name="NREBOOT">     0</i>
   <i type="int" name="NMIN">     0</i>
   <i name="EREF">      0.00000000</i>
   <separator name="electronic smearing" >
    <i type="int" name="ISMEAR">     0</i>
    <i name="SIGMA">      0.01000000</i>
    <i name="KSPACING">      0.50000000</i>
    <i type="logical" name="KGAMMA"> T  </i>
    <i type="logical" name="KBLOWUP"> T  </i>
   </separator>
   <separator name="electronic projectors" >
    <i type="logical" name="LREAL"> T  </i>
    <v name="ROPT">     -0.00050000</v>
    <i type="int" name="LMAXPAW">  -100</i>
    <i type="int" name="LMAXMIX">     6</i>
    <i type="logical" name="NLSPLINE"> F  </i>
   </separator>
   <separator name="electronic startup" >
    <i type="int" name="ISTART">     0</i>
    <i type="int" name="ICHARG">     2</i>
    <i type="int" name="INIWAV">     1</i>
   </separator>
   <separator name="electronic spin" >
    <i type="int" name="ISPIN">     2</i>
    <i type="logical" name="LNONCOLLINEAR"> F  </i>
    <v name="MAGMOM">      0.01041667      0.01041667      0.01041667      0.01041667      0.01041667      0.01041667      0.01041667      0.01041667      0.01041667      0.01041667      0.01041667      0.01041667      0.01041667      0.01041667      0.01041667      0.01041667      0.01041667      0.01041667      0.01041667      0.01041667
      0.01041667      0.01041667      0.01041667      0.01041667      0.01041667      0.01041667      0.01041667      0.01041667      0.01041667      0.01041667      0.01041667      0.01041667      0.01041667      0.01041667      0.01041667      0.01041667      0.01041667      0.01041667      0.01041667      0.01041667
      0.01041667      0.01041667      0.01041667      0.01041667      0.01041667      0.01041667      0.01041667      0.01041667      0.01041667      0.01041667      0.01041667      0.01041667      0.01041667      0.01041667      0.01041667      0.01041667      0.01041667      0.01041667      0.01041667      0.01041667
      0.01041667      0.01041667      0.01041667      0.01041667      0.01041667      0.01041667      0.01041667      0.01041667      0.01041667      0.01041667      0.01041667      0.01041667      0.01041667      0.01041667      0.01041667      0.01041667      0.01041667      0.01041667      0.01041667      0.01041667
      0.01041667      0.01041667      0.01041667      0.01041667      0.01041667      0.01041667      0.01041667      0.01041667      0.01041667      0.01041667      0.01041667      0.01041667      0.01041667      0.01041667      0.01041667      0.01041667</v>
    <i name="NUPDOWN">      1.00000000</i>
    <i type="logical" name="LSORBIT"> F  </i>
    <v name="SAXIS">      0.00000000      0.00000000      1.00000000</v>
    <i type="logical" name="LSPIRAL"> F  </i>
    <v name="QSPIRAL">      0.00000000      0.00000000      0.00000000</v>
    <i type="logical" name="LZEROZ"> F  </i>
   </separator>
   <separator name="electronic exchange-correlation" >
    <i type="logical" name="LASPH"> T  </i>
   </separator>
   <separator name="electronic convergence" >
    <i type="int" name="NELM">   100</i>
    <i type="int" name="NELMDL">    -5</i>
    <i type="int" name="NELMIN">     2</i>
    <i name="ENINI">    700.00000000</i>
    <separator name="electronic convergence detail" >
     <i type="logical" name="LDIAG"> T  </i>
     <i type="logical" name="LSUBROT"> F  </i>
     <i name="WEIMIN">      0.00000000</i>
     <i name="EBREAK">      0.00000000</i>
     <i name="DEPER">      0.30000000</i>
     <i type="int" name="NRMM">     4</i>
     <i name="TIME">      0.40000000</i>
    </separator>
   </separator>
   <separator name="electronic mixer" >
    <i name="AMIX">      0.60000000</i>
    <i name="BMIX">      1.00000000</i>
    <i name="AMIN">      0.10000000</i>
    <i name="AMIX_MAG">      2.40000000</i>
    <i name="BMIX_MAG">      1.00000000</i>
    <separator name="electronic mixer details" >
     <i type="int" name="IMIX">     4</i>
     <i type="logical" name="MIXFIRST"> F  </i>
     <i type="int" name="MAXMIX">   -45</i>
     <i name="WC">    100.00000000</i>
     <i type="int" name="INIMIX">     1</i>
     <i type="int" name="MIXPRE">     1</i>
     <i type="int" name="MREMOVE">     5</i>
    </separator>
   </separator>
   <separator name="electronic dipolcorrection" >
    <i type="logical" name="LDIPOL"> F  </i>
    <i type="logical" name="LMONO"> F  </i>
    <i type="int" name="IDIPOL">     0</i>
    <i name="EPSILON">      1.00000000</i>
    <v name="DIPOL">   -100.00000000   -100.00000000   -100.00000000</v>
    <i name="EFIELD">      0.00000000</i>
    <i type="logical" name="LVACPOTAV"> F  </i>
   </separator>
  </separator>
  <separator name="grids" >
   <i type="int" name="NGX">   120</i>
   <i type="int" name="NGY">   120</i>
   <i type="int" name="NGZ">    90</i>
   <i type="int" name="NGXF">   240</i>
   <i type="int" name="NGYF">   240</i>
   <i type="int" name="NGZF">   180</i>
   <i type="logical" name="ADDGRID"> T  </i>
  </separator>
  <separator name="ionic" >
   <i type="int" name="NSW">     0</i>
   <i type="int" name="IBRION">    -1</i>
   <i type="int" name="MDALGO">     0</i>
   <i type="int" name="ISIF">     2</i>
   <i name="PSTRESS">      0.00000000</i>
   <i name="EDIFFG">      0.00000100</i>
   <i type="int" name="NFREE">     0</i>
   <i name="POTIM">      0.50000000</i>
   <i name="SMASS">     -3.00000000</i>
   <i name="SCALEE">      1.00000000</i>
  </separator>
  <separator name="ionic md" >
   <i name="TEBEG">      0.00010000</i>
   <i name="TEEND">      0.00010000</i>
   <i type="int" name="NBLOCK">     1</i>
   <i type="int" name="KBLOCK">     1</i>
   <i type="int" name="NPACO">   256</i>
   <i name="APACO">     10.00000000</i>
  </separator>
  <separator name="symmetry" >
   <i type="int" name="ISYM">     2</i>
   <i name="SYMPREC">      0.00001000</i>
  </separator>
  <separator name="dos" >
   <i type="int" name="LORBIT">     0</i>
   <v name="RWIGS">     -1.00000000</v>
   <i type="int" name="NEDOS">   301</i>
   <i name="EMIN">     10.00000000</i>
   <i name="EMAX">    -10.00000000</i>
   <i name="EFERMI">      0.00000000</i>
  </separator>
  <separator name="writing" >
   <i type="int" name="NWRITE">     2</i>
   <i type="logical" name="LWAVE"> F  </i>
   <i type="logical" name="LDOWNSAMPLE"> F  </i>
   <i type="logical" name="LCHARG"> T  </i>
   <i type="logical" name="LPARD"> F  </i>
   <i type="logical" name="LVTOT"> F  </i>
   <i type="logical" name="LVHAR"> T  </i>
   <i type="logical" name="LELF"> F  </i>
   <i type="logical" name="LOPTICS"> F  </i>
   <v name="STM">      0.00000000      0.00000000      0.00000000      0.00000000      0.00000000      0.00000000      0.00000000</v>
  </separator>
  <separator name="performance" >
   <i type="int" name="NPAR">     4</i>
   <i type="int" name="NSIM">     4</i>
   <i type="int" name="NBLK">    -1</i>
   <i type="logical" name="LPLANE"> T  </i>
   <i type="logical" name="LSCALAPACK"> T  </i>
   <i type="logical" name="LSCAAWARE"> F  </i>
   <i type="logical" name="LSCALU"> F  </i>
   <i type="logical" name="LASYNC"> F  </i>
   <i type="logical" name="LORBITALREAL"> F  </i>
  </separator>
  <separator name="miscellaneous" >
   <i type="int" name="IDIOT">     3</i>
   <i type="int" name="PHON_NSTRUCT">    -1</i>
   <i type="logical" name="LMUSIC"> F  </i>
   <v name="POMASS">     72.61000000</v>
   <v name="DARWINR">      0.00000000</v>
   <v name="DARWINV">      1.00000000</v>
   <i type="logical" name="LCORR"> T  </i>
  </separator>
  <i type="logical" name="GGA_COMPAT"> T  </i>
  <i type="logical" name="LBERRY"> F  </i>
  <i type="int" name="ICORELEVEL">     0</i>
  <i type="logical" name="LDAU"> F  </i>
  <i type="int" name="I_CONSTRAINED_M">     0</i>
  <separator name="electronic exchange-correlation" >
   <i type="string" name="GGA    ">PE</i>
   <i type="string" name="XC_C">1</i>
   <i type="int" name="VOSKOWN">     0</i>
   <i type="logical" name="LHFCALC"> F  </i>
   <i type="string" name="PRECFOCK"></i>
   <i type="logical" name="LSYMGRAD"> F  </i>
   <i type="logical" name="LHFONE"> F  </i>
   <i type="logical" name="LRHFCALC"> F  </i>
   <i type="logical" name="LTHOMAS"> F  </i>
   <i type="logical" name="LMODELHF"> F  </i>
   <i type="logical" name="LFOCKACE"> F  </i>
   <i name="ENCUT4O">     -1.00000000</i>
   <i type="int" name="EXXOEP">     0</i>
   <i type="int" name="FOURORBIT">     0</i>
   <i name="AEXX">      0.00000000</i>
   <i name="HFALPHA">      0.00000000</i>
   <i name="MCALPHA">      0.00000000</i>
   <i name="ALDAX">      1.00000000</i>
   <i name="AGGAX">      1.00000000</i>
   <i name="AMGGAX">      1.00000000</i>
   <i name="ALDAC">      1.00000000</i>
   <i name="AGGAC">      1.00000000</i>
   <i name="AMGGAC">      1.00000000</i>
   <i type="int" name="NKREDX">     1</i>
   <i type="int" name="NKREDY">     1</i>
   <i type="int" name="NKREDZ">     1</i>
   <i type="logical" name="SHIFTRED"> F  </i>
   <i type="logical" name="ODDONLY"> F  </i>
   <i type="logical" name="EVENONLY"> F  </i>
   <i type="int" name="LMAXFOCK">     0</i>
   <i type="int" name="NMAXFOCKAE">     0</i>
   <i type="logical" name="LFOCKAEDFT"> F  </i>
   <i name="HFSCREEN">      0.00000000</i>
   <i name="HFSCREENC">      0.00000000</i>
   <i type="int" name="NBANDSGWLOW">     0</i>
  </separator>
  <separator name="vdW DFT" >
   <i type="logical" name="LUSE_VDW"> F  </i>
   <i type="int" name="IVDW_NL">    -1</i>
   <i type="logical" name="LSPIN_VDW"> F  </i>
   <i name="ZAB_VDW">     -0.84910000</i>
   <i name="GAMMA_VDW">      1.39626340</i>
   <i name="ALPHA_VDW">      0.00000000</i>
   <i name="PARAM1">      0.12340000</i>
   <i name="PARAM2">      1.00000000</i>
   <i name="BPARAM">      6.30000000</i>
   <i name="CPARAM">      0.00930000</i>
  </separator>
  <separator name="model GW" >
   <i type="int" name="MODEL_GW">     0</i>
   <i name="MODEL_EPS0">     12.05973140</i>
   <i name="MODEL_ALPHA">      1.00000000</i>
  </separator>
  <separator name="linear response parameters" >
   <i type="logical" name="LEPSILON"> F  </i>
   <i type="logical" name="LRPA"> F  </i>
   <i type="logical" name="LNABLA"> F  </i>
   <i type="logical" name="LVEL"> F  </i>
   <i name="CSHIFT">      0.10000000</i>
   <i name="OMEGAMAX">     -1.00000000</i>
   <i name="DEG_THRESHOLD">      0.00200000</i>
   <i name="RTIME">     -0.10000000</i>
   <i name="WPLASMAI">      0.00000000</i>
   <v name="DFIELD">      0.00000000      0.00000000      0.00000000</v>
   <v name="WPLASMA">      0.00000000      0.00000000      0.00000000      0.00000000      0.00000000      0.00000000      0.00000000      0.00000000      0.00000000</v>
  </separator>
  <separator name="orbital magnetization" >
   <i type="logical" name="NUCIND"> F  </i>
   <v name="MAGPOS">      0.00000000      0.00000000      0.00000000</v>
   <i type="logical" name="LNICSALL"> T  </i>
   <i type="logical" name="ORBITALMAG"> F  </i>
   <i type="logical" name="LMAGBLOCH"> F  </i>
   <i type="logical" name="LCHIMAG"> F  </i>
   <i type="logical" name="LGAUGE"> T  </i>
   <i type="int" name="MAGATOM">     0</i>
   <v name="MAGDIPOL">      0.00000000      0.00000000      0.00000000</v>
   <v name="AVECCONST">      0.00000000      0.00000000      0.00000000</v>
  </separator>
  <separator name="response functions" >
   <i type="logical" name="LALL_IN_ONE"> F  </i>
   <i type="int" name="IALL_IN_ONE">    -1</i>
   <i type="int" name="NBANDS_WAVE">    -1</i>
   <i type="logical" name="LFINITE_TEMPERATURE"> F  </i>
   <i type="logical" name="LADDER"> F  </i>
   <i type="logical" name="LRPAFORCE"> F  </i>
   <i type="logical" name="LFXC"> F  </i>
   <i type="logical" name="LHARTREE"> T  </i>
   <i type="int" name="IBSE">     0</i>
   <v type="int" name="KPOINT">    -1     0     0     0</v>
   <i type="logical" name="LTCTC"> F  </i>
   <i type="logical" name="LTCTE"> F  </i>
   <i type="logical" name="LTETE"> F  </i>
   <i type="logical" name="LTRIPLET"> F  </i>
   <i type="logical" name="LFXCEPS"> F  </i>
   <i type="logical" name="LFXHEG"> F  </i>
   <i type="int" name="NATURALO">     2</i>
   <i type="logical" name="LHOLEGF"> F  </i>
   <i type="logical" name="L2ORDER"> F  </i>
   <i type="logical" name="LDMP1"> F  </i>
   <i type="logical" name="LMP2LT"> F  </i>
   <i type="logical" name="LSMP2LT"> F  </i>
   <i type="logical" name="LGWLF"> F  </i>
   <i name="ENCUTGW">     -1.60000002</i>
   <i name="ENCUTGWSOFT">     -1.60000002</i>
   <i name="ENCUTLF">     -1.00000000</i>
   <i type="logical" name="ESF_SPLINES"> F  </i>
   <i name="ESF_CONV">      0.01000000</i>
   <i type="int" name="ESF_NINTER">    15</i>
   <i type="int" name="LMAXMP2">    -1</i>
   <i name="SCISSOR">      0.00000000</i>
   <i type="int" name="NOMEGA">     0</i>
   <i type="int" name="NOMEGAR">     0</i>
   <i type="int" name="NBANDSGW">    -1</i>
   <i type="int" name="NBANDSO">    -1</i>
   <i type="int" name="NBANDSV">    -1</i>
   <i type="int" name="NELMGW">     1</i>
   <i type="int" name="NELMHF">     1</i>
   <i type="int" name="DIM">     3</i>
   <i type="int" name="IESPILON">     4</i>
   <i type="int" name="ANTIRES">     0</i>
   <i name="OMEGAMAX">    -30.00000000</i>
   <i name="OMEGAMIN">    -30.00000000</i>
   <i name="OMEGATL">   -200.00000000</i>
   <i type="int" name="OMEGAGRID">     0</i>
   <i name="CSHIFT">     -0.10000000</i>
   <i type="logical" name="LSELFENERGY"> F  </i>
   <i type="logical" name="LSPECTRAL"> F  </i>
   <i type="logical" name="LSPECTRALGW"> F  </i>
   <i type="logical" name="LSINGLES"> F  </i>
   <i type="logical" name="LFERMIGW"> F  </i>
   <i type="logical" name="ODDONLYGW"> F  </i>
   <i type="logical" name="EVENONLYGW"> F  </i>
   <i type="int" name="NKREDLFX">     1</i>
   <i type="int" name="NKREDLFY">     1</i>
   <i type="int" name="NKREDLFZ">     1</i>
   <i type="int" name="MAXMEM">  2800</i>
   <i type="int" name="TELESCOPE">     0</i>
   <i type="int" name="NTAUPAR">    -1</i>
   <i type="int" name="NOMEGAPAR">    -1</i>
   <i name="DAMP_NEWTON">      0.80000001</i>
   <i name="LAMBDA">      1.00000000</i>
  </separator>
  <separator name="External order field" >
   <i name="OFIELD_KAPPA">      0.00000000</i>
   <v name="OFIELD_K">      0.00000000      0.00000000      0.00000000</v>
   <i name="OFIELD_Q6_NEAR">      0.00000000</i>
   <i name="OFIELD_Q6_FAR">      0.00000000</i>
   <i name="OFIELD_A">      0.00000000</i>
  </separator>
  <separator name="optional k-points parameters" >
   <i type="int" name="KPOINTS_OPT_MODE">     1</i>
   <i type="logical" name="LKPOINTS_OPT"> F  </i>
  </separator>
 </parameters>
 <atominfo>
  <atoms>      96 </atoms>
  <types>       1 </types>
  <array name="atoms" >
   <dimension dim="1">ion</dimension>
   <field type="string">element</field>
   <field type="int">atomtype</field>
   <set>
    <rc><c>Ge</c><c>   1</c></rc>
    <rc><c>Ge</c><c>   1</c></rc>
    <rc><c>Ge</c><c>   1</c></rc>
    <rc><c>Ge</c><c>   1</c></rc>
    <rc><c>Ge</c><c>   1</c></rc>
    <rc><c>Ge</c><c>   1</c></rc>
    <rc><c>Ge</c><c>   1</c></rc>
    <rc><c>Ge</c><c>   1</c></rc>
    <rc><c>Ge</c><c>   1</c></rc>
    <rc><c>Ge</c><c>   1</c></rc>
    <rc><c>Ge</c><c>   1</c></rc>
    <rc><c>Ge</c><c>   1</c></rc>
    <rc><c>Ge</c><c>   1</c></rc>
    <rc><c>Ge</c><c>   1</c></rc>
    <rc><c>Ge</c><c>   1</c></rc>
    <rc><c>Ge</c><c>   1</c></rc>
    <rc><c>Ge</c><c>   1</c></rc>
    <rc><c>Ge</c><c>   1</c></rc>
    <rc><c>Ge</c><c>   1</c></rc>
    <rc><c>Ge</c><c>   1</c></rc>
    <rc><c>Ge</c><c>   1</c></rc>
    <rc><c>Ge</c><c>   1</c></rc>
    <rc><c>Ge</c><c>   1</c></rc>
    <rc><c>Ge</c><c>   1</c></rc>
    <rc><c>Ge</c><c>   1</c></rc>
    <rc><c>Ge</c><c>   1</c></rc>
    <rc><c>Ge</c><c>   1</c></rc>
    <rc><c>Ge</c><c>   1</c></rc>
    <rc><c>Ge</c><c>   1</c></rc>
    <rc><c>Ge</c><c>   1</c></rc>
    <rc><c>Ge</c><c>   1</c></rc>
    <rc><c>Ge</c><c>   1</c></rc>
    <rc><c>Ge</c><c>   1</c></rc>
    <rc><c>Ge</c><c>   1</c></rc>
    <rc><c>Ge</c><c>   1</c></rc>
    <rc><c>Ge</c><c>   1</c></rc>
    <rc><c>Ge</c><c>   1</c></rc>
    <rc><c>Ge</c><c>   1</c></rc>
    <rc><c>Ge</c><c>   1</c></rc>
    <rc><c>Ge</c><c>   1</c></rc>
    <rc><c>Ge</c><c>   1</c></rc>
    <rc><c>Ge</c><c>   1</c></rc>
    <rc><c>Ge</c><c>   1</c></rc>
    <rc><c>Ge</c><c>   1</c></rc>
    <rc><c>Ge</c><c>   1</c></rc>
    <rc><c>Ge</c><c>   1</c></rc>
    <rc><c>Ge</c><c>   1</c></rc>
    <rc><c>Ge</c><c>   1</c></rc>
    <rc><c>Ge</c><c>   1</c></rc>
    <rc><c>Ge</c><c>   1</c></rc>
    <rc><c>Ge</c><c>   1</c></rc>
    <rc><c>Ge</c><c>   1</c></rc>
    <rc><c>Ge</c><c>   1</c></rc>
    <rc><c>Ge</c><c>   1</c></rc>
    <rc><c>Ge</c><c>   1</c></rc>
    <rc><c>Ge</c><c>   1</c></rc>
    <rc><c>Ge</c><c>   1</c></rc>
    <rc><c>Ge</c><c>   1</c></rc>
    <rc><c>Ge</c><c>   1</c></rc>
    <rc><c>Ge</c><c>   1</c></rc>
    <rc><c>Ge</c><c>   1</c></rc>
    <rc><c>Ge</c><c>   1</c></rc>
    <rc><c>Ge</c><c>   1</c></rc>
    <rc><c>Ge</c><c>   1</c></rc>
    <rc><c>Ge</c><c>   1</c></rc>
    <rc><c>Ge</c><c>   1</c></rc>
    <rc><c>Ge</c><c>   1</c></rc>
    <rc><c>Ge</c><c>   1</c></rc>
    <rc><c>Ge</c><c>   1</c></rc>
    <rc><c>Ge</c><c>   1</c></rc>
    <rc><c>Ge</c><c>   1</c></rc>
    <rc><c>Ge</c><c>   1</c></rc>
    <rc><c>Ge</c><c>   1</c></rc>
    <rc><c>Ge</c><c>   1</c></rc>
    <rc><c>Ge</c><c>   1</c></rc>
    <rc><c>Ge</c><c>   1</c></rc>
    <rc><c>Ge</c><c>   1</c></rc>
    <rc><c>Ge</c><c>   1</c></rc>
    <rc><c>Ge</c><c>   1</c></rc>
    <rc><c>Ge</c><c>   1</c></rc>
    <rc><c>Ge</c><c>   1</c></rc>
    <rc><c>Ge</c><c>   1</c></rc>
    <rc><c>Ge</c><c>   1</c></rc>
    <rc><c>Ge</c><c>   1</c></rc>
    <rc><c>Ge</c><c>   1</c></rc>
    <rc><c>Ge</c><c>   1</c></rc>
    <rc><c>Ge</c><c>   1</c></rc>
    <rc><c>Ge</c><c>   1</c></rc>
    <rc><c>Ge</c><c>   1</c></rc>
    <rc><c>Ge</c><c>   1</c></rc>
    <rc><c>Ge</c><c>   1</c></rc>
    <rc><c>Ge</c><c>   1</c></rc>
    <rc><c>Ge</c><c>   1</c></rc>
    <rc><c>Ge</c><c>   1</c></rc>
    <rc><c>Ge</c><c>   1</c></rc>
    <rc><c>Ge</c><c>   1</c></rc>
   </set>
  </array>
  <array name="atomtypes" >
   <dimension dim="1">type</dimension>
   <field type="int">atomspertype</field>
   <field type="string">element</field>
   <field>mass</field>
   <field>valence</field>
   <field type="string">pseudopotential</field>
   <set>
    <rc><c>  96</c><c>Ge</c><c>     72.61000000</c><c>      4.00000000</c><c>  PAW_PBE Ge 05Jan2001                  </c></rc>
   </set>
  </array>
 </atominfo>
 <structure name="initialpos" >
  <crystal>
   <varray name="basis" >
    <v>      17.89153480       0.00000000       0.00000000 </v>
    <v>     -16.10238075       7.79873943       0.00000000 </v>
    <v>       0.00000028      -0.00000006      13.82883549 </v>
   </varray>
   <i name="volume">   1929.55702480 </i>
   <varray name="rec_basis" >
    <v>       0.05589235       0.11540326      -0.00000000 </v>
    <v>       0.00000000       0.12822585       0.00000000 </v>
    <v>       0.00000000       0.00000000       0.07231267 </v>
   </varray>
  </crystal>
  <varray name="positions" >
   <v>       0.81228745       0.18771255       0.46930525 </v>
   <v>       0.02281332       0.97718668       0.00000001 </v>
   <v>       0.18070815       0.81929183       0.09386106 </v>
   <v>       0.33860299       0.66139698       0.18772212 </v>
   <v>       0.49649781       0.50350219       0.28158316 </v>
   <v>       0.65439260       0.34560740       0.37544423 </v>
   <v>       0.10176122       0.89823884       0.49277046 </v>
   <v>       0.31228706       0.68771291       0.02346529 </v>
   <v>       0.47018188       0.52981806       0.11732632 </v>
   <v>       0.62807673       0.37192327       0.21118741 </v>
   <v>       0.78597158       0.21402840       0.30504847 </v>
   <v>       0.94386643       0.05613355       0.39890954 </v>
   <v>       0.31228733       0.68771261       0.46930522 </v>
   <v>       0.52281326       0.47718665       0.00000000 </v>
   <v>       0.68070811       0.31929183       0.09386105 </v>
   <v>       0.83860296       0.16139701       0.18772209 </v>
   <v>       0.99649781       0.00350215       0.28158313 </v>
   <v>       0.15439260       0.84560740       0.37544423 </v>
   <v>       0.60176122       0.39823884       0.49277067 </v>
   <v>       0.81228709       0.18771291       0.02346546 </v>
   <v>       0.97018182       0.02981813       0.11732645 </v>
   <v>       0.12807667       0.87192327       0.21118759 </v>
   <v>       0.28597152       0.71402836       0.30504861 </v>
   <v>       0.44386637       0.55613363       0.39890966 </v>
   <v>       0.31228745       0.18771249       0.46930528 </v>
   <v>       0.52281326       0.97718668       0.00000001 </v>
   <v>       0.68070811       0.81929189       0.09386105 </v>
   <v>       0.83860296       0.66139704       0.18772209 </v>
   <v>       0.99649775       0.50350225       0.28158313 </v>
   <v>       0.15439260       0.34560740       0.37544423 </v>
   <v>       0.60176146       0.89823872       0.49277064 </v>
   <v>       0.81228727       0.68771285       0.02346543 </v>
   <v>       0.97018212       0.52981806       0.11732648 </v>
   <v>       0.12807691       0.37192324       0.21118751 </v>
   <v>       0.28597176       0.21402839       0.30504861 </v>
   <v>       0.44386673       0.05613352       0.39890963 </v>
   <v>       0.81228751       0.68771249       0.46930525 </v>
   <v>       0.02281339       0.47718665       0.00000001 </v>
   <v>       0.18070820       0.31929183       0.09386104 </v>
   <v>       0.33860305       0.16139698       0.18772212 </v>
   <v>       0.49649784       0.00350219       0.28158313 </v>
   <v>       0.65439266       0.84560734       0.37544423 </v>
   <v>       0.10176122       0.39823878       0.49277067 </v>
   <v>       0.31228706       0.18771288       0.02346545 </v>
   <v>       0.47018188       0.02981809       0.11732648 </v>
   <v>       0.62807673       0.87192327       0.21118756 </v>
   <v>       0.78597152       0.71402842       0.30504861 </v>
   <v>       0.94386637       0.55613351       0.39890966 </v>
   <v>       0.97520858       0.44613951       0.96930522 </v>
   <v>       0.18573467       0.23561359       0.49999994 </v>
   <v>       0.34362948       0.07771873       0.59386104 </v>
   <v>       0.50152427       0.91982394       0.68772209 </v>
   <v>       0.65941900       0.76192909       0.78158313 </v>
   <v>       0.81731385       0.60403425       0.87544423 </v>
   <v>       0.26468235       0.15666580       0.99277061 </v>
   <v>       0.47520840       0.94613987       0.52346528 </v>
   <v>       0.63310319       0.78824508       0.61732626 </v>
   <v>       0.79099798       0.63035017       0.71118736 </v>
   <v>       0.94889283       0.47245532       0.80504847 </v>
   <v>       0.10678756       0.31456047       0.89890951 </v>
   <v>       0.47520846       0.94613951       0.96930522 </v>
   <v>       0.68573463       0.73561359       0.49999994 </v>
   <v>       0.84362942       0.57771879       0.59386092 </v>
   <v>       0.00152421       0.41982392       0.68772209 </v>
   <v>       0.15941894       0.26192909       0.78158313 </v>
   <v>       0.31731373       0.10403419       0.87544411 </v>
   <v>       0.76468235       0.65666568       0.99277073 </v>
   <v>       0.97520840       0.44613990       0.52346540 </v>
   <v>       0.13310313       0.28824505       0.61732644 </v>
   <v>       0.29099804       0.13035023       0.71118742 </v>
   <v>       0.44889277       0.97245538       0.80504859 </v>
   <v>       0.60678762       0.81456047       0.89890963 </v>
   <v>       0.97520864       0.94613940       0.96930510 </v>
   <v>       0.18573475       0.73561359       0.49999994 </v>
   <v>       0.34362951       0.57771873       0.59386092 </v>
   <v>       0.50152433       0.41982388       0.68772209 </v>
   <v>       0.65941906       0.26192909       0.78158313 </v>
   <v>       0.81731391       0.10403419       0.87544423 </v>
   <v>       0.26468235       0.65666562       0.99277073 </v>
   <v>       0.47520840       0.44613984       0.52346540 </v>
   <v>       0.63310319       0.28824502       0.61732644 </v>
   <v>       0.79099798       0.13035011       0.71118748 </v>
   <v>       0.94889277       0.97245538       0.80504852 </v>
   <v>       0.10678756       0.81456047       0.89890963 </v>
   <v>       0.47520858       0.44613946       0.96930510 </v>
   <v>       0.68573463       0.23561359       0.49999994 </v>
   <v>       0.84362942       0.07771873       0.59386104 </v>
   <v>       0.00152421       0.91982394       0.68772209 </v>
   <v>       0.15941894       0.76192921       0.78158313 </v>
   <v>       0.31731373       0.60403430       0.87544411 </v>
   <v>       0.76468259       0.15666556       0.99277073 </v>
   <v>       0.97520870       0.94613981       0.52346540 </v>
   <v>       0.13310337       0.78824496       0.61732644 </v>
   <v>       0.29099828       0.63035011       0.71118742 </v>
   <v>       0.44889301       0.47245532       0.80504852 </v>
   <v>       0.60678786       0.31456041       0.89890963 </v>
  </varray>
 </structure>
 <calculation>
  <scstep>
   <time name="dav">   64.64   65.32</time>
   <time name="total">   66.76   67.46</time>
   <energy>
    <i name="alphaZ">    912.89109449 </i>
    <i name="ewald">  -8628.64802266 </i>
    <i name="hartreedc">  -1087.40499270 </i>
    <i name="XCdc">   -730.67614939 </i>
    <i name="pawpsdc">   8461.93788731 </i>
    <i name="pawaedc">  -7071.13096423 </i>
    <i name="eentropy">     -0.00070491 </i>
    <i name="bandstr">   1794.57897990 </i>
    <i name="atom">  10079.60734648 </i>
    <i name="e_fr_energy">   3731.15447430 </i>
    <i name="e_wo_entrp">   3731.15517920 </i>
    <i name="e_0_energy">   3731.15482675 </i>
   </energy>
  </scstep>
  <scstep>
   <time name="dav">   72.59   73.36</time>
   <time name="total">   72.59   73.36</time>
   <energy>
    <i name="e_fr_energy">   1600.33196128 </i>
    <i name="e_wo_entrp">   1600.33319809 </i>
    <i name="e_0_energy">   1600.33257968 </i>
   </energy>
  </scstep>
  <scstep>
   <time name="dav">   75.56   76.36</time>
   <time name="total">   75.57   76.36</time>
   <energy>
    <i name="e_fr_energy">   1383.04855484 </i>
    <i name="e_wo_entrp">   1383.05017742 </i>
    <i name="e_0_energy">   1383.04936613 </i>
   </energy>
  </scstep>
  <scstep>
   <time name="dav">   73.56   74.33</time>
   <time name="total">   73.56   74.33</time>
   <energy>
    <i name="e_fr_energy">   1374.36008055 </i>
    <i name="e_wo_entrp">   1374.36234700 </i>
    <i name="e_0_energy">   1374.36121377 </i>
   </energy>
  </scstep>
  <scstep>
   <time name="dav">   77.71   78.53</time>
   <time name="total">   82.51   83.39</time>
   <energy>
    <i name="e_fr_energy">   1374.03361077 </i>
    <i name="e_wo_entrp">   1374.03591715 </i>
    <i name="e_0_energy">   1374.03476396 </i>
   </energy>
  </scstep>
  <scstep>
   <time name="dav">   76.28   77.08</time>
   <time name="total">   83.17   84.03</time>
   <energy>
    <i name="e_fr_energy">   1398.40651929 </i>
    <i name="e_wo_entrp">   1398.40841578 </i>
    <i name="e_0_energy">   1398.40746754 </i>
   </energy>
  </scstep>
  <scstep>
   <time name="dav">   94.42   95.59</time>
   <time name="total">  101.32  102.56</time>
   <energy>
    <i name="e_fr_energy">   1364.61990496 </i>
    <i name="e_wo_entrp">   1364.62121393 </i>
    <i name="e_0_energy">   1364.62055944 </i>
   </energy>
  </scstep>
  <scstep>
   <time name="dav">   91.37   92.49</time>
   <time name="total">   98.27   99.46</time>
   <energy>
    <i name="e_fr_energy">   1414.95219213 </i>
    <i name="e_wo_entrp">   1414.95406427 </i>
    <i name="e_0_energy">   1414.95312820 </i>
   </energy>
  </scstep>
  <scstep>
   <time name="dav">   71.72   72.48</time>
   <time name="total">   78.62   79.44</time>
   <energy>
    <i name="e_fr_energy">   1411.94555935 </i>
    <i name="e_wo_entrp">   1411.94770519 </i>
    <i name="e_0_energy">   1411.94663227 </i>
   </energy>
  </scstep>
  <scstep>
   <time name="dav">   73.29   74.05</time>
   <time name="total">   80.20   81.02</time>
   <energy>
    <i name="e_fr_energy">   1412.09947568 </i>
    <i name="e_wo_entrp">   1412.10213678 </i>
    <i name="e_0_energy">   1412.10080623 </i>
   </energy>
  </scstep>
  <scstep>
   <time name="dav">   71.34   72.07</time>
   <time name="total">   78.24   79.04</time>
   <energy>
    <i name="e_fr_energy">   1412.34661315 </i>
    <i name="e_wo_entrp">   1412.34910237 </i>
    <i name="e_0_energy">   1412.34785776 </i>
   </energy>
  </scstep>
  <scstep>
   <time name="dav">   71.55   72.42</time>
   <time name="total">   78.42   79.37</time>
   <energy>
    <i name="e_fr_energy">   1412.45072185 </i>
    <i name="e_wo_entrp">   1412.45296574 </i>
    <i name="e_0_energy">   1412.45184380 </i>
   </energy>
  </scstep>
  <scstep>
   <time name="dav">   70.85   71.71</time>
   <time name="total">   77.72   78.66</time>
   <energy>
    <i name="e_fr_energy">   1412.45566822 </i>
    <i name="e_wo_entrp">   1412.45767816 </i>
    <i name="e_0_energy">   1412.45667319 </i>
   </energy>
  </scstep>
  <scstep>
   <time name="dav">   73.40   74.29</time>
   <time name="total">   80.29   81.26</time>
   <energy>
    <i name="e_fr_energy">   1412.45763236 </i>
    <i name="e_wo_entrp">   1412.45959584 </i>
    <i name="e_0_energy">   1412.45861410 </i>
   </energy>
  </scstep>
  <scstep>
   <time name="dav">   72.02   72.90</time>
   <time name="total">   78.89   79.85</time>
   <energy>
    <i name="e_fr_energy">   1412.45776270 </i>
    <i name="e_wo_entrp">   1412.45971955 </i>
    <i name="e_0_energy">   1412.45874113 </i>
   </energy>
  </scstep>
  <scstep>
   <time name="dav">   71.41   72.28</time>
   <time name="total">   78.31   79.25</time>
   <energy>
    <i name="e_fr_energy">   1412.45821437 </i>
    <i name="e_wo_entrp">   1412.46015032 </i>
    <i name="e_0_energy">   1412.45918234 </i>
   </energy>
  </scstep>
  <scstep>
   <time name="dav">   74.66   75.57</time>
   <time name="total">   81.59   82.57</time>
   <energy>
    <i name="e_fr_energy">   1412.45811567 </i>
    <i name="e_wo_entrp">   1412.46004548 </i>
    <i name="e_0_energy">   1412.45908058 </i>
   </energy>
  </scstep>
  <scstep>
   <time name="dav">   72.20   73.08</time>
   <time name="total">   79.11   80.06</time>
   <energy>
    <i name="e_fr_energy">   1412.45815205 </i>
    <i name="e_wo_entrp">   1412.46008229 </i>
    <i name="e_0_energy">   1412.45911717 </i>
   </energy>
  </scstep>
  <scstep>
   <time name="dav">   71.73   72.95</time>
   <time name="total">   78.64   79.92</time>
   <energy>
    <i name="e_fr_energy">   1412.45816361 </i>
    <i name="e_wo_entrp">   1412.46009458 </i>
    <i name="e_0_energy">   1412.45912910 </i>
   </energy>
  </scstep>
  <scstep>
   <time name="dav">   76.51   77.45</time>
   <time name="total">   83.42   84.43</time>
   <energy>
    <i name="e_fr_energy">   1412.45816393 </i>
    <i name="e_wo_entrp">   1412.46009462 </i>
    <i name="e_0_energy">   1412.45912927 </i>
   </energy>
  </scstep>
  <scstep>
   <time name="dav">   73.56   74.33</time>
   <time name="total">   80.49   81.32</time>
   <energy>
    <i name="e_fr_energy">   1412.45816428 </i>
    <i name="e_wo_entrp">   1412.46009498 </i>
    <i name="e_0_energy">   1412.45912963 </i>
   </energy>
  </scstep>
  <scstep>
   <time name="dav">   60.39   61.01</time>
   <time name="total">   67.30   67.98</time>
   <energy>
    <i name="e_fr_energy">   1412.45816408 </i>
    <i name="e_wo_entrp">   1412.46009480 </i>
    <i name="e_0_energy">   1412.45912944 </i>
   </energy>
  </scstep>
  <scstep>
   <time name="dav">   66.29   66.97</time>
   <time name="total">   73.20   73.94</time>
   <energy>
    <i name="e_fr_energy">   1412.45816350 </i>
    <i name="e_wo_entrp">   1412.46009412 </i>
    <i name="e_0_energy">   1412.45912881 </i>
   </energy>
  </scstep>
  <scstep>
   <time name="dav">   46.26   46.75</time>
   <time name="total">   53.17   53.71</time>
   <energy>
    <i name="e_fr_energy">   1412.45816331 </i>
    <i name="e_wo_entrp">   1412.46009392 </i>
    <i name="e_0_energy">   1412.45912862 </i>
   </energy>
  </scstep>
  <scstep>
   <time name="dav">   45.10   45.57</time>
   <time name="total">   47.20   47.69</time>
   <energy>
    <i name="alphaZ">    912.89109449 </i>
    <i name="ewald">  -8628.64802266 </i>
    <i name="hartreedc">  -1168.40736128 </i>
    <i name="XCdc">   -698.67251798 </i>
    <i name="pawpsdc">  49966.26636340 </i>
    <i name="pawaedc"> -48633.93336683 </i>
    <i name="eentropy">     -0.00193065 </i>
    <i name="bandstr">   -416.64344167 </i>
    <i name="atom">  10079.60734648 </i>
    <i name="e_fr_energy">   1412.45816329 </i>
    <i name="e_wo_entrp">   1412.46009395 </i>
    <i name="e_0_energy">   1412.45912862 </i>
   </energy>
  </scstep>
  <structure>
   <crystal>
    <varray name="basis" >
     <v>      17.89153480       0.00000000       0.00000000 </v>
     <v>     -16.10238075       7.79873943       0.00000000 </v>
     <v>       0.00000028      -0.00000006      13.82883549 </v>
    </varray>
    <i name="volume">   1929.55702480 </i>
    <varray name="rec_basis" >
     <v>       0.05589235       0.11540326      -0.00000000 </v>
     <v>       0.00000000       0.12822585       0.00000000 </v>
     <v>       0.00000000       0.00000000       0.07231267 </v>
    </varray>
   </crystal>
   <varray name="positions" >
    <v>       0.81228745       0.18771255       0.46930525 </v>
    <v>       0.02281332       0.97718668       0.00000001 </v>
    <v>       0.18070815       0.81929183       0.09386106 </v>
    <v>       0.33860299       0.66139698       0.18772212 </v>
    <v>       0.49649781       0.50350219       0.28158316 </v>
    <v>       0.65439260       0.34560740       0.37544423 </v>
    <v>       0.10176122       0.89823884       0.49277046 </v>
    <v>       0.31228706       0.68771291       0.02346529 </v>
    <v>       0.47018188       0.52981806       0.11732632 </v>
    <v>       0.62807673       0.37192327       0.21118741 </v>
    <v>       0.78597158       0.21402840       0.30504847 </v>
    <v>       0.94386643       0.05613355       0.39890954 </v>
    <v>       0.31228733       0.68771261       0.46930522 </v>
    <v>       0.52281326       0.47718665       0.00000000 </v>
    <v>       0.68070811       0.31929183       0.09386105 </v>
    <v>       0.83860296       0.16139701       0.18772209 </v>
    <v>       0.99649781       0.00350215       0.28158313 </v>
    <v>       0.15439260       0.84560740       0.37544423 </v>
    <v>       0.60176122       0.39823884       0.49277067 </v>
    <v>       0.81228709       0.18771291       0.02346546 </v>
    <v>       0.97018182       0.02981813       0.11732645 </v>
    <v>       0.12807667       0.87192327       0.21118759 </v>
    <v>       0.28597152       0.71402836       0.30504861 </v>
    <v>       0.44386637       0.55613363       0.39890966 </v>
    <v>       0.31228745       0.18771249       0.46930528 </v>
    <v>       0.52281326       0.97718668       0.00000001 </v>
    <v>       0.68070811       0.81929189       0.09386105 </v>
    <v>       0.83860296       0.66139704       0.18772209 </v>
    <v>       0.99649775       0.50350225       0.28158313 </v>
    <v>       0.15439260       0.34560740       0.37544423 </v>
    <v>       0.60176146       0.89823872       0.49277064 </v>
    <v>       0.81228727       0.68771285       0.02346543 </v>
    <v>       0.97018212       0.52981806       0.11732648 </v>
    <v>       0.12807691       0.37192324       0.21118751 </v>
    <v>       0.28597176       0.21402839       0.30504861 </v>
    <v>       0.44386673       0.05613352       0.39890963 </v>
    <v>       0.81228751       0.68771249       0.46930525 </v>
    <v>       0.02281339       0.47718665       0.00000001 </v>
    <v>       0.18070820       0.31929183       0.09386104 </v>
    <v>       0.33860305       0.16139698       0.18772212 </v>
    <v>       0.49649784       0.00350219       0.28158313 </v>
    <v>       0.65439266       0.84560734       0.37544423 </v>
    <v>       0.10176122       0.39823878       0.49277067 </v>
    <v>       0.31228706       0.18771288       0.02346545 </v>
    <v>       0.47018188       0.02981809       0.11732648 </v>
    <v>       0.62807673       0.87192327       0.21118756 </v>
    <v>       0.78597152       0.71402842       0.30504861 </v>
    <v>       0.94386637       0.55613351       0.39890966 </v>
    <v>       0.97520858       0.44613951       0.96930522 </v>
    <v>       0.18573467       0.23561359       0.49999994 </v>
    <v>       0.34362948       0.07771873       0.59386104 </v>
    <v>       0.50152427       0.91982394       0.68772209 </v>
    <v>       0.65941900       0.76192909       0.78158313 </v>
    <v>       0.81731385       0.60403425       0.87544423 </v>
    <v>       0.26468235       0.15666580       0.99277061 </v>
    <v>       0.47520840       0.94613987       0.52346528 </v>
    <v>       0.63310319       0.78824508       0.61732626 </v>
    <v>       0.79099798       0.63035017       0.71118736 </v>
    <v>       0.94889283       0.47245532       0.80504847 </v>
    <v>       0.10678756       0.31456047       0.89890951 </v>
    <v>       0.47520846       0.94613951       0.96930522 </v>
    <v>       0.68573463       0.73561359       0.49999994 </v>
    <v>       0.84362942       0.57771879       0.59386092 </v>
    <v>       0.00152421       0.41982392       0.68772209 </v>
    <v>       0.15941894       0.26192909       0.78158313 </v>
    <v>       0.31731373       0.10403419       0.87544411 </v>
    <v>       0.76468235       0.65666568       0.99277073 </v>
    <v>       0.97520840       0.44613990       0.52346540 </v>
    <v>       0.13310313       0.28824505       0.61732644 </v>
    <v>       0.29099804       0.13035023       0.71118742 </v>
    <v>       0.44889277       0.97245538       0.80504859 </v>
    <v>       0.60678762       0.81456047       0.89890963 </v>
    <v>       0.97520864       0.94613940       0.96930510 </v>
    <v>       0.18573475       0.73561359       0.49999994 </v>
    <v>       0.34362951       0.57771873       0.59386092 </v>
    <v>       0.50152433       0.41982388       0.68772209 </v>
    <v>       0.65941906       0.26192909       0.78158313 </v>
    <v>       0.81731391       0.10403419       0.87544423 </v>
    <v>       0.26468235       0.65666562       0.99277073 </v>
    <v>       0.47520840       0.44613984       0.52346540 </v>
    <v>       0.63310319       0.28824502       0.61732644 </v>
    <v>       0.79099798       0.13035011       0.71118748 </v>
    <v>       0.94889277       0.97245538       0.80504852 </v>
    <v>       0.10678756       0.81456047       0.89890963 </v>
    <v>       0.47520858       0.44613946       0.96930510 </v>
    <v>       0.68573463       0.23561359       0.49999994 </v>
    <v>       0.84362942       0.07771873       0.59386104 </v>
    <v>       0.00152421       0.91982394       0.68772209 </v>
    <v>       0.15941894       0.76192921       0.78158313 </v>
    <v>       0.31731373       0.60403430       0.87544411 </v>
    <v>       0.76468259       0.15666556       0.99277073 </v>
    <v>       0.97520870       0.94613981       0.52346540 </v>
    <v>       0.13310337       0.78824496       0.61732644 </v>
    <v>       0.29099828       0.63035011       0.71118742 </v>
    <v>       0.44889301       0.47245532       0.80504852 </v>
    <v>       0.60678786       0.31456041       0.89890963 </v>
   </varray>
  </structure>
  <varray name="forces" >
   <v>      -0.55936722      -0.18535794      -0.61688629 </v>
   <v>     347.29900875     238.56356693     425.95472848 </v>
   <v>      -0.87931045      -0.07008067      -1.31595137 </v>
   <v>       0.31292317      -0.15880936       0.13396890 </v>
   <v>       0.23870066      -0.17704634      -0.21241936 </v>
   <v>      -0.65024439       0.11940249      -0.64560033 </v>
   <v>       0.43730243      -0.34858115      -0.52593932 </v>
   <v>     355.18404701     243.06413475     426.99607914 </v>
   <v>      -1.16136184       0.40890649       0.48541741 </v>
   <v>       0.02932702       0.11018971      -0.18451888 </v>
   <v>      -0.19944512       0.09236990      -0.41940256 </v>
   <v>      -0.25652454      -0.21320480      -0.91223529 </v>
   <v>      -0.55936722      -0.18535794      -0.61688629 </v>
   <v>     347.29900875     238.56356693     425.95472848 </v>
   <v>      -0.87931045      -0.07008067      -1.31595137 </v>
   <v>       0.31292317      -0.15880936       0.13396890 </v>
   <v>       0.23870066      -0.17704634      -0.21241936 </v>
   <v>      -0.65024439       0.11940249      -0.64560033 </v>
   <v>       0.43730243      -0.34858115      -0.52593932 </v>
   <v>     355.18404701     243.06413475     426.99607914 </v>
   <v>      -1.16136184       0.40890649       0.48541741 </v>
   <v>       0.02932702       0.11018971      -0.18451888 </v>
   <v>      -0.19944512       0.09236990      -0.41940256 </v>
   <v>      -0.25652454      -0.21320480      -0.91223529 </v>
   <v>      -0.55936722      -0.18535794      -0.61688629 </v>
   <v>     347.29900875     238.56356693     425.95472848 </v>
   <v>      -0.87931045      -0.07008067      -1.31595137 </v>
   <v>       0.31292317      -0.15880936       0.13396890 </v>
   <v>       0.23870066      -0.17704634      -0.21241936 </v>
   <v>      -0.65024439       0.11940249      -0.64560033 </v>
   <v>       0.43730243      -0.34858115      -0.52593932 </v>
   <v>     355.18404701     243.06413475     426.99607914 </v>
   <v>      -1.16136184       0.40890649       0.48541741 </v>
   <v>       0.02932702       0.11018971      -0.18451888 </v>
   <v>      -0.19944512       0.09236990      -0.41940256 </v>
   <v>      -0.25652454      -0.21320480      -0.91223529 </v>
   <v>      -0.55936722      -0.18535794      -0.61688629 </v>
   <v>     347.29900875     238.56356693     425.95472848 </v>
   <v>      -0.87931045      -0.07008067      -1.31595137 </v>
   <v>       0.31292317      -0.15880936       0.13396890 </v>
   <v>       0.23870066      -0.17704634      -0.21241936 </v>
   <v>      -0.65024439       0.11940249      -0.64560033 </v>
   <v>       0.43730243      -0.34858115      -0.52593932 </v>
   <v>     355.18404701     243.06413475     426.99607914 </v>
   <v>      -1.16136184       0.40890649       0.48541741 </v>
   <v>       0.02932702       0.11018971      -0.18451888 </v>
   <v>      -0.19944512       0.09236990      -0.41940256 </v>
   <v>      -0.25652454      -0.21320480      -0.91223529 </v>
   <v>    -355.18404701    -243.06413475    -426.99607914 </v>
   <v>      -0.43730243       0.34858115       0.52593932 </v>
   <v>       0.25652454       0.21320480       0.91223529 </v>
   <v>       0.19944512      -0.09236990       0.41940256 </v>
   <v>      -0.02932702      -0.11018971       0.18451888 </v>
   <v>       1.16136184      -0.40890649      -0.48541741 </v>
   <v>    -347.29900875    -238.56356693    -425.95472848 </v>
   <v>       0.55936722       0.18535794       0.61688629 </v>
   <v>       0.65024439      -0.11940249       0.64560033 </v>
   <v>      -0.23870066       0.17704634       0.21241936 </v>
   <v>      -0.31292317       0.15880936      -0.13396890 </v>
   <v>       0.87931045       0.07008067       1.31595137 </v>
   <v>    -355.18404701    -243.06413475    -426.99607914 </v>
   <v>      -0.43730243       0.34858115       0.52593932 </v>
   <v>       0.25652454       0.21320480       0.91223529 </v>
   <v>       0.19944512      -0.09236990       0.41940256 </v>
   <v>      -0.02932702      -0.11018971       0.18451888 </v>
   <v>       1.16136184      -0.40890649      -0.48541741 </v>
   <v>    -347.29900875    -238.56356693    -425.95472848 </v>
   <v>       0.55936722       0.18535794       0.61688629 </v>
   <v>       0.65024439      -0.11940249       0.64560033 </v>
   <v>      -0.23870066       0.17704634       0.21241936 </v>
   <v>      -0.31292317       0.15880936      -0.13396890 </v>
   <v>       0.87931045       0.07008067       1.31595137 </v>
   <v>    -355.18404701    -243.06413475    -426.99607914 </v>
   <v>      -0.43730243       0.34858115       0.52593932 </v>
   <v>       0.25652454       0.21320480       0.91223529 </v>
   <v>       0.19944512      -0.09236990       0.41940256 </v>
   <v>      -0.02932702      -0.11018971       0.18451888 </v>
   <v>       1.16136184      -0.40890649      -0.48541741 </v>
   <v>    -347.29900875    -238.56356693    -425.95472848 </v>
   <v>       0.55936722       0.18535794       0.61688629 </v>
   <v>       0.65024439      -0.11940249       0.64560033 </v>
   <v>      -0.23870066       0.17704634       0.21241936 </v>
   <v>      -0.31292317       0.15880936      -0.13396890 </v>
   <v>       0.87931045       0.07008067       1.31595137 </v>
   <v>    -355.18404701    -243.06413475    -426.99607914 </v>
   <v>      -0.43730243       0.34858115       0.52593932 </v>
   <v>       0.25652454       0.21320480       0.91223529 </v>
   <v>       0.19944512      -0.09236990       0.41940256 </v>
   <v>      -0.02932702      -0.11018971       0.18451888 </v>
   <v>       1.16136184      -0.40890649      -0.48541741 </v>
   <v>    -347.29900875    -238.56356693    -425.95472848 </v>
   <v>       0.55936722       0.18535794       0.61688629 </v>
   <v>       0.65024439      -0.11940249       0.64560033 </v>
   <v>      -0.23870066       0.17704634       0.21241936 </v>
   <v>      -0.31292317       0.15880936      -0.13396890 </v>
   <v>       0.87931045       0.07008067       1.31595137 </v>
  </varray>
  <varray name="stress" >
   <v>     976.26904511     584.92358383     999.40565097 </v>
   <v>     584.92363650     537.76987277     682.38094584 </v>
   <v>     999.40558618     682.38083335    1288.11488315 </v>
  </varray>
  <energy>
   <i name="e_fr_energy">   1412.45816329 </i>
   <i name="e_wo_entrp">   1412.46009395 </i>
   <i name="e_0_energy">   1412.45912862 </i>
  </energy>
  <time name="totalsc"> 2043.41 2067.56</time>
  <eigenvalues>
   <array>
    <dimension dim="1">band</dimension>
    <dimension dim="2">kpoint</dimension>
    <dimension dim="3">spin</dimension>
    <field>eigene</field>
    <field>occ</field>
    <set>
     <set comment="spin 1">
      <set comment="kpoint 1">
       <r>   -9.2324    1.0000 </r>
       <r>   -9.2040    1.0000 </r>
       <r>   -8.7292    1.0000 </r>
       <r>   -8.3091    1.0000 </r>
       <r>   -8.2913    1.0000 </r>
       <r>   -8.0801    1.0000 </r>
       <r>   -8.0796    1.0000 </r>
       <r>   -7.6060    1.0000 </r>
       <r>   -7.4506    1.0000 </r>
       <r>   -7.4489    1.0000 </r>
       <r>   -7.2500    1.0000 </r>
       <r>   -7.1323    1.0000 </r>
       <r>   -7.0566    1.0000 </r>
       <r>   -6.9543    1.0000 </r>
       <r>   -6.9443    1.0000 </r>
       <r>   -6.8472    1.0000 </r>
       <r>   -6.6848    1.0000 </r>
       <r>   -6.6828    1.0000 </r>
       <r>   -6.6276    1.0000 </r>
       <r>   -6.4104    1.0000 </r>
       <r>   -6.3948    1.0000 </r>
       <r>   -6.3671    1.0000 </r>
       <r>   -6.2341    1.0000 </r>
       <r>   -6.1777    1.0000 </r>
       <r>   -5.9957    1.0000 </r>
       <r>   -5.9233    1.0000 </r>
       <r>   -5.9045    1.0000 </r>
       <r>   -5.8880    1.0000 </r>
       <r>   -5.8214    1.0000 </r>
       <r>   -5.6960    1.0000 </r>
       <r>   -5.6876    1.0000 </r>
       <r>   -5.6871    1.0000 </r>
       <r>   -5.6566    1.0000 </r>
       <r>   -5.6081    1.0000 </r>
       <r>   -5.5398    1.0000 </r>
       <r>   -5.4946    1.0000 </r>
       <r>   -5.4257    1.0000 </r>
       <r>   -5.3488    1.0000 </r>
       <r>   -5.3385    1.0000 </r>
       <r>   -5.2193    1.0000 </r>
       <r>   -5.1281    1.0000 </r>
       <r>   -5.1254    1.0000 </r>
       <r>   -5.0884    1.0000 </r>
       <r>   -5.0310    1.0000 </r>
       <r>   -5.0062    1.0000 </r>
       <r>   -4.9670    1.0000 </r>
       <r>   -4.8073    1.0000 </r>
       <r>   -4.6375    1.0000 </r>
       <r>   -4.5048    1.0000 </r>
       <r>   -4.2763    1.0000 </r>
       <r>   -4.2751    1.0000 </r>
       <r>   -4.2567    1.0000 </r>
       <r>   -4.1989    1.0000 </r>
       <r>   -4.0633    1.0000 </r>
       <r>   -4.0033    1.0000 </r>
       <r>   -3.8071    1.0000 </r>
       <r>   -3.6910    1.0000 </r>
       <r>   -3.6725    1.0000 </r>
       <r>   -3.5776    1.0000 </r>
       <r>   -3.4903    1.0000 </r>
       <r>   -3.4221    1.0000 </r>
       <r>   -3.3870    1.0000 </r>
       <r>   -3.3598    1.0000 </r>
       <r>   -3.3519    1.0000 </r>
       <r>   -3.3130    1.0000 </r>
       <r>   -3.2884    1.0000 </r>
       <r>   -3.1149    1.0000 </r>
       <r>   -3.0757    1.0000 </r>
       <r>   -2.9901    1.0000 </r>
       <r>   -2.9883    1.0000 </r>
       <r>   -2.9381    1.0000 </r>
       <r>   -2.9354    1.0000 </r>
       <r>   -2.7958    1.0000 </r>
       <r>   -2.4277    1.0000 </r>
       <r>   -2.3922    1.0000 </r>
       <r>   -2.3041    1.0000 </r>
       <r>   -2.2961    1.0000 </r>
       <r>   -2.2392    1.0000 </r>
       <r>   -2.1618    1.0000 </r>
       <r>   -1.9912    1.0000 </r>
       <r>   -1.9537    1.0000 </r>
       <r>   -1.6090    1.0000 </r>
       <r>   -1.6013    1.0000 </r>
       <r>   -1.4852    1.0000 </r>
       <r>   -1.4636    1.0000 </r>
       <r>   -1.4077    1.0000 </r>
       <r>   -1.4007    1.0000 </r>
       <r>   -1.3490    1.0000 </r>
       <r>   -1.2910    1.0000 </r>
       <r>   -1.2124    1.0000 </r>
       <r>   -1.0949    1.0000 </r>
       <r>   -1.0658    1.0000 </r>
       <r>   -1.0508    1.0000 </r>
       <r>   -1.0276    1.0000 </r>
       <r>   -0.6743    1.0000 </r>
       <r>   -0.3678    1.0000 </r>
       <r>   -0.2754    1.0000 </r>
       <r>    0.0697    1.0000 </r>
       <r>    0.1277    1.0000 </r>
       <r>    0.1363    1.0000 </r>
       <r>    0.1620    1.0000 </r>
       <r>    0.2898    1.0000 </r>
       <r>    0.3247    1.0000 </r>
       <r>    0.4654    1.0000 </r>
       <r>    0.5447    1.0000 </r>
       <r>    0.6355    1.0000 </r>
       <r>    0.6369    1.0000 </r>
       <r>    0.7482    1.0000 </r>
       <r>    0.7899    1.0000 </r>
       <r>    0.8556    1.0000 </r>
       <r>    0.8981    1.0000 </r>
       <r>    0.9672    1.0000 </r>
       <r>    0.9841    1.0000 </r>
       <r>    1.0732    1.0000 </r>
       <r>    1.0773    1.0000 </r>
       <r>    1.1576    1.0000 </r>
       <r>    1.1664    1.0000 </r>
       <r>    1.2679    1.0000 </r>
       <r>    1.3318    1.0000 </r>
       <r>    1.3747    1.0000 </r>
       <r>    1.3812    1.0000 </r>
       <r>    1.4111    1.0000 </r>
       <r>    1.4996    1.0000 </r>
       <r>    1.5049    1.0000 </r>
       <r>    1.5788    1.0000 </r>
       <r>    1.5988    1.0000 </r>
       <r>    1.6532    1.0000 </r>
       <r>    1.6767    1.0000 </r>
       <r>    1.8145    1.0000 </r>
       <r>    1.8233    1.0000 </r>
       <r>    1.8793    1.0000 </r>
       <r>    1.8816    1.0000 </r>
       <r>    1.9835    1.0000 </r>
       <r>    1.9864    1.0000 </r>
       <r>    2.0289    1.0000 </r>
       <r>    2.0602    1.0000 </r>
       <r>    2.0841    1.0000 </r>
       <r>    2.0950    1.0000 </r>
       <r>    2.1656    1.0000 </r>
       <r>    2.1700    1.0000 </r>
       <r>    2.2005    1.0000 </r>
       <r>    2.2190    1.0000 </r>
       <r>    2.2722    1.0000 </r>
       <r>    2.3118    1.0000 </r>
       <r>    2.4382    1.0000 </r>
       <r>    2.4410    1.0000 </r>
       <r>    2.4943    1.0000 </r>
       <r>    2.5590    1.0000 </r>
       <r>    2.5805    1.0000 </r>
       <r>    2.5890    1.0000 </r>
       <r>    2.6190    1.0000 </r>
       <r>    2.6242    1.0000 </r>
       <r>    2.6567    1.0000 </r>
       <r>    2.7244    1.0000 </r>
       <r>    2.7401    1.0000 </r>
       <r>    2.7424    1.0000 </r>
       <r>    2.9370    1.0000 </r>
       <r>    2.9509    1.0000 </r>
       <r>    3.0433    1.0000 </r>
       <r>    3.0765    1.0000 </r>
       <r>    3.1047    1.0000 </r>
       <r>    3.1521    1.0000 </r>
       <r>    3.1545    1.0000 </r>
       <r>    3.1735    1.0000 </r>
       <r>    3.3603    1.0000 </r>
       <r>    3.3640    1.0000 </r>
       <r>    3.3661    1.0000 </r>
       <r>    3.4483    1.0000 </r>
       <r>    3.4620    1.0000 </r>
       <r>    3.4730    1.0000 </r>
       <r>    3.5395    1.0000 </r>
       <r>    3.5487    1.0000 </r>
       <r>    3.6215    1.0000 </r>
       <r>    3.7717    1.0000 </r>
       <r>    3.8174    1.0000 </r>
       <r>    3.8303    1.0000 </r>
       <r>    3.9131    1.0000 </r>
       <r>    3.9554    1.0000 </r>
       <r>    4.0346    1.0000 </r>
       <r>    4.0790    1.0000 </r>
       <r>    4.0806    1.0000 </r>
       <r>    4.0838    1.0000 </r>
       <r>    4.1143    1.0000 </r>
       <r>    4.1650    1.0000 </r>
       <r>    4.1998    1.0000 </r>
       <r>    4.2027    1.0000 </r>
       <r>    4.2991    1.0000 </r>
       <r>    4.3479    1.0000 </r>
       <r>    4.3776    1.0000 </r>
       <r>    4.4714    1.0000 </r>
       <r>    4.5228    1.0000 </r>
       <r>    4.5606    1.0000 </r>
       <r>    4.6562    1.0000 </r>
       <r>    4.6975    0.0800 </r>
       <r>    4.7011    0.0282 </r>
       <r>    4.7077    0.0023 </r>
       <r>    4.7511    0.0000 </r>
       <r>    4.7787    0.0000 </r>
       <r>    4.9269    0.0000 </r>
       <r>    4.9670    0.0000 </r>
       <r>    5.0587    0.0000 </r>
       <r>    5.1115    0.0000 </r>
       <r>    5.3303    0.0000 </r>
       <r>    5.3765    0.0000 </r>
       <r>    5.4549    0.0000 </r>
       <r>    5.5514    0.0000 </r>
       <r>    5.5687    0.0000 </r>
       <r>    5.5882    0.0000 </r>
       <r>    5.6221    0.0000 </r>
       <r>    5.6253    0.0000 </r>
       <r>    5.6717    0.0000 </r>
       <r>    5.7215    0.0000 </r>
       <r>    5.7366    0.0000 </r>
       <r>    5.7839    0.0000 </r>
       <r>    5.7914    0.0000 </r>
       <r>    5.7943    0.0000 </r>
       <r>    5.9312    0.0000 </r>
       <r>    5.9457    0.0000 </r>
       <r>    5.9644    0.0000 </r>
       <r>    6.1100    0.0000 </r>
       <r>    6.2317    0.0000 </r>
       <r>    6.3024    0.0000 </r>
       <r>    6.3220    0.0000 </r>
       <r>    6.3701    0.0000 </r>
       <r>    6.3722    0.0000 </r>
       <r>    6.4373    0.0000 </r>
       <r>    6.4852    0.0000 </r>
       <r>    6.4912    0.0000 </r>
       <r>    6.5346    0.0000 </r>
       <r>    6.5451    0.0000 </r>
       <r>    6.5894    0.0000 </r>
       <r>    6.6089    0.0000 </r>
      </set>
      <set comment="kpoint 2">
       <r>   -9.1409    1.0000 </r>
       <r>   -9.1174    1.0000 </r>
       <r>   -8.5868    1.0000 </r>
       <r>   -8.4506    1.0000 </r>
       <r>   -8.4467    1.0000 </r>
       <r>   -8.2614    1.0000 </r>
       <r>   -8.0552    1.0000 </r>
       <r>   -7.4801    1.0000 </r>
       <r>   -7.4693    1.0000 </r>
       <r>   -7.3438    1.0000 </r>
       <r>   -7.1343    1.0000 </r>
       <r>   -7.0522    1.0000 </r>
       <r>   -6.9792    1.0000 </r>
       <r>   -6.9608    1.0000 </r>
       <r>   -6.9465    1.0000 </r>
       <r>   -6.8694    1.0000 </r>
       <r>   -6.8212    1.0000 </r>
       <r>   -6.7939    1.0000 </r>
       <r>   -6.5930    1.0000 </r>
       <r>   -6.5460    1.0000 </r>
       <r>   -6.5414    1.0000 </r>
       <r>   -6.3110    1.0000 </r>
       <r>   -6.2706    1.0000 </r>
       <r>   -6.2672    1.0000 </r>
       <r>   -6.1322    1.0000 </r>
       <r>   -6.1292    1.0000 </r>
       <r>   -6.0306    1.0000 </r>
       <r>   -5.8550    1.0000 </r>
       <r>   -5.8069    1.0000 </r>
       <r>   -5.7876    1.0000 </r>
       <r>   -5.7456    1.0000 </r>
       <r>   -5.7225    1.0000 </r>
       <r>   -5.6480    1.0000 </r>
       <r>   -5.6243    1.0000 </r>
       <r>   -5.6103    1.0000 </r>
       <r>   -5.5297    1.0000 </r>
       <r>   -5.4195    1.0000 </r>
       <r>   -5.4176    1.0000 </r>
       <r>   -5.3472    1.0000 </r>
       <r>   -5.3413    1.0000 </r>
       <r>   -5.1310    1.0000 </r>
       <r>   -5.0726    1.0000 </r>
       <r>   -5.0316    1.0000 </r>
       <r>   -4.9584    1.0000 </r>
       <r>   -4.8914    1.0000 </r>
       <r>   -4.7153    1.0000 </r>
       <r>   -4.6392    1.0000 </r>
       <r>   -4.6039    1.0000 </r>
       <r>   -4.4532    1.0000 </r>
       <r>   -4.4400    1.0000 </r>
       <r>   -4.3775    1.0000 </r>
       <r>   -4.2410    1.0000 </r>
       <r>   -4.1879    1.0000 </r>
       <r>   -4.1160    1.0000 </r>
       <r>   -4.0639    1.0000 </r>
       <r>   -3.8344    1.0000 </r>
       <r>   -3.7819    1.0000 </r>
       <r>   -3.6622    1.0000 </r>
       <r>   -3.6136    1.0000 </r>
       <r>   -3.5650    1.0000 </r>
       <r>   -3.4210    1.0000 </r>
       <r>   -3.2314    1.0000 </r>
       <r>   -3.2003    1.0000 </r>
       <r>   -3.1687    1.0000 </r>
       <r>   -3.1606    1.0000 </r>
       <r>   -3.1096    1.0000 </r>
       <r>   -2.9479    1.0000 </r>
       <r>   -2.9351    1.0000 </r>
       <r>   -2.8284    1.0000 </r>
       <r>   -2.7583    1.0000 </r>
       <r>   -2.7517    1.0000 </r>
       <r>   -2.5095    1.0000 </r>
       <r>   -2.5065    1.0000 </r>
       <r>   -2.4966    1.0000 </r>
       <r>   -2.3478    1.0000 </r>
       <r>   -2.3269    1.0000 </r>
       <r>   -2.1745    1.0000 </r>
       <r>   -2.0655    1.0000 </r>
       <r>   -1.9964    1.0000 </r>
       <r>   -1.9653    1.0000 </r>
       <r>   -1.9542    1.0000 </r>
       <r>   -1.7770    1.0000 </r>
       <r>   -1.5535    1.0000 </r>
       <r>   -1.4764    1.0000 </r>
       <r>   -1.4734    1.0000 </r>
       <r>   -1.2794    1.0000 </r>
       <r>   -1.1947    1.0000 </r>
       <r>   -1.1688    1.0000 </r>
       <r>   -1.1471    1.0000 </r>
       <r>   -1.0960    1.0000 </r>
       <r>   -0.8160    1.0000 </r>
       <r>   -0.7991    1.0000 </r>
       <r>   -0.7572    1.0000 </r>
       <r>   -0.6319    1.0000 </r>
       <r>   -0.5693    1.0000 </r>
       <r>   -0.4467    1.0000 </r>
       <r>   -0.4291    1.0000 </r>
       <r>   -0.4079    1.0000 </r>
       <r>   -0.1326    1.0000 </r>
       <r>   -0.0654    1.0000 </r>
       <r>    0.0445    1.0000 </r>
       <r>    0.1073    1.0000 </r>
       <r>    0.2767    1.0000 </r>
       <r>    0.2894    1.0000 </r>
       <r>    0.3046    1.0000 </r>
       <r>    0.3895    1.0000 </r>
       <r>    0.3993    1.0000 </r>
       <r>    0.4398    1.0000 </r>
       <r>    0.5562    1.0000 </r>
       <r>    0.5913    1.0000 </r>
       <r>    0.5919    1.0000 </r>
       <r>    0.7738    1.0000 </r>
       <r>    0.7858    1.0000 </r>
       <r>    0.9035    1.0000 </r>
       <r>    1.0066    1.0000 </r>
       <r>    1.0329    1.0000 </r>
       <r>    1.1403    1.0000 </r>
       <r>    1.2068    1.0000 </r>
       <r>    1.3297    1.0000 </r>
       <r>    1.3717    1.0000 </r>
       <r>    1.3864    1.0000 </r>
       <r>    1.3945    1.0000 </r>
       <r>    1.4172    1.0000 </r>
       <r>    1.4787    1.0000 </r>
       <r>    1.5251    1.0000 </r>
       <r>    1.5421    1.0000 </r>
       <r>    1.5636    1.0000 </r>
       <r>    1.5981    1.0000 </r>
       <r>    1.6777    1.0000 </r>
       <r>    1.7205    1.0000 </r>
       <r>    1.8025    1.0000 </r>
       <r>    1.8413    1.0000 </r>
       <r>    1.8426    1.0000 </r>
       <r>    1.8790    1.0000 </r>
       <r>    1.9083    1.0000 </r>
       <r>    1.9246    1.0000 </r>
       <r>    2.0591    1.0000 </r>
       <r>    2.0625    1.0000 </r>
       <r>    2.0641    1.0000 </r>
       <r>    2.0703    1.0000 </r>
       <r>    2.1277    1.0000 </r>
       <r>    2.1620    1.0000 </r>
       <r>    2.1633    1.0000 </r>
       <r>    2.1917    1.0000 </r>
       <r>    2.2309    1.0000 </r>
       <r>    2.2464    1.0000 </r>
       <r>    2.2822    1.0000 </r>
       <r>    2.2878    1.0000 </r>
       <r>    2.3768    1.0000 </r>
       <r>    2.4291    1.0000 </r>
       <r>    2.4382    1.0000 </r>
       <r>    2.4731    1.0000 </r>
       <r>    2.4997    1.0000 </r>
       <r>    2.5287    1.0000 </r>
       <r>    2.6642    1.0000 </r>
       <r>    2.6935    1.0000 </r>
       <r>    2.7437    1.0000 </r>
       <r>    2.7565    1.0000 </r>
       <r>    2.8119    1.0000 </r>
       <r>    2.8659    1.0000 </r>
       <r>    2.9867    1.0000 </r>
       <r>    2.9876    1.0000 </r>
       <r>    3.0055    1.0000 </r>
       <r>    3.0974    1.0000 </r>
       <r>    3.1073    1.0000 </r>
       <r>    3.1725    1.0000 </r>
       <r>    3.2552    1.0000 </r>
       <r>    3.3007    1.0000 </r>
       <r>    3.3981    1.0000 </r>
       <r>    3.4216    1.0000 </r>
       <r>    3.4318    1.0000 </r>
       <r>    3.4579    1.0000 </r>
       <r>    3.4832    1.0000 </r>
       <r>    3.6586    1.0000 </r>
       <r>    3.6912    1.0000 </r>
       <r>    3.6999    1.0000 </r>
       <r>    3.7144    1.0000 </r>
       <r>    3.8515    1.0000 </r>
       <r>    3.9497    1.0000 </r>
       <r>    3.9901    1.0000 </r>
       <r>    4.0373    1.0000 </r>
       <r>    4.1451    1.0000 </r>
       <r>    4.2386    1.0000 </r>
       <r>    4.2637    1.0000 </r>
       <r>    4.3381    1.0000 </r>
       <r>    4.3449    1.0000 </r>
       <r>    4.4132    1.0000 </r>
       <r>    4.4413    1.0000 </r>
       <r>    4.5039    1.0000 </r>
       <r>    4.6154    1.0000 </r>
       <r>    4.6405    1.0000 </r>
       <r>    4.7089    0.0013 </r>
       <r>    4.7783    0.0000 </r>
       <r>    4.8393    0.0000 </r>
       <r>    4.8671    0.0000 </r>
       <r>    4.8838    0.0000 </r>
       <r>    4.9244    0.0000 </r>
       <r>    4.9989    0.0000 </r>
       <r>    5.0883    0.0000 </r>
       <r>    5.1633    0.0000 </r>
       <r>    5.1639    0.0000 </r>
       <r>    5.2172    0.0000 </r>
       <r>    5.3661    0.0000 </r>
       <r>    5.4477    0.0000 </r>
       <r>    5.4644    0.0000 </r>
       <r>    5.5782    0.0000 </r>
       <r>    5.6173    0.0000 </r>
       <r>    5.6953    0.0000 </r>
       <r>    5.6959    0.0000 </r>
       <r>    5.7117    0.0000 </r>
       <r>    5.8842    0.0000 </r>
       <r>    5.9302    0.0000 </r>
       <r>    5.9852    0.0000 </r>
       <r>    6.0203    0.0000 </r>
       <r>    6.1237    0.0000 </r>
       <r>    6.1756    0.0000 </r>
       <r>    6.2897    0.0000 </r>
       <r>    6.3168    0.0000 </r>
       <r>    6.5049    0.0000 </r>
       <r>    6.5920    0.0000 </r>
       <r>    6.6284    0.0000 </r>
       <r>    6.6313    0.0000 </r>
       <r>    6.6702    0.0000 </r>
       <r>    6.7145    0.0000 </r>
       <r>    6.7505    0.0000 </r>
       <r>    6.8105    0.0000 </r>
       <r>    6.8861    0.0000 </r>
       <r>    6.8869    0.0000 </r>
       <r>    6.9123    0.0000 </r>
       <r>    6.9921    0.0000 </r>
       <r>    7.0068    0.0000 </r>
       <r>    7.0251    0.0000 </r>
      </set>
      <set comment="kpoint 3">
       <r>   -9.1410    1.0000 </r>
       <r>   -9.1173    1.0000 </r>
       <r>   -8.5859    1.0000 </r>
       <r>   -8.4510    1.0000 </r>
       <r>   -8.4463    1.0000 </r>
       <r>   -8.2681    1.0000 </r>
       <r>   -8.0465    1.0000 </r>
       <r>   -7.4811    1.0000 </r>
       <r>   -7.4522    1.0000 </r>
       <r>   -7.3742    1.0000 </r>
       <r>   -7.1366    1.0000 </r>
       <r>   -7.0480    1.0000 </r>
       <r>   -6.9953    1.0000 </r>
       <r>   -6.9479    1.0000 </r>
       <r>   -6.9446    1.0000 </r>
       <r>   -6.8729    1.0000 </r>
       <r>   -6.8195    1.0000 </r>
       <r>   -6.7403    1.0000 </r>
       <r>   -6.5944    1.0000 </r>
       <r>   -6.5713    1.0000 </r>
       <r>   -6.5489    1.0000 </r>
       <r>   -6.3327    1.0000 </r>
       <r>   -6.2917    1.0000 </r>
       <r>   -6.2688    1.0000 </r>
       <r>   -6.1294    1.0000 </r>
       <r>   -6.1050    1.0000 </r>
       <r>   -6.0558    1.0000 </r>
       <r>   -5.8991    1.0000 </r>
       <r>   -5.8074    1.0000 </r>
       <r>   -5.7439    1.0000 </r>
       <r>   -5.7140    1.0000 </r>
       <r>   -5.6703    1.0000 </r>
       <r>   -5.6227    1.0000 </r>
       <r>   -5.6184    1.0000 </r>
       <r>   -5.5900    1.0000 </r>
       <r>   -5.5312    1.0000 </r>
       <r>   -5.4267    1.0000 </r>
       <r>   -5.3950    1.0000 </r>
       <r>   -5.3468    1.0000 </r>
       <r>   -5.3442    1.0000 </r>
       <r>   -5.2745    1.0000 </r>
       <r>   -5.0979    1.0000 </r>
       <r>   -5.0489    1.0000 </r>
       <r>   -4.9668    1.0000 </r>
       <r>   -4.8558    1.0000 </r>
       <r>   -4.7312    1.0000 </r>
       <r>   -4.6030    1.0000 </r>
       <r>   -4.5892    1.0000 </r>
       <r>   -4.4983    1.0000 </r>
       <r>   -4.4525    1.0000 </r>
       <r>   -4.3429    1.0000 </r>
       <r>   -4.2282    1.0000 </r>
       <r>   -4.1877    1.0000 </r>
       <r>   -4.0620    1.0000 </r>
       <r>   -4.0489    1.0000 </r>
       <r>   -3.8382    1.0000 </r>
       <r>   -3.7746    1.0000 </r>
       <r>   -3.6587    1.0000 </r>
       <r>   -3.5809    1.0000 </r>
       <r>   -3.5018    1.0000 </r>
       <r>   -3.4972    1.0000 </r>
       <r>   -3.3051    1.0000 </r>
       <r>   -3.2545    1.0000 </r>
       <r>   -3.1946    1.0000 </r>
       <r>   -3.1526    1.0000 </r>
       <r>   -3.0423    1.0000 </r>
       <r>   -3.0220    1.0000 </r>
       <r>   -2.8940    1.0000 </r>
       <r>   -2.8723    1.0000 </r>
       <r>   -2.7243    1.0000 </r>
       <r>   -2.6831    1.0000 </r>
       <r>   -2.5794    1.0000 </r>
       <r>   -2.4988    1.0000 </r>
       <r>   -2.4877    1.0000 </r>
       <r>   -2.3350    1.0000 </r>
       <r>   -2.2953    1.0000 </r>
       <r>   -2.1947    1.0000 </r>
       <r>   -2.1357    1.0000 </r>
       <r>   -2.0098    1.0000 </r>
       <r>   -2.0036    1.0000 </r>
       <r>   -1.7922    1.0000 </r>
       <r>   -1.7243    1.0000 </r>
       <r>   -1.5229    1.0000 </r>
       <r>   -1.4773    1.0000 </r>
       <r>   -1.4598    1.0000 </r>
       <r>   -1.3582    1.0000 </r>
       <r>   -1.2337    1.0000 </r>
       <r>   -1.1693    1.0000 </r>
       <r>   -1.1084    1.0000 </r>
       <r>   -1.1002    1.0000 </r>
       <r>   -0.9078    1.0000 </r>
       <r>   -0.8971    1.0000 </r>
       <r>   -0.6693    1.0000 </r>
       <r>   -0.6318    1.0000 </r>
       <r>   -0.5800    1.0000 </r>
       <r>   -0.5260    1.0000 </r>
       <r>   -0.3732    1.0000 </r>
       <r>   -0.3254    1.0000 </r>
       <r>   -0.2008    1.0000 </r>
       <r>   -0.0200    1.0000 </r>
       <r>    0.0433    1.0000 </r>
       <r>    0.0891    1.0000 </r>
       <r>    0.2534    1.0000 </r>
       <r>    0.2739    1.0000 </r>
       <r>    0.3733    1.0000 </r>
       <r>    0.3852    1.0000 </r>
       <r>    0.4388    1.0000 </r>
       <r>    0.4526    1.0000 </r>
       <r>    0.5648    1.0000 </r>
       <r>    0.6361    1.0000 </r>
       <r>    0.6677    1.0000 </r>
       <r>    0.6770    1.0000 </r>
       <r>    0.9276    1.0000 </r>
       <r>    0.9349    1.0000 </r>
       <r>    1.0035    1.0000 </r>
       <r>    1.0809    1.0000 </r>
       <r>    1.1682    1.0000 </r>
       <r>    1.1939    1.0000 </r>
       <r>    1.2029    1.0000 </r>
       <r>    1.2110    1.0000 </r>
       <r>    1.3323    1.0000 </r>
       <r>    1.3618    1.0000 </r>
       <r>    1.4114    1.0000 </r>
       <r>    1.4520    1.0000 </r>
       <r>    1.4927    1.0000 </r>
       <r>    1.5386    1.0000 </r>
       <r>    1.5944    1.0000 </r>
       <r>    1.6609    1.0000 </r>
       <r>    1.7237    1.0000 </r>
       <r>    1.7522    1.0000 </r>
       <r>    1.7653    1.0000 </r>
       <r>    1.7820    1.0000 </r>
       <r>    1.8242    1.0000 </r>
       <r>    1.8710    1.0000 </r>
       <r>    1.9314    1.0000 </r>
       <r>    1.9675    1.0000 </r>
       <r>    2.0181    1.0000 </r>
       <r>    2.0428    1.0000 </r>
       <r>    2.0620    1.0000 </r>
       <r>    2.0757    1.0000 </r>
       <r>    2.1102    1.0000 </r>
       <r>    2.1423    1.0000 </r>
       <r>    2.1574    1.0000 </r>
       <r>    2.1884    1.0000 </r>
       <r>    2.2005    1.0000 </r>
       <r>    2.2242    1.0000 </r>
       <r>    2.2793    1.0000 </r>
       <r>    2.3199    1.0000 </r>
       <r>    2.3620    1.0000 </r>
       <r>    2.4352    1.0000 </r>
       <r>    2.5101    1.0000 </r>
       <r>    2.5293    1.0000 </r>
       <r>    2.5480    1.0000 </r>
       <r>    2.6041    1.0000 </r>
       <r>    2.6586    1.0000 </r>
       <r>    2.6606    1.0000 </r>
       <r>    2.6747    1.0000 </r>
       <r>    2.6923    1.0000 </r>
       <r>    2.6972    1.0000 </r>
       <r>    2.9623    1.0000 </r>
       <r>    2.9627    1.0000 </r>
       <r>    2.9813    1.0000 </r>
       <r>    3.0906    1.0000 </r>
       <r>    3.1508    1.0000 </r>
       <r>    3.1930    1.0000 </r>
       <r>    3.1975    1.0000 </r>
       <r>    3.2152    1.0000 </r>
       <r>    3.3243    1.0000 </r>
       <r>    3.3530    1.0000 </r>
       <r>    3.3667    1.0000 </r>
       <r>    3.4161    1.0000 </r>
       <r>    3.5164    1.0000 </r>
       <r>    3.5715    1.0000 </r>
       <r>    3.6291    1.0000 </r>
       <r>    3.6323    1.0000 </r>
       <r>    3.6787    1.0000 </r>
       <r>    3.7976    1.0000 </r>
       <r>    3.8765    1.0000 </r>
       <r>    3.9672    1.0000 </r>
       <r>    3.9726    1.0000 </r>
       <r>    4.0408    1.0000 </r>
       <r>    4.1923    1.0000 </r>
       <r>    4.2091    1.0000 </r>
       <r>    4.2271    1.0000 </r>
       <r>    4.2608    1.0000 </r>
       <r>    4.2893    1.0000 </r>
       <r>    4.4048    1.0000 </r>
       <r>    4.4126    1.0000 </r>
       <r>    4.6192    1.0000 </r>
       <r>    4.6693    0.9951 </r>
       <r>    4.6850    0.6445 </r>
       <r>    4.7271    0.0000 </r>
       <r>    4.7828    0.0000 </r>
       <r>    4.7898    0.0000 </r>
       <r>    4.8244    0.0000 </r>
       <r>    4.9583    0.0000 </r>
       <r>    4.9588    0.0000 </r>
       <r>    5.0317    0.0000 </r>
       <r>    5.0537    0.0000 </r>
       <r>    5.0755    0.0000 </r>
       <r>    5.1348    0.0000 </r>
       <r>    5.1574    0.0000 </r>
       <r>    5.3103    0.0000 </r>
       <r>    5.4357    0.0000 </r>
       <r>    5.4958    0.0000 </r>
       <r>    5.5628    0.0000 </r>
       <r>    5.6298    0.0000 </r>
       <r>    5.6449    0.0000 </r>
       <r>    5.6472    0.0000 </r>
       <r>    5.7295    0.0000 </r>
       <r>    5.7828    0.0000 </r>
       <r>    6.0115    0.0000 </r>
       <r>    6.0311    0.0000 </r>
       <r>    6.0404    0.0000 </r>
       <r>    6.0842    0.0000 </r>
       <r>    6.1575    0.0000 </r>
       <r>    6.2638    0.0000 </r>
       <r>    6.2832    0.0000 </r>
       <r>    6.3412    0.0000 </r>
       <r>    6.4437    0.0000 </r>
       <r>    6.6966    0.0000 </r>
       <r>    6.7259    0.0000 </r>
       <r>    6.7415    0.0000 </r>
       <r>    6.8254    0.0000 </r>
       <r>    6.8748    0.0000 </r>
       <r>    6.8925    0.0000 </r>
       <r>    6.9033    0.0000 </r>
       <r>    6.9239    0.0000 </r>
       <r>    6.9475    0.0000 </r>
       <r>    6.9612    0.0000 </r>
       <r>    7.0263    0.0000 </r>
       <r>    7.0593    0.0000 </r>
      </set>
      <set comment="kpoint 4">
       <r>   -8.8726    1.0000 </r>
       <r>   -8.8725    1.0000 </r>
       <r>   -8.8595    1.0000 </r>
       <r>   -8.8594    1.0000 </r>
       <r>   -8.1613    1.0000 </r>
       <r>   -8.1613    1.0000 </r>
       <r>   -7.9383    1.0000 </r>
       <r>   -7.9383    1.0000 </r>
       <r>   -7.5413    1.0000 </r>
       <r>   -7.5413    1.0000 </r>
       <r>   -7.1152    1.0000 </r>
       <r>   -7.1152    1.0000 </r>
       <r>   -6.8175    1.0000 </r>
       <r>   -6.8175    1.0000 </r>
       <r>   -6.7498    1.0000 </r>
       <r>   -6.7498    1.0000 </r>
       <r>   -6.7067    1.0000 </r>
       <r>   -6.7067    1.0000 </r>
[...]
       <r>    -8.1827     2.8951    10.2458 </r>
       <r>    -8.1222    10.3987    10.8745 </r>
       <r>    -8.0617    21.2768    12.1609 </r>
       <r>    -8.0013    15.9456    13.1250 </r>
       <r>    -7.9408     3.1076    13.3129 </r>
       <r>    -7.8804     5.1626    13.6250 </r>
       <r>    -7.8199     0.0000    13.6250 </r>
       <r>    -7.7594    14.1707    14.4817 </r>
       <r>    -7.6990     6.5033    14.8750 </r>
       <r>    -7.6385     0.0009    14.8751 </r>
       <r>    -7.5781     3.0971    15.0623 </r>
       <r>    -7.5176    10.1549    15.6762 </r>
       <r>    -7.4572    24.0726    17.1319 </r>
       <r>    -7.3967    22.9522    18.5196 </r>
       <r>    -7.3362    13.5883    19.3411 </r>
       <r>    -7.2758     8.9963    19.8851 </r>
       <r>    -7.2153    24.7583    21.3819 </r>
       <r>    -7.1549    17.6879    22.4517 </r>
       <r>    -7.0944    15.8768    23.4119 </r>
       <r>    -7.0340    10.1176    24.0236 </r>
       <r>    -6.9735    20.3061    25.2513 </r>
       <r>    -6.9130    57.8623    28.7495 </r>
       <r>    -6.8526    26.3958    30.3461 </r>
       <r>    -6.7921    17.0400    31.3764 </r>
       <r>    -6.7317    19.1821    32.5367 </r>
       <r>    -6.6712    21.8934    33.8603 </r>
       <r>    -6.6107    35.8319    36.0267 </r>
       <r>    -6.5503    22.0072    37.3576 </r>
       <r>    -6.4898    21.7188    38.6709 </r>
       <r>    -6.4294    27.5558    40.3368 </r>
       <r>    -6.3689    25.9693    41.9070 </r>
       <r>    -6.3085    42.4688    44.4746 </r>
       <r>    -6.2480    26.1168    46.0542 </r>
       <r>    -6.1875    25.6692    47.6061 </r>
       <r>    -6.1271    29.9406    49.4170 </r>
       <r>    -6.0666    41.9467    51.9531 </r>
       <r>    -6.0062    38.5205    54.2827 </r>
       <r>    -5.9457    26.2480    55.8698 </r>
       <r>    -5.8853    29.9777    57.6823 </r>
       <r>    -5.8248    34.3177    59.7570 </r>
       <r>    -5.7643    31.3780    61.6542 </r>
       <r>    -5.7039    26.2078    63.2388 </r>
       <r>    -5.6434    42.1067    65.7846 </r>
       <r>    -5.5830    27.2650    67.4330 </r>
       <r>    -5.5225    32.1591    69.3773 </r>
       <r>    -5.4620    48.6493    72.3186 </r>
       <r>    -5.4016    24.1475    73.7786 </r>
       <r>    -5.3411    43.3467    76.3993 </r>
       <r>    -5.2807    38.9966    78.7573 </r>
       <r>    -5.2202    35.4783    80.9026 </r>
       <r>    -5.1598    25.0086    82.4147 </r>
       <r>    -5.0993    30.1276    84.2364 </r>
       <r>    -5.0388    20.1766    85.4569 </r>
       <r>    -4.9784    43.1144    88.0636 </r>
       <r>    -4.9179    18.2339    89.1666 </r>
       <r>    -4.8575     9.9832    89.7703 </r>
       <r>    -4.7970    15.0190    90.6783 </r>
       <r>    -4.7366    26.6622    92.2902 </r>
       <r>    -4.6761    14.8694    93.1892 </r>
       <r>    -4.6156    17.6934    94.2589 </r>
       <r>    -4.5552    16.9062    95.2813 </r>
       <r>    -4.4947    11.0464    95.9496 </r>
       <r>    -4.4343    24.2560    97.4160 </r>
       <r>    -4.3738    23.8451    98.8578 </r>
       <r>    -4.3133    16.5259    99.8569 </r>
       <r>    -4.2529    17.4394   100.9118 </r>
       <r>    -4.1924    38.5419   103.2419 </r>
       <r>    -4.1320    19.7753   104.4375 </r>
       <r>    -4.0715     6.7459   104.8454 </r>
       <r>    -4.0111    33.0877   106.8458 </r>
       <r>    -3.9506    36.0777   109.0270 </r>
       <r>    -3.8901    20.9284   110.2924 </r>
       <r>    -3.8297    18.5999   111.4170 </r>
       <r>    -3.7692    23.5171   112.8391 </r>
       <r>    -3.7088    18.3947   113.9513 </r>
       <r>    -3.6483    31.4856   115.8552 </r>
       <r>    -3.5879    26.2408   117.4422 </r>
       <r>    -3.5274    20.5695   118.6860 </r>
       <r>    -3.4669    24.6365   120.1755 </r>
       <r>    -3.4065    13.9352   121.0181 </r>
       <r>    -3.3460    16.2238   121.9990 </r>
       <r>    -3.2856    21.3078   123.2872 </r>
       <r>    -3.2251    26.5543   124.8927 </r>
       <r>    -3.1646    25.5899   126.4402 </r>
       <r>    -3.1042    29.2333   128.2076 </r>
       <r>    -3.0437    42.3158   130.7661 </r>
       <r>    -2.9833    22.5925   132.1323 </r>
       <r>    -2.9228    29.5050   133.9163 </r>
       <r>    -2.8624    25.0495   135.4307 </r>
       <r>    -2.8019    30.5230   137.2762 </r>
       <r>    -2.7414    39.7210   139.6779 </r>
       <r>    -2.6810    29.5421   141.4643 </r>
       <r>    -2.6205    16.0522   142.4351 </r>
       <r>    -2.5601    25.6653   143.9868 </r>
       <r>    -2.4996    21.9449   145.3136 </r>
       <r>    -2.4392    31.1047   147.1942 </r>
       <r>    -2.3787    25.2031   148.7179 </r>
       <r>    -2.3182    26.0181   150.2909 </r>
       <r>    -2.2578    25.6603   151.8425 </r>
       <r>    -2.1973    25.6960   153.3962 </r>
       <r>    -2.1369    21.6065   154.7029 </r>
       <r>    -2.0764    26.8891   156.3285 </r>
       <r>    -2.0160    26.8805   157.9540 </r>
       <r>    -1.9555    24.2659   159.4213 </r>
       <r>    -1.8950    16.5376   160.4213 </r>
       <r>    -1.8346     4.0607   160.6668 </r>
       <r>    -1.7741    20.6647   161.9161 </r>
       <r>    -1.7137    19.8168   163.1147 </r>
       <r>    -1.6532    26.3108   164.7055 </r>
       <r>    -1.5927    22.0623   166.0394 </r>
       <r>    -1.5323    20.1926   167.2605 </r>
       <r>    -1.4718    26.9304   168.8889 </r>
       <r>    -1.4114    21.8817   170.2120 </r>
       <r>    -1.3509     9.9551   170.8140 </r>
       <r>    -1.2905    22.1021   172.1502 </r>
       <r>    -1.2300    32.2261   174.0986 </r>
       <r>    -1.1695    30.2578   175.9280 </r>
       <r>    -1.1091    29.5553   177.7148 </r>
       <r>    -1.0486    28.4819   179.4370 </r>
       <r>    -0.9882    14.3547   180.3049 </r>
       <r>    -0.9277    23.1645   181.7053 </r>
       <r>    -0.8673    10.4222   182.3355 </r>
       <r>    -0.8068    21.3097   183.6241 </r>
       <r>    -0.7463    26.3905   185.2196 </r>
       <r>    -0.6859    18.8646   186.3607 </r>
       <r>    -0.6254    28.4942   188.0836 </r>
       <r>    -0.5650    22.1688   189.4239 </r>
       <r>    -0.5045    14.9076   190.3252 </r>
       <r>    -0.4440    17.1680   191.3631 </r>
       <r>    -0.3836    14.7681   192.2561 </r>
       <r>    -0.3231    11.1823   192.9322 </r>
       <r>    -0.2627    18.5594   194.0542 </r>
       <r>    -0.2022    12.5066   194.8104 </r>
       <r>    -0.1418    11.9032   195.5300 </r>
       <r>    -0.0813    17.8376   196.6085 </r>
       <r>    -0.0208    21.5249   197.9098 </r>
       <r>     0.0396    22.2388   199.2544 </r>
       <r>     0.1001    14.4354   200.1271 </r>
       <r>     0.1605    36.4117   202.3289 </r>
       <r>     0.2210    19.9645   203.5363 </r>
       <r>     0.2814    26.6074   205.1454 </r>
       <r>     0.3419    34.4812   207.2301 </r>
       <r>     0.4024    29.8182   209.0329 </r>
       <r>     0.4628    48.4994   211.9651 </r>
       <r>     0.5233    46.0961   214.7520 </r>
       <r>     0.5837    31.7171   216.6702 </r>
       <r>     0.6442    32.9458   218.6622 </r>
       <r>     0.7047    39.4957   221.0505 </r>
       <r>     0.7651    31.3202   222.9443 </r>
       <r>     0.8256    42.7931   225.5317 </r>
       <r>     0.8860    29.8604   227.3372 </r>
       <r>     0.9465    27.5941   229.0056 </r>
       <r>     1.0069    34.0674   231.0653 </r>
       <r>     1.0674    34.8485   233.1722 </r>
       <r>     1.1279    31.3639   235.0688 </r>
       <r>     1.1883    45.7646   237.8359 </r>
       <r>     1.2488    48.6504   240.7775 </r>
       <r>     1.3092    29.0847   242.5361 </r>
       <r>     1.3697    43.2514   245.1510 </r>
       <r>     1.4301    41.8567   247.6817 </r>
       <r>     1.4906    37.1889   249.9302 </r>
       <r>     1.5511    46.2988   252.7293 </r>
       <r>     1.6115    50.6785   255.7933 </r>
       <r>     1.6720    31.4613   257.6958 </r>
       <r>     1.7324    29.3002   259.4674 </r>
       <r>     1.7929    49.1856   262.4411 </r>
       <r>     1.8534    61.2763   266.1458 </r>
       <r>     1.9138    54.9549   269.4688 </r>
       <r>     1.9743    55.0663   272.7986 </r>
       <r>     2.0347    55.4701   276.1525 </r>
       <r>     2.0952    49.3815   279.1381 </r>
       <r>     2.1556    45.1715   281.8692 </r>
       <r>     2.2161    62.8333   285.6687 </r>
       <r>     2.2766    41.8002   288.1959 </r>
       <r>     2.3370    43.0290   290.7974 </r>
       <r>     2.3975    45.7314   293.5623 </r>
       <r>     2.4579    47.1134   296.4107 </r>
       <r>     2.5184    39.7581   298.8145 </r>
       <r>     2.5788    57.6676   302.3011 </r>
       <r>     2.6393    61.8326   306.0397 </r>
       <r>     2.6998    45.3695   308.7828 </r>
       <r>     2.7602    38.5194   311.1119 </r>
       <r>     2.8207    34.2423   313.1827 </r>
       <r>     2.8811    50.4751   316.2346 </r>
       <r>     2.9416    40.1664   318.6630 </r>
       <r>     3.0021    44.2325   321.3372 </r>
       <r>     3.0625    28.8063   323.0788 </r>
       <r>     3.1230    38.6367   325.4152 </r>
       <r>     3.1834    42.1326   327.9627 </r>
       <r>     3.2439    46.8658   330.7966 </r>
       <r>     3.3043    40.6186   333.2523 </r>
       <r>     3.3648    46.6386   336.0724 </r>
       <r>     3.4253    49.9643   339.0932 </r>
       <r>     3.4857    29.3387   340.8676 </r>
       <r>     3.5462    38.2440   343.1799 </r>
       <r>     3.6066    35.7712   345.3434 </r>
       <r>     3.6671    35.3725   347.4824 </r>
       <r>     3.7275    35.3017   349.6172 </r>
       <r>     3.7880    49.6971   352.6218 </r>
       <r>     3.8485    29.4730   354.4042 </r>
       <r>     3.9089    36.1500   356.5898 </r>
       <r>     3.9694    33.6381   358.6239 </r>
       <r>     4.0298    35.5405   360.7726 </r>
       <r>     4.0903    49.1245   363.7427 </r>
       <r>     4.1508    28.0954   365.4416 </r>
       <r>     4.2112    42.9340   368.0375 </r>
       <r>     4.2717    45.6738   370.7990 </r>
       <r>     4.3321    42.9521   373.3967 </r>
       <r>     4.3926    35.4412   375.5397 </r>
       <r>     4.4530    29.4589   377.3211 </r>
       <r>     4.5135    36.5433   379.5310 </r>
       <r>     4.5740    30.1826   381.3565 </r>
       <r>     4.6344    25.2354   382.8821 </r>
       <r>     4.6949    28.1297   384.5837 </r>
       <r>     4.7553    51.0133   387.6679 </r>
       <r>     4.8158    34.8392   389.7744 </r>
       <r>     4.8762    25.5592   391.3197 </r>
       <r>     4.9367    34.7893   393.4230 </r>
       <r>     4.9972    39.9693   395.8398 </r>
       <r>     5.0576    20.2779   397.0663 </r>
       <r>     5.1181    38.8953   399.4182 </r>
       <r>     5.1785    34.9384   401.5306 </r>
       <r>     5.2390    16.5333   402.5303 </r>
       <r>     5.2995    16.8352   403.5481 </r>
       <r>     5.3599    24.6144   405.0364 </r>
       <r>     5.4204    25.6070   406.5851 </r>
       <r>     5.4808    24.5620   408.0704 </r>
       <r>     5.5413    32.7835   410.0527 </r>
       <r>     5.6017    43.3860   412.6758 </r>
       <r>     5.6622    36.1811   414.8634 </r>
       <r>     5.7227    30.3726   416.7000 </r>
       <r>     5.7831    39.5969   419.0940 </r>
       <r>     5.8436    32.4101   421.0538 </r>
       <r>     5.9040    27.6198   422.7237 </r>
       <r>     5.9645    31.7008   424.6404 </r>
       <r>     6.0249    32.5738   426.6099 </r>
       <r>     6.0854    24.0850   428.0660 </r>
       <r>     6.1459    46.5963   430.8832 </r>
       <r>     6.2063    28.4036   432.6007 </r>
       <r>     6.2668    19.4565   433.7771 </r>
       <r>     6.3272    38.7645   436.1211 </r>
       <r>     6.3877    37.9620   438.4162 </r>
       <r>     6.4482    24.1374   439.8759 </r>
       <r>     6.5086    33.0469   441.8739 </r>
       <r>     6.5691    45.9121   444.6500 </r>
       <r>     6.6295    33.5788   446.6804 </r>
       <r>     6.6900    29.4116   448.4590 </r>
       <r>     6.7504    38.4008   450.7808 </r>
       <r>     6.8109    36.4289   452.9835 </r>
       <r>     6.8714    28.0876   454.6818 </r>
       <r>     6.9318    38.2086   456.9921 </r>
       <r>     6.9923    33.0183   458.9888 </r>
       <r>     7.0527    37.6670   461.2664 </r>
       <r>     7.1132    24.0449   462.7206 </r>
       <r>     7.1736    11.0718   463.3902 </r>
       <r>     7.2341     4.9384   463.6887 </r>
       <r>     7.2946     5.1485   464.0000 </r>
       <r>     7.3550     0.0000   464.0000 </r>
       <r>     7.4155     0.0000   464.0000 </r>
       <r>     7.4759     0.0000   464.0000 </r>
       <r>     7.5364     0.0000   464.0000 </r>
       <r>     7.5969     0.0000   464.0000 </r>
       <r>     7.6573     0.0000   464.0000 </r>
       <r>     7.7178     0.0000   464.0000 </r>
       <r>     7.7782     0.0000   464.0000 </r>
       <r>     7.8387     0.0000   464.0000 </r>
       <r>     7.8991     0.0000   464.0000 </r>
       <r>     7.9596     0.0000   464.0000 </r>
       <r>     8.0201     0.0000   464.0000 </r>
       <r>     8.0805     0.0000   464.0000 </r>
      </set>
     </set>
    </array>
   </total>
  </dos>
 </calculation>
 <structure name="finalpos" >
  <crystal>
   <varray name="basis" >
    <v>      17.89153480       0.00000000       0.00000000 </v>
    <v>     -16.10238075       7.79873943       0.00000000 </v>
    <v>       0.00000028      -0.00000006      13.82883549 </v>
   </varray>
   <i name="volume">   1929.55702480 </i>
   <varray name="rec_basis" >
    <v>       0.05589235       0.11540326      -0.00000000 </v>
    <v>       0.00000000       0.12822585       0.00000000 </v>
    <v>       0.00000000       0.00000000       0.07231267 </v>
   </varray>
  </crystal>
  <varray name="positions" >
   <v>       0.81228745       0.18771255       0.46930525 </v>
   <v>       0.02281332       0.97718668       0.00000001 </v>
   <v>       0.18070815       0.81929183       0.09386106 </v>
   <v>       0.33860299       0.66139698       0.18772212 </v>
   <v>       0.49649781       0.50350219       0.28158316 </v>
   <v>       0.65439260       0.34560740       0.37544423 </v>
   <v>       0.10176122       0.89823884       0.49277046 </v>
   <v>       0.31228706       0.68771291       0.02346529 </v>
   <v>       0.47018188       0.52981806       0.11732632 </v>
   <v>       0.62807673       0.37192327       0.21118741 </v>
   <v>       0.78597158       0.21402840       0.30504847 </v>
   <v>       0.94386643       0.05613355       0.39890954 </v>
   <v>       0.31228733       0.68771261       0.46930522 </v>
   <v>       0.52281326       0.47718665       0.00000000 </v>
   <v>       0.68070811       0.31929183       0.09386105 </v>
   <v>       0.83860296       0.16139701       0.18772209 </v>
   <v>       0.99649781       0.00350215       0.28158313 </v>
   <v>       0.15439260       0.84560740       0.37544423 </v>
   <v>       0.60176122       0.39823884       0.49277067 </v>
   <v>       0.81228709       0.18771291       0.02346546 </v>
   <v>       0.97018182       0.02981813       0.11732645 </v>
   <v>       0.12807667       0.87192327       0.21118759 </v>
   <v>       0.28597152       0.71402836       0.30504861 </v>
   <v>       0.44386637       0.55613363       0.39890966 </v>
   <v>       0.31228745       0.18771249       0.46930528 </v>
   <v>       0.52281326       0.97718668       0.00000001 </v>
   <v>       0.68070811       0.81929189       0.09386105 </v>
   <v>       0.83860296       0.66139704       0.18772209 </v>
   <v>       0.99649775       0.50350225       0.28158313 </v>
   <v>       0.15439260       0.34560740       0.37544423 </v>
   <v>       0.60176146       0.89823872       0.49277064 </v>
   <v>       0.81228727       0.68771285       0.02346543 </v>
   <v>       0.97018212       0.52981806       0.11732648 </v>
   <v>       0.12807691       0.37192324       0.21118751 </v>
   <v>       0.28597176       0.21402839       0.30504861 </v>
   <v>       0.44386673       0.05613352       0.39890963 </v>
   <v>       0.81228751       0.68771249       0.46930525 </v>
   <v>       0.02281339       0.47718665       0.00000001 </v>
   <v>       0.18070820       0.31929183       0.09386104 </v>
   <v>       0.33860305       0.16139698       0.18772212 </v>
   <v>       0.49649784       0.00350219       0.28158313 </v>
   <v>       0.65439266       0.84560734       0.37544423 </v>
   <v>       0.10176122       0.39823878       0.49277067 </v>
   <v>       0.31228706       0.18771288       0.02346545 </v>
   <v>       0.47018188       0.02981809       0.11732648 </v>
   <v>       0.62807673       0.87192327       0.21118756 </v>
   <v>       0.78597152       0.71402842       0.30504861 </v>
   <v>       0.94386637       0.55613351       0.39890966 </v>
   <v>       0.97520858       0.44613951       0.96930522 </v>
   <v>       0.18573467       0.23561359       0.49999994 </v>
   <v>       0.34362948       0.07771873       0.59386104 </v>
   <v>       0.50152427       0.91982394       0.68772209 </v>
   <v>       0.65941900       0.76192909       0.78158313 </v>
   <v>       0.81731385       0.60403425       0.87544423 </v>
   <v>       0.26468235       0.15666580       0.99277061 </v>
   <v>       0.47520840       0.94613987       0.52346528 </v>
   <v>       0.63310319       0.78824508       0.61732626 </v>
   <v>       0.79099798       0.63035017       0.71118736 </v>
   <v>       0.94889283       0.47245532       0.80504847 </v>
   <v>       0.10678756       0.31456047       0.89890951 </v>
   <v>       0.47520846       0.94613951       0.96930522 </v>
   <v>       0.68573463       0.73561359       0.49999994 </v>
   <v>       0.84362942       0.57771879       0.59386092 </v>
   <v>       0.00152421       0.41982392       0.68772209 </v>
   <v>       0.15941894       0.26192909       0.78158313 </v>
   <v>       0.31731373       0.10403419       0.87544411 </v>
   <v>       0.76468235       0.65666568       0.99277073 </v>
   <v>       0.97520840       0.44613990       0.52346540 </v>
   <v>       0.13310313       0.28824505       0.61732644 </v>
   <v>       0.29099804       0.13035023       0.71118742 </v>
   <v>       0.44889277       0.97245538       0.80504859 </v>
   <v>       0.60678762       0.81456047       0.89890963 </v>
   <v>       0.97520864       0.94613940       0.96930510 </v>
   <v>       0.18573475       0.73561359       0.49999994 </v>
   <v>       0.34362951       0.57771873       0.59386092 </v>
   <v>       0.50152433       0.41982388       0.68772209 </v>
   <v>       0.65941906       0.26192909       0.78158313 </v>
   <v>       0.81731391       0.10403419       0.87544423 </v>
   <v>       0.26468235       0.65666562       0.99277073 </v>
   <v>       0.47520840       0.44613984       0.52346540 </v>
   <v>       0.63310319       0.28824502       0.61732644 </v>
   <v>       0.79099798       0.13035011       0.71118748 </v>
   <v>       0.94889277       0.97245538       0.80504852 </v>
   <v>       0.10678756       0.81456047       0.89890963 </v>
   <v>       0.47520858       0.44613946       0.96930510 </v>
   <v>       0.68573463       0.23561359       0.49999994 </v>
   <v>       0.84362942       0.07771873       0.59386104 </v>
   <v>       0.00152421       0.91982394       0.68772209 </v>
   <v>       0.15941894       0.76192921       0.78158313 </v>
   <v>       0.31731373       0.60403430       0.87544411 </v>
   <v>       0.76468259       0.15666556       0.99277073 </v>
   <v>       0.97520870       0.94613981       0.52346540 </v>
   <v>       0.13310337       0.78824496       0.61732644 </v>
   <v>       0.29099828       0.63035011       0.71118742 </v>
   <v>       0.44889301       0.47245532       0.80504852 </v>
   <v>       0.60678786       0.31456041       0.89890963 </v>
  </varray>
 </structure>
</modeling>
