 264 264   0   0
  0.2770664E+02  0.1946760E-08  0.1946760E-08  0.1930025E-08  0.5000000E-15
  1.000000000000000E-004
  CAR 
 Si and Ge interface calculation         
      6.64729640     -8.87356381  301      4.06184010      1.00000000
     -8.874  0.0000E+00  0.0000E+00  0.0000E+00  0.0000E+00
     -8.822  0.0000E+00  0.0000E+00  0.0000E+00  0.0000E+00
     -8.770  0.0000E+00  0.0000E+00  0.0000E+00  0.0000E+00
     -8.718  0.0000E+00  0.0000E+00  0.0000E+00  0.0000E+00
     -8.667  0.0000E+00  0.0000E+00  0.0000E+00  0.0000E+00
     -8.615  0.0000E+00  0.0000E+00  0.0000E+00  0.0000E+00
     -8.563  0.0000E+00  0.0000E+00  0.0000E+00  0.0000E+00
     -8.511  0.0000E+00  0.0000E+00  0.0000E+00  0.0000E+00
     -8.460  0.0000E+00  0.0000E+00  0.0000E+00  0.0000E+00
     -8.408  0.0000E+00  0.0000E+00  0.0000E+00  0.0000E+00
     -8.356  0.0000E+00  0.0000E+00  0.0000E+00  0.0000E+00
     -8.304  0.0000E+00  0.0000E+00  0.0000E+00  0.0000E+00
     -8.253  0.0000E+00  0.0000E+00  0.0000E+00  0.0000E+00
     -8.201  0.1524E-04  0.3898E-05  0.7885E-06  0.2017E-06
     -8.149  0.9626E+01  0.9581E+01  0.4980E+00  0.4957E+00
     -8.098  0.1932E+02  0.1931E+02  0.1498E+01  0.1495E+01
     -8.046  0.1527E+02  0.1372E+02  0.2288E+01  0.2204E+01
     -7.994  0.2079E+02  0.2088E+02  0.3363E+01  0.3285E+01
     -7.942  0.1231E+02  0.1383E+02  0.4000E+01  0.4000E+01
     -7.891  0.9667E+01  0.9663E+01  0.4500E+01  0.4500E+01
     -7.839  0.1963E+02  0.1932E+02  0.5516E+01  0.5500E+01
     -7.787  0.5085E+02  0.5033E+02  0.8146E+01  0.8104E+01
     -7.735  0.6839E+01  0.7664E+01  0.8500E+01  0.8500E+01
     -7.684  0.1953E+02  0.1858E+02  0.9511E+01  0.9462E+01
     -7.632  0.1913E+02  0.2007E+02  0.1050E+02  0.1050E+02
     -7.580  0.7716E+01  0.6941E+01  0.1090E+02  0.1086E+02
     -7.528  0.1161E+02  0.1238E+02  0.1150E+02  0.1150E+02
     -7.477  0.2234E+02  0.2134E+02  0.1266E+02  0.1260E+02
     -7.425  0.2598E+02  0.2699E+02  0.1400E+02  0.1400E+02
     -7.373  0.2137E+02  0.2017E+02  0.1511E+02  0.1504E+02
     -7.321  0.1864E+02  0.1937E+02  0.1607E+02  0.1605E+02
     -7.270  0.3125E+02  0.2987E+02  0.1769E+02  0.1759E+02
     -7.218  0.3487E+02  0.3651E+02  0.1949E+02  0.1948E+02
     -7.166  0.3493E+02  0.3320E+02  0.2130E+02  0.2120E+02
     -7.115  0.1402E+02  0.1573E+02  0.2202E+02  0.2201E+02
     -7.063  0.4781E+02  0.4609E+02  0.2450E+02  0.2439E+02
     -7.011  0.3669E+02  0.3607E+02  0.2639E+02  0.2626E+02
     -6.959  0.6973E+02  0.7222E+02  0.3000E+02  0.3000E+02
     -6.908  0.1605E+02  0.1506E+02  0.3083E+02  0.3078E+02
     -6.856  0.2251E+02  0.2341E+02  0.3200E+02  0.3199E+02
     -6.804  0.5227E+02  0.4988E+02  0.3470E+02  0.3457E+02
     -6.752  0.4546E+02  0.4587E+02  0.3705E+02  0.3694E+02
     -6.701  0.5333E+02  0.5207E+02  0.3981E+02  0.3964E+02
     -6.649  0.4231E+02  0.4352E+02  0.4200E+02  0.4189E+02
     -6.597  0.4679E+02  0.4667E+02  0.4442E+02  0.4430E+02
     -6.545  0.4005E+02  0.4224E+02  0.4649E+02  0.4649E+02
     -6.494  0.2107E+02  0.1832E+02  0.4758E+02  0.4743E+02
     -6.442  0.4092E+02  0.4197E+02  0.4970E+02  0.4961E+02
     -6.390  0.5970E+02  0.5912E+02  0.5279E+02  0.5266E+02
     -6.338  0.3547E+02  0.3535E+02  0.5462E+02  0.5449E+02
     -6.287  0.3365E+02  0.3425E+02  0.5636E+02  0.5627E+02
     -6.235  0.4910E+02  0.4933E+02  0.5891E+02  0.5882E+02
     -6.183  0.5931E+02  0.5830E+02  0.6197E+02  0.6183E+02
     -6.132  0.7573E+02  0.7543E+02  0.6589E+02  0.6574E+02
     -6.080  0.5627E+02  0.5652E+02  0.6880E+02  0.6866E+02
     -6.028  0.8516E+02  0.8529E+02  0.7321E+02  0.7307E+02
     -5.976  0.8329E+02  0.8289E+02  0.7752E+02  0.7736E+02
     -5.925  0.5320E+02  0.5273E+02  0.8027E+02  0.8009E+02
     -5.873  0.6545E+02  0.6549E+02  0.8366E+02  0.8348E+02
     -5.821  0.6689E+02  0.6616E+02  0.8712E+02  0.8690E+02
     -5.769  0.8903E+02  0.8923E+02  0.9172E+02  0.9152E+02
     -5.718  0.6411E+02  0.6541E+02  0.9504E+02  0.9490E+02
     -5.666  0.8052E+02  0.7921E+02  0.9921E+02  0.9900E+02
     -5.614  0.9031E+02  0.8870E+02  0.1039E+03  0.1036E+03
     -5.562  0.7524E+02  0.7980E+02  0.1078E+03  0.1077E+03
     -5.511  0.8611E+02  0.8333E+02  0.1122E+03  0.1120E+03
     -5.459  0.6279E+02  0.6375E+02  0.1155E+03  0.1153E+03
     -5.407  0.5799E+02  0.5799E+02  0.1185E+03  0.1183E+03
     -5.356  0.8553E+02  0.8406E+02  0.1229E+03  0.1227E+03
     -5.304  0.9390E+02  0.9311E+02  0.1278E+03  0.1275E+03
     -5.252  0.8008E+02  0.8075E+02  0.1319E+03  0.1317E+03
     -5.200  0.7016E+02  0.7192E+02  0.1355E+03  0.1354E+03
     -5.149  0.5984E+02  0.6109E+02  0.1386E+03  0.1386E+03
     -5.097  0.6596E+02  0.6440E+02  0.1420E+03  0.1419E+03
     -5.045  0.8888E+02  0.8693E+02  0.1466E+03  0.1464E+03
     -4.993  0.5455E+02  0.5666E+02  0.1495E+03  0.1493E+03
     -4.942  0.5329E+02  0.5342E+02  0.1522E+03  0.1521E+03
     -4.890  0.7309E+02  0.7244E+02  0.1560E+03  0.1558E+03
     -4.838  0.9940E+02  0.9671E+02  0.1611E+03  0.1608E+03
     -4.786  0.9974E+02  0.1006E+03  0.1663E+03  0.1660E+03
     -4.735  0.9589E+02  0.9813E+02  0.1713E+03  0.1711E+03
     -4.683  0.1140E+03  0.1103E+03  0.1772E+03  0.1768E+03
     -4.631  0.9487E+02  0.9623E+02  0.1821E+03  0.1818E+03
     -4.579  0.1157E+03  0.1159E+03  0.1881E+03  0.1878E+03
     -4.528  0.1017E+03  0.1032E+03  0.1933E+03  0.1931E+03
     -4.476  0.8358E+02  0.7968E+02  0.1976E+03  0.1973E+03
     -4.424  0.9593E+02  0.9797E+02  0.2026E+03  0.2023E+03
     -4.373  0.8387E+02  0.8470E+02  0.2069E+03  0.2067E+03
     -4.321  0.9896E+02  0.9804E+02  0.2121E+03  0.2118E+03
     -4.269  0.8249E+02  0.8285E+02  0.2163E+03  0.2161E+03
     -4.217  0.7407E+02  0.7239E+02  0.2202E+03  0.2198E+03
     -4.166  0.9416E+02  0.9446E+02  0.2250E+03  0.2247E+03
     -4.114  0.7287E+02  0.7772E+02  0.2288E+03  0.2287E+03
     -4.062  0.4931E+02  0.4910E+02  0.2314E+03  0.2313E+03
     -4.010  0.6520E+02  0.6316E+02  0.2347E+03  0.2345E+03
     -3.959  0.5434E+02  0.5787E+02  0.2375E+03  0.2375E+03
     -3.907  0.8454E+02  0.7996E+02  0.2419E+03  0.2417E+03
     -3.855  0.6790E+02  0.7076E+02  0.2454E+03  0.2453E+03
     -3.803  0.7345E+02  0.7136E+02  0.2492E+03  0.2490E+03
     -3.752  0.5664E+02  0.5775E+02  0.2522E+03  0.2520E+03
     -3.700  0.6359E+02  0.6267E+02  0.2555E+03  0.2552E+03
     -3.648  0.7602E+02  0.7825E+02  0.2594E+03  0.2593E+03
     -3.596  0.7802E+02  0.7409E+02  0.2634E+03  0.2631E+03
     -3.545  0.3904E+02  0.4360E+02  0.2654E+03  0.2654E+03
     -3.493  0.5351E+02  0.4916E+02  0.2682E+03  0.2679E+03
     -3.441  0.8757E+02  0.8989E+02  0.2727E+03  0.2726E+03
     -3.390  0.7453E+02  0.7226E+02  0.2766E+03  0.2763E+03
     -3.338  0.8837E+02  0.9066E+02  0.2812E+03  0.2810E+03
     -3.286  0.6568E+02  0.6174E+02  0.2846E+03  0.2842E+03
     -3.234  0.8333E+02  0.8769E+02  0.2889E+03  0.2887E+03
     -3.183  0.7878E+02  0.7607E+02  0.2930E+03  0.2927E+03
     -3.131  0.7607E+02  0.7710E+02  0.2969E+03  0.2966E+03
     -3.079  0.7028E+02  0.7079E+02  0.3005E+03  0.3003E+03
     -3.027  0.6453E+02  0.6443E+02  0.3039E+03  0.3036E+03
     -2.976  0.7235E+02  0.7251E+02  0.3076E+03  0.3074E+03
     -2.924  0.9064E+02  0.8535E+02  0.3123E+03  0.3118E+03
     -2.872  0.9666E+02  0.9926E+02  0.3173E+03  0.3169E+03
     -2.820  0.8695E+02  0.9119E+02  0.3218E+03  0.3217E+03
     -2.769  0.8013E+02  0.7663E+02  0.3259E+03  0.3256E+03
     -2.717  0.1052E+03  0.1074E+03  0.3314E+03  0.3312E+03
     -2.665  0.1011E+03  0.9916E+02  0.3366E+03  0.3363E+03
     -2.613  0.9598E+02  0.9490E+02  0.3416E+03  0.3412E+03
     -2.562  0.1099E+03  0.1116E+03  0.3473E+03  0.3470E+03
     -2.510  0.1278E+03  0.1274E+03  0.3539E+03  0.3536E+03
     -2.458  0.1065E+03  0.1083E+03  0.3594E+03  0.3592E+03
     -2.407  0.8244E+02  0.8259E+02  0.3637E+03  0.3635E+03
     -2.355  0.9976E+02  0.9741E+02  0.3688E+03  0.3685E+03
     -2.303  0.9296E+02  0.9412E+02  0.3736E+03  0.3734E+03
     -2.251  0.1037E+03  0.1037E+03  0.3790E+03  0.3787E+03
     -2.200  0.6563E+02  0.6639E+02  0.3824E+03  0.3822E+03
     -2.148  0.3528E+02  0.3651E+02  0.3842E+03  0.3841E+03
     -2.096  0.6334E+02  0.6333E+02  0.3875E+03  0.3873E+03
     -2.044  0.6169E+02  0.5934E+02  0.3907E+03  0.3904E+03
     -1.993  0.8765E+02  0.8875E+02  0.3952E+03  0.3950E+03
     -1.941  0.9536E+02  0.9366E+02  0.4002E+03  0.3999E+03
     -1.889  0.1067E+03  0.1070E+03  0.4057E+03  0.4054E+03
     -1.837  0.6509E+02  0.6740E+02  0.4090E+03  0.4089E+03
     -1.786  0.7805E+02  0.7685E+02  0.4131E+03  0.4129E+03
     -1.734  0.1026E+03  0.1006E+03  0.4184E+03  0.4181E+03
     -1.682  0.1046E+03  0.1047E+03  0.4238E+03  0.4235E+03
     -1.630  0.7055E+02  0.7240E+02  0.4274E+03  0.4272E+03
     -1.579  0.7991E+02  0.7892E+02  0.4316E+03  0.4313E+03
     -1.527  0.7625E+02  0.7669E+02  0.4355E+03  0.4353E+03
     -1.475  0.7860E+02  0.7926E+02  0.4396E+03  0.4394E+03
     -1.424  0.4830E+02  0.5059E+02  0.4421E+03  0.4420E+03
     -1.372  0.5675E+02  0.5378E+02  0.4450E+03  0.4448E+03
     -1.320  0.6997E+02  0.7281E+02  0.4486E+03  0.4485E+03
     -1.268  0.4511E+02  0.4468E+02  0.4510E+03  0.4508E+03
     -1.217  0.5714E+02  0.5701E+02  0.4539E+03  0.4538E+03
     -1.165  0.4831E+02  0.4946E+02  0.4564E+03  0.4564E+03
     -1.113  0.6230E+02  0.5964E+02  0.4597E+03  0.4594E+03
     -1.061  0.4302E+02  0.4466E+02  0.4619E+03  0.4618E+03
     -1.010  0.6673E+02  0.6526E+02  0.4653E+03  0.4651E+03
     -0.958  0.3607E+02  0.3759E+02  0.4672E+03  0.4671E+03
     -0.906  0.3925E+02  0.3814E+02  0.4692E+03  0.4690E+03
     -0.854  0.6449E+02  0.6525E+02  0.4726E+03  0.4724E+03
     -0.803  0.7140E+02  0.6880E+02  0.4763E+03  0.4760E+03
     -0.751  0.5214E+02  0.5584E+02  0.4790E+03  0.4789E+03
     -0.699  0.5359E+02  0.5152E+02  0.4817E+03  0.4815E+03
     -0.648  0.6891E+02  0.6926E+02  0.4853E+03  0.4851E+03
     -0.596  0.3917E+02  0.4183E+02  0.4873E+03  0.4873E+03
     -0.544  0.2634E+02  0.2529E+02  0.4887E+03  0.4886E+03
     -0.492  0.1534E+02  0.1562E+02  0.4895E+03  0.4894E+03
     -0.441  0.4210E+02  0.4129E+02  0.4917E+03  0.4915E+03
     -0.389  0.4761E+02  0.4752E+02  0.4941E+03  0.4940E+03
     -0.337  0.4754E+02  0.4660E+02  0.4966E+03  0.4964E+03
     -0.285  0.9234E+02  0.9329E+02  0.5014E+03  0.5012E+03
     -0.234  0.6035E+02  0.5862E+02  0.5045E+03  0.5043E+03
     -0.182  0.7401E+02  0.7471E+02  0.5083E+03  0.5081E+03
     -0.130  0.1154E+03  0.1141E+03  0.5143E+03  0.5140E+03
     -0.078  0.1078E+03  0.1074E+03  0.5199E+03  0.5196E+03
     -0.027  0.1181E+03  0.1152E+03  0.5260E+03  0.5256E+03
      0.025  0.1106E+03  0.1110E+03  0.5317E+03  0.5313E+03
      0.077  0.1747E+03  0.1724E+03  0.5407E+03  0.5402E+03
      0.129  0.1242E+03  0.1287E+03  0.5472E+03  0.5469E+03
      0.180  0.8076E+02  0.8364E+02  0.5513E+03  0.5512E+03
      0.232  0.8425E+02  0.8118E+02  0.5557E+03  0.5554E+03
      0.284  0.9401E+02  0.9701E+02  0.5606E+03  0.5604E+03
      0.335  0.7151E+02  0.7111E+02  0.5643E+03  0.5641E+03
      0.387  0.9836E+02  0.9542E+02  0.5693E+03  0.5690E+03
      0.439  0.1053E+03  0.1067E+03  0.5748E+03  0.5746E+03
      0.491  0.5770E+02  0.6114E+02  0.5778E+03  0.5777E+03
      0.542  0.1216E+03  0.1182E+03  0.5841E+03  0.5838E+03
      0.594  0.1493E+03  0.1476E+03  0.5918E+03  0.5915E+03
      0.646  0.1334E+03  0.1324E+03  0.5987E+03  0.5983E+03
      0.698  0.1388E+03  0.1422E+03  0.6059E+03  0.6057E+03
      0.749  0.1232E+03  0.1218E+03  0.6123E+03  0.6120E+03
      0.801  0.1140E+03  0.1143E+03  0.6182E+03  0.6179E+03
      0.853  0.1151E+03  0.1149E+03  0.6241E+03  0.6238E+03
      0.905  0.9389E+02  0.9550E+02  0.6290E+03  0.6288E+03
      0.956  0.9215E+02  0.8967E+02  0.6337E+03  0.6334E+03
      1.008  0.1182E+03  0.1178E+03  0.6399E+03  0.6395E+03
      1.060  0.1781E+03  0.1766E+03  0.6491E+03  0.6486E+03
      1.112  0.1295E+03  0.1317E+03  0.6558E+03  0.6555E+03
      1.163  0.1424E+03  0.1399E+03  0.6631E+03  0.6627E+03
      1.215  0.1708E+03  0.1705E+03  0.6720E+03  0.6715E+03
      1.267  0.1689E+03  0.1714E+03  0.6807E+03  0.6804E+03
      1.318  0.1840E+03  0.1784E+03  0.6902E+03  0.6896E+03
      1.370  0.1937E+03  0.1954E+03  0.7003E+03  0.6997E+03
      1.422  0.1567E+03  0.1589E+03  0.7084E+03  0.7079E+03
      1.474  0.1510E+03  0.1511E+03  0.7162E+03  0.7158E+03
      1.525  0.2000E+03  0.1975E+03  0.7265E+03  0.7260E+03
      1.577  0.1974E+03  0.1940E+03  0.7367E+03  0.7360E+03
      1.629  0.1892E+03  0.1906E+03  0.7465E+03  0.7459E+03
      1.681  0.1635E+03  0.1652E+03  0.7550E+03  0.7544E+03
      1.732  0.1971E+03  0.1941E+03  0.7652E+03  0.7645E+03
      1.784  0.1743E+03  0.1783E+03  0.7742E+03  0.7737E+03
      1.836  0.1846E+03  0.1840E+03  0.7837E+03  0.7832E+03
      1.888  0.1657E+03  0.1670E+03  0.7923E+03  0.7919E+03
      1.939  0.1906E+03  0.1875E+03  0.8022E+03  0.8016E+03
      1.991  0.1897E+03  0.1921E+03  0.8120E+03  0.8115E+03
      2.043  0.1577E+03  0.1562E+03  0.8201E+03  0.8196E+03
      2.095  0.1890E+03  0.1894E+03  0.8299E+03  0.8294E+03
      2.146  0.1862E+03  0.1847E+03  0.8396E+03  0.8389E+03
      2.198  0.1821E+03  0.1827E+03  0.8490E+03  0.8484E+03
      2.250  0.1658E+03  0.1650E+03  0.8576E+03  0.8569E+03
      2.301  0.1629E+03  0.1619E+03  0.8660E+03  0.8653E+03
      2.353  0.1688E+03  0.1708E+03  0.8747E+03  0.8741E+03
      2.405  0.1972E+03  0.1994E+03  0.8849E+03  0.8845E+03
      2.457  0.1589E+03  0.1566E+03  0.8931E+03  0.8926E+03
      2.508  0.1476E+03  0.1476E+03  0.9008E+03  0.9002E+03
      2.560  0.1705E+03  0.1712E+03  0.9096E+03  0.9090E+03
      2.612  0.1343E+03  0.1342E+03  0.9165E+03  0.9160E+03
      2.664  0.1012E+03  0.1045E+03  0.9218E+03  0.9214E+03
      2.715  0.1553E+03  0.1530E+03  0.9298E+03  0.9293E+03
      2.767  0.1420E+03  0.1437E+03  0.9372E+03  0.9367E+03
      2.819  0.1459E+03  0.1433E+03  0.9447E+03  0.9442E+03
      2.871  0.1384E+03  0.1370E+03  0.9519E+03  0.9512E+03
      2.922  0.1412E+03  0.1433E+03  0.9592E+03  0.9587E+03
      2.974  0.1010E+03  0.1019E+03  0.9644E+03  0.9639E+03
      3.026  0.1518E+03  0.1497E+03  0.9723E+03  0.9717E+03
      3.077  0.1157E+03  0.1162E+03  0.9782E+03  0.9777E+03
      3.129  0.1248E+03  0.1244E+03  0.9847E+03  0.9841E+03
      3.181  0.9774E+02  0.9795E+02  0.9898E+03  0.9892E+03
      3.233  0.1186E+03  0.1175E+03  0.9959E+03  0.9953E+03
      3.284  0.1162E+03  0.1157E+03  0.1002E+04  0.1001E+04
      3.336  0.1077E+03  0.1107E+03  0.1007E+04  0.1007E+04
      3.388  0.6734E+02  0.6969E+02  0.1011E+04  0.1011E+04
      3.440  0.1035E+03  0.1018E+03  0.1016E+04  0.1016E+04
      3.491  0.6918E+02  0.6846E+02  0.1020E+04  0.1019E+04
      3.543  0.8852E+02  0.8831E+02  0.1024E+04  0.1024E+04
      3.595  0.8648E+02  0.9128E+02  0.1029E+04  0.1029E+04
      3.647  0.6762E+02  0.6832E+02  0.1032E+04  0.1032E+04
      3.698  0.3739E+02  0.3184E+02  0.1034E+04  0.1034E+04
      3.750  0.7204E+02  0.7816E+02  0.1038E+04  0.1038E+04
      3.802  0.3805E+02  0.3286E+02  0.1040E+04  0.1040E+04
      3.854  0.4897E+02  0.5479E+02  0.1043E+04  0.1042E+04
      3.905  0.3668E+02  0.3821E+02  0.1045E+04  0.1044E+04
      3.957  0.5682E+02  0.4732E+02  0.1047E+04  0.1047E+04
      4.009  0.6999E+02  0.7293E+02  0.1051E+04  0.1051E+04
      4.060  0.9250E+02  0.8137E+02  0.1056E+04  0.1055E+04
      4.112  0.9606E+02  0.9899E+02  0.1061E+04  0.1060E+04
      4.164  0.9052E+02  0.9084E+02  0.1066E+04  0.1065E+04
      4.216  0.1144E+03  0.1172E+03  0.1071E+04  0.1071E+04
      4.267  0.1020E+03  0.9629E+02  0.1077E+04  0.1076E+04
      4.319  0.8136E+02  0.8381E+02  0.1081E+04  0.1080E+04
      4.371  0.1120E+03  0.1132E+03  0.1087E+04  0.1086E+04
      4.423  0.1103E+03  0.1094E+03  0.1092E+04  0.1092E+04
      4.474  0.1230E+03  0.1246E+03  0.1099E+04  0.1098E+04
      4.526  0.1112E+03  0.1125E+03  0.1105E+04  0.1104E+04
      4.578  0.9974E+02  0.9871E+02  0.1110E+04  0.1109E+04
      4.630  0.1096E+03  0.1110E+03  0.1115E+04  0.1115E+04
      4.681  0.1270E+03  0.1280E+03  0.1122E+04  0.1121E+04
      4.733  0.1076E+03  0.1055E+03  0.1127E+04  0.1127E+04
      4.785  0.1071E+03  0.1076E+03  0.1133E+04  0.1132E+04
      4.837  0.1293E+03  0.1293E+03  0.1140E+04  0.1139E+04
      4.888  0.1173E+03  0.1199E+03  0.1146E+04  0.1145E+04
      4.940  0.1025E+03  0.1038E+03  0.1151E+04  0.1151E+04
      4.992  0.1298E+03  0.1273E+03  0.1158E+04  0.1157E+04
      5.043  0.1074E+03  0.1052E+03  0.1163E+04  0.1163E+04
      5.095  0.1461E+03  0.1484E+03  0.1171E+04  0.1170E+04
      5.147  0.1105E+03  0.1125E+03  0.1177E+04  0.1176E+04
      5.199  0.1040E+03  0.1043E+03  0.1182E+04  0.1182E+04
      5.250  0.9525E+02  0.9778E+02  0.1187E+04  0.1187E+04
      5.302  0.1062E+03  0.1026E+03  0.1192E+04  0.1192E+04
      5.354  0.1244E+03  0.1260E+03  0.1199E+04  0.1198E+04
      5.406  0.1381E+03  0.1356E+03  0.1206E+04  0.1205E+04
      5.457  0.1512E+03  0.1533E+03  0.1214E+04  0.1213E+04
      5.509  0.1314E+03  0.1289E+03  0.1221E+04  0.1220E+04
      5.561  0.1529E+03  0.1545E+03  0.1229E+04  0.1228E+04
      5.613  0.1212E+03  0.1216E+03  0.1235E+04  0.1234E+04
      5.664  0.1439E+03  0.1456E+03  0.1242E+04  0.1242E+04
      5.716  0.1168E+03  0.1125E+03  0.1248E+04  0.1248E+04
      5.768  0.1328E+03  0.1378E+03  0.1255E+04  0.1255E+04
      5.820  0.1316E+03  0.1296E+03  0.1262E+04  0.1261E+04
      5.871  0.1258E+03  0.1291E+03  0.1269E+04  0.1268E+04
      5.923  0.5900E+02  0.6266E+02  0.1272E+04  0.1271E+04
      5.975  0.8390E+01  0.1136E+02  0.1272E+04  0.1272E+04
      6.026  0.0000E+00  0.0000E+00  0.1272E+04  0.1272E+04
      6.078  0.0000E+00  0.0000E+00  0.1272E+04  0.1272E+04
      6.130  0.0000E+00  0.0000E+00  0.1272E+04  0.1272E+04
      6.182  0.0000E+00  0.0000E+00  0.1272E+04  0.1272E+04
      6.233  0.0000E+00  0.0000E+00  0.1272E+04  0.1272E+04
      6.285  0.0000E+00  0.0000E+00  0.1272E+04  0.1272E+04
      6.337  0.0000E+00  0.0000E+00  0.1272E+04  0.1272E+04
      6.389  0.0000E+00  0.0000E+00  0.1272E+04  0.1272E+04
      6.440  0.0000E+00  0.0000E+00  0.1272E+04  0.1272E+04
      6.492  0.0000E+00  0.0000E+00  0.1272E+04  0.1272E+04
      6.544  0.0000E+00  0.0000E+00  0.1272E+04  0.1272E+04
      6.596  0.0000E+00  0.0000E+00  0.1272E+04  0.1272E+04
      6.647  0.0000E+00  0.0000E+00  0.1272E+04  0.1272E+04
