       N       E                     dE             d eps       ncg     rms          rms(c)
DAV:   1     0.465218702174E+04    0.46522E+04   -0.44325E+05 20352   0.167E+03
DAV:   2    -0.598692663897E+03   -0.52509E+04   -0.50699E+04 23984   0.203E+02
DAV:   3    -0.113157406231E+04   -0.53288E+03   -0.51549E+03 25984   0.587E+01
DAV:   4    -0.115393199248E+04   -0.22358E+02   -0.21875E+02 24832   0.129E+01
DAV:   5    -0.115496529820E+04   -0.10333E+01   -0.10228E+01 28792   0.272E+00    0.477E+01
DAV:   6    -0.112411810496E+04    0.30847E+02   -0.11986E+02 31376   0.138E+01    0.220E+01
DAV:   7    -0.112236207920E+04    0.17560E+01   -0.70978E+01 26064   0.117E+01    0.159E+01
DAV:   8    -0.111958052958E+04    0.27815E+01   -0.16116E+01 24144   0.523E+00    0.334E+00
DAV:   9    -0.111961478725E+04   -0.34258E-01   -0.45363E+00 25472   0.253E+00    0.243E+00
DAV:  10    -0.111943578796E+04    0.17900E+00   -0.14530E+00 24680   0.150E+00    0.148E+00
DAV:  11    -0.111943444177E+04    0.13462E-02   -0.30536E-01 23552   0.588E-01    0.110E+00
DAV:  12    -0.111943575398E+04   -0.13122E-02   -0.61403E-02 24200   0.306E-01    0.777E-01
DAV:  13    -0.111943364942E+04    0.21046E-02   -0.35146E-02 24488   0.230E-01    0.419E-01
DAV:  14    -0.111943272596E+04    0.92346E-03   -0.13862E-02 24600   0.145E-01    0.197E-01
DAV:  15    -0.111943239669E+04    0.32927E-03   -0.48968E-03 24408   0.934E-02    0.113E-01
DAV:  16    -0.111943225992E+04    0.13676E-03   -0.19614E-03 23728   0.516E-02    0.686E-02
DAV:  17    -0.111943227279E+04   -0.12868E-04   -0.49156E-04 23664   0.214E-02    0.573E-02
DAV:  18    -0.111943228061E+04   -0.78139E-05   -0.89303E-05 23656   0.104E-02    0.263E-02
DAV:  19    -0.111943227438E+04    0.62278E-05   -0.29909E-05 23632   0.646E-03    0.154E-02
DAV:  20    -0.111943227327E+04    0.11090E-05   -0.10354E-05 24608   0.422E-03    0.105E-02
DAV:  21    -0.111943227397E+04   -0.69643E-06   -0.53030E-06 23912   0.254E-03    0.527E-03
DAV:  22    -0.111943227465E+04   -0.68688E-06   -0.18574E-06 23384   0.132E-03    0.281E-03
DAV:  23    -0.111943227496E+04   -0.30781E-06   -0.32840E-07 15784   0.575E-04    0.210E-03
DAV:  24    -0.111943227555E+04   -0.59215E-06   -0.21246E-07 14856   0.459E-04    0.118E-03
DAV:  25    -0.111943227585E+04   -0.29926E-06   -0.11755E-07 12400   0.359E-04    0.988E-04
DAV:  26    -0.111943227590E+04   -0.48669E-07   -0.64308E-08 12232   0.259E-04
   1 F= -.11194323E+04 E0= -.11194298E+04  d E =-.485264E-02  mag=     1.0000
