<?xml version="1.0" encoding="ISO-8859-1"?>
<modeling>
 <generator>
  <i name="program" type="string">vasp </i>
  <i name="version" type="string">6.4.3  </i>
  <i name="subversion" type="string">19Mar24 (build Oct 22 2024 11:23:12) complex                          parallel </i>
  <i name="platform" type="string">LinuxIFC </i>
  <i name="date" type="string">2025 06 09 </i>
  <i name="time" type="string">02:31:36 </i>
 </generator>
 <incar>
  <i type="string" name="SYSTEM">Si and Ge interface calculation</i>
  <i type="int" name="ISTART">     0</i>
  <i type="logical" name="ADDGRID"> T  </i>
  <i type="int" name="ISPIN">     2</i>
  <i name="AMIX">      0.60000000</i>
  <i type="int" name="ICHARG">     2</i>
  <i type="int" name="NELM">   100</i>
  <i name="EDIFF">      0.00000010</i>
  <i name="ENCUT">    700.00000000</i>
  <i name="ENAUG">    900.00000000</i>
  <i type="int" name="NBANDS">   404</i>
  <i name="NUPDOWN">      1.00000000</i>
  <i name="NELECT">    672.00000000</i>
  <i type="string" name="LREAL">AUTO</i>
  <i type="int" name="ISMEAR">     0</i>
  <i name="SIGMA">      0.01000000</i>
  <i type="int" name="LMAXMIX">     6</i>
  <i type="logical" name="LWAVE"> F  </i>
  <i type="logical" name="LVTOT"> F  </i>
  <i type="logical" name="LVHAR"> T  </i>
  <i type="logical" name="LASPH"> T  </i>
  <i type="logical" name="LMIXTAU"> T  </i>
 </incar>
 <primitive_cell>
  <structure name="primitive_cell" >
   <crystal>
    <varray name="basis" >
     <v>       8.00133705       0.00000165       0.00000000 </v>
     <v>      -4.00066900       6.92936230       0.00000000 </v>
     <v>       0.00000000       0.00000000      20.30400658 </v>
    </varray>
    <i name="volume">   1125.73879025 </i>
    <varray name="rec_basis" >
     <v>       0.12497910       0.07215671       0.00000000 </v>
     <v>      -0.00000003       0.14431341       0.00000000 </v>
     <v>       0.00000000       0.00000000       0.04925136 </v>
    </varray>
   </crystal>
   <varray name="positions" >
    <v>       0.97153461       0.98576666       0.00000000 </v>
    <v>       0.30486768       0.65243362       0.16088121 </v>
    <v>       0.63820088       0.31909999       0.32176241 </v>
    <v>       0.30486789       0.65243380       0.04022032 </v>
    <v>       0.63820112       0.31909987       0.20110148 </v>
    <v>       0.97153437       0.98576642       0.36198270 </v>
    <v>       0.47153458       0.48576713       0.00000001 </v>
    <v>       0.80486774       0.15243344       0.16088121 </v>
    <v>       0.13820080       0.81910017       0.32176241 </v>
    <v>       0.80486798       0.15243332       0.04022027 </v>
    <v>       0.13820103       0.81910029       0.20110148 </v>
    <v>       0.47153449       0.48576701       0.36198267 </v>
    <v>       0.47153455       0.98576707       0.00000001 </v>
    <v>       0.80486774       0.65243326       0.16088119 </v>
    <v>       0.13820083       0.31910035       0.32176241 </v>
    <v>       0.80486798       0.65243350       0.04022029 </v>
    <v>       0.13820100       0.31910023       0.20110147 </v>
    <v>       0.47153449       0.98576684       0.36198261 </v>
    <v>       0.97153461       0.48576678       0.00000001 </v>
    <v>       0.30486768       0.15243380       0.16088121 </v>
    <v>       0.63820088       0.81909981       0.32176241 </v>
    <v>       0.30486795       0.15243380       0.04022032 </v>
    <v>       0.63820124       0.81910005       0.20110148 </v>
    <v>       0.97153449       0.48576666       0.36198270 </v>
    <v>       0.64150941       0.65374878       0.47340384 </v>
    <v>       0.64150941       0.32041558       0.65792614 </v>
    <v>       0.64150953       0.98708233       0.84244835 </v>
    <v>       0.30817604       0.98708247       0.47340384 </v>
    <v>       0.30817628       0.65374939       0.65792608 </v>
    <v>       0.30817628       0.32041614       0.84244847 </v>
    <v>       0.97484291       0.32041550       0.47340384 </v>
    <v>       0.97484291       0.98708225       0.65792608 </v>
    <v>       0.97484291       0.65374900       0.84244835 </v>
    <v>       0.64150953       0.32041558       0.51953435 </v>
    <v>       0.64150941       0.98708233       0.70405674 </v>
    <v>       0.64150953       0.65374908       0.88857901 </v>
    <v>       0.30817628       0.65374915       0.51953435 </v>
    <v>       0.30817628       0.32041590       0.70405668 </v>
    <v>       0.30817628       0.98708265       0.88857901 </v>
    <v>       0.97484291       0.98708195       0.51953435 </v>
    <v>       0.97484291       0.65374900       0.70405674 </v>
    <v>       0.97484291       0.32041550       0.88857901 </v>
   </varray>
  </structure>
  <varray name="primitive_index" >
   <v type="int" >        1 </v>
   <v type="int" >        8 </v>
   <v type="int" >       12 </v>
   <v type="int" >       16 </v>
   <v type="int" >       14 </v>
   <v type="int" >       21 </v>
   <v type="int" >       28 </v>
   <v type="int" >       26 </v>
   <v type="int" >       33 </v>
   <v type="int" >       43 </v>
   <v type="int" >       38 </v>
   <v type="int" >       48 </v>
   <v type="int" >       49 </v>
   <v type="int" >       50 </v>
   <v type="int" >       60 </v>
   <v type="int" >       70 </v>
   <v type="int" >       62 </v>
   <v type="int" >       69 </v>
   <v type="int" >       76 </v>
   <v type="int" >       80 </v>
   <v type="int" >       81 </v>
   <v type="int" >       85 </v>
   <v type="int" >       86 </v>
   <v type="int" >       96 </v>
   <v type="int" >      118 </v>
   <v type="int" >      119 </v>
   <v type="int" >      156 </v>
   <v type="int" >      157 </v>
   <v type="int" >      122 </v>
   <v type="int" >      123 </v>
   <v type="int" >      103 </v>
   <v type="int" >      140 </v>
   <v type="int" >      105 </v>
   <v type="int" >      127 </v>
   <v type="int" >      164 </v>
   <v type="int" >      129 </v>
   <v type="int" >      130 </v>
   <v type="int" >      131 </v>
   <v type="int" >      168 </v>
   <v type="int" >      148 </v>
   <v type="int" >      113 </v>
   <v type="int" >      114 </v>
  </varray>
 </primitive_cell>
 <kpoints>
  <generation param="Gamma">
   <v type="int" name="divisions">       2        2        2 </v>
   <v name="usershift">      0.00000000       0.00000000       0.00000000 </v>
   <v name="genvec1">      0.50000000       0.00000000       0.00000000 </v>
   <v name="genvec2">      0.00000000       0.50000000       0.00000000 </v>
   <v name="genvec3">      0.00000000       0.00000000       0.50000000 </v>
   <v name="shift">      0.00000000       0.00000000       0.00000000 </v>
  </generation>
  <varray name="kpointlist" >
   <v>       0.00000000       0.00000000       0.00000000 </v>
   <v>       0.50000000       0.00000000       0.00000000 </v>
   <v>       0.00000000       0.50000000       0.00000000 </v>
   <v>       0.50000000       0.50000000       0.00000000 </v>
   <v>       0.00000000       0.00000000       0.50000000 </v>
   <v>       0.50000000       0.00000000       0.50000000 </v>
   <v>       0.00000000       0.50000000       0.50000000 </v>
   <v>       0.50000000       0.50000000       0.50000000 </v>
  </varray>
  <varray name="weights" >
   <v>       0.12500000 </v>
   <v>       0.12500000 </v>
   <v>       0.12500000 </v>
   <v>       0.12500000 </v>
   <v>       0.12500000 </v>
   <v>       0.12500000 </v>
   <v>       0.12500000 </v>
   <v>       0.12500000 </v>
  </varray>
 </kpoints>
 <parameters>
  <separator name="general" >
   <i type="string" name="SYSTEM">Si and Ge interface calculation</i>
   <i type="logical" name="LCOMPAT"> F  </i>
  </separator>
  <separator name="electronic" >
   <i type="string" name="PREC">normal</i>
   <i name="ENMAX">    700.00000000</i>
   <i name="ENAUG">    900.00000000</i>
   <i name="EDIFF">      0.00000010</i>
   <i type="int" name="IALGO">    38</i>
   <i type="int" name="IWAVPR">    10</i>
   <i type="int" name="NBANDS">   404</i>
   <i type="int" name="NBANDSLOW">    -1</i>
   <i type="int" name="NBANDSHIGH">    -1</i>
   <i name="NELECT">    672.00000000</i>
   <i type="int" name="TURBO">     0</i>
   <i type="int" name="IRESTART">     0</i>
   <i type="int" name="NREBOOT">     0</i>
   <i type="int" name="NMIN">     0</i>
   <i name="EREF">      0.00000000</i>
   <separator name="electronic smearing" >
    <i type="int" name="ISMEAR">     0</i>
    <i name="SIGMA">      0.01000000</i>
    <i name="KSPACING">      0.50000000</i>
    <i type="logical" name="KGAMMA"> T  </i>
    <i type="logical" name="KBLOWUP"> T  </i>
   </separator>
   <separator name="electronic projectors" >
    <i type="logical" name="LREAL"> T  </i>
    <v name="ROPT">     -0.00050000     -0.00050000</v>
    <i type="int" name="LMAXPAW">  -100</i>
    <i type="int" name="LMAXMIX">     6</i>
    <i type="logical" name="NLSPLINE"> F  </i>
   </separator>
   <separator name="electronic startup" >
    <i type="int" name="ISTART">     0</i>
    <i type="int" name="ICHARG">     2</i>
    <i type="int" name="INIWAV">     1</i>
   </separator>
   <separator name="electronic spin" >
    <i type="int" name="ISPIN">     2</i>
    <i type="logical" name="LNONCOLLINEAR"> F  </i>
    <v name="MAGMOM">      0.00595238      0.00595238      0.00595238      0.00595238      0.00595238      0.00595238      0.00595238      0.00595238      0.00595238      0.00595238      0.00595238      0.00595238      0.00595238      0.00595238      0.00595238      0.00595238      0.00595238      0.00595238      0.00595238      0.00595238
      0.00595238      0.00595238      0.00595238      0.00595238      0.00595238      0.00595238      0.00595238      0.00595238      0.00595238      0.00595238      0.00595238      0.00595238      0.00595238      0.00595238      0.00595238      0.00595238      0.00595238      0.00595238      0.00595238      0.00595238
      0.00595238      0.00595238      0.00595238      0.00595238      0.00595238      0.00595238      0.00595238      0.00595238      0.00595238      0.00595238      0.00595238      0.00595238      0.00595238      0.00595238      0.00595238      0.00595238      0.00595238      0.00595238      0.00595238      0.00595238
      0.00595238      0.00595238      0.00595238      0.00595238      0.00595238      0.00595238      0.00595238      0.00595238      0.00595238      0.00595238      0.00595238      0.00595238      0.00595238      0.00595238      0.00595238      0.00595238      0.00595238      0.00595238      0.00595238      0.00595238
      0.00595238      0.00595238      0.00595238      0.00595238      0.00595238      0.00595238      0.00595238      0.00595238      0.00595238      0.00595238      0.00595238      0.00595238      0.00595238      0.00595238      0.00595238      0.00595238      0.00595238      0.00595238      0.00595238      0.00595238
      0.00595238      0.00595238      0.00595238      0.00595238      0.00595238      0.00595238      0.00595238      0.00595238      0.00595238      0.00595238      0.00595238      0.00595238      0.00595238      0.00595238      0.00595238      0.00595238      0.00595238      0.00595238      0.00595238      0.00595238
      0.00595238      0.00595238      0.00595238      0.00595238      0.00595238      0.00595238      0.00595238      0.00595238      0.00595238      0.00595238      0.00595238      0.00595238      0.00595238      0.00595238      0.00595238      0.00595238      0.00595238      0.00595238      0.00595238      0.00595238
      0.00595238      0.00595238      0.00595238      0.00595238      0.00595238      0.00595238      0.00595238      0.00595238      0.00595238      0.00595238      0.00595238      0.00595238      0.00595238      0.00595238      0.00595238      0.00595238      0.00595238      0.00595238      0.00595238      0.00595238
      0.00595238      0.00595238      0.00595238      0.00595238      0.00595238      0.00595238      0.00595238      0.00595238</v>
    <i name="NUPDOWN">      1.00000000</i>
    <i type="logical" name="LSORBIT"> F  </i>
    <v name="SAXIS">      0.00000000      0.00000000      1.00000000</v>
    <i type="logical" name="LSPIRAL"> F  </i>
    <v name="QSPIRAL">      0.00000000      0.00000000      0.00000000</v>
    <i type="logical" name="LZEROZ"> F  </i>
   </separator>
   <separator name="electronic exchange-correlation" >
    <i type="logical" name="LASPH"> T  </i>
   </separator>
   <separator name="electronic convergence" >
    <i type="int" name="NELM">   100</i>
    <i type="int" name="NELMDL">    -5</i>
    <i type="int" name="NELMIN">     2</i>
    <i name="ENINI">    700.00000000</i>
    <separator name="electronic convergence detail" >
     <i type="logical" name="LDIAG"> T  </i>
     <i type="logical" name="LSUBROT"> F  </i>
     <i name="WEIMIN">      0.00000000</i>
     <i name="EBREAK">      0.00000000</i>
     <i name="DEPER">      0.30000000</i>
     <i type="int" name="NRMM">     4</i>
     <i name="TIME">      0.40000000</i>
    </separator>
   </separator>
   <separator name="electronic mixer" >
    <i name="AMIX">      0.60000000</i>
    <i name="BMIX">      1.00000000</i>
    <i name="AMIN">      0.10000000</i>
    <i name="AMIX_MAG">      2.40000000</i>
    <i name="BMIX_MAG">      1.00000000</i>
    <separator name="electronic mixer details" >
     <i type="int" name="IMIX">     4</i>
     <i type="logical" name="MIXFIRST"> F  </i>
     <i type="int" name="MAXMIX">   -45</i>
     <i name="WC">    100.00000000</i>
     <i type="int" name="INIMIX">     1</i>
     <i type="int" name="MIXPRE">     1</i>
     <i type="int" name="MREMOVE">     5</i>
    </separator>
   </separator>
   <separator name="electronic dipolcorrection" >
    <i type="logical" name="LDIPOL"> F  </i>
    <i type="logical" name="LMONO"> F  </i>
    <i type="int" name="IDIPOL">     0</i>
    <i name="EPSILON">      1.00000000</i>
    <v name="DIPOL">   -100.00000000   -100.00000000   -100.00000000</v>
    <i name="EFIELD">      0.00000000</i>
    <i type="logical" name="LVACPOTAV"> F  </i>
   </separator>
  </separator>
  <separator name="grids" >
   <i type="int" name="NGX">   108</i>
   <i type="int" name="NGY">   108</i>
   <i type="int" name="NGZ">   140</i>
   <i type="int" name="NGXF">   216</i>
   <i type="int" name="NGYF">   216</i>
   <i type="int" name="NGZF">   280</i>
   <i type="logical" name="ADDGRID"> T  </i>
  </separator>
  <separator name="ionic" >
   <i type="int" name="NSW">     0</i>
   <i type="int" name="IBRION">    -1</i>
   <i type="int" name="MDALGO">     0</i>
   <i type="int" name="ISIF">     2</i>
   <i name="PSTRESS">      0.00000000</i>
   <i name="EDIFFG">      0.00000100</i>
   <i type="int" name="NFREE">     0</i>
   <i name="POTIM">      0.50000000</i>
   <i name="SMASS">     -3.00000000</i>
   <i name="SCALEE">      1.00000000</i>
  </separator>
  <separator name="ionic md" >
   <i name="TEBEG">      0.00010000</i>
   <i name="TEEND">      0.00010000</i>
   <i type="int" name="NBLOCK">     1</i>
   <i type="int" name="KBLOCK">     1</i>
   <i type="int" name="NPACO">   256</i>
   <i name="APACO">     10.00000000</i>
  </separator>
  <separator name="symmetry" >
   <i type="int" name="ISYM">     2</i>
   <i name="SYMPREC">      0.00001000</i>
  </separator>
  <separator name="dos" >
   <i type="int" name="LORBIT">     0</i>
   <v name="RWIGS">     -1.00000000     -1.00000000</v>
   <i type="int" name="NEDOS">   301</i>
   <i name="EMIN">     10.00000000</i>
   <i name="EMAX">    -10.00000000</i>
   <i name="EFERMI">      0.00000000</i>
  </separator>
  <separator name="writing" >
   <i type="int" name="NWRITE">     2</i>
   <i type="logical" name="LWAVE"> F  </i>
   <i type="logical" name="LDOWNSAMPLE"> F  </i>
   <i type="logical" name="LCHARG"> T  </i>
   <i type="logical" name="LPARD"> F  </i>
   <i type="logical" name="LVTOT"> F  </i>
   <i type="logical" name="LVHAR"> T  </i>
   <i type="logical" name="LELF"> F  </i>
   <i type="logical" name="LOPTICS"> F  </i>
   <v name="STM">      0.00000000      0.00000000      0.00000000      0.00000000      0.00000000      0.00000000      0.00000000</v>
  </separator>
  <separator name="performance" >
   <i type="int" name="NPAR">     4</i>
   <i type="int" name="NSIM">     4</i>
   <i type="int" name="NBLK">    -1</i>
   <i type="logical" name="LPLANE"> T  </i>
   <i type="logical" name="LSCALAPACK"> T  </i>
   <i type="logical" name="LSCAAWARE"> F  </i>
   <i type="logical" name="LSCALU"> F  </i>
   <i type="logical" name="LASYNC"> F  </i>
   <i type="logical" name="LORBITALREAL"> F  </i>
  </separator>
  <separator name="miscellaneous" >
   <i type="int" name="IDIOT">     3</i>
   <i type="int" name="PHON_NSTRUCT">    -1</i>
   <i type="logical" name="LMUSIC"> F  </i>
   <v name="POMASS">     72.61000000    118.71000000</v>
   <v name="DARWINR">      0.00000000      0.00000000</v>
   <v name="DARWINV">      1.00000000      1.00000000</v>
   <i type="logical" name="LCORR"> T  </i>
  </separator>
  <i type="logical" name="GGA_COMPAT"> T  </i>
  <i type="logical" name="LBERRY"> F  </i>
  <i type="int" name="ICORELEVEL">     0</i>
  <i type="logical" name="LDAU"> F  </i>
  <i type="int" name="I_CONSTRAINED_M">     0</i>
  <separator name="electronic exchange-correlation" >
   <i type="string" name="GGA    ">PE</i>
   <i type="string" name="XC_C">1</i>
   <i type="int" name="VOSKOWN">     0</i>
   <i type="logical" name="LHFCALC"> F  </i>
   <i type="string" name="PRECFOCK"></i>
   <i type="logical" name="LSYMGRAD"> F  </i>
   <i type="logical" name="LHFONE"> F  </i>
   <i type="logical" name="LRHFCALC"> F  </i>
   <i type="logical" name="LTHOMAS"> F  </i>
   <i type="logical" name="LMODELHF"> F  </i>
   <i type="logical" name="LFOCKACE"> F  </i>
   <i name="ENCUT4O">     -1.00000000</i>
   <i type="int" name="EXXOEP">     0</i>
   <i type="int" name="FOURORBIT">     0</i>
   <i name="AEXX">      0.00000000</i>
   <i name="HFALPHA">      0.00000000</i>
   <i name="MCALPHA">      0.00000000</i>
   <i name="ALDAX">      1.00000000</i>
   <i name="AGGAX">      1.00000000</i>
   <i name="AMGGAX">      1.00000000</i>
   <i name="ALDAC">      1.00000000</i>
   <i name="AGGAC">      1.00000000</i>
   <i name="AMGGAC">      1.00000000</i>
   <i type="int" name="NKREDX">     1</i>
   <i type="int" name="NKREDY">     1</i>
   <i type="int" name="NKREDZ">     1</i>
   <i type="logical" name="SHIFTRED"> F  </i>
   <i type="logical" name="ODDONLY"> F  </i>
   <i type="logical" name="EVENONLY"> F  </i>
   <i type="int" name="LMAXFOCK">     0</i>
   <i type="int" name="NMAXFOCKAE">     0</i>
   <i type="logical" name="LFOCKAEDFT"> F  </i>
   <i name="HFSCREEN">      0.00000000</i>
   <i name="HFSCREENC">      0.00000000</i>
   <i type="int" name="NBANDSGWLOW">     0</i>
  </separator>
  <separator name="vdW DFT" >
   <i type="logical" name="LUSE_VDW"> F  </i>
   <i type="int" name="IVDW_NL">    -1</i>
   <i type="logical" name="LSPIN_VDW"> F  </i>
   <i name="ZAB_VDW">     -0.84910000</i>
   <i name="GAMMA_VDW">      1.39626340</i>
   <i name="ALPHA_VDW">      0.00000000</i>
   <i name="PARAM1">      0.12340000</i>
   <i name="PARAM2">      1.00000000</i>
   <i name="BPARAM">      6.30000000</i>
   <i name="CPARAM">      0.00930000</i>
  </separator>
  <separator name="model GW" >
   <i type="int" name="MODEL_GW">     0</i>
   <i name="MODEL_EPS0">     16.08198272</i>
   <i name="MODEL_ALPHA">      1.00000000</i>
  </separator>
  <separator name="linear response parameters" >
   <i type="logical" name="LEPSILON"> F  </i>
   <i type="logical" name="LRPA"> F  </i>
   <i type="logical" name="LNABLA"> F  </i>
   <i type="logical" name="LVEL"> F  </i>
   <i name="CSHIFT">      0.10000000</i>
   <i name="OMEGAMAX">     -1.00000000</i>
   <i name="DEG_THRESHOLD">      0.00200000</i>
   <i name="RTIME">     -0.10000000</i>
   <i name="WPLASMAI">      0.00000000</i>
   <v name="DFIELD">      0.00000000      0.00000000      0.00000000</v>
   <v name="WPLASMA">      0.00000000      0.00000000      0.00000000      0.00000000      0.00000000      0.00000000      0.00000000      0.00000000      0.00000000</v>
  </separator>
  <separator name="orbital magnetization" >
   <i type="logical" name="NUCIND"> F  </i>
   <v name="MAGPOS">      0.00000000      0.00000000      0.00000000</v>
   <i type="logical" name="LNICSALL"> T  </i>
   <i type="logical" name="ORBITALMAG"> F  </i>
   <i type="logical" name="LMAGBLOCH"> F  </i>
   <i type="logical" name="LCHIMAG"> F  </i>
   <i type="logical" name="LGAUGE"> T  </i>
   <i type="int" name="MAGATOM">     0</i>
   <v name="MAGDIPOL">      0.00000000      0.00000000      0.00000000</v>
   <v name="AVECCONST">      0.00000000      0.00000000      0.00000000</v>
  </separator>
  <separator name="response functions" >
   <i type="logical" name="LALL_IN_ONE"> F  </i>
   <i type="int" name="IALL_IN_ONE">    -1</i>
   <i type="int" name="NBANDS_WAVE">    -1</i>
   <i type="logical" name="LFINITE_TEMPERATURE"> F  </i>
   <i type="logical" name="LADDER"> F  </i>
   <i type="logical" name="LRPAFORCE"> F  </i>
   <i type="logical" name="LFXC"> F  </i>
   <i type="logical" name="LHARTREE"> T  </i>
   <i type="int" name="IBSE">     0</i>
   <v type="int" name="KPOINT">    -1     0     0     0</v>
   <i type="logical" name="LTCTC"> F  </i>
   <i type="logical" name="LTCTE"> F  </i>
   <i type="logical" name="LTETE"> F  </i>
   <i type="logical" name="LTRIPLET"> F  </i>
   <i type="logical" name="LFXCEPS"> F  </i>
   <i type="logical" name="LFXHEG"> F  </i>
   <i type="int" name="NATURALO">     2</i>
   <i type="logical" name="LHOLEGF"> F  </i>
   <i type="logical" name="L2ORDER"> F  </i>
   <i type="logical" name="LDMP1"> F  </i>
   <i type="logical" name="LMP2LT"> F  </i>
   <i type="logical" name="LSMP2LT"> F  </i>
   <i type="logical" name="LGWLF"> F  </i>
   <i name="ENCUTGW">     -1.60000002</i>
   <i name="ENCUTGWSOFT">     -1.60000002</i>
   <i name="ENCUTLF">     -1.00000000</i>
   <i type="logical" name="ESF_SPLINES"> F  </i>
   <i name="ESF_CONV">      0.01000000</i>
   <i type="int" name="ESF_NINTER">    15</i>
   <i type="int" name="LMAXMP2">    -1</i>
   <i name="SCISSOR">      0.00000000</i>
   <i type="int" name="NOMEGA">     0</i>
   <i type="int" name="NOMEGAR">     0</i>
   <i type="int" name="NBANDSGW">    -1</i>
   <i type="int" name="NBANDSO">    -1</i>
   <i type="int" name="NBANDSV">    -1</i>
   <i type="int" name="NELMGW">     1</i>
   <i type="int" name="NELMHF">     1</i>
   <i type="int" name="DIM">     3</i>
   <i type="int" name="IESPILON">     4</i>
   <i type="int" name="ANTIRES">     0</i>
   <i name="OMEGAMAX">    -30.00000000</i>
   <i name="OMEGAMIN">    -30.00000000</i>
   <i name="OMEGATL">   -200.00000000</i>
   <i type="int" name="OMEGAGRID">     0</i>
   <i name="CSHIFT">     -0.10000000</i>
   <i type="logical" name="LSELFENERGY"> F  </i>
   <i type="logical" name="LSPECTRAL"> F  </i>
   <i type="logical" name="LSPECTRALGW"> F  </i>
   <i type="logical" name="LSINGLES"> F  </i>
   <i type="logical" name="LFERMIGW"> F  </i>
   <i type="logical" name="ODDONLYGW"> F  </i>
   <i type="logical" name="EVENONLYGW"> F  </i>
   <i type="int" name="NKREDLFX">     1</i>
   <i type="int" name="NKREDLFY">     1</i>
   <i type="int" name="NKREDLFZ">     1</i>
   <i type="int" name="MAXMEM">  2800</i>
   <i type="int" name="TELESCOPE">     0</i>
   <i type="int" name="NTAUPAR">    -1</i>
   <i type="int" name="NOMEGAPAR">    -1</i>
   <i name="DAMP_NEWTON">      0.80000001</i>
   <i name="LAMBDA">      1.00000000</i>
  </separator>
  <separator name="External order field" >
   <i name="OFIELD_KAPPA">      0.00000000</i>
   <v name="OFIELD_K">      0.00000000      0.00000000      0.00000000</v>
   <i name="OFIELD_Q6_NEAR">      0.00000000</i>
   <i name="OFIELD_Q6_FAR">      0.00000000</i>
   <i name="OFIELD_A">      0.00000000</i>
  </separator>
  <separator name="optional k-points parameters" >
   <i type="int" name="KPOINTS_OPT_MODE">     1</i>
   <i type="logical" name="LKPOINTS_OPT"> F  </i>
  </separator>
 </parameters>
 <atominfo>
  <atoms>     168 </atoms>
  <types>       2 </types>
  <array name="atoms" >
   <dimension dim="1">ion</dimension>
   <field type="string">element</field>
   <field type="int">atomtype</field>
   <set>
    <rc><c>Ge</c><c>   1</c></rc>
    <rc><c>Ge</c><c>   1</c></rc>
    <rc><c>Ge</c><c>   1</c></rc>
    <rc><c>Ge</c><c>   1</c></rc>
    <rc><c>Ge</c><c>   1</c></rc>
    <rc><c>Ge</c><c>   1</c></rc>
    <rc><c>Ge</c><c>   1</c></rc>
    <rc><c>Ge</c><c>   1</c></rc>
    <rc><c>Ge</c><c>   1</c></rc>
    <rc><c>Ge</c><c>   1</c></rc>
    <rc><c>Ge</c><c>   1</c></rc>
    <rc><c>Ge</c><c>   1</c></rc>
    <rc><c>Ge</c><c>   1</c></rc>
    <rc><c>Ge</c><c>   1</c></rc>
    <rc><c>Ge</c><c>   1</c></rc>
    <rc><c>Ge</c><c>   1</c></rc>
    <rc><c>Ge</c><c>   1</c></rc>
    <rc><c>Ge</c><c>   1</c></rc>
    <rc><c>Ge</c><c>   1</c></rc>
    <rc><c>Ge</c><c>   1</c></rc>
    <rc><c>Ge</c><c>   1</c></rc>
    <rc><c>Ge</c><c>   1</c></rc>
    <rc><c>Ge</c><c>   1</c></rc>
    <rc><c>Ge</c><c>   1</c></rc>
    <rc><c>Ge</c><c>   1</c></rc>
    <rc><c>Ge</c><c>   1</c></rc>
    <rc><c>Ge</c><c>   1</c></rc>
    <rc><c>Ge</c><c>   1</c></rc>
    <rc><c>Ge</c><c>   1</c></rc>
    <rc><c>Ge</c><c>   1</c></rc>
    <rc><c>Ge</c><c>   1</c></rc>
    <rc><c>Ge</c><c>   1</c></rc>
    <rc><c>Ge</c><c>   1</c></rc>
    <rc><c>Ge</c><c>   1</c></rc>
    <rc><c>Ge</c><c>   1</c></rc>
    <rc><c>Ge</c><c>   1</c></rc>
    <rc><c>Ge</c><c>   1</c></rc>
    <rc><c>Ge</c><c>   1</c></rc>
    <rc><c>Ge</c><c>   1</c></rc>
    <rc><c>Ge</c><c>   1</c></rc>
    <rc><c>Ge</c><c>   1</c></rc>
    <rc><c>Ge</c><c>   1</c></rc>
    <rc><c>Ge</c><c>   1</c></rc>
    <rc><c>Ge</c><c>   1</c></rc>
    <rc><c>Ge</c><c>   1</c></rc>
    <rc><c>Ge</c><c>   1</c></rc>
    <rc><c>Ge</c><c>   1</c></rc>
    <rc><c>Ge</c><c>   1</c></rc>
    <rc><c>Ge</c><c>   1</c></rc>
    <rc><c>Ge</c><c>   1</c></rc>
    <rc><c>Ge</c><c>   1</c></rc>
    <rc><c>Ge</c><c>   1</c></rc>
    <rc><c>Ge</c><c>   1</c></rc>
    <rc><c>Ge</c><c>   1</c></rc>
    <rc><c>Ge</c><c>   1</c></rc>
    <rc><c>Ge</c><c>   1</c></rc>
    <rc><c>Ge</c><c>   1</c></rc>
    <rc><c>Ge</c><c>   1</c></rc>
    <rc><c>Ge</c><c>   1</c></rc>
    <rc><c>Ge</c><c>   1</c></rc>
    <rc><c>Ge</c><c>   1</c></rc>
    <rc><c>Ge</c><c>   1</c></rc>
    <rc><c>Ge</c><c>   1</c></rc>
    <rc><c>Ge</c><c>   1</c></rc>
    <rc><c>Ge</c><c>   1</c></rc>
    <rc><c>Ge</c><c>   1</c></rc>
    <rc><c>Ge</c><c>   1</c></rc>
    <rc><c>Ge</c><c>   1</c></rc>
    <rc><c>Ge</c><c>   1</c></rc>
    <rc><c>Ge</c><c>   1</c></rc>
    <rc><c>Ge</c><c>   1</c></rc>
    <rc><c>Ge</c><c>   1</c></rc>
    <rc><c>Ge</c><c>   1</c></rc>
    <rc><c>Ge</c><c>   1</c></rc>
    <rc><c>Ge</c><c>   1</c></rc>
    <rc><c>Ge</c><c>   1</c></rc>
    <rc><c>Ge</c><c>   1</c></rc>
    <rc><c>Ge</c><c>   1</c></rc>
    <rc><c>Ge</c><c>   1</c></rc>
    <rc><c>Ge</c><c>   1</c></rc>
    <rc><c>Ge</c><c>   1</c></rc>
    <rc><c>Ge</c><c>   1</c></rc>
    <rc><c>Ge</c><c>   1</c></rc>
    <rc><c>Ge</c><c>   1</c></rc>
    <rc><c>Ge</c><c>   1</c></rc>
    <rc><c>Ge</c><c>   1</c></rc>
    <rc><c>Ge</c><c>   1</c></rc>
    <rc><c>Ge</c><c>   1</c></rc>
    <rc><c>Ge</c><c>   1</c></rc>
    <rc><c>Ge</c><c>   1</c></rc>
    <rc><c>Ge</c><c>   1</c></rc>
    <rc><c>Ge</c><c>   1</c></rc>
    <rc><c>Ge</c><c>   1</c></rc>
    <rc><c>Ge</c><c>   1</c></rc>
    <rc><c>Ge</c><c>   1</c></rc>
    <rc><c>Ge</c><c>   1</c></rc>
    <rc><c>Sn</c><c>   2</c></rc>
    <rc><c>Sn</c><c>   2</c></rc>
    <rc><c>Sn</c><c>   2</c></rc>
    <rc><c>Sn</c><c>   2</c></rc>
    <rc><c>Sn</c><c>   2</c></rc>
    <rc><c>Sn</c><c>   2</c></rc>
    <rc><c>Sn</c><c>   2</c></rc>
    <rc><c>Sn</c><c>   2</c></rc>
    <rc><c>Sn</c><c>   2</c></rc>
    <rc><c>Sn</c><c>   2</c></rc>
    <rc><c>Sn</c><c>   2</c></rc>
    <rc><c>Sn</c><c>   2</c></rc>
    <rc><c>Sn</c><c>   2</c></rc>
    <rc><c>Sn</c><c>   2</c></rc>
    <rc><c>Sn</c><c>   2</c></rc>
    <rc><c>Sn</c><c>   2</c></rc>
    <rc><c>Sn</c><c>   2</c></rc>
    <rc><c>Sn</c><c>   2</c></rc>
    <rc><c>Sn</c><c>   2</c></rc>
    <rc><c>Sn</c><c>   2</c></rc>
    <rc><c>Sn</c><c>   2</c></rc>
    <rc><c>Sn</c><c>   2</c></rc>
    <rc><c>Sn</c><c>   2</c></rc>
    <rc><c>Sn</c><c>   2</c></rc>
    <rc><c>Sn</c><c>   2</c></rc>
    <rc><c>Sn</c><c>   2</c></rc>
    <rc><c>Sn</c><c>   2</c></rc>
    <rc><c>Sn</c><c>   2</c></rc>
    <rc><c>Sn</c><c>   2</c></rc>
    <rc><c>Sn</c><c>   2</c></rc>
    <rc><c>Sn</c><c>   2</c></rc>
    <rc><c>Sn</c><c>   2</c></rc>
    <rc><c>Sn</c><c>   2</c></rc>
    <rc><c>Sn</c><c>   2</c></rc>
    <rc><c>Sn</c><c>   2</c></rc>
    <rc><c>Sn</c><c>   2</c></rc>
    <rc><c>Sn</c><c>   2</c></rc>
    <rc><c>Sn</c><c>   2</c></rc>
    <rc><c>Sn</c><c>   2</c></rc>
    <rc><c>Sn</c><c>   2</c></rc>
    <rc><c>Sn</c><c>   2</c></rc>
    <rc><c>Sn</c><c>   2</c></rc>
    <rc><c>Sn</c><c>   2</c></rc>
    <rc><c>Sn</c><c>   2</c></rc>
    <rc><c>Sn</c><c>   2</c></rc>
    <rc><c>Sn</c><c>   2</c></rc>
    <rc><c>Sn</c><c>   2</c></rc>
    <rc><c>Sn</c><c>   2</c></rc>
    <rc><c>Sn</c><c>   2</c></rc>
    <rc><c>Sn</c><c>   2</c></rc>
    <rc><c>Sn</c><c>   2</c></rc>
    <rc><c>Sn</c><c>   2</c></rc>
    <rc><c>Sn</c><c>   2</c></rc>
    <rc><c>Sn</c><c>   2</c></rc>
    <rc><c>Sn</c><c>   2</c></rc>
    <rc><c>Sn</c><c>   2</c></rc>
    <rc><c>Sn</c><c>   2</c></rc>
    <rc><c>Sn</c><c>   2</c></rc>
    <rc><c>Sn</c><c>   2</c></rc>
    <rc><c>Sn</c><c>   2</c></rc>
    <rc><c>Sn</c><c>   2</c></rc>
    <rc><c>Sn</c><c>   2</c></rc>
    <rc><c>Sn</c><c>   2</c></rc>
    <rc><c>Sn</c><c>   2</c></rc>
    <rc><c>Sn</c><c>   2</c></rc>
    <rc><c>Sn</c><c>   2</c></rc>
    <rc><c>Sn</c><c>   2</c></rc>
    <rc><c>Sn</c><c>   2</c></rc>
    <rc><c>Sn</c><c>   2</c></rc>
    <rc><c>Sn</c><c>   2</c></rc>
    <rc><c>Sn</c><c>   2</c></rc>
    <rc><c>Sn</c><c>   2</c></rc>
   </set>
  </array>
  <array name="atomtypes" >
   <dimension dim="1">type</dimension>
   <field type="int">atomspertype</field>
   <field type="string">element</field>
   <field>mass</field>
   <field>valence</field>
   <field type="string">pseudopotential</field>
   <set>
    <rc><c>  96</c><c>Ge</c><c>     72.61000000</c><c>      4.00000000</c><c>  PAW_PBE Ge 05Jan2001                  </c></rc>
    <rc><c>  72</c><c>Sn</c><c>    118.71000000</c><c>      4.00000000</c><c>  PAW_PBE Sn 08Apr2002                  </c></rc>
   </set>
  </array>
 </atominfo>
 <structure name="initialpos" >
  <crystal>
   <varray name="basis" >
    <v>      16.00267601       0.00000000       0.00000000 </v>
    <v>      -8.00133800      13.85872459       0.00000000 </v>
    <v>       0.00000000       0.00000000      20.30400658 </v>
   </varray>
   <i name="volume">   4502.95516101 </i>
   <varray name="rec_basis" >
    <v>       0.06248955       0.03607836       0.00000000 </v>
    <v>       0.00000000       0.07215671       0.00000000 </v>
    <v>       0.00000000       0.00000000       0.04925136 </v>
   </varray>
  </crystal>
  <varray name="positions" >
   <v>       0.98576731       0.49288356       0.00000000 </v>
   <v>       0.65243387       0.32621685       0.16088121 </v>
   <v>       0.31910050       0.15955012       0.32176238 </v>
   <v>       0.98576731       0.99288368       0.00000001 </v>
   <v>       0.65243387       0.82621694       0.16088121 </v>
   <v>       0.31910050       0.65955019       0.32176241 </v>
   <v>       0.48576724       0.49288359       0.00000000 </v>
   <v>       0.15243384       0.32621685       0.16088121 </v>
   <v>       0.81910044       0.15955013       0.32176241 </v>
   <v>       0.48576724       0.99288368       0.00000002 </v>
   <v>       0.15243384       0.82621694       0.16088121 </v>
   <v>       0.81910044       0.65955019       0.32176241 </v>
   <v>       0.15243395       0.82621688       0.04022032 </v>
   <v>       0.81910056       0.65955013       0.20110148 </v>
   <v>       0.48576719       0.49288344       0.36198270 </v>
   <v>       0.15243395       0.32621694       0.04022032 </v>
   <v>       0.81910056       0.15955022       0.20110150 </v>
   <v>       0.48576719       0.99288350       0.36198270 </v>
   <v>       0.65243387       0.82621682       0.04022032 </v>
   <v>       0.31910053       0.65955013       0.20110148 </v>
   <v>       0.98576719       0.49288344       0.36198270 </v>
   <v>       0.65243387       0.32621694       0.04022032 </v>
   <v>       0.31910053       0.15955023       0.20110150 </v>
   <v>       0.98576719       0.99288350       0.36198270 </v>
   <v>       0.23576726       0.74288362       0.00000000 </v>
   <v>       0.90243387       0.57621694       0.16088121 </v>
   <v>       0.56910038       0.40955013       0.32176241 </v>
   <v>       0.23576729       0.24288362       0.00000001 </v>
   <v>       0.90243387       0.07621690       0.16088121 </v>
   <v>       0.56910044       0.90955019       0.32176241 </v>
   <v>       0.73576724       0.74288356       0.00000001 </v>
   <v>       0.40243384       0.57621688       0.16088121 </v>
   <v>       0.06910040       0.40955010       0.32176241 </v>
   <v>       0.73576724       0.24288361       0.00000001 </v>
   <v>       0.40243384       0.07621689       0.16088119 </v>
   <v>       0.06910042       0.90955019       0.32176241 </v>
   <v>       0.40243393       0.57621694       0.04022026 </v>
   <v>       0.06910051       0.40955016       0.20110148 </v>
   <v>       0.73576719       0.24288349       0.36198267 </v>
   <v>       0.40243393       0.07621697       0.04022026 </v>
   <v>       0.06910051       0.90955025       0.20110148 </v>
   <v>       0.73576719       0.74288356       0.36198267 </v>
   <v>       0.90243399       0.57621688       0.04022027 </v>
   <v>       0.56910062       0.40955019       0.20110147 </v>
   <v>       0.23576724       0.24288346       0.36198267 </v>
   <v>       0.90243399       0.07621697       0.04022027 </v>
   <v>       0.56910062       0.90955025       0.20110148 </v>
   <v>       0.23576724       0.74288356       0.36198267 </v>
   <v>       0.23576728       0.49288359       0.00000001 </v>
   <v>       0.90243387       0.32621685       0.16088119 </v>
   <v>       0.56910044       0.15955012       0.32176241 </v>
   <v>       0.23576729       0.99288368       0.00000002 </v>
   <v>       0.90243387       0.82621694       0.16088121 </v>
   <v>       0.56910044       0.65955019       0.32176241 </v>
   <v>       0.73576724       0.49288359       0.00000001 </v>
   <v>       0.40243384       0.32621688       0.16088119 </v>
   <v>       0.06910040       0.15955012       0.32176241 </v>
   <v>       0.73576724       0.99288368       0.00000003 </v>
   <v>       0.40243384       0.82621694       0.16088121 </v>
   <v>       0.06910042       0.65955019       0.32176241 </v>
   <v>       0.40243393       0.82621694       0.04022028 </v>
   <v>       0.06910050       0.65955013       0.20110147 </v>
   <v>       0.73576719       0.49288347       0.36198267 </v>
   <v>       0.40243393       0.32621700       0.04022028 </v>
   <v>       0.06910053       0.15955025       0.20110148 </v>
   <v>       0.73576719       0.99288356       0.36198267 </v>
   <v>       0.90243399       0.82621688       0.04022026 </v>
   <v>       0.56910056       0.65955013       0.20110144 </v>
   <v>       0.23576724       0.49288347       0.36198261 </v>
   <v>       0.90243399       0.32621697       0.04022029 </v>
   <v>       0.56910062       0.15955025       0.20110148 </v>
   <v>       0.23576724       0.99288356       0.36198267 </v>
   <v>       0.98576731       0.74288362       0.00000001 </v>
   <v>       0.65243393       0.57621688       0.16088124 </v>
   <v>       0.31910050       0.40955016       0.32176238 </v>
   <v>       0.98576731       0.24288362       0.00000001 </v>
   <v>       0.65243387       0.07621688       0.16088121 </v>
   <v>       0.31910050       0.90955019       0.32176241 </v>
   <v>       0.48576724       0.74288362       0.00000000 </v>
   <v>       0.15243384       0.57621694       0.16088121 </v>
   <v>       0.81910044       0.40955010       0.32176241 </v>
   <v>       0.48576724       0.24288362       0.00000002 </v>
   <v>       0.15243384       0.07621690       0.16088121 </v>
   <v>       0.81910044       0.90955019       0.32176241 </v>
   <v>       0.15243398       0.57621694       0.04022032 </v>
   <v>       0.81910062       0.40955022       0.20110148 </v>
   <v>       0.48576724       0.24288355       0.36198270 </v>
   <v>       0.15243398       0.07621698       0.04022032 </v>
   <v>       0.81910062       0.90955031       0.20110150 </v>
   <v>       0.48576724       0.74288356       0.36198270 </v>
   <v>       0.65243399       0.57621694       0.04022032 </v>
   <v>       0.31910062       0.40955022       0.20110150 </v>
   <v>       0.98576724       0.24288352       0.36198270 </v>
   <v>       0.65243399       0.07621699       0.04022031 </v>
   <v>       0.31910062       0.90955031       0.20110150 </v>
   <v>       0.98576724       0.74288356       0.36198270 </v>
   <v>       0.32075471       0.32687458       0.47340384 </v>
   <v>       0.32075471       0.66020799       0.65792614 </v>
   <v>       0.32075471       0.99354136       0.84244847 </v>
   <v>       0.65408808       0.99354130       0.47340381 </v>
   <v>       0.65408814       0.32687473       0.65792614 </v>
   <v>       0.65408814       0.66020811       0.84244835 </v>
   <v>       0.98742145       0.66020799       0.47340384 </v>
   <v>       0.98742145       0.99354136       0.65792614 </v>
   <v>       0.98742145       0.32687473       0.84244835 </v>
   <v>       0.32075471       0.66020799       0.51953441 </v>
   <v>       0.32075471       0.99354130       0.70405674 </v>
   <v>       0.32075471       0.32687461       0.88857901 </v>
   <v>       0.65408814       0.32687461       0.51953441 </v>
   <v>       0.65408814       0.66020799       0.70405674 </v>
   <v>       0.65408814       0.99354148       0.88857901 </v>
   <v>       0.98742145       0.99354136       0.51953441 </v>
   <v>       0.98742145       0.32687473       0.70405674 </v>
   <v>       0.98742145       0.66020799       0.88857901 </v>
   <v>       0.48742139       0.66020799       0.47340384 </v>
   <v>       0.48742139       0.99354136       0.65792614 </v>
   <v>       0.48742139       0.32687473       0.84244847 </v>
   <v>       0.82075471       0.32687458       0.47340384 </v>
   <v>       0.82075471       0.66020799       0.65792614 </v>
   <v>       0.82075471       0.99354142       0.84244847 </v>
   <v>       0.15408814       0.99354130       0.47340381 </v>
   <v>       0.15408814       0.32687473       0.65792608 </v>
   <v>       0.15408814       0.66020811       0.84244847 </v>
   <v>       0.48742139       0.99354136       0.51953435 </v>
   <v>       0.48742139       0.32687473       0.70405668 </v>
   <v>       0.48742142       0.66020822       0.88857901 </v>
   <v>       0.82075477       0.66020799       0.51953435 </v>
   <v>       0.82075477       0.99354136       0.70405674 </v>
   <v>       0.82075477       0.32687473       0.88857901 </v>
   <v>       0.15408814       0.32687461       0.51953435 </v>
   <v>       0.15408814       0.66020799       0.70405668 </v>
   <v>       0.15408814       0.99354136       0.88857901 </v>
   <v>       0.32075471       0.82687461       0.47340384 </v>
   <v>       0.32075471       0.16020799       0.65792608 </v>
   <v>       0.32075471       0.49354136       0.84244847 </v>
   <v>       0.65408808       0.49354124       0.47340384 </v>
   <v>       0.65408808       0.82687467       0.65792614 </v>
   <v>       0.65408808       0.16020799       0.84244847 </v>
   <v>       0.98742145       0.16020799       0.47340381 </v>
   <v>       0.98742145       0.49354136       0.65792608 </v>
   <v>       0.98742151       0.82687485       0.84244847 </v>
   <v>       0.32075471       0.16020799       0.51953435 </v>
   <v>       0.32075471       0.49354136       0.70405668 </v>
   <v>       0.32075471       0.82687485       0.88857901 </v>
   <v>       0.65408808       0.82687461       0.51953435 </v>
   <v>       0.65408808       0.16020799       0.70405668 </v>
   <v>       0.65408814       0.49354148       0.88857901 </v>
   <v>       0.98742145       0.49354121       0.51953435 </v>
   <v>       0.98742145       0.82687461       0.70405674 </v>
   <v>       0.98742145       0.16020799       0.88857901 </v>
   <v>       0.48742139       0.16020799       0.47340384 </v>
   <v>       0.48742139       0.49354124       0.65792608 </v>
   <v>       0.48742139       0.82687473       0.84244835 </v>
   <v>       0.82075471       0.82687461       0.47340381 </v>
   <v>       0.82075471       0.16020799       0.65792614 </v>
   <v>       0.82075477       0.49354136       0.84244835 </v>
   <v>       0.15408802       0.49354127       0.47340384 </v>
   <v>       0.15408802       0.82687467       0.65792614 </v>
   <v>       0.15408802       0.16020811       0.84244835 </v>
   <v>       0.48742139       0.49354118       0.51953441 </v>
   <v>       0.48742139       0.82687455       0.70405674 </v>
   <v>       0.48742139       0.16020799       0.88857901 </v>
   <v>       0.82075471       0.16020799       0.51953441 </v>
   <v>       0.82075471       0.49354136       0.70405674 </v>
   <v>       0.82075471       0.82687461       0.88857901 </v>
   <v>       0.15408814       0.82687461       0.51953441 </v>
   <v>       0.15408814       0.16020799       0.70405674 </v>
   <v>       0.15408814       0.49354136       0.88857901 </v>
  </varray>
 </structure>
 <calculation>
  <scstep>
   <time name="dav">   76.91   77.66</time>
   <time name="total">   79.88   80.65</time>
   <energy>
    <i name="alphaZ">   1020.59548253 </i>
    <i name="ewald"> -14123.78944685 </i>
    <i name="hartreedc">  -4354.26706811 </i>
    <i name="XCdc">  -9235.83269481 </i>
    <i name="pawpsdc">  22099.84193803 </i>
    <i name="pawaedc"> -11791.56227843 </i>
    <i name="eentropy">     -0.00223435 </i>
    <i name="bandstr">   2923.38384964 </i>
    <i name="atom">  16853.79812076 </i>
    <i name="e_fr_energy">   3392.16566841 </i>
    <i name="e_wo_entrp">   3392.16790276 </i>
    <i name="e_0_energy">   3392.16678559 </i>
   </energy>
  </scstep>
  <scstep>
   <time name="dav">   86.53   87.42</time>
   <time name="total">   86.53   87.43</time>
   <energy>
    <i name="e_fr_energy">   -271.45238829 </i>
    <i name="e_wo_entrp">   -271.45130781 </i>
    <i name="e_0_energy">   -271.45184805 </i>
   </energy>
  </scstep>
  <scstep>
   <time name="dav">   90.52   91.46</time>
   <time name="total">   90.52   91.47</time>
   <energy>
    <i name="e_fr_energy">   -675.87477593 </i>
    <i name="e_wo_entrp">   -675.87184509 </i>
    <i name="e_0_energy">   -675.87331051 </i>
   </energy>
  </scstep>
  <scstep>
   <time name="dav">   88.86   89.79</time>
   <time name="total">   88.87   89.79</time>
   <energy>
    <i name="e_fr_energy">   -692.50661668 </i>
    <i name="e_wo_entrp">   -692.50300636 </i>
    <i name="e_0_energy">   -692.50481152 </i>
   </energy>
  </scstep>
  <scstep>
   <time name="dav">   95.07   96.00</time>
   <time name="total">   99.72  100.70</time>
   <energy>
    <i name="e_fr_energy">   -693.19076915 </i>
    <i name="e_wo_entrp">   -693.18720043 </i>
    <i name="e_0_energy">   -693.18898479 </i>
   </energy>
  </scstep>
  <scstep>
   <time name="dav">  107.38  108.48</time>
   <time name="total">  114.97  116.14</time>
   <energy>
    <i name="e_fr_energy">   -684.55201956 </i>
    <i name="e_wo_entrp">   -684.54628939 </i>
    <i name="e_0_energy">   -684.54915448 </i>
   </energy>
  </scstep>
  <scstep>
   <time name="dav">   93.18   94.09</time>
   <time name="total">  100.85  101.82</time>
   <energy>
    <i name="e_fr_energy">   -685.11583836 </i>
    <i name="e_wo_entrp">   -685.11318960 </i>
    <i name="e_0_energy">   -685.11451398 </i>
   </energy>
  </scstep>
  <scstep>
   <time name="dav">   91.80   92.69</time>
   <time name="total">   99.47  100.43</time>
   <energy>
    <i name="e_fr_energy">   -683.25819770 </i>
    <i name="e_wo_entrp">   -683.25312936 </i>
    <i name="e_0_energy">   -683.25566353 </i>
   </energy>
  </scstep>
  <scstep>
   <time name="dav">   88.47   89.33</time>
   <time name="total">   96.14   97.06</time>
   <energy>
    <i name="e_fr_energy">   -683.29683536 </i>
    <i name="e_wo_entrp">   -683.29236551 </i>
    <i name="e_0_energy">   -683.29460044 </i>
   </energy>
  </scstep>
  <scstep>
   <time name="dav">   87.61   88.47</time>
   <time name="total">   95.29   96.21</time>
   <energy>
    <i name="e_fr_energy">   -683.30021725 </i>
    <i name="e_wo_entrp">   -683.29522677 </i>
    <i name="e_0_energy">   -683.29772201 </i>
   </energy>
  </scstep>
  <scstep>
   <time name="dav">   88.14   89.04</time>
   <time name="total">   95.57   96.54</time>
   <energy>
    <i name="e_fr_energy">   -683.30172869 </i>
    <i name="e_wo_entrp">   -683.29745176 </i>
    <i name="e_0_energy">   -683.29959023 </i>
   </energy>
  </scstep>
  <scstep>
   <time name="dav">   84.44   85.29</time>
   <time name="total">   91.87   92.79</time>
   <energy>
    <i name="e_fr_energy">   -683.30139539 </i>
    <i name="e_wo_entrp">   -683.29720170 </i>
    <i name="e_0_energy">   -683.29929854 </i>
   </energy>
  </scstep>
  <scstep>
   <time name="dav">   85.80   86.68</time>
   <time name="total">   93.23   94.17</time>
   <energy>
    <i name="e_fr_energy">   -683.30184586 </i>
    <i name="e_wo_entrp">   -683.29763060 </i>
    <i name="e_0_energy">   -683.29973823 </i>
   </energy>
  </scstep>
  <scstep>
   <time name="dav">   85.28   86.14</time>
   <time name="total">   92.73   93.66</time>
   <energy>
    <i name="e_fr_energy">   -683.30195414 </i>
    <i name="e_wo_entrp">   -683.29773930 </i>
    <i name="e_0_energy">   -683.29984672 </i>
   </energy>
  </scstep>
  <scstep>
   <time name="dav">   84.19   84.99</time>
   <time name="total">   91.62   92.49</time>
   <energy>
    <i name="e_fr_energy">   -683.30198678 </i>
    <i name="e_wo_entrp">   -683.29778243 </i>
    <i name="e_0_energy">   -683.29988460 </i>
   </energy>
  </scstep>
  <scstep>
   <time name="dav">   84.86   85.69</time>
   <time name="total">   92.34   93.24</time>
   <energy>
    <i name="e_fr_energy">   -683.30200229 </i>
    <i name="e_wo_entrp">   -683.29779931 </i>
    <i name="e_0_energy">   -683.29990080 </i>
   </energy>
  </scstep>
  <scstep>
   <time name="dav">   84.76   85.57</time>
   <time name="total">   92.27   93.15</time>
   <energy>
    <i name="e_fr_energy">   -683.30200710 </i>
    <i name="e_wo_entrp">   -683.29780260 </i>
    <i name="e_0_energy">   -683.29990485 </i>
   </energy>
  </scstep>
  <scstep>
   <time name="dav">   84.03   84.86</time>
   <time name="total">   91.54   92.44</time>
   <energy>
    <i name="e_fr_energy">   -683.30200924 </i>
    <i name="e_wo_entrp">   -683.29780653 </i>
    <i name="e_0_energy">   -683.29990788 </i>
   </energy>
  </scstep>
  <scstep>
   <time name="dav">   80.25   81.03</time>
   <time name="total">   87.75   88.60</time>
   <energy>
    <i name="e_fr_energy">   -683.30201004 </i>
    <i name="e_wo_entrp">   -683.29780995 </i>
    <i name="e_0_energy">   -683.29991000 </i>
   </energy>
  </scstep>
  <scstep>
   <time name="dav">   71.20   71.86</time>
   <time name="total">   78.71   79.43</time>
   <energy>
    <i name="e_fr_energy">   -683.30201020 </i>
    <i name="e_wo_entrp">   -683.29781003 </i>
    <i name="e_0_energy">   -683.29991011 </i>
   </energy>
  </scstep>
  <scstep>
   <time name="dav">   59.30   59.87</time>
   <time name="total">   66.74   67.37</time>
   <energy>
    <i name="e_fr_energy">   -683.30200995 </i>
    <i name="e_wo_entrp">   -683.29780964 </i>
    <i name="e_0_energy">   -683.29990980 </i>
   </energy>
  </scstep>
  <scstep>
   <time name="dav">   54.13   54.63</time>
   <time name="total">   57.07   57.59</time>
   <energy>
    <i name="alphaZ">   1020.59548253 </i>
    <i name="ewald"> -14123.78944685 </i>
    <i name="hartreedc">  -4582.24219103 </i>
    <i name="XCdc">  -9184.89187962 </i>
    <i name="pawpsdc">  43306.05348524 </i>
    <i name="pawaedc"> -33039.21500149 </i>
    <i name="eentropy">     -0.00419977 </i>
    <i name="bandstr">   -933.60637968 </i>
    <i name="atom">  16853.79812076 </i>
    <i name="e_fr_energy">   -683.30200990 </i>
    <i name="e_wo_entrp">   -683.29781013 </i>
    <i name="e_0_energy">   -683.29991002 </i>
   </energy>
  </scstep>
  <structure>
   <crystal>
    <varray name="basis" >
     <v>      16.00267601       0.00000000       0.00000000 </v>
     <v>      -8.00133800      13.85872459       0.00000000 </v>
     <v>       0.00000000       0.00000000      20.30400658 </v>
    </varray>
    <i name="volume">   4502.95516101 </i>
    <varray name="rec_basis" >
     <v>       0.06248955       0.03607836       0.00000000 </v>
     <v>       0.00000000       0.07215671       0.00000000 </v>
     <v>       0.00000000       0.00000000       0.04925136 </v>
    </varray>
   </crystal>
   <varray name="positions" >
    <v>       0.98576731       0.49288356       0.00000000 </v>
    <v>       0.65243387       0.32621685       0.16088121 </v>
    <v>       0.31910050       0.15955012       0.32176238 </v>
    <v>       0.98576731       0.99288368       0.00000001 </v>
    <v>       0.65243387       0.82621694       0.16088121 </v>
    <v>       0.31910050       0.65955019       0.32176241 </v>
    <v>       0.48576724       0.49288359       0.00000000 </v>
    <v>       0.15243384       0.32621685       0.16088121 </v>
    <v>       0.81910044       0.15955013       0.32176241 </v>
    <v>       0.48576724       0.99288368       0.00000002 </v>
    <v>       0.15243384       0.82621694       0.16088121 </v>
    <v>       0.81910044       0.65955019       0.32176241 </v>
    <v>       0.15243395       0.82621688       0.04022032 </v>
    <v>       0.81910056       0.65955013       0.20110148 </v>
    <v>       0.48576719       0.49288344       0.36198270 </v>
    <v>       0.15243395       0.32621694       0.04022032 </v>
    <v>       0.81910056       0.15955022       0.20110150 </v>
    <v>       0.48576719       0.99288350       0.36198270 </v>
    <v>       0.65243387       0.82621682       0.04022032 </v>
    <v>       0.31910053       0.65955013       0.20110148 </v>
    <v>       0.98576719       0.49288344       0.36198270 </v>
    <v>       0.65243387       0.32621694       0.04022032 </v>
    <v>       0.31910053       0.15955023       0.20110150 </v>
    <v>       0.98576719       0.99288350       0.36198270 </v>
    <v>       0.23576726       0.74288362       0.00000000 </v>
    <v>       0.90243387       0.57621694       0.16088121 </v>
    <v>       0.56910038       0.40955013       0.32176241 </v>
    <v>       0.23576729       0.24288362       0.00000001 </v>
    <v>       0.90243387       0.07621690       0.16088121 </v>
    <v>       0.56910044       0.90955019       0.32176241 </v>
    <v>       0.73576724       0.74288356       0.00000001 </v>
    <v>       0.40243384       0.57621688       0.16088121 </v>
    <v>       0.06910040       0.40955010       0.32176241 </v>
    <v>       0.73576724       0.24288361       0.00000001 </v>
    <v>       0.40243384       0.07621689       0.16088119 </v>
    <v>       0.06910042       0.90955019       0.32176241 </v>
    <v>       0.40243393       0.57621694       0.04022026 </v>
    <v>       0.06910051       0.40955016       0.20110148 </v>
    <v>       0.73576719       0.24288349       0.36198267 </v>
    <v>       0.40243393       0.07621697       0.04022026 </v>
    <v>       0.06910051       0.90955025       0.20110148 </v>
    <v>       0.73576719       0.74288356       0.36198267 </v>
    <v>       0.90243399       0.57621688       0.04022027 </v>
    <v>       0.56910062       0.40955019       0.20110147 </v>
    <v>       0.23576724       0.24288346       0.36198267 </v>
    <v>       0.90243399       0.07621697       0.04022027 </v>
    <v>       0.56910062       0.90955025       0.20110148 </v>
    <v>       0.23576724       0.74288356       0.36198267 </v>
    <v>       0.23576728       0.49288359       0.00000001 </v>
    <v>       0.90243387       0.32621685       0.16088119 </v>
    <v>       0.56910044       0.15955012       0.32176241 </v>
    <v>       0.23576729       0.99288368       0.00000002 </v>
    <v>       0.90243387       0.82621694       0.16088121 </v>
    <v>       0.56910044       0.65955019       0.32176241 </v>
    <v>       0.73576724       0.49288359       0.00000001 </v>
    <v>       0.40243384       0.32621688       0.16088119 </v>
    <v>       0.06910040       0.15955012       0.32176241 </v>
    <v>       0.73576724       0.99288368       0.00000003 </v>
    <v>       0.40243384       0.82621694       0.16088121 </v>
    <v>       0.06910042       0.65955019       0.32176241 </v>
    <v>       0.40243393       0.82621694       0.04022028 </v>
    <v>       0.06910050       0.65955013       0.20110147 </v>
    <v>       0.73576719       0.49288347       0.36198267 </v>
    <v>       0.40243393       0.32621700       0.04022028 </v>
    <v>       0.06910053       0.15955025       0.20110148 </v>
    <v>       0.73576719       0.99288356       0.36198267 </v>
    <v>       0.90243399       0.82621688       0.04022026 </v>
    <v>       0.56910056       0.65955013       0.20110144 </v>
    <v>       0.23576724       0.49288347       0.36198261 </v>
    <v>       0.90243399       0.32621697       0.04022029 </v>
    <v>       0.56910062       0.15955025       0.20110148 </v>
    <v>       0.23576724       0.99288356       0.36198267 </v>
    <v>       0.98576731       0.74288362       0.00000001 </v>
    <v>       0.65243393       0.57621688       0.16088124 </v>
    <v>       0.31910050       0.40955016       0.32176238 </v>
    <v>       0.98576731       0.24288362       0.00000001 </v>
    <v>       0.65243387       0.07621688       0.16088121 </v>
    <v>       0.31910050       0.90955019       0.32176241 </v>
    <v>       0.48576724       0.74288362       0.00000000 </v>
    <v>       0.15243384       0.57621694       0.16088121 </v>
    <v>       0.81910044       0.40955010       0.32176241 </v>
    <v>       0.48576724       0.24288362       0.00000002 </v>
    <v>       0.15243384       0.07621690       0.16088121 </v>
    <v>       0.81910044       0.90955019       0.32176241 </v>
    <v>       0.15243398       0.57621694       0.04022032 </v>
    <v>       0.81910062       0.40955022       0.20110148 </v>
    <v>       0.48576724       0.24288355       0.36198270 </v>
    <v>       0.15243398       0.07621698       0.04022032 </v>
    <v>       0.81910062       0.90955031       0.20110150 </v>
    <v>       0.48576724       0.74288356       0.36198270 </v>
    <v>       0.65243399       0.57621694       0.04022032 </v>
    <v>       0.31910062       0.40955022       0.20110150 </v>
    <v>       0.98576724       0.24288352       0.36198270 </v>
    <v>       0.65243399       0.07621699       0.04022031 </v>
    <v>       0.31910062       0.90955031       0.20110150 </v>
    <v>       0.98576724       0.74288356       0.36198270 </v>
    <v>       0.32075471       0.32687458       0.47340384 </v>
    <v>       0.32075471       0.66020799       0.65792614 </v>
    <v>       0.32075471       0.99354136       0.84244847 </v>
    <v>       0.65408808       0.99354130       0.47340381 </v>
    <v>       0.65408814       0.32687473       0.65792614 </v>
    <v>       0.65408814       0.66020811       0.84244835 </v>
    <v>       0.98742145       0.66020799       0.47340384 </v>
    <v>       0.98742145       0.99354136       0.65792614 </v>
    <v>       0.98742145       0.32687473       0.84244835 </v>
    <v>       0.32075471       0.66020799       0.51953441 </v>
    <v>       0.32075471       0.99354130       0.70405674 </v>
    <v>       0.32075471       0.32687461       0.88857901 </v>
    <v>       0.65408814       0.32687461       0.51953441 </v>
    <v>       0.65408814       0.66020799       0.70405674 </v>
    <v>       0.65408814       0.99354148       0.88857901 </v>
    <v>       0.98742145       0.99354136       0.51953441 </v>
    <v>       0.98742145       0.32687473       0.70405674 </v>
    <v>       0.98742145       0.66020799       0.88857901 </v>
    <v>       0.48742139       0.66020799       0.47340384 </v>
    <v>       0.48742139       0.99354136       0.65792614 </v>
    <v>       0.48742139       0.32687473       0.84244847 </v>
    <v>       0.82075471       0.32687458       0.47340384 </v>
    <v>       0.82075471       0.66020799       0.65792614 </v>
    <v>       0.82075471       0.99354142       0.84244847 </v>
    <v>       0.15408814       0.99354130       0.47340381 </v>
    <v>       0.15408814       0.32687473       0.65792608 </v>
    <v>       0.15408814       0.66020811       0.84244847 </v>
    <v>       0.48742139       0.99354136       0.51953435 </v>
    <v>       0.48742139       0.32687473       0.70405668 </v>
    <v>       0.48742142       0.66020822       0.88857901 </v>
    <v>       0.82075477       0.66020799       0.51953435 </v>
    <v>       0.82075477       0.99354136       0.70405674 </v>
    <v>       0.82075477       0.32687473       0.88857901 </v>
    <v>       0.15408814       0.32687461       0.51953435 </v>
    <v>       0.15408814       0.66020799       0.70405668 </v>
    <v>       0.15408814       0.99354136       0.88857901 </v>
    <v>       0.32075471       0.82687461       0.47340384 </v>
    <v>       0.32075471       0.16020799       0.65792608 </v>
    <v>       0.32075471       0.49354136       0.84244847 </v>
    <v>       0.65408808       0.49354124       0.47340384 </v>
    <v>       0.65408808       0.82687467       0.65792614 </v>
    <v>       0.65408808       0.16020799       0.84244847 </v>
    <v>       0.98742145       0.16020799       0.47340381 </v>
    <v>       0.98742145       0.49354136       0.65792608 </v>
    <v>       0.98742151       0.82687485       0.84244847 </v>
    <v>       0.32075471       0.16020799       0.51953435 </v>
    <v>       0.32075471       0.49354136       0.70405668 </v>
    <v>       0.32075471       0.82687485       0.88857901 </v>
    <v>       0.65408808       0.82687461       0.51953435 </v>
    <v>       0.65408808       0.16020799       0.70405668 </v>
    <v>       0.65408814       0.49354148       0.88857901 </v>
    <v>       0.98742145       0.49354121       0.51953435 </v>
    <v>       0.98742145       0.82687461       0.70405674 </v>
    <v>       0.98742145       0.16020799       0.88857901 </v>
    <v>       0.48742139       0.16020799       0.47340384 </v>
    <v>       0.48742139       0.49354124       0.65792608 </v>
    <v>       0.48742139       0.82687473       0.84244835 </v>
    <v>       0.82075471       0.82687461       0.47340381 </v>
    <v>       0.82075471       0.16020799       0.65792614 </v>
    <v>       0.82075477       0.49354136       0.84244835 </v>
    <v>       0.15408802       0.49354127       0.47340384 </v>
    <v>       0.15408802       0.82687467       0.65792614 </v>
    <v>       0.15408802       0.16020811       0.84244835 </v>
    <v>       0.48742139       0.49354118       0.51953441 </v>
    <v>       0.48742139       0.82687455       0.70405674 </v>
    <v>       0.48742139       0.16020799       0.88857901 </v>
    <v>       0.82075471       0.16020799       0.51953441 </v>
    <v>       0.82075471       0.49354136       0.70405674 </v>
    <v>       0.82075471       0.82687461       0.88857901 </v>
    <v>       0.15408814       0.82687461       0.51953441 </v>
    <v>       0.15408814       0.16020799       0.70405674 </v>
    <v>       0.15408814       0.49354136       0.88857901 </v>
   </varray>
  </structure>
  <varray name="forces" >
   <v>      -0.00709551       0.00369084      -0.98036050 </v>
   <v>      -0.00590366      -0.00700619       0.12120307 </v>
   <v>      -0.00091832      -0.00513254      -0.25373217 </v>
   <v>      -0.00709551       0.00369084      -0.98036050 </v>
   <v>      -0.00590366      -0.00700619       0.12120307 </v>
   <v>      -0.00091832      -0.00513254      -0.25373217 </v>
   <v>      -0.00709551       0.00369084      -0.98036050 </v>
   <v>      -0.00590366      -0.00700619       0.12120307 </v>
   <v>      -0.00091832      -0.00513254      -0.25373217 </v>
   <v>      -0.00709551       0.00369084      -0.98036050 </v>
   <v>      -0.00590366      -0.00700619       0.12120307 </v>
   <v>      -0.00091832      -0.00513254      -0.25373217 </v>
   <v>      -0.00215737       0.00371334       0.07486121 </v>
   <v>      -0.00674881      -0.00385507       0.02532499 </v>
   <v>      -0.00832370      -0.01037559       0.38930451 </v>
   <v>      -0.00215737       0.00371334       0.07486121 </v>
   <v>      -0.00674881      -0.00385507       0.02532499 </v>
   <v>      -0.00832370      -0.01037559       0.38930451 </v>
   <v>      -0.00215737       0.00371334       0.07486121 </v>
   <v>      -0.00674881      -0.00385507       0.02532499 </v>
   <v>      -0.00832370      -0.01037559       0.38930451 </v>
   <v>      -0.00215737       0.00371334       0.07486121 </v>
   <v>      -0.00674881      -0.00385507       0.02532499 </v>
   <v>      -0.00832370      -0.01037559       0.38930451 </v>
   <v>       0.01451193       0.26279389       0.32967131 </v>
   <v>      -0.21481805      -0.19845808       0.15625954 </v>
   <v>       0.19544115       0.04557432      -0.35551084 </v>
   <v>       0.01451193       0.26279389       0.32967131 </v>
   <v>      -0.21481805      -0.19845808       0.15625954 </v>
   <v>       0.19544115       0.04557432      -0.35551084 </v>
   <v>       0.01451193       0.26279389       0.32967131 </v>
   <v>      -0.21481805      -0.19845808       0.15625954 </v>
   <v>       0.19544115       0.04557432      -0.35551084 </v>
   <v>       0.01451193       0.26279389       0.32967131 </v>
   <v>      -0.21481805      -0.19845808       0.15625954 </v>
   <v>       0.19544115       0.04557432      -0.35551084 </v>
   <v>       0.15840985       0.09211909       0.42143763 </v>
   <v>      -0.21136852      -0.20043021      -0.19364695 </v>
   <v>       0.26666085       0.06830467      -0.19876371 </v>
   <v>       0.15840985       0.09211909       0.42143763 </v>
   <v>      -0.21136852      -0.20043021      -0.19364695 </v>
   <v>       0.26666085       0.06830467      -0.19876371 </v>
   <v>       0.15840985       0.09211909       0.42143763 </v>
   <v>      -0.21136852      -0.20043021      -0.19364695 </v>
   <v>       0.26666085       0.06830467      -0.19876371 </v>
   <v>       0.15840985       0.09211909       0.42143763 </v>
   <v>      -0.21136852      -0.20043021      -0.19364695 </v>
   <v>       0.26666085       0.06830467      -0.19876371 </v>
   <v>      -0.19235233      -0.11575215       0.42738828 </v>
   <v>       0.25826562      -0.09190825       0.16340361 </v>
   <v>      -0.14468766       0.14138598      -0.37436143 </v>
   <v>      -0.19235233      -0.11575215       0.42738828 </v>
   <v>       0.25826562      -0.09190825       0.16340361 </v>
   <v>      -0.14468766       0.14138598      -0.37436143 </v>
   <v>      -0.19235233      -0.11575215       0.42738828 </v>
   <v>       0.25826562      -0.09190825       0.16340361 </v>
   <v>      -0.14468766       0.14138598      -0.37436143 </v>
   <v>      -0.19235233      -0.11575215       0.42738828 </v>
   <v>       0.25826562      -0.09190825       0.16340361 </v>
   <v>      -0.14468766       0.14138598      -0.37436143 </v>
   <v>      -0.15844753       0.09284404       0.43261165 </v>
   <v>       0.26598224      -0.08174780      -0.19605186 </v>
   <v>      -0.14972740       0.18840457      -0.30938699 </v>
   <v>      -0.15844753       0.09284404       0.43261165 </v>
   <v>       0.26598224      -0.08174780      -0.19605186 </v>
   <v>      -0.14972740       0.18840457      -0.30938699 </v>
   <v>      -0.15844753       0.09284404       0.43261165 </v>
   <v>       0.26598224      -0.08174780      -0.19605186 </v>
   <v>      -0.14972740       0.18840457      -0.30938699 </v>
   <v>      -0.15844753       0.09284404       0.43261165 </v>
   <v>       0.26598224      -0.08174780      -0.19605186 </v>
   <v>      -0.14972740       0.18840457      -0.30938699 </v>
   <v>       0.21940679      -0.14166693       0.36958083 </v>
   <v>      -0.07560644       0.26687750       0.16322587 </v>
   <v>      -0.05664914      -0.19586430      -0.36717966 </v>
   <v>       0.21940679      -0.14166693       0.36958083 </v>
   <v>      -0.07560644       0.26687750       0.16322587 </v>
   <v>      -0.05664914      -0.19586430      -0.36717966 </v>
   <v>       0.21940679      -0.14166693       0.36958083 </v>
   <v>      -0.07560644       0.26687750       0.16322587 </v>
   <v>      -0.05664914      -0.19586430      -0.36717966 </v>
   <v>       0.21940679      -0.14166693       0.36958083 </v>
   <v>      -0.07560644       0.26687750       0.16322587 </v>
   <v>      -0.05664914      -0.19586430      -0.36717966 </v>
   <v>       0.00591775      -0.18793811       0.42536916 </v>
   <v>      -0.08318697       0.26798909      -0.18927921 </v>
   <v>      -0.08234644      -0.23677968      -0.23931149 </v>
   <v>       0.00591775      -0.18793811       0.42536916 </v>
   <v>      -0.08318697       0.26798909      -0.18927921 </v>
   <v>      -0.08234644      -0.23677968      -0.23931149 </v>
   <v>       0.00591775      -0.18793811       0.42536916 </v>
   <v>      -0.08318697       0.26798909      -0.18927921 </v>
   <v>      -0.08234644      -0.23677968      -0.23931149 </v>
   <v>       0.00591775      -0.18793811       0.42536916 </v>
   <v>      -0.08318697       0.26798909      -0.18927921 </v>
   <v>      -0.08234644      -0.23677968      -0.23931149 </v>
   <v>      -0.16460262      -0.45844528       0.53285806 </v>
   <v>       0.00523318      -0.00579583       0.11831495 </v>
   <v>      -0.15736550       0.00355784      -0.17629044 </v>
   <v>       0.44273742       0.09049322       0.63752598 </v>
   <v>       0.00700401      -0.00858691       0.15753997 </v>
   <v>       0.08745447       0.13618470      -0.15823797 </v>
   <v>      -0.30518414       0.37494185       0.58423438 </v>
   <v>       0.00756479      -0.00638909       0.47923787 </v>
   <v>       0.09417505      -0.13394640      -0.16419228 </v>
   <v>       0.01274636       0.00565444       0.65529376 </v>
   <v>       0.12111848       0.01825557      -0.21017186 </v>
   <v>      -0.03030534       0.15716085      -0.48822326 </v>
   <v>       0.00456929       0.01672647       0.50208035 </v>
   <v>      -0.04693590      -0.10671852      -0.21704465 </v>
   <v>      -0.13543764      -0.09112860      -0.58764768 </v>
   <v>       0.01451098       0.01402499      -0.77601822 </v>
   <v>      -0.07256504       0.10057737      -0.21560178 </v>
   <v>       0.13102380      -0.06334910      -0.51571403 </v>
   <v>      -0.30518414       0.37494185       0.58423438 </v>
   <v>       0.00756479      -0.00638909       0.47923787 </v>
   <v>       0.09417505      -0.13394640      -0.16419228 </v>
   <v>      -0.16460262      -0.45844528       0.53285806 </v>
   <v>       0.00523318      -0.00579583       0.11831495 </v>
   <v>      -0.15736550       0.00355784      -0.17629044 </v>
   <v>       0.44273742       0.09049322       0.63752598 </v>
   <v>       0.00700401      -0.00858691       0.15753997 </v>
   <v>       0.08745447       0.13618470      -0.15823797 </v>
   <v>       0.01451098       0.01402499      -0.77601822 </v>
   <v>      -0.07256504       0.10057737      -0.21560178 </v>
   <v>       0.13102380      -0.06334910      -0.51571403 </v>
   <v>       0.01274636       0.00565444       0.65529376 </v>
   <v>       0.12111848       0.01825557      -0.21017186 </v>
   <v>      -0.03030534       0.15716085      -0.48822326 </v>
   <v>       0.00456929       0.01672647       0.50208035 </v>
   <v>      -0.04693590      -0.10671852      -0.21704465 </v>
   <v>      -0.13543764      -0.09112860      -0.58764768 </v>
   <v>      -0.16460262      -0.45844528       0.53285806 </v>
   <v>       0.00523318      -0.00579583       0.11831495 </v>
   <v>      -0.15736550       0.00355784      -0.17629044 </v>
   <v>       0.44273742       0.09049322       0.63752598 </v>
   <v>       0.00700401      -0.00858691       0.15753997 </v>
   <v>       0.08745447       0.13618470      -0.15823797 </v>
   <v>      -0.30518414       0.37494185       0.58423438 </v>
   <v>       0.00756479      -0.00638909       0.47923787 </v>
   <v>       0.09417505      -0.13394640      -0.16419228 </v>
   <v>       0.01274636       0.00565444       0.65529376 </v>
   <v>       0.12111848       0.01825557      -0.21017186 </v>
   <v>      -0.03030534       0.15716085      -0.48822326 </v>
   <v>       0.00456929       0.01672647       0.50208035 </v>
   <v>      -0.04693590      -0.10671852      -0.21704465 </v>
   <v>      -0.13543764      -0.09112860      -0.58764768 </v>
   <v>       0.01451098       0.01402499      -0.77601822 </v>
   <v>      -0.07256504       0.10057737      -0.21560178 </v>
   <v>       0.13102380      -0.06334910      -0.51571403 </v>
   <v>      -0.30518414       0.37494185       0.58423438 </v>
   <v>       0.00756479      -0.00638909       0.47923787 </v>
   <v>       0.09417505      -0.13394640      -0.16419228 </v>
   <v>      -0.16460262      -0.45844528       0.53285806 </v>
   <v>       0.00523318      -0.00579583       0.11831495 </v>
   <v>      -0.15736550       0.00355784      -0.17629044 </v>
   <v>       0.44273742       0.09049322       0.63752598 </v>
   <v>       0.00700401      -0.00858691       0.15753997 </v>
   <v>       0.08745447       0.13618470      -0.15823797 </v>
   <v>       0.01451098       0.01402499      -0.77601822 </v>
   <v>      -0.07256504       0.10057737      -0.21560178 </v>
   <v>       0.13102380      -0.06334910      -0.51571403 </v>
   <v>       0.01274636       0.00565444       0.65529376 </v>
   <v>       0.12111848       0.01825557      -0.21017186 </v>
   <v>      -0.03030534       0.15716085      -0.48822326 </v>
   <v>       0.00456929       0.01672647       0.50208035 </v>
   <v>      -0.04693590      -0.10671852      -0.21704465 </v>
   <v>      -0.13543764      -0.09112860      -0.58764768 </v>
  </varray>
  <varray name="stress" >
   <v>      36.72673280      -0.22120999      -0.09376124 </v>
   <v>      -0.22120982      36.67311733      -0.08790568 </v>
   <v>      -0.09376139      -0.08790566      69.12086356 </v>
  </varray>
  <energy>
   <i name="e_fr_energy">   -683.30200990 </i>
   <i name="e_wo_entrp">   -683.29781013 </i>
   <i name="e_0_energy">   -683.29991002 </i>
  </energy>
  <time name="totalsc"> 2110.49 2132.17</time>
  <eigenvalues>
   <array>
    <dimension dim="1">band</dimension>
    <dimension dim="2">kpoint</dimension>
    <dimension dim="3">spin</dimension>
    <field>eigene</field>
    <field>occ</field>
    <set>
     <set comment="spin 1">
      <set comment="kpoint 1">
       <r>   -8.7558    1.0000 </r>
       <r>   -8.3380    1.0000 </r>
       <r>   -8.1019    1.0000 </r>
       <r>   -8.1012    1.0000 </r>
       <r>   -8.1011    1.0000 </r>
       <r>   -8.0751    1.0000 </r>
       <r>   -8.0751    1.0000 </r>
       <r>   -8.0744    1.0000 </r>
       <r>   -7.6840    1.0000 </r>
       <r>   -7.6834    1.0000 </r>
       <r>   -7.6816    1.0000 </r>
       <r>   -7.6471    1.0000 </r>
       <r>   -7.6449    1.0000 </r>
       <r>   -7.6444    1.0000 </r>
       <r>   -7.5152    1.0000 </r>
       <r>   -6.9323    1.0000 </r>
       <r>   -6.9317    1.0000 </r>
       <r>   -6.9307    1.0000 </r>
       <r>   -6.8629    1.0000 </r>
       <r>   -6.8614    1.0000 </r>
       <r>   -6.8598    1.0000 </r>
       <r>   -6.8482    1.0000 </r>
       <r>   -6.8454    1.0000 </r>
       <r>   -6.8445    1.0000 </r>
       <r>   -6.7992    1.0000 </r>
       <r>   -6.7985    1.0000 </r>
       <r>   -6.7984    1.0000 </r>
       <r>   -6.7467    1.0000 </r>
       <r>   -6.7426    1.0000 </r>
       <r>   -6.6509    1.0000 </r>
       <r>   -6.5896    1.0000 </r>
       <r>   -6.5892    1.0000 </r>
       <r>   -6.5865    1.0000 </r>
       <r>   -6.4775    1.0000 </r>
       <r>   -6.4651    1.0000 </r>
       <r>   -6.4559    1.0000 </r>
       <r>   -6.3248    1.0000 </r>
       <r>   -6.3226    1.0000 </r>
       <r>   -6.3218    1.0000 </r>
       <r>   -6.2479    1.0000 </r>
       <r>   -6.1458    1.0000 </r>
       <r>   -5.8751    1.0000 </r>
       <r>   -5.8743    1.0000 </r>
       <r>   -5.8728    1.0000 </r>
       <r>   -5.7919    1.0000 </r>
       <r>   -5.7891    1.0000 </r>
       <r>   -5.7889    1.0000 </r>
       <r>   -5.7878    1.0000 </r>
       <r>   -5.7811    1.0000 </r>
       <r>   -5.7693    1.0000 </r>
       <r>   -5.7684    1.0000 </r>
       <r>   -5.7680    1.0000 </r>
       <r>   -5.5661    1.0000 </r>
       <r>   -5.5657    1.0000 </r>
       <r>   -5.5642    1.0000 </r>
       <r>   -5.4853    1.0000 </r>
       <r>   -5.4839    1.0000 </r>
       <r>   -5.4833    1.0000 </r>
       <r>   -5.4811    1.0000 </r>
       <r>   -5.4424    1.0000 </r>
       <r>   -5.4403    1.0000 </r>
       <r>   -5.4392    1.0000 </r>
       <r>   -5.4073    1.0000 </r>
       <r>   -5.0380    1.0000 </r>
       <r>   -5.0379    1.0000 </r>
       <r>   -5.0378    1.0000 </r>
       <r>   -5.0026    1.0000 </r>
       <r>   -4.9918    1.0000 </r>
       <r>   -4.7707    1.0000 </r>
       <r>   -4.7706    1.0000 </r>
       <r>   -4.7706    1.0000 </r>
       <r>   -4.7397    1.0000 </r>
       <r>   -4.7382    1.0000 </r>
       <r>   -4.7372    1.0000 </r>
       <r>   -4.7367    1.0000 </r>
       <r>   -4.6962    1.0000 </r>
       <r>   -4.6949    1.0000 </r>
       <r>   -4.6944    1.0000 </r>
       <r>   -4.6438    1.0000 </r>
       <r>   -4.6429    1.0000 </r>
       <r>   -4.6424    1.0000 </r>
       <r>   -4.4930    1.0000 </r>
       <r>   -4.4891    1.0000 </r>
       <r>   -4.4275    1.0000 </r>
       <r>   -4.3738    1.0000 </r>
       <r>   -4.3720    1.0000 </r>
       <r>   -4.3707    1.0000 </r>
       <r>   -4.3447    1.0000 </r>
       <r>   -4.2570    1.0000 </r>
       <r>   -4.2530    1.0000 </r>
       <r>   -3.8486    1.0000 </r>
       <r>   -3.8478    1.0000 </r>
       <r>   -3.8463    1.0000 </r>
       <r>   -3.8143    1.0000 </r>
       <r>   -3.7657    1.0000 </r>
       <r>   -3.7651    1.0000 </r>
       <r>   -3.7640    1.0000 </r>
       <r>   -3.7624    1.0000 </r>
       <r>   -3.7617    1.0000 </r>
       <r>   -3.6663    1.0000 </r>
       <r>   -3.6627    1.0000 </r>
       <r>   -3.6608    1.0000 </r>
       <r>   -3.6435    1.0000 </r>
       <r>   -3.3635    1.0000 </r>
       <r>   -3.3604    1.0000 </r>
       <r>   -3.3600    1.0000 </r>
       <r>   -3.3534    1.0000 </r>
       <r>   -3.3530    1.0000 </r>
       <r>   -3.3507    1.0000 </r>
       <r>   -3.2209    1.0000 </r>
       <r>   -3.2115    1.0000 </r>
       <r>   -3.1932    1.0000 </r>
       <r>   -3.1706    1.0000 </r>
       <r>   -3.1696    1.0000 </r>
       <r>   -3.1695    1.0000 </r>
       <r>   -3.0617    1.0000 </r>
       <r>   -3.0614    1.0000 </r>
       <r>   -3.0604    1.0000 </r>
       <r>   -3.0445    1.0000 </r>
       <r>   -3.0376    1.0000 </r>
       <r>   -2.9270    1.0000 </r>
       <r>   -2.9267    1.0000 </r>
       <r>   -2.9267    1.0000 </r>
       <r>   -2.9132    1.0000 </r>
       <r>   -2.7827    1.0000 </r>
       <r>   -2.7806    1.0000 </r>
       <r>   -2.7707    1.0000 </r>
       <r>   -2.6684    1.0000 </r>
       <r>   -2.6683    1.0000 </r>
       <r>   -2.6683    1.0000 </r>
       <r>   -2.4830    1.0000 </r>
       <r>   -2.4827    1.0000 </r>
       <r>   -2.4825    1.0000 </r>
       <r>   -2.2209    1.0000 </r>
       <r>   -2.2195    1.0000 </r>
       <r>   -2.2189    1.0000 </r>
       <r>   -2.2184    1.0000 </r>
       <r>   -2.2163    1.0000 </r>
       <r>   -2.2137    1.0000 </r>
       <r>   -2.0942    1.0000 </r>
       <r>   -2.0925    1.0000 </r>
       <r>   -2.0884    1.0000 </r>
       <r>   -1.9002    1.0000 </r>
       <r>   -1.8956    1.0000 </r>
       <r>   -1.8916    1.0000 </r>
       <r>   -1.6402    1.0000 </r>
       <r>   -1.5185    1.0000 </r>
       <r>   -1.4463    1.0000 </r>
       <r>   -1.4428    1.0000 </r>
       <r>   -1.4417    1.0000 </r>
       <r>   -1.4118    1.0000 </r>
       <r>   -1.4099    1.0000 </r>
       <r>   -1.4074    1.0000 </r>
       <r>   -0.8660    1.0000 </r>
       <r>   -0.8653    1.0000 </r>
       <r>   -0.8629    1.0000 </r>
       <r>   -0.8019    1.0000 </r>
       <r>   -0.8014    1.0000 </r>
       <r>   -0.8000    1.0000 </r>
       <r>   -0.7530    1.0000 </r>
       <r>   -0.7519    1.0000 </r>
       <r>   -0.7497    1.0000 </r>
       <r>   -0.7180    1.0000 </r>
       <r>   -0.7157    1.0000 </r>
       <r>   -0.7156    1.0000 </r>
       <r>   -0.2055    1.0000 </r>
       <r>   -0.2047    1.0000 </r>
       <r>   -0.2028    1.0000 </r>
       <r>   -0.1571    1.0000 </r>
       <r>   -0.1564    1.0000 </r>
       <r>   -0.1549    1.0000 </r>
       <r>   -0.1024    1.0000 </r>
       <r>   -0.1012    1.0000 </r>
       <r>   -0.1007    1.0000 </r>
       <r>   -0.0697    1.0000 </r>
       <r>   -0.0655    1.0000 </r>
       <r>   -0.0613    1.0000 </r>
       <r>   -0.0611    1.0000 </r>
       <r>   -0.0607    1.0000 </r>
       <r>   -0.0604    1.0000 </r>
       <r>    0.0095    1.0000 </r>
       <r>    0.0101    1.0000 </r>
       <r>    0.0124    1.0000 </r>
       <r>    0.0587    1.0000 </r>
       <r>    0.0592    1.0000 </r>
       <r>    0.0614    1.0000 </r>
       <r>    0.1807    1.0000 </r>
       <r>    0.1821    1.0000 </r>
       <r>    0.1821    1.0000 </r>
       <r>    0.2072    1.0000 </r>
       <r>    0.2090    1.0000 </r>
       <r>    0.2102    1.0000 </r>
       <r>    0.2244    1.0000 </r>
       <r>    0.2787    1.0000 </r>
       <r>    0.2811    1.0000 </r>
       <r>    0.2947    1.0000 </r>
       <r>    0.2963    1.0000 </r>
       <r>    0.2967    1.0000 </r>
       <r>    0.3291    1.0000 </r>
       <r>    0.3294    1.0000 </r>
       <r>    0.3296    1.0000 </r>
       <r>    0.3759    1.0000 </r>
       <r>    0.3975    1.0000 </r>
       <r>    0.4001    1.0000 </r>
       <r>    0.4707    1.0000 </r>
       <r>    0.4712    1.0000 </r>
       <r>    0.4714    1.0000 </r>
       <r>    0.5187    1.0000 </r>
       <r>    0.5199    1.0000 </r>
       <r>    0.5203    1.0000 </r>
       <r>    0.6489    1.0000 </r>
       <r>    0.7001    1.0000 </r>
       <r>    0.7033    1.0000 </r>
       <r>    0.7344    1.0000 </r>
       <r>    0.8559    1.0000 </r>
       <r>    0.8560    1.0000 </r>
       <r>    0.8571    1.0000 </r>
       <r>    0.9002    1.0000 </r>
       <r>    0.9007    1.0000 </r>
       <r>    0.9007    1.0000 </r>
       <r>    0.9012    1.0000 </r>
       <r>    0.9506    1.0000 </r>
       <r>    0.9545    1.0000 </r>
       <r>    0.9891    1.0000 </r>
       <r>    0.9905    1.0000 </r>
       <r>    0.9906    1.0000 </r>
       <r>    1.0162    1.0000 </r>
       <r>    1.0171    1.0000 </r>
       <r>    1.0179    1.0000 </r>
       <r>    1.1341    1.0000 </r>
       <r>    1.2017    1.0000 </r>
       <r>    1.2041    1.0000 </r>
       <r>    1.2092    1.0000 </r>
       <r>    1.2815    1.0000 </r>
       <r>    1.2838    1.0000 </r>
       <r>    1.2842    1.0000 </r>
       <r>    1.3569    1.0000 </r>
       <r>    1.3658    1.0000 </r>
[...]
       <r>    -2.8308    27.8137   244.9844 </r>
       <r>    -2.7771    40.3112   247.1486 </r>
       <r>    -2.7234    87.9016   251.8677 </r>
       <r>    -2.6697    41.4923   254.0953 </r>
       <r>    -2.6161    40.1354   256.2500 </r>
       <r>    -2.5624     0.0002   256.2500 </r>
       <r>    -2.5087    82.4744   260.6777 </r>
       <r>    -2.4550    28.8892   262.2287 </r>
       <r>    -2.4013    66.3496   265.7907 </r>
       <r>    -2.3476    55.5113   268.7709 </r>
       <r>    -2.2939   109.8598   274.6688 </r>
       <r>    -2.2403    10.8748   275.2526 </r>
       <r>    -2.1866    55.8299   278.2499 </r>
       <r>    -2.1329    27.9356   279.7497 </r>
       <r>    -2.0792    12.2979   280.4099 </r>
       <r>    -2.0255    29.6183   282.0000 </r>
       <r>    -1.9718     2.3147   282.1243 </r>
       <r>    -1.9181    53.5717   285.0003 </r>
       <r>    -1.8645    44.8709   287.4092 </r>
       <r>    -1.8108    52.9134   290.2500 </r>
       <r>    -1.7571    55.2476   293.2160 </r>
       <r>    -1.7034     0.9574   293.2674 </r>
       <r>    -1.6497    66.8945   296.8587 </r>
       <r>    -1.5960    80.4642   301.1785 </r>
       <r>    -1.5423    66.1925   304.7322 </r>
       <r>    -1.4887     4.9882   305.0000 </r>
       <r>    -1.4350    12.2811   305.6593 </r>
       <r>    -1.3813    29.6232   307.2496 </r>
       <r>    -1.3276     0.0066   307.2500 </r>
       <r>    -1.2739     0.0571   307.2531 </r>
       <r>    -1.2202    28.2480   308.7696 </r>
       <r>    -1.1665    27.5755   310.2500 </r>
       <r>    -1.1129     0.0000   310.2500 </r>
       <r>    -1.0592     8.0389   310.6816 </r>
       <r>    -1.0055    19.9014   311.7500 </r>
       <r>    -0.9518     0.0000   311.7500 </r>
       <r>    -0.8981     0.0000   311.7500 </r>
       <r>    -0.8444    21.4789   312.9031 </r>
       <r>    -0.7907    42.1013   315.1634 </r>
       <r>    -0.7371    33.1695   316.9441 </r>
       <r>    -0.6834    29.4316   318.5242 </r>
       <r>    -0.6297    60.5018   321.7723 </r>
       <r>    -0.5760    30.3184   323.3999 </r>
       <r>    -0.5223     6.5205   323.7500 </r>
       <r>    -0.4686     0.0000   323.7500 </r>
       <r>    -0.4149     0.1773   323.7595 </r>
       <r>    -0.3613    10.2906   324.3120 </r>
       <r>    -0.3076    54.7225   327.2498 </r>
       <r>    -0.2539   125.0741   333.9645 </r>
       <r>    -0.2002   114.4324   340.1081 </r>
       <r>    -0.1465    33.6515   341.9147 </r>
       <r>    -0.0928   109.4292   347.7895 </r>
       <r>    -0.0391    87.5598   352.4902 </r>
       <r>     0.0146   114.2412   358.6234 </r>
       <r>     0.0682    40.5731   360.8016 </r>
       <r>     0.1219    31.9964   362.5194 </r>
       <r>     0.1756    51.6650   365.2931 </r>
       <r>     0.2293   142.7106   372.9546 </r>
       <r>     0.2830   118.0232   379.2908 </r>
       <r>     0.3367   121.9323   385.8368 </r>
       <r>     0.3904    69.6096   389.5739 </r>
       <r>     0.4440   105.6268   395.2445 </r>
       <r>     0.4977   102.2532   400.7341 </r>
       <r>     0.5514    43.0572   403.0457 </r>
       <r>     0.6051    78.9006   407.2815 </r>
       <r>     0.6588    36.0361   409.2162 </r>
       <r>     0.7125    49.8772   411.8939 </r>
       <r>     0.7662   116.5448   418.1507 </r>
       <r>     0.8198   120.0229   424.5942 </r>
       <r>     0.8735   111.4127   430.5755 </r>
       <r>     0.9272   173.7636   439.9042 </r>
       <r>     0.9809   124.8834   446.6087 </r>
       <r>     1.0346   112.2979   452.6375 </r>
       <r>     1.0883    83.8601   457.1396 </r>
       <r>     1.1420   147.4245   465.0543 </r>
       <r>     1.1956    88.0021   469.7787 </r>
       <r>     1.2493   117.7345   476.0994 </r>
       <r>     1.3030   109.7225   481.9900 </r>
       <r>     1.3567    94.9779   487.0890 </r>
       <r>     1.4104   127.5115   493.9346 </r>
       <r>     1.4641    60.2976   497.1717 </r>
       <r>     1.5178   174.1297   506.5200 </r>
       <r>     1.5714   133.4956   513.6869 </r>
       <r>     1.6251   132.6122   520.8063 </r>
       <r>     1.6788    73.5146   524.7530 </r>
       <r>     1.7325   154.0929   533.0257 </r>
       <r>     1.7862   100.9987   538.4480 </r>
       <r>     1.8399    84.2363   542.9703 </r>
       <r>     1.8936    84.6806   547.5164 </r>
       <r>     1.9472    83.7307   552.0116 </r>
       <r>     2.0009    84.0177   556.5222 </r>
       <r>     2.0546    65.7422   560.0516 </r>
       <r>     2.1083    93.6688   565.0803 </r>
       <r>     2.1620   155.3548   573.4206 </r>
       <r>     2.2157    94.4202   578.4898 </r>
       <r>     2.2694    85.5019   583.0801 </r>
       <r>     2.3230    79.6149   587.3543 </r>
       <r>     2.3767    57.9997   590.4680 </r>
       <r>     2.4304   107.0826   596.2169 </r>
       <r>     2.4841    51.9555   599.0062 </r>
       <r>     2.5378    81.0089   603.3553 </r>
       <r>     2.5915    37.0762   605.3458 </r>
       <r>     2.6452    96.4158   610.5219 </r>
       <r>     2.6988   121.9652   617.0698 </r>
       <r>     2.7525    56.4215   620.0989 </r>
       <r>     2.8062   105.2154   625.7475 </r>
       <r>     2.8599    58.9392   628.9117 </r>
       <r>     2.9136    61.3100   632.2032 </r>
       <r>     2.9673    10.2697   632.7545 </r>
       <r>     3.0210    78.9157   636.9912 </r>
       <r>     3.0746    46.6895   639.4978 </r>
       <r>     3.1283    22.5112   640.7063 </r>
       <r>     3.1820   116.7917   646.9764 </r>
       <r>     3.2357    51.6439   649.7490 </r>
       <r>     3.2894    45.9258   652.2145 </r>
       <r>     3.3431    52.7831   655.0483 </r>
       <r>     3.3968    73.6368   659.0016 </r>
       <r>     3.4504    56.2378   662.0208 </r>
       <r>     3.5041    35.6217   663.9332 </r>
       <r>     3.5578    24.7799   665.2635 </r>
       <r>     3.6115    75.1558   669.2983 </r>
       <r>     3.6652    59.4996   672.4926 </r>
       <r>     3.7189    41.2429   674.7068 </r>
       <r>     3.7726     2.7445   674.8542 </r>
       <r>     3.8262    44.5794   677.2475 </r>
       <r>     3.8799    16.1537   678.1147 </r>
       <r>     3.9336    16.4908   679.0000 </r>
       <r>     3.9873    15.4962   679.8319 </r>
       <r>     4.0410    54.3191   682.7481 </r>
       <r>     4.0947    12.8681   683.4390 </r>
       <r>     4.1484    63.0136   686.8219 </r>
       <r>     4.2020    59.1978   690.0000 </r>
       <r>     4.2557    15.4888   690.8315 </r>
       <r>     4.3094    72.5301   694.7254 </r>
       <r>     4.3631    25.2626   696.0816 </r>
       <r>     4.4168    35.8583   698.0067 </r>
       <r>     4.4705    16.4252   698.8885 </r>
       <r>     4.5242    92.8372   703.8726 </r>
       <r>     4.5778    53.5941   706.7498 </r>
       <r>     4.6315     8.7768   707.2211 </r>
       <r>     4.6852    85.7820   711.8264 </r>
       <r>     4.7389    81.8102   716.2184 </r>
       <r>     4.7926    91.2630   721.1180 </r>
       <r>     4.8463    82.1747   725.5296 </r>
       <r>     4.9000    37.4778   727.5417 </r>
       <r>     4.9537    32.5259   729.2878 </r>
       <r>     5.0073    62.6342   732.6504 </r>
       <r>     5.0610    55.9717   735.6553 </r>
       <r>     5.1147    73.8216   739.6185 </r>
       <r>     5.1684   148.1366   747.5713 </r>
       <r>     5.2221    71.8768   751.4301 </r>
       <r>     5.2758   127.2757   758.2630 </r>
       <r>     5.3295    60.5497   761.5137 </r>
       <r>     5.3831    67.7443   765.1506 </r>
       <r>     5.4368    63.7390   768.5726 </r>
       <r>     5.4905   100.1215   773.9477 </r>
       <r>     5.5442   123.3781   780.5713 </r>
       <r>     5.5979    80.5556   784.8961 </r>
       <r>     5.6516    82.8179   789.3422 </r>
       <r>     5.7053   110.5293   795.2761 </r>
       <r>     5.7589   105.7212   800.9518 </r>
       <r>     5.8126    75.0511   804.9810 </r>
       <r>     5.8663    46.9972   807.5041 </r>
       <r>     5.9200     9.2366   808.0000 </r>
       <r>     5.9737     0.0000   808.0000 </r>
       <r>     6.0274     0.0000   808.0000 </r>
       <r>     6.0811     0.0000   808.0000 </r>
       <r>     6.1347     0.0000   808.0000 </r>
       <r>     6.1884     0.0000   808.0000 </r>
       <r>     6.2421     0.0000   808.0000 </r>
       <r>     6.2958     0.0000   808.0000 </r>
       <r>     6.3495     0.0000   808.0000 </r>
       <r>     6.4032     0.0000   808.0000 </r>
       <r>     6.4569     0.0000   808.0000 </r>
       <r>     6.5105     0.0000   808.0000 </r>
       <r>     6.5642     0.0000   808.0000 </r>
       <r>     6.6179     0.0000   808.0000 </r>
      </set>
     </set>
    </array>
   </total>
  </dos>
 </calculation>
 <structure name="finalpos" >
  <crystal>
   <varray name="basis" >
    <v>      16.00267601       0.00000000       0.00000000 </v>
    <v>      -8.00133800      13.85872459       0.00000000 </v>
    <v>       0.00000000       0.00000000      20.30400658 </v>
   </varray>
   <i name="volume">   4502.95516101 </i>
   <varray name="rec_basis" >
    <v>       0.06248955       0.03607836       0.00000000 </v>
    <v>       0.00000000       0.07215671       0.00000000 </v>
    <v>       0.00000000       0.00000000       0.04925136 </v>
   </varray>
  </crystal>
  <varray name="positions" >
   <v>       0.98576731       0.49288356       0.00000000 </v>
   <v>       0.65243387       0.32621685       0.16088121 </v>
   <v>       0.31910050       0.15955012       0.32176238 </v>
   <v>       0.98576731       0.99288368       0.00000001 </v>
   <v>       0.65243387       0.82621694       0.16088121 </v>
   <v>       0.31910050       0.65955019       0.32176241 </v>
   <v>       0.48576724       0.49288359       0.00000000 </v>
   <v>       0.15243384       0.32621685       0.16088121 </v>
   <v>       0.81910044       0.15955013       0.32176241 </v>
   <v>       0.48576724       0.99288368       0.00000002 </v>
   <v>       0.15243384       0.82621694       0.16088121 </v>
   <v>       0.81910044       0.65955019       0.32176241 </v>
   <v>       0.15243395       0.82621688       0.04022032 </v>
   <v>       0.81910056       0.65955013       0.20110148 </v>
   <v>       0.48576719       0.49288344       0.36198270 </v>
   <v>       0.15243395       0.32621694       0.04022032 </v>
   <v>       0.81910056       0.15955022       0.20110150 </v>
   <v>       0.48576719       0.99288350       0.36198270 </v>
   <v>       0.65243387       0.82621682       0.04022032 </v>
   <v>       0.31910053       0.65955013       0.20110148 </v>
   <v>       0.98576719       0.49288344       0.36198270 </v>
   <v>       0.65243387       0.32621694       0.04022032 </v>
   <v>       0.31910053       0.15955023       0.20110150 </v>
   <v>       0.98576719       0.99288350       0.36198270 </v>
   <v>       0.23576726       0.74288362       0.00000000 </v>
   <v>       0.90243387       0.57621694       0.16088121 </v>
   <v>       0.56910038       0.40955013       0.32176241 </v>
   <v>       0.23576729       0.24288362       0.00000001 </v>
   <v>       0.90243387       0.07621690       0.16088121 </v>
   <v>       0.56910044       0.90955019       0.32176241 </v>
   <v>       0.73576724       0.74288356       0.00000001 </v>
   <v>       0.40243384       0.57621688       0.16088121 </v>
   <v>       0.06910040       0.40955010       0.32176241 </v>
   <v>       0.73576724       0.24288361       0.00000001 </v>
   <v>       0.40243384       0.07621689       0.16088119 </v>
   <v>       0.06910042       0.90955019       0.32176241 </v>
   <v>       0.40243393       0.57621694       0.04022026 </v>
   <v>       0.06910051       0.40955016       0.20110148 </v>
   <v>       0.73576719       0.24288349       0.36198267 </v>
   <v>       0.40243393       0.07621697       0.04022026 </v>
   <v>       0.06910051       0.90955025       0.20110148 </v>
   <v>       0.73576719       0.74288356       0.36198267 </v>
   <v>       0.90243399       0.57621688       0.04022027 </v>
   <v>       0.56910062       0.40955019       0.20110147 </v>
   <v>       0.23576724       0.24288346       0.36198267 </v>
   <v>       0.90243399       0.07621697       0.04022027 </v>
   <v>       0.56910062       0.90955025       0.20110148 </v>
   <v>       0.23576724       0.74288356       0.36198267 </v>
   <v>       0.23576728       0.49288359       0.00000001 </v>
   <v>       0.90243387       0.32621685       0.16088119 </v>
   <v>       0.56910044       0.15955012       0.32176241 </v>
   <v>       0.23576729       0.99288368       0.00000002 </v>
   <v>       0.90243387       0.82621694       0.16088121 </v>
   <v>       0.56910044       0.65955019       0.32176241 </v>
   <v>       0.73576724       0.49288359       0.00000001 </v>
   <v>       0.40243384       0.32621688       0.16088119 </v>
   <v>       0.06910040       0.15955012       0.32176241 </v>
   <v>       0.73576724       0.99288368       0.00000003 </v>
   <v>       0.40243384       0.82621694       0.16088121 </v>
   <v>       0.06910042       0.65955019       0.32176241 </v>
   <v>       0.40243393       0.82621694       0.04022028 </v>
   <v>       0.06910050       0.65955013       0.20110147 </v>
   <v>       0.73576719       0.49288347       0.36198267 </v>
   <v>       0.40243393       0.32621700       0.04022028 </v>
   <v>       0.06910053       0.15955025       0.20110148 </v>
   <v>       0.73576719       0.99288356       0.36198267 </v>
   <v>       0.90243399       0.82621688       0.04022026 </v>
   <v>       0.56910056       0.65955013       0.20110144 </v>
   <v>       0.23576724       0.49288347       0.36198261 </v>
   <v>       0.90243399       0.32621697       0.04022029 </v>
   <v>       0.56910062       0.15955025       0.20110148 </v>
   <v>       0.23576724       0.99288356       0.36198267 </v>
   <v>       0.98576731       0.74288362       0.00000001 </v>
   <v>       0.65243393       0.57621688       0.16088124 </v>
   <v>       0.31910050       0.40955016       0.32176238 </v>
   <v>       0.98576731       0.24288362       0.00000001 </v>
   <v>       0.65243387       0.07621688       0.16088121 </v>
   <v>       0.31910050       0.90955019       0.32176241 </v>
   <v>       0.48576724       0.74288362       0.00000000 </v>
   <v>       0.15243384       0.57621694       0.16088121 </v>
   <v>       0.81910044       0.40955010       0.32176241 </v>
   <v>       0.48576724       0.24288362       0.00000002 </v>
   <v>       0.15243384       0.07621690       0.16088121 </v>
   <v>       0.81910044       0.90955019       0.32176241 </v>
   <v>       0.15243398       0.57621694       0.04022032 </v>
   <v>       0.81910062       0.40955022       0.20110148 </v>
   <v>       0.48576724       0.24288355       0.36198270 </v>
   <v>       0.15243398       0.07621698       0.04022032 </v>
   <v>       0.81910062       0.90955031       0.20110150 </v>
   <v>       0.48576724       0.74288356       0.36198270 </v>
   <v>       0.65243399       0.57621694       0.04022032 </v>
   <v>       0.31910062       0.40955022       0.20110150 </v>
   <v>       0.98576724       0.24288352       0.36198270 </v>
   <v>       0.65243399       0.07621699       0.04022031 </v>
   <v>       0.31910062       0.90955031       0.20110150 </v>
   <v>       0.98576724       0.74288356       0.36198270 </v>
   <v>       0.32075471       0.32687458       0.47340384 </v>
   <v>       0.32075471       0.66020799       0.65792614 </v>
   <v>       0.32075471       0.99354136       0.84244847 </v>
   <v>       0.65408808       0.99354130       0.47340381 </v>
   <v>       0.65408814       0.32687473       0.65792614 </v>
   <v>       0.65408814       0.66020811       0.84244835 </v>
   <v>       0.98742145       0.66020799       0.47340384 </v>
   <v>       0.98742145       0.99354136       0.65792614 </v>
   <v>       0.98742145       0.32687473       0.84244835 </v>
   <v>       0.32075471       0.66020799       0.51953441 </v>
   <v>       0.32075471       0.99354130       0.70405674 </v>
   <v>       0.32075471       0.32687461       0.88857901 </v>
   <v>       0.65408814       0.32687461       0.51953441 </v>
   <v>       0.65408814       0.66020799       0.70405674 </v>
   <v>       0.65408814       0.99354148       0.88857901 </v>
   <v>       0.98742145       0.99354136       0.51953441 </v>
   <v>       0.98742145       0.32687473       0.70405674 </v>
   <v>       0.98742145       0.66020799       0.88857901 </v>
   <v>       0.48742139       0.66020799       0.47340384 </v>
   <v>       0.48742139       0.99354136       0.65792614 </v>
   <v>       0.48742139       0.32687473       0.84244847 </v>
   <v>       0.82075471       0.32687458       0.47340384 </v>
   <v>       0.82075471       0.66020799       0.65792614 </v>
   <v>       0.82075471       0.99354142       0.84244847 </v>
   <v>       0.15408814       0.99354130       0.47340381 </v>
   <v>       0.15408814       0.32687473       0.65792608 </v>
   <v>       0.15408814       0.66020811       0.84244847 </v>
   <v>       0.48742139       0.99354136       0.51953435 </v>
   <v>       0.48742139       0.32687473       0.70405668 </v>
   <v>       0.48742142       0.66020822       0.88857901 </v>
   <v>       0.82075477       0.66020799       0.51953435 </v>
   <v>       0.82075477       0.99354136       0.70405674 </v>
   <v>       0.82075477       0.32687473       0.88857901 </v>
   <v>       0.15408814       0.32687461       0.51953435 </v>
   <v>       0.15408814       0.66020799       0.70405668 </v>
   <v>       0.15408814       0.99354136       0.88857901 </v>
   <v>       0.32075471       0.82687461       0.47340384 </v>
   <v>       0.32075471       0.16020799       0.65792608 </v>
   <v>       0.32075471       0.49354136       0.84244847 </v>
   <v>       0.65408808       0.49354124       0.47340384 </v>
   <v>       0.65408808       0.82687467       0.65792614 </v>
   <v>       0.65408808       0.16020799       0.84244847 </v>
   <v>       0.98742145       0.16020799       0.47340381 </v>
   <v>       0.98742145       0.49354136       0.65792608 </v>
   <v>       0.98742151       0.82687485       0.84244847 </v>
   <v>       0.32075471       0.16020799       0.51953435 </v>
   <v>       0.32075471       0.49354136       0.70405668 </v>
   <v>       0.32075471       0.82687485       0.88857901 </v>
   <v>       0.65408808       0.82687461       0.51953435 </v>
   <v>       0.65408808       0.16020799       0.70405668 </v>
   <v>       0.65408814       0.49354148       0.88857901 </v>
   <v>       0.98742145       0.49354121       0.51953435 </v>
   <v>       0.98742145       0.82687461       0.70405674 </v>
   <v>       0.98742145       0.16020799       0.88857901 </v>
   <v>       0.48742139       0.16020799       0.47340384 </v>
   <v>       0.48742139       0.49354124       0.65792608 </v>
   <v>       0.48742139       0.82687473       0.84244835 </v>
   <v>       0.82075471       0.82687461       0.47340381 </v>
   <v>       0.82075471       0.16020799       0.65792614 </v>
   <v>       0.82075477       0.49354136       0.84244835 </v>
   <v>       0.15408802       0.49354127       0.47340384 </v>
   <v>       0.15408802       0.82687467       0.65792614 </v>
   <v>       0.15408802       0.16020811       0.84244835 </v>
   <v>       0.48742139       0.49354118       0.51953441 </v>
   <v>       0.48742139       0.82687455       0.70405674 </v>
   <v>       0.48742139       0.16020799       0.88857901 </v>
   <v>       0.82075471       0.16020799       0.51953441 </v>
   <v>       0.82075471       0.49354136       0.70405674 </v>
   <v>       0.82075471       0.82687461       0.88857901 </v>
   <v>       0.15408814       0.82687461       0.51953441 </v>
   <v>       0.15408814       0.16020799       0.70405674 </v>
   <v>       0.15408814       0.49354136       0.88857901 </v>
  </varray>
 </structure>
</modeling>
