Si and Ge interface calculation         
           1
    13.303180    0.000000    0.000000
     6.651589   14.873406    0.000000
     0.000000    0.000000    6.663596
   Si   Sn
    36    24
Direct configuration=     1
   0.28324950  0.64162475  0.00000006
   0.81658280  0.40829128  0.18224537
   0.34991598  0.17495777  0.36449075
   0.61658275  0.30829138  0.00000007
   0.14991605  0.07495793  0.18224537
   0.68324923  0.84162444  0.36449069
   0.94991612  0.97495806  0.00000005
   0.48324949  0.74162459  0.18224537
   0.01658267  0.50829112  0.36449069
   0.79991627  0.77495801  0.09112254
   0.33324951  0.54162455  0.27336788
   0.86658275  0.30829108  0.45561326
   0.13324969  0.44162476  0.09112255
   0.66658294  0.20829128  0.27336788
   0.19991624  0.97495776  0.45561326
   0.46658289  0.10829154  0.09112255
   0.99991614  0.87495804  0.27336788
   0.53324938  0.64162457  0.45561326
   0.78324956  0.64162475  0.00000000
   0.31658283  0.40829128  0.18224534
   0.84991604  0.17495778  0.36449075
   0.11658280  0.30829140  0.00000007
   0.64991605  0.07495795  0.18224542
   0.18324930  0.84162450  0.36449075
   0.44991612  0.97495806  0.00000007
   0.98324943  0.74162459  0.18224542
   0.51658267  0.50829112  0.36449075
   0.29991618  0.77495813  0.09112255
   0.83324945  0.54162467  0.27336791
   0.36658269  0.30829120  0.45561323
   0.63324940  0.44162473  0.09112257
   0.16658264  0.20829126  0.27336791
   0.69991595  0.97495782  0.45561317
   0.96658272  0.10829155  0.09112255
   0.49991596  0.87495804  0.27336791
   0.03324926  0.64162463  0.45561326
   0.98717922  0.02564151  0.45561328
   0.83717918  0.32564157  0.67336810
   0.68717915  0.62564164  0.89112282
   0.48717925  0.02564151  0.45561328
   0.33717915  0.32564157  0.67336810
   0.18717913  0.62564164  0.89112282
   0.28717920  0.67564148  0.56449044
   0.13717918  0.97564149  0.78224516
   0.98717910  0.27564156  0.00000000
   0.78717935  0.67564148  0.56449044
   0.63717931  0.97564149  0.78224516
   0.48717925  0.27564156  0.00000000
   0.98717928  0.52564150  0.45561335
   0.83717918  0.82564151  0.67336810
   0.68717909  0.12564170  0.89112282
   0.48717925  0.52564150  0.45561335
   0.33717924  0.82564151  0.67336810
   0.18717912  0.12564170  0.89112282
   0.28717923  0.17564151  0.56449044
   0.13717917  0.47564155  0.78224516
   0.98717916  0.77564162  0.00000000
   0.78717929  0.17564151  0.56449044
   0.63717925  0.47564155  0.78224516
   0.48717916  0.77564162  0.00000000
