       N       E                     dE             d eps       ncg     rms          rms(c)
DAV:   1     0.467189318864E+04    0.46719E+04   -0.44326E+05 20352   0.167E+03
DAV:   2    -0.577802815994E+03   -0.52497E+04   -0.50701E+04 23976   0.203E+02
DAV:   3    -0.110995705703E+04   -0.53215E+03   -0.51371E+03 25992   0.588E+01
DAV:   4    -0.113220147310E+04   -0.22244E+02   -0.21775E+02 24608   0.128E+01
DAV:   5    -0.113321763517E+04   -0.10162E+01   -0.10069E+01 28728   0.274E+00    0.479E+01
DAV:   6    -0.110310166643E+04    0.30116E+02   -0.10123E+02 30976   0.132E+01    0.222E+01
DAV:   7    -0.110155971714E+04    0.15419E+01   -0.68315E+01 26024   0.112E+01    0.157E+01
DAV:   8    -0.109831765929E+04    0.32421E+01   -0.16084E+01 24616   0.536E+00    0.374E+00
DAV:   9    -0.109829717138E+04    0.20488E-01   -0.54914E+00 25416   0.288E+00    0.279E+00
DAV:  10    -0.109800240428E+04    0.29477E+00   -0.16096E+00 24968   0.167E+00    0.151E+00
DAV:  11    -0.109799419307E+04    0.82112E-02   -0.39385E-01 23464   0.687E-01    0.102E+00
DAV:  12    -0.109799258513E+04    0.16079E-02   -0.69831E-02 23232   0.309E-01    0.702E-01
DAV:  13    -0.109799206137E+04    0.52376E-03   -0.32049E-02 23696   0.194E-01    0.371E-01
DAV:  14    -0.109799250031E+04   -0.43894E-03   -0.13712E-02 25080   0.143E-01    0.215E-01
DAV:  15    -0.109799177525E+04    0.72506E-03   -0.72206E-03 25240   0.107E-01    0.116E-01
DAV:  16    -0.109799153994E+04    0.23532E-03   -0.21059E-03 24864   0.582E-02    0.678E-02
DAV:  17    -0.109799151089E+04    0.29051E-04   -0.51328E-04 24464   0.288E-02    0.449E-02
DAV:  18    -0.109799152685E+04   -0.15965E-04   -0.16855E-04 24656   0.167E-02    0.282E-02
DAV:  19    -0.109799151663E+04    0.10225E-04   -0.68109E-05 24752   0.116E-02    0.147E-02
DAV:  20    -0.109799151180E+04    0.48232E-05   -0.26025E-05 24096   0.571E-03    0.105E-02
DAV:  21    -0.109799151094E+04    0.86325E-06   -0.61700E-06 22952   0.270E-03    0.842E-03
DAV:  22    -0.109799151074E+04    0.20287E-06   -0.20523E-06 23840   0.145E-03    0.355E-03
DAV:  23    -0.109799151094E+04   -0.20819E-06   -0.60255E-07 22480   0.780E-04    0.168E-03
DAV:  24    -0.109799151125E+04   -0.30412E-06   -0.14952E-07 13240   0.469E-04    0.917E-04
DAV:  25    -0.109799151148E+04   -0.23192E-06   -0.12466E-07 11968   0.335E-04    0.661E-04
DAV:  26    -0.109799151158E+04   -0.97338E-07   -0.50759E-08 11760   0.231E-04
   1 F= -.10979915E+04 E0= -.10979884E+04  d E =-.624817E-02  mag=     1.0000
