  48  48   0   0
  0.2283438E+02  0.8001338E-09  0.1265123E-08  0.1141337E-08  0.5000000E-15
  1.000000000000000E-004
  CAR 
 Si and Ge interface calculation         
      6.78730868    -11.38475212  301      3.49360325      1.00000000
    -11.385  0.0000E+00  0.0000E+00  0.0000E+00  0.0000E+00
    -11.324  0.0000E+00  0.0000E+00  0.0000E+00  0.0000E+00
    -11.264  0.0000E+00  0.0000E+00  0.0000E+00  0.0000E+00
    -11.203  0.0000E+00  0.0000E+00  0.0000E+00  0.0000E+00
    -11.142  0.0000E+00  0.0000E+00  0.0000E+00  0.0000E+00
    -11.082  0.0000E+00  0.0000E+00  0.0000E+00  0.0000E+00
    -11.021  0.0000E+00  0.0000E+00  0.0000E+00  0.0000E+00
    -10.961  0.0000E+00  0.0000E+00  0.0000E+00  0.0000E+00
    -10.900  0.0000E+00  0.0000E+00  0.0000E+00  0.0000E+00
    -10.840  0.0000E+00  0.0000E+00  0.0000E+00  0.0000E+00
    -10.779  0.0000E+00  0.0000E+00  0.0000E+00  0.0000E+00
    -10.718  0.0000E+00  0.0000E+00  0.0000E+00  0.0000E+00
    -10.658  0.0000E+00  0.0000E+00  0.0000E+00  0.0000E+00
    -10.597  0.2346E-07  0.1884E-14  0.1421E-08  0.1141E-15
    -10.537  0.7785E+01  0.2520E+01  0.4716E+00  0.1526E+00
    -10.476  0.4686E+00  0.5735E+01  0.5000E+00  0.5000E+00
    -10.416  0.5758E+01  0.1589E+00  0.8488E+00  0.5096E+00
    -10.355  0.1900E+02  0.2374E+02  0.2000E+01  0.1948E+01
    -10.294  0.3716E-02  0.8665E+00  0.2000E+01  0.2000E+01
    -10.234  0.1505E+02  0.3733E+01  0.2912E+01  0.2226E+01
    -10.173  0.1459E+01  0.1278E+02  0.3000E+01  0.3000E+01
    -10.113  0.0000E+00  0.0000E+00  0.3000E+01  0.3000E+01
    -10.052  0.2871E-06  0.5549E-13  0.3000E+01  0.3000E+01
     -9.992  0.1607E+02  0.7088E+01  0.3973E+01  0.3429E+01
     -9.931  0.4392E+00  0.9421E+01  0.4000E+01  0.4000E+01
     -9.870  0.4575E-03  0.2063E-08  0.4000E+01  0.4000E+01
     -9.810  0.1651E+02  0.1576E+02  0.5000E+01  0.4955E+01
     -9.749  0.0000E+00  0.7449E+00  0.5000E+01  0.5000E+01
     -9.689  0.0000E+00  0.0000E+00  0.5000E+01  0.5000E+01
     -9.628  0.0000E+00  0.0000E+00  0.5000E+01  0.5000E+01
     -9.568  0.0000E+00  0.0000E+00  0.5000E+01  0.5000E+01
     -9.507  0.0000E+00  0.0000E+00  0.5000E+01  0.5000E+01
     -9.446  0.0000E+00  0.0000E+00  0.5000E+01  0.5000E+01
     -9.386  0.4618E+00  0.6445E-03  0.5028E+01  0.5000E+01
     -9.325  0.1605E+02  0.1651E+02  0.6000E+01  0.6000E+01
     -9.265  0.1900E-11  0.0000E+00  0.6000E+01  0.6000E+01
     -9.204  0.1340E+02  0.1728E+01  0.6812E+01  0.6105E+01
     -9.144  0.3107E+01  0.1478E+02  0.7000E+01  0.7000E+01
     -9.083  0.0000E+00  0.0000E+00  0.7000E+01  0.7000E+01
     -9.022  0.0000E+00  0.0000E+00  0.7000E+01  0.7000E+01
     -8.962  0.0000E+00  0.0000E+00  0.7000E+01  0.7000E+01
     -8.901  0.0000E+00  0.0000E+00  0.7000E+01  0.7000E+01
     -8.841  0.5067E+00  0.6622E-03  0.7031E+01  0.7000E+01
     -8.780  0.7748E+01  0.8254E+01  0.7500E+01  0.7500E+01
     -8.720  0.5943E+01  0.4158E+00  0.7860E+01  0.7525E+01
     -8.659  0.4117E+01  0.9123E+01  0.8109E+01  0.8078E+01
     -8.598  0.4576E+01  0.4444E+01  0.8387E+01  0.8347E+01
     -8.538  0.6038E+01  0.3122E+01  0.8752E+01  0.8536E+01
     -8.477  0.5529E+01  0.8071E+01  0.9087E+01  0.9025E+01
     -8.417  0.8663E+01  0.9386E+01  0.9612E+01  0.9594E+01
     -8.356  0.5271E+01  0.4435E+01  0.9931E+01  0.9862E+01
     -8.296  0.3842E+01  0.4335E+01  0.1016E+02  0.1012E+02
     -8.235  0.6553E+00  0.7034E+00  0.1020E+02  0.1017E+02
     -8.174  0.1049E+02  0.9292E+01  0.1084E+02  0.1073E+02
     -8.114  0.1199E+02  0.1061E+02  0.1157E+02  0.1137E+02
     -8.053  0.7018E+01  0.8275E+01  0.1199E+02  0.1187E+02
     -7.993  0.7476E+01  0.9076E+01  0.1244E+02  0.1242E+02
     -7.932  0.4748E+01  0.3997E+01  0.1273E+02  0.1267E+02
     -7.871  0.1362E+02  0.1179E+02  0.1356E+02  0.1338E+02
     -7.811  0.3374E+01  0.5035E+01  0.1376E+02  0.1368E+02
     -7.750  0.9479E+01  0.8650E+01  0.1434E+02  0.1421E+02
     -7.690  0.4305E+01  0.4229E+01  0.1460E+02  0.1447E+02
     -7.629  0.2018E+02  0.2031E+02  0.1582E+02  0.1570E+02
     -7.569  0.2106E+02  0.1649E+02  0.1709E+02  0.1669E+02
     -7.508  0.7068E+01  0.1092E+02  0.1752E+02  0.1736E+02
     -7.447  0.1277E+02  0.1164E+02  0.1830E+02  0.1806E+02
     -7.387  0.1348E+02  0.1414E+02  0.1911E+02  0.1892E+02
     -7.326  0.1468E+02  0.1647E+02  0.2000E+02  0.1992E+02
     -7.266  0.9884E+01  0.7377E+01  0.2060E+02  0.2036E+02
     -7.205  0.1267E+02  0.1537E+02  0.2137E+02  0.2129E+02
     -7.145  0.2482E+02  0.1995E+02  0.2287E+02  0.2250E+02
     -7.084  0.1783E+02  0.1944E+02  0.2395E+02  0.2368E+02
     -7.023  0.1561E+02  0.1993E+02  0.2490E+02  0.2489E+02
     -6.963  0.2262E+02  0.1456E+02  0.2627E+02  0.2577E+02
     -6.902  0.2663E+02  0.2872E+02  0.2788E+02  0.2751E+02
     -6.842  0.2183E+02  0.2305E+02  0.2920E+02  0.2891E+02
     -6.781  0.2382E+02  0.2003E+02  0.3065E+02  0.3012E+02
     -6.721  0.1335E+02  0.1969E+02  0.3146E+02  0.3131E+02
     -6.660  0.1377E+02  0.1507E+02  0.3229E+02  0.3222E+02
     -6.599  0.1404E+02  0.1113E+02  0.3314E+02  0.3290E+02
     -6.539  0.1999E+02  0.1963E+02  0.3435E+02  0.3409E+02
     -6.478  0.8843E+01  0.1077E+02  0.3489E+02  0.3474E+02
     -6.418  0.1498E+02  0.1219E+02  0.3579E+02  0.3548E+02
     -6.357  0.1017E+02  0.1140E+02  0.3641E+02  0.3617E+02
     -6.297  0.1178E+02  0.1216E+02  0.3712E+02  0.3691E+02
     -6.236  0.1006E+02  0.1258E+02  0.3773E+02  0.3767E+02
     -6.175  0.1125E+02  0.5947E+01  0.3842E+02  0.3803E+02
     -6.115  0.1606E+02  0.1776E+02  0.3939E+02  0.3910E+02
     -6.054  0.1801E+02  0.2080E+02  0.4048E+02  0.4036E+02
     -5.994  0.7232E+01  0.5977E+01  0.4092E+02  0.4073E+02
     -5.933  0.4116E+01  0.6801E+01  0.4117E+02  0.4114E+02
     -5.873  0.7342E+01  0.3238E+01  0.4161E+02  0.4134E+02
     -5.812  0.4784E+01  0.8151E+01  0.4190E+02  0.4183E+02
     -5.751  0.1157E+02  0.1021E+02  0.4260E+02  0.4245E+02
     -5.691  0.4637E+01  0.6370E+01  0.4288E+02  0.4283E+02
     -5.630  0.1988E+02  0.1691E+02  0.4409E+02  0.4386E+02
     -5.570  0.1622E+02  0.1722E+02  0.4507E+02  0.4490E+02
     -5.509  0.5134E+01  0.6021E+01  0.4538E+02  0.4527E+02
     -5.449  0.1478E+02  0.1519E+02  0.4628E+02  0.4619E+02
     -5.388  0.2965E+01  0.2658E+01  0.4646E+02  0.4635E+02
     -5.327  0.1011E+02  0.8620E+01  0.4707E+02  0.4687E+02
     -5.267  0.1281E+02  0.1320E+02  0.4785E+02  0.4767E+02
     -5.206  0.1503E+02  0.1125E+02  0.4876E+02  0.4835E+02
     -5.146  0.1372E+02  0.1345E+02  0.4959E+02  0.4917E+02
     -5.085  0.5882E+01  0.8357E+01  0.4994E+02  0.4967E+02
     -5.025  0.1583E+02  0.1522E+02  0.5090E+02  0.5059E+02
     -4.964  0.1206E+02  0.1357E+02  0.5163E+02  0.5142E+02
     -4.903  0.3148E+01  0.5166E+01  0.5182E+02  0.5173E+02
     -4.843  0.6813E+01  0.5109E+01  0.5224E+02  0.5204E+02
     -4.782  0.4199E+01  0.5781E+01  0.5249E+02  0.5239E+02
     -4.722  0.9901E+01  0.4510E+01  0.5309E+02  0.5266E+02
     -4.661  0.2777E+02  0.2963E+02  0.5477E+02  0.5446E+02
     -4.601  0.1237E+02  0.1549E+02  0.5552E+02  0.5540E+02
     -4.540  0.1269E+02  0.1217E+02  0.5629E+02  0.5613E+02
     -4.479  0.3980E+01  0.6063E+01  0.5653E+02  0.5650E+02
     -4.419  0.9010E+01  0.5769E+01  0.5708E+02  0.5685E+02
     -4.358  0.1190E+02  0.1419E+02  0.5780E+02  0.5771E+02
     -4.298  0.8227E+01  0.5407E+01  0.5830E+02  0.5804E+02
     -4.237  0.1874E+02  0.1386E+02  0.5943E+02  0.5888E+02
     -4.177  0.6999E+01  0.1476E+02  0.5986E+02  0.5977E+02
     -4.116  0.1858E+02  0.1443E+02  0.6098E+02  0.6065E+02
     -4.055  0.2668E+02  0.2683E+02  0.6260E+02  0.6227E+02
     -3.995  0.1862E+02  0.2038E+02  0.6373E+02  0.6350E+02
     -3.934  0.1494E+02  0.1571E+02  0.6463E+02  0.6446E+02
     -3.874  0.2108E+02  0.1876E+02  0.6591E+02  0.6559E+02
     -3.813  0.1192E+02  0.1472E+02  0.6663E+02  0.6649E+02
     -3.752  0.2415E+02  0.2172E+02  0.6809E+02  0.6780E+02
     -3.692  0.1308E+02  0.1411E+02  0.6889E+02  0.6866E+02
     -3.631  0.9015E+01  0.1207E+02  0.6943E+02  0.6939E+02
     -3.571  0.1613E+02  0.1013E+02  0.7041E+02  0.7000E+02
     -3.510  0.9855E+01  0.1196E+02  0.7101E+02  0.7073E+02
     -3.450  0.1975E+02  0.1970E+02  0.7220E+02  0.7192E+02
     -3.389  0.1032E+02  0.1181E+02  0.7283E+02  0.7263E+02
     -3.328  0.1478E+02  0.1689E+02  0.7372E+02  0.7366E+02
     -3.268  0.2273E+02  0.1824E+02  0.7510E+02  0.7476E+02
     -3.207  0.1722E+02  0.1742E+02  0.7614E+02  0.7582E+02
     -3.147  0.1024E+02  0.1250E+02  0.7676E+02  0.7657E+02
     -3.086  0.1029E+02  0.9680E+01  0.7739E+02  0.7716E+02
     -3.026  0.1009E+02  0.1288E+02  0.7800E+02  0.7794E+02
     -2.965  0.1287E+02  0.1198E+02  0.7878E+02  0.7867E+02
     -2.904  0.5147E+01  0.5934E+01  0.7909E+02  0.7903E+02
     -2.844  0.2909E+01  0.2324E+01  0.7927E+02  0.7917E+02
     -2.783  0.1830E+02  0.1454E+02  0.8037E+02  0.8005E+02
     -2.723  0.1196E+02  0.1565E+02  0.8110E+02  0.8100E+02
     -2.662  0.4141E+01  0.3440E+01  0.8135E+02  0.8121E+02
     -2.602  0.8563E+01  0.7006E+01  0.8187E+02  0.8163E+02
     -2.541  0.3198E+01  0.5397E+01  0.8206E+02  0.8196E+02
     -2.480  0.8101E+01  0.8689E+01  0.8255E+02  0.8248E+02
     -2.420  0.1365E+02  0.9447E+01  0.8338E+02  0.8306E+02
     -2.359  0.1274E+02  0.1311E+02  0.8415E+02  0.8385E+02
     -2.299  0.1182E+02  0.1294E+02  0.8487E+02  0.8463E+02
     -2.238  0.5839E+01  0.9715E+01  0.8522E+02  0.8522E+02
     -2.178  0.3708E+01  0.3307E+01  0.8545E+02  0.8542E+02
     -2.117  0.3633E+01  0.3743E+01  0.8567E+02  0.8565E+02
     -2.056  0.1255E+02  0.1066E+02  0.8643E+02  0.8629E+02
     -1.996  0.1922E+02  0.1222E+02  0.8759E+02  0.8703E+02
     -1.935  0.7253E+01  0.1594E+02  0.8803E+02  0.8800E+02
     -1.875  0.6210E+01  0.5126E+01  0.8841E+02  0.8831E+02
     -1.814  0.5879E+01  0.5127E+01  0.8876E+02  0.8862E+02
     -1.754  0.6786E+01  0.6203E+01  0.8917E+02  0.8900E+02
     -1.693  0.8127E+01  0.1087E+02  0.8967E+02  0.8966E+02
     -1.632  0.4248E+01  0.3341E+00  0.8992E+02  0.8968E+02
     -1.572  0.7577E+01  0.9096E+01  0.9038E+02  0.9023E+02
     -1.511  0.6519E+01  0.9033E+01  0.9078E+02  0.9077E+02
     -1.451  0.3421E+01  0.1371E+01  0.9098E+02  0.9086E+02
     -1.390  0.8099E+01  0.7924E+01  0.9148E+02  0.9134E+02
     -1.330  0.4000E+00  0.2690E+01  0.9150E+02  0.9150E+02
     -1.269  0.1650E+01  0.2311E+00  0.9160E+02  0.9151E+02
     -1.208  0.6686E+01  0.2948E+01  0.9200E+02  0.9169E+02
     -1.148  0.1264E+02  0.1546E+02  0.9277E+02  0.9263E+02
     -1.087  0.1348E+02  0.1422E+02  0.9359E+02  0.9349E+02
     -1.027  0.1367E+02  0.1133E+02  0.9442E+02  0.9418E+02
     -0.966  0.1766E+02  0.1528E+02  0.9549E+02  0.9510E+02
     -0.906  0.2619E+02  0.2355E+02  0.9707E+02  0.9653E+02
     -0.845  0.1120E+02  0.1770E+02  0.9775E+02  0.9760E+02
     -0.784  0.9299E+01  0.6230E+01  0.9831E+02  0.9798E+02
     -0.724  0.2939E+02  0.2473E+02  0.1001E+03  0.9948E+02
     -0.663  0.1858E+02  0.2187E+02  0.1012E+03  0.1008E+03
     -0.603  0.1127E+02  0.1112E+02  0.1019E+03  0.1015E+03
     -0.542  0.2046E+02  0.2271E+02  0.1031E+03  0.1029E+03
     -0.482  0.1612E+02  0.1634E+02  0.1041E+03  0.1038E+03
     -0.421  0.2289E+02  0.2308E+02  0.1055E+03  0.1052E+03
     -0.360  0.2297E+02  0.2301E+02  0.1069E+03  0.1066E+03
     -0.300  0.2575E+02  0.2267E+02  0.1085E+03  0.1080E+03
     -0.239  0.3039E+02  0.2718E+02  0.1103E+03  0.1097E+03
     -0.179  0.3005E+02  0.3285E+02  0.1121E+03  0.1116E+03
     -0.118  0.2519E+02  0.2508E+02  0.1136E+03  0.1132E+03
     -0.058  0.2352E+02  0.2581E+02  0.1151E+03  0.1147E+03
      0.003  0.1867E+02  0.1533E+02  0.1162E+03  0.1157E+03
      0.064  0.2992E+02  0.3092E+02  0.1180E+03  0.1175E+03
      0.124  0.2483E+02  0.2458E+02  0.1195E+03  0.1190E+03
      0.185  0.1770E+02  0.1699E+02  0.1206E+03  0.1200E+03
      0.245  0.2714E+02  0.3399E+02  0.1222E+03  0.1221E+03
      0.306  0.1498E+02  0.1139E+02  0.1231E+03  0.1228E+03
      0.367  0.2620E+02  0.2310E+02  0.1247E+03  0.1242E+03
      0.427  0.2341E+02  0.2212E+02  0.1261E+03  0.1255E+03
      0.488  0.2328E+02  0.3118E+02  0.1276E+03  0.1274E+03
      0.548  0.2003E+02  0.1696E+02  0.1288E+03  0.1285E+03
      0.609  0.2884E+02  0.2096E+02  0.1305E+03  0.1297E+03
      0.669  0.2648E+02  0.3201E+02  0.1321E+03  0.1317E+03
      0.730  0.2915E+02  0.2945E+02  0.1339E+03  0.1334E+03
      0.791  0.2911E+02  0.2721E+02  0.1356E+03  0.1351E+03
      0.851  0.2811E+02  0.3072E+02  0.1374E+03  0.1370E+03
      0.912  0.2403E+02  0.2605E+02  0.1388E+03  0.1385E+03
      0.972  0.3327E+02  0.2807E+02  0.1408E+03  0.1402E+03
      1.033  0.2690E+02  0.2732E+02  0.1425E+03  0.1419E+03
      1.093  0.2984E+02  0.3136E+02  0.1443E+03  0.1438E+03
      1.154  0.2717E+02  0.2633E+02  0.1459E+03  0.1454E+03
      1.215  0.3332E+02  0.3657E+02  0.1479E+03  0.1476E+03
      1.275  0.2959E+02  0.2775E+02  0.1497E+03  0.1493E+03
      1.336  0.2499E+02  0.2503E+02  0.1512E+03  0.1508E+03
      1.396  0.2026E+02  0.2149E+02  0.1525E+03  0.1521E+03
      1.457  0.1529E+02  0.1487E+02  0.1534E+03  0.1530E+03
      1.517  0.1946E+02  0.1777E+02  0.1546E+03  0.1541E+03
      1.578  0.2226E+02  0.2693E+02  0.1559E+03  0.1557E+03
      1.639  0.2257E+02  0.1896E+02  0.1573E+03  0.1569E+03
      1.699  0.1919E+02  0.2139E+02  0.1584E+03  0.1582E+03
      1.760  0.1913E+02  0.1536E+02  0.1596E+03  0.1591E+03
      1.820  0.1867E+02  0.1945E+02  0.1607E+03  0.1603E+03
      1.881  0.3031E+02  0.2998E+02  0.1626E+03  0.1621E+03
      1.941  0.1203E+02  0.1529E+02  0.1633E+03  0.1630E+03
      2.002  0.1999E+02  0.1628E+02  0.1645E+03  0.1640E+03
      2.063  0.2174E+02  0.2311E+02  0.1658E+03  0.1654E+03
      2.123  0.2957E+02  0.1755E+02  0.1676E+03  0.1665E+03
      2.184  0.1830E+02  0.3390E+02  0.1687E+03  0.1685E+03
      2.244  0.1526E+02  0.1441E+02  0.1697E+03  0.1694E+03
      2.305  0.3134E+02  0.2643E+02  0.1715E+03  0.1710E+03
      2.365  0.2511E+02  0.2408E+02  0.1731E+03  0.1724E+03
      2.426  0.1343E+02  0.2070E+02  0.1739E+03  0.1737E+03
      2.487  0.2349E+02  0.2155E+02  0.1753E+03  0.1750E+03
      2.547  0.1258E+02  0.1379E+02  0.1761E+03  0.1758E+03
      2.608  0.1547E+02  0.1489E+02  0.1770E+03  0.1767E+03
      2.668  0.2428E+02  0.1305E+02  0.1785E+03  0.1775E+03
      2.729  0.2809E+02  0.2958E+02  0.1802E+03  0.1793E+03
      2.789  0.2446E+02  0.2538E+02  0.1817E+03  0.1809E+03
      2.850  0.1097E+02  0.1773E+02  0.1823E+03  0.1819E+03
      2.911  0.1205E+02  0.1479E+02  0.1831E+03  0.1828E+03
      2.971  0.1475E+02  0.6693E+01  0.1839E+03  0.1832E+03
      3.032  0.2146E+02  0.2233E+02  0.1852E+03  0.1846E+03
      3.092  0.9035E+01  0.1402E+02  0.1858E+03  0.1854E+03
      3.153  0.1097E+02  0.9491E+01  0.1865E+03  0.1860E+03
      3.213  0.1324E+02  0.1098E+02  0.1873E+03  0.1867E+03
      3.274  0.1427E+02  0.1429E+02  0.1881E+03  0.1875E+03
      3.335  0.2051E+02  0.1598E+02  0.1894E+03  0.1885E+03
      3.395  0.6178E+01  0.1809E+02  0.1897E+03  0.1896E+03
      3.456  0.2019E+02  0.6082E+01  0.1910E+03  0.1900E+03
      3.516  0.2373E+02  0.2371E+02  0.1924E+03  0.1914E+03
      3.577  0.1319E+02  0.2130E+02  0.1932E+03  0.1927E+03
      3.637  0.1057E+02  0.1391E+02  0.1938E+03  0.1935E+03
      3.698  0.1454E+02  0.6719E+01  0.1947E+03  0.1940E+03
      3.759  0.2360E+02  0.1853E+02  0.1962E+03  0.1951E+03
      3.819  0.2202E+02  0.2248E+02  0.1975E+03  0.1964E+03
      3.880  0.8922E+01  0.2129E+02  0.1980E+03  0.1977E+03
      3.940  0.1527E+02  0.1407E+02  0.1990E+03  0.1986E+03
      4.001  0.8236E+01  0.7939E+01  0.1995E+03  0.1991E+03
      4.061  0.3533E+01  0.1003E+02  0.1997E+03  0.1997E+03
      4.122  0.2939E+01  0.1429E-01  0.1998E+03  0.1997E+03
      4.183  0.2578E+02  0.1147E+02  0.2014E+03  0.2004E+03
      4.243  0.2341E+02  0.3421E+02  0.2028E+03  0.2024E+03
      4.304  0.1103E+02  0.1107E+02  0.2035E+03  0.2031E+03
      4.364  0.9651E+01  0.1365E+02  0.2041E+03  0.2039E+03
      4.425  0.1577E+02  0.1202E+02  0.2050E+03  0.2047E+03
      4.486  0.9915E+01  0.1200E+02  0.2056E+03  0.2054E+03
      4.546  0.1593E+02  0.1222E+02  0.2066E+03  0.2061E+03
      4.607  0.1548E+02  0.2083E+02  0.2075E+03  0.2074E+03
      4.667  0.1361E+02  0.1257E+02  0.2084E+03  0.2082E+03
      4.728  0.1605E+02  0.1504E+02  0.2093E+03  0.2091E+03
      4.788  0.1648E+02  0.1475E+02  0.2103E+03  0.2100E+03
      4.849  0.1933E+02  0.1977E+02  0.2115E+03  0.2112E+03
      4.910  0.2416E+02  0.2475E+02  0.2130E+03  0.2127E+03
      4.970  0.1230E+02  0.1239E+02  0.2137E+03  0.2134E+03
      5.031  0.2658E+02  0.2502E+02  0.2153E+03  0.2149E+03
      5.091  0.2366E+02  0.2359E+02  0.2168E+03  0.2163E+03
      5.152  0.1749E+02  0.2020E+02  0.2178E+03  0.2176E+03
      5.212  0.1879E+02  0.1550E+02  0.2190E+03  0.2185E+03
      5.273  0.2492E+02  0.2502E+02  0.2205E+03  0.2200E+03
      5.334  0.2502E+02  0.2626E+02  0.2220E+03  0.2216E+03
      5.394  0.2087E+02  0.2124E+02  0.2232E+03  0.2229E+03
      5.455  0.2273E+02  0.2279E+02  0.2246E+03  0.2243E+03
      5.515  0.2163E+02  0.2067E+02  0.2259E+03  0.2255E+03
      5.576  0.1907E+02  0.2234E+02  0.2271E+03  0.2269E+03
      5.636  0.1906E+02  0.1455E+02  0.2282E+03  0.2278E+03
      5.697  0.2125E+02  0.2526E+02  0.2295E+03  0.2293E+03
      5.758  0.1749E+02  0.1697E+02  0.2306E+03  0.2303E+03
      5.818  0.1560E+02  0.1649E+02  0.2315E+03  0.2313E+03
      5.879  0.3624E+01  0.5622E+01  0.2318E+03  0.2317E+03
      5.939  0.2292E+01  0.1788E+01  0.2319E+03  0.2318E+03
      6.000  0.1806E+01  0.3658E+01  0.2320E+03  0.2320E+03
      6.060  0.0000E+00  0.0000E+00  0.2320E+03  0.2320E+03
      6.121  0.0000E+00  0.0000E+00  0.2320E+03  0.2320E+03
      6.182  0.0000E+00  0.0000E+00  0.2320E+03  0.2320E+03
      6.242  0.0000E+00  0.0000E+00  0.2320E+03  0.2320E+03
      6.303  0.0000E+00  0.0000E+00  0.2320E+03  0.2320E+03
      6.363  0.0000E+00  0.0000E+00  0.2320E+03  0.2320E+03
      6.424  0.0000E+00  0.0000E+00  0.2320E+03  0.2320E+03
      6.484  0.0000E+00  0.0000E+00  0.2320E+03  0.2320E+03
      6.545  0.0000E+00  0.0000E+00  0.2320E+03  0.2320E+03
      6.606  0.0000E+00  0.0000E+00  0.2320E+03  0.2320E+03
      6.666  0.0000E+00  0.0000E+00  0.2320E+03  0.2320E+03
      6.727  0.0000E+00  0.0000E+00  0.2320E+03  0.2320E+03
      6.787  0.0000E+00  0.0000E+00  0.2320E+03  0.2320E+03
