 168 168   0   0
  0.2314489E+02  0.1131560E-08  0.1959920E-08  0.2147307E-08  0.5000000E-15
  1.000000000000000E-004
  CAR 
 Si and Ge interface calculation         
      8.12396533    -11.09969958  301      5.36369471      1.00000000
    -11.100  0.0000E+00  0.0000E+00  0.0000E+00  0.0000E+00
    -11.036  0.0000E+00  0.0000E+00  0.0000E+00  0.0000E+00
    -10.972  0.0000E+00  0.0000E+00  0.0000E+00  0.0000E+00
    -10.907  0.0000E+00  0.0000E+00  0.0000E+00  0.0000E+00
    -10.843  0.0000E+00  0.0000E+00  0.0000E+00  0.0000E+00
    -10.779  0.0000E+00  0.0000E+00  0.0000E+00  0.0000E+00
    -10.715  0.0000E+00  0.0000E+00  0.0000E+00  0.0000E+00
    -10.651  0.0000E+00  0.0000E+00  0.0000E+00  0.0000E+00
    -10.587  0.0000E+00  0.0000E+00  0.0000E+00  0.0000E+00
    -10.523  0.0000E+00  0.0000E+00  0.0000E+00  0.0000E+00
    -10.459  0.0000E+00  0.0000E+00  0.0000E+00  0.0000E+00
    -10.395  0.0000E+00  0.0000E+00  0.0000E+00  0.0000E+00
    -10.331  0.0000E+00  0.0000E+00  0.0000E+00  0.0000E+00
    -10.267  0.2101E-07  0.9232E-09  0.1346E-08  0.5916E-10
    -10.203  0.5433E+01  0.5252E+01  0.3481E+00  0.3365E+00
    -10.139  0.3101E+02  0.3115E+02  0.2335E+01  0.2334E+01
    -10.074  0.2598E+02  0.2599E+02  0.4000E+01  0.3999E+01
    -10.010  0.0000E+00  0.0000E+00  0.4000E+01  0.4000E+01
     -9.946  0.0000E+00  0.0000E+00  0.4000E+01  0.4000E+01
     -9.882  0.0000E+00  0.0000E+00  0.4000E+01  0.4000E+01
     -9.818  0.0000E+00  0.0000E+00  0.4000E+01  0.4000E+01
     -9.754  0.4598E+01  0.1296E+01  0.4295E+01  0.4083E+01
     -9.690  0.3280E+02  0.3474E+02  0.6397E+01  0.6309E+01
     -9.626  0.2499E+02  0.2638E+02  0.8000E+01  0.8000E+01
     -9.562  0.2597E+02  0.2576E+02  0.9664E+01  0.9651E+01
     -9.498  0.1464E+02  0.1250E+02  0.1060E+02  0.1045E+02
     -9.434  0.1887E+02  0.2001E+02  0.1181E+02  0.1173E+02
     -9.370  0.2904E+01  0.4141E+01  0.1200E+02  0.1200E+02
     -9.305  0.0000E+00  0.0000E+00  0.1200E+02  0.1200E+02
     -9.241  0.0000E+00  0.0000E+00  0.1200E+02  0.1200E+02
     -9.177  0.0000E+00  0.0000E+00  0.1200E+02  0.1200E+02
     -9.113  0.0000E+00  0.0000E+00  0.1200E+02  0.1200E+02
     -9.049  0.1401E-02  0.7412E-04  0.1200E+02  0.1200E+02
     -8.985  0.1050E+02  0.1042E+02  0.1267E+02  0.1267E+02
     -8.921  0.5107E+01  0.5186E+01  0.1300E+02  0.1300E+02
     -8.857  0.2074E+02  0.2042E+02  0.1433E+02  0.1431E+02
     -8.793  0.2357E-01  0.3445E+00  0.1433E+02  0.1433E+02
     -8.729  0.1042E+02  0.1041E+02  0.1500E+02  0.1500E+02
     -8.665  0.5165E+01  0.5196E+01  0.1533E+02  0.1533E+02
     -8.601  0.3659E+02  0.3350E+02  0.1768E+02  0.1748E+02
     -8.537  0.3622E+02  0.3923E+02  0.2000E+02  0.2000E+02
     -8.472  0.0000E+00  0.7632E-01  0.2000E+02  0.2000E+02
     -8.408  0.0000E+00  0.0000E+00  0.2000E+02  0.2000E+02
     -8.344  0.1293E-11  0.3176E-14  0.2000E+02  0.2000E+02
     -8.280  0.5029E+01  0.4449E+01  0.2032E+02  0.2029E+02
     -8.216  0.1045E+02  0.1044E+02  0.2099E+02  0.2095E+02
     -8.152  0.1054E+02  0.1112E+02  0.2167E+02  0.2167E+02
     -8.088  0.9433E+01  0.5136E+01  0.2227E+02  0.2200E+02
     -8.024  0.1225E+02  0.1590E+02  0.2306E+02  0.2301E+02
     -7.960  0.1471E+02  0.1529E+02  0.2400E+02  0.2399E+02
     -7.896  0.1672E+02  0.8260E+01  0.2507E+02  0.2452E+02
     -7.832  0.4590E+02  0.4698E+02  0.2801E+02  0.2753E+02
     -7.768  0.1523E+02  0.2183E+02  0.2899E+02  0.2893E+02
     -7.704  0.2179E+02  0.2213E+02  0.3038E+02  0.3035E+02
     -7.639  0.2871E+02  0.2686E+02  0.3222E+02  0.3207E+02
     -7.575  0.5581E+02  0.5573E+02  0.3580E+02  0.3564E+02
     -7.511  0.2157E+02  0.2146E+02  0.3719E+02  0.3702E+02
     -7.447  0.2352E+01  0.4875E+01  0.3734E+02  0.3733E+02
     -7.383  0.1557E+02  0.1560E+02  0.3833E+02  0.3833E+02
     -7.319  0.7720E-05  0.1559E-06  0.3833E+02  0.3833E+02
     -7.255  0.1571E+02  0.1303E+02  0.3934E+02  0.3917E+02
     -7.191  0.5264E+01  0.7793E+01  0.3968E+02  0.3967E+02
     -7.127  0.1979E+02  0.1757E+02  0.4095E+02  0.4079E+02
     -7.063  0.2035E+02  0.1929E+02  0.4225E+02  0.4203E+02
     -6.999  0.1954E+02  0.1704E+02  0.4350E+02  0.4312E+02
     -6.935  0.4412E+02  0.4979E+02  0.4633E+02  0.4631E+02
     -6.870  0.1081E+02  0.8346E+01  0.4703E+02  0.4685E+02
     -6.806  0.1520E+02  0.1795E+02  0.4800E+02  0.4800E+02
     -6.742  0.1508E+02  0.1440E+02  0.4897E+02  0.4892E+02
     -6.678  0.2107E+02  0.1927E+02  0.5032E+02  0.5016E+02
     -6.614  0.2892E+02  0.2979E+02  0.5217E+02  0.5207E+02
     -6.550  0.1874E+02  0.1987E+02  0.5337E+02  0.5334E+02
     -6.486  0.1101E+02  0.1071E+02  0.5408E+02  0.5403E+02
     -6.422  0.4452E+02  0.4331E+02  0.5693E+02  0.5680E+02
     -6.358  0.4509E+02  0.4226E+02  0.5982E+02  0.5951E+02
     -6.294  0.3171E+02  0.3261E+02  0.6186E+02  0.6160E+02
     -6.230  0.2814E+02  0.2985E+02  0.6366E+02  0.6351E+02
     -6.166  0.2273E+02  0.2376E+02  0.6512E+02  0.6504E+02
     -6.102  0.3856E+02  0.3684E+02  0.6759E+02  0.6740E+02
     -6.037  0.3773E+02  0.3767E+02  0.7001E+02  0.6981E+02
     -5.973  0.4152E+02  0.4455E+02  0.7267E+02  0.7267E+02
     -5.909  0.2080E+02  0.1921E+02  0.7400E+02  0.7390E+02
     -5.845  0.4112E+02  0.4222E+02  0.7663E+02  0.7660E+02
     -5.781  0.3691E+02  0.3737E+02  0.7900E+02  0.7900E+02
     -5.717  0.3118E+02  0.3102E+02  0.8100E+02  0.8099E+02
     -5.653  0.9693E+01  0.8617E+01  0.8162E+02  0.8154E+02
     -5.589  0.2371E+02  0.2362E+02  0.8314E+02  0.8305E+02
     -5.525  0.3281E+02  0.3201E+02  0.8524E+02  0.8511E+02
     -5.461  0.2390E+02  0.2494E+02  0.8677E+02  0.8671E+02
     -5.397  0.1912E+02  0.2021E+02  0.8800E+02  0.8800E+02
     -5.333  0.3472E+02  0.3202E+02  0.9022E+02  0.9005E+02
     -5.269  0.3012E+02  0.3084E+02  0.9216E+02  0.9203E+02
     -5.204  0.3537E+02  0.3611E+02  0.9443E+02  0.9435E+02
     -5.140  0.3482E+02  0.3621E+02  0.9667E+02  0.9667E+02
     -5.076  0.4323E+02  0.4124E+02  0.9944E+02  0.9931E+02
     -5.012  0.1763E+02  0.1791E+02  0.1006E+03  0.1005E+03
     -4.948  0.5062E+02  0.4708E+02  0.1038E+03  0.1035E+03
     -4.884  0.4543E+02  0.4988E+02  0.1067E+03  0.1067E+03
     -4.820  0.1609E+02  0.1576E+02  0.1078E+03  0.1077E+03
     -4.756  0.3503E+02  0.3592E+02  0.1100E+03  0.1100E+03
     -4.692  0.3154E+02  0.2807E+02  0.1120E+03  0.1118E+03
     -4.628  0.5147E+02  0.5435E+02  0.1153E+03  0.1153E+03
     -4.564  0.4021E+02  0.3638E+02  0.1179E+03  0.1176E+03
     -4.500  0.3873E+02  0.3749E+02  0.1204E+03  0.1200E+03
     -4.435  0.4299E+02  0.4465E+02  0.1231E+03  0.1229E+03
     -4.371  0.2674E+02  0.2727E+02  0.1249E+03  0.1246E+03
     -4.307  0.2327E+02  0.2615E+02  0.1263E+03  0.1263E+03
     -4.243  0.4246E+02  0.4227E+02  0.1291E+03  0.1290E+03
     -4.179  0.4200E+02  0.4166E+02  0.1318E+03  0.1317E+03
     -4.115  0.4774E+02  0.4590E+02  0.1348E+03  0.1346E+03
     -4.051  0.5210E+02  0.5045E+02  0.1382E+03  0.1379E+03
     -3.987  0.2508E+02  0.2461E+02  0.1398E+03  0.1394E+03
     -3.923  0.5573E+02  0.5865E+02  0.1433E+03  0.1432E+03
     -3.859  0.4496E+02  0.4497E+02  0.1462E+03  0.1461E+03
     -3.795  0.3388E+02  0.3540E+02  0.1484E+03  0.1483E+03
     -3.731  0.5320E+02  0.5091E+02  0.1518E+03  0.1516E+03
     -3.667  0.3043E+02  0.2929E+02  0.1537E+03  0.1535E+03
     -3.602  0.6315E+02  0.6195E+02  0.1578E+03  0.1575E+03
     -3.538  0.6320E+02  0.6425E+02  0.1618E+03  0.1616E+03
     -3.474  0.4271E+02  0.4431E+02  0.1646E+03  0.1644E+03
     -3.410  0.6200E+02  0.6153E+02  0.1686E+03  0.1684E+03
     -3.346  0.7979E+02  0.8110E+02  0.1737E+03  0.1736E+03
     -3.282  0.3924E+02  0.3915E+02  0.1762E+03  0.1761E+03
     -3.218  0.4865E+02  0.4796E+02  0.1793E+03  0.1791E+03
     -3.154  0.4664E+02  0.4790E+02  0.1823E+03  0.1822E+03
     -3.090  0.3753E+02  0.3551E+02  0.1847E+03  0.1845E+03
     -3.026  0.4960E+02  0.4919E+02  0.1879E+03  0.1876E+03
     -2.962  0.6173E+02  0.6360E+02  0.1918E+03  0.1917E+03
     -2.898  0.6482E+02  0.6175E+02  0.1960E+03  0.1957E+03
     -2.834  0.4558E+02  0.4821E+02  0.1989E+03  0.1988E+03
     -2.769  0.1915E+02  0.1992E+02  0.2002E+03  0.2000E+03
     -2.705  0.4507E+02  0.4158E+02  0.2031E+03  0.2027E+03
     -2.641  0.4447E+02  0.4695E+02  0.2059E+03  0.2057E+03
     -2.577  0.3567E+02  0.3659E+02  0.2082E+03  0.2081E+03
     -2.513  0.5981E+02  0.5858E+02  0.2120E+03  0.2118E+03
     -2.449  0.1760E+02  0.1841E+02  0.2132E+03  0.2130E+03
     -2.385  0.3412E+02  0.3637E+02  0.2153E+03  0.2153E+03
     -2.321  0.3611E+02  0.3535E+02  0.2177E+03  0.2176E+03
     -2.257  0.3909E+02  0.3652E+02  0.2202E+03  0.2199E+03
     -2.193  0.4510E+02  0.4387E+02  0.2231E+03  0.2228E+03
     -2.129  0.4636E+02  0.4344E+02  0.2260E+03  0.2255E+03
     -2.065  0.4826E+02  0.4914E+02  0.2291E+03  0.2287E+03
     -2.000  0.5046E+02  0.5310E+02  0.2324E+03  0.2321E+03
     -1.936  0.4130E+02  0.4492E+02  0.2350E+03  0.2350E+03
     -1.872  0.5539E+02  0.5084E+02  0.2385E+03  0.2382E+03
     -1.808  0.3459E+02  0.3743E+02  0.2408E+03  0.2406E+03
     -1.744  0.4865E+02  0.4530E+02  0.2439E+03  0.2435E+03
     -1.680  0.3818E+02  0.3602E+02  0.2463E+03  0.2459E+03
     -1.616  0.3075E+02  0.3467E+02  0.2483E+03  0.2481E+03
     -1.552  0.3411E+02  0.3601E+02  0.2505E+03  0.2504E+03
     -1.488  0.6522E+02  0.6478E+02  0.2547E+03  0.2545E+03
     -1.424  0.3685E+02  0.3311E+02  0.2570E+03  0.2567E+03
     -1.360  0.3923E+02  0.3921E+02  0.2595E+03  0.2592E+03
     -1.296  0.5687E+02  0.5483E+02  0.2632E+03  0.2627E+03
     -1.232  0.5865E+02  0.5536E+02  0.2669E+03  0.2662E+03
     -1.167  0.5808E+02  0.6896E+02  0.2707E+03  0.2707E+03
     -1.103  0.6617E+02  0.6315E+02  0.2749E+03  0.2747E+03
     -1.039  0.3824E+02  0.4108E+02  0.2774E+03  0.2773E+03
     -0.975  0.6060E+02  0.5890E+02  0.2812E+03  0.2811E+03
     -0.911  0.5215E+02  0.5182E+02  0.2846E+03  0.2844E+03
     -0.847  0.4539E+02  0.4273E+02  0.2875E+03  0.2872E+03
     -0.783  0.5319E+02  0.5491E+02  0.2909E+03  0.2907E+03
     -0.719  0.5134E+02  0.5239E+02  0.2942E+03  0.2941E+03
     -0.655  0.4056E+02  0.3913E+02  0.2968E+03  0.2966E+03
     -0.591  0.6365E+02  0.6351E+02  0.3009E+03  0.3006E+03
     -0.527  0.5677E+02  0.5558E+02  0.3045E+03  0.3042E+03
     -0.463  0.5217E+02  0.5093E+02  0.3079E+03  0.3075E+03
     -0.399  0.3847E+02  0.4181E+02  0.3103E+03  0.3101E+03
     -0.334  0.5198E+02  0.5500E+02  0.3137E+03  0.3137E+03
     -0.270  0.5340E+02  0.4308E+02  0.3171E+03  0.3164E+03
     -0.206  0.3502E+02  0.4535E+02  0.3193E+03  0.3193E+03
     -0.142  0.5514E+02  0.5026E+02  0.3229E+03  0.3226E+03
     -0.078  0.4025E+02  0.3837E+02  0.3254E+03  0.3250E+03
     -0.014  0.4180E+02  0.4713E+02  0.3281E+03  0.3280E+03
      0.050  0.4954E+02  0.4530E+02  0.3313E+03  0.3309E+03
      0.114  0.3556E+02  0.3551E+02  0.3336E+03  0.3332E+03
      0.178  0.5785E+02  0.5578E+02  0.3373E+03  0.3368E+03
      0.242  0.4278E+02  0.4823E+02  0.3400E+03  0.3399E+03
      0.306  0.3863E+02  0.3918E+02  0.3425E+03  0.3424E+03
      0.370  0.6474E+02  0.6618E+02  0.3467E+03  0.3466E+03
      0.434  0.1842E+02  0.1406E+02  0.3478E+03  0.3475E+03
      0.499  0.5710E+02  0.5899E+02  0.3515E+03  0.3513E+03
      0.563  0.4749E+02  0.4740E+02  0.3546E+03  0.3544E+03
      0.627  0.3025E+02  0.3129E+02  0.3565E+03  0.3564E+03
      0.691  0.5568E+02  0.5679E+02  0.3601E+03  0.3600E+03
      0.755  0.5603E+02  0.5598E+02  0.3637E+03  0.3636E+03
      0.819  0.5209E+02  0.4644E+02  0.3670E+03  0.3666E+03
      0.883  0.4354E+02  0.4306E+02  0.3698E+03  0.3693E+03
      0.947  0.7073E+02  0.6962E+02  0.3743E+03  0.3738E+03
      1.011  0.2327E+02  0.2963E+02  0.3758E+03  0.3757E+03
      1.075  0.7852E+02  0.7600E+02  0.3808E+03  0.3806E+03
      1.139  0.3911E+02  0.3783E+02  0.3833E+03  0.3830E+03
      1.203  0.3632E+02  0.4143E+02  0.3857E+03  0.3857E+03
      1.268  0.5448E+02  0.5265E+02  0.3892E+03  0.3890E+03
      1.332  0.8458E+02  0.7918E+02  0.3946E+03  0.3941E+03
      1.396  0.5892E+02  0.6267E+02  0.3984E+03  0.3981E+03
      1.460  0.6182E+02  0.6516E+02  0.4023E+03  0.4023E+03
      1.524  0.3124E+02  0.2970E+02  0.4043E+03  0.4042E+03
      1.588  0.5739E+02  0.5039E+02  0.4080E+03  0.4074E+03
      1.652  0.7736E+02  0.7920E+02  0.4130E+03  0.4125E+03
      1.716  0.5846E+02  0.6491E+02  0.4167E+03  0.4167E+03
      1.780  0.5599E+02  0.5245E+02  0.4203E+03  0.4200E+03
      1.844  0.8409E+02  0.8181E+02  0.4257E+03  0.4253E+03
      1.908  0.7316E+02  0.7485E+02  0.4304E+03  0.4301E+03
      1.972  0.9320E+02  0.9242E+02  0.4364E+03  0.4360E+03
      2.036  0.6076E+02  0.5951E+02  0.4403E+03  0.4398E+03
      2.101  0.9375E+02  0.9386E+02  0.4463E+03  0.4458E+03
      2.165  0.8066E+02  0.7933E+02  0.4514E+03  0.4509E+03
      2.229  0.7536E+02  0.8155E+02  0.4563E+03  0.4562E+03
      2.293  0.7315E+02  0.7353E+02  0.4610E+03  0.4609E+03
      2.357  0.6428E+02  0.5599E+02  0.4651E+03  0.4645E+03
      2.421  0.1347E+03  0.1390E+03  0.4737E+03  0.4734E+03
      2.485  0.1088E+03  0.1059E+03  0.4807E+03  0.4802E+03
      2.549  0.7749E+02  0.8014E+02  0.4857E+03  0.4853E+03
      2.613  0.9719E+02  0.9714E+02  0.4919E+03  0.4915E+03
      2.677  0.8274E+02  0.8493E+02  0.4972E+03  0.4970E+03
      2.741  0.7093E+02  0.6755E+02  0.5017E+03  0.5013E+03
      2.805  0.8912E+02  0.9129E+02  0.5074E+03  0.5072E+03
      2.869  0.9126E+02  0.9177E+02  0.5133E+03  0.5130E+03
      2.934  0.9539E+02  0.9479E+02  0.5194E+03  0.5191E+03
      2.998  0.9138E+02  0.8968E+02  0.5253E+03  0.5249E+03
      3.062  0.8550E+02  0.8782E+02  0.5308E+03  0.5305E+03
      3.126  0.7702E+02  0.7681E+02  0.5357E+03  0.5354E+03
      3.190  0.7821E+02  0.7288E+02  0.5407E+03  0.5401E+03
      3.254  0.8651E+02  0.8692E+02  0.5463E+03  0.5457E+03
      3.318  0.8033E+02  0.8296E+02  0.5514E+03  0.5510E+03
      3.382  0.6488E+02  0.6487E+02  0.5556E+03  0.5551E+03
      3.446  0.6119E+02  0.6204E+02  0.5595E+03  0.5591E+03
      3.510  0.6247E+02  0.6422E+02  0.5635E+03  0.5632E+03
      3.574  0.7287E+02  0.7122E+02  0.5682E+03  0.5678E+03
      3.638  0.6443E+02  0.6637E+02  0.5723E+03  0.5720E+03
      3.703  0.6578E+02  0.6532E+02  0.5765E+03  0.5762E+03
      3.767  0.6354E+02  0.6179E+02  0.5806E+03  0.5802E+03
      3.831  0.6585E+02  0.6649E+02  0.5848E+03  0.5845E+03
      3.895  0.5510E+02  0.5663E+02  0.5883E+03  0.5881E+03
      3.959  0.6763E+02  0.7107E+02  0.5927E+03  0.5926E+03
      4.023  0.5971E+02  0.5737E+02  0.5965E+03  0.5963E+03
      4.087  0.6325E+02  0.5937E+02  0.6006E+03  0.6001E+03
      4.151  0.3996E+02  0.4163E+02  0.6031E+03  0.6028E+03
      4.215  0.6860E+02  0.6422E+02  0.6075E+03  0.6069E+03
      4.279  0.5523E+02  0.5300E+02  0.6111E+03  0.6103E+03
      4.343  0.5129E+02  0.6271E+02  0.6144E+03  0.6143E+03
      4.407  0.5573E+02  0.5196E+02  0.6179E+03  0.6177E+03
      4.471  0.6697E+02  0.6578E+02  0.6222E+03  0.6219E+03
      4.536  0.6842E+02  0.6592E+02  0.6266E+03  0.6261E+03
      4.600  0.6041E+02  0.6657E+02  0.6305E+03  0.6304E+03
      4.664  0.5513E+02  0.4690E+02  0.6340E+03  0.6334E+03
      4.728  0.4607E+02  0.5168E+02  0.6370E+03  0.6367E+03
      4.792  0.7124E+02  0.6837E+02  0.6415E+03  0.6411E+03
      4.856  0.5081E+02  0.5108E+02  0.6448E+03  0.6443E+03
      4.920  0.6811E+02  0.6967E+02  0.6492E+03  0.6488E+03
      4.984  0.5695E+02  0.5636E+02  0.6528E+03  0.6524E+03
      5.048  0.3700E+02  0.3824E+02  0.6552E+03  0.6549E+03
      5.112  0.4807E+02  0.4482E+02  0.6583E+03  0.6577E+03
      5.176  0.7097E+02  0.6624E+02  0.6628E+03  0.6620E+03
      5.240  0.6137E+02  0.6488E+02  0.6667E+03  0.6662E+03
      5.304  0.4046E+02  0.4921E+02  0.6693E+03  0.6693E+03
      5.369  0.5299E+02  0.3315E+02  0.6727E+03  0.6714E+03
      5.433  0.6038E+02  0.6806E+02  0.6766E+03  0.6758E+03
      5.497  0.4182E+02  0.4249E+02  0.6793E+03  0.6785E+03
      5.561  0.8375E+02  0.8176E+02  0.6847E+03  0.6838E+03
      5.625  0.4897E+02  0.5180E+02  0.6878E+03  0.6871E+03
      5.689  0.4581E+02  0.5258E+02  0.6907E+03  0.6904E+03
      5.753  0.5612E+02  0.5206E+02  0.6943E+03  0.6938E+03
      5.817  0.4923E+02  0.4407E+02  0.6975E+03  0.6966E+03
      5.881  0.6334E+02  0.7205E+02  0.7015E+03  0.7012E+03
      5.945  0.7502E+02  0.7064E+02  0.7063E+03  0.7057E+03
      6.009  0.6997E+02  0.7367E+02  0.7108E+03  0.7105E+03
      6.073  0.4427E+02  0.3524E+02  0.7137E+03  0.7127E+03
      6.138  0.7151E+02  0.8129E+02  0.7183E+03  0.7179E+03
      6.202  0.8126E+02  0.8028E+02  0.7235E+03  0.7231E+03
      6.266  0.6712E+02  0.6160E+02  0.7278E+03  0.7270E+03
      6.330  0.6557E+02  0.7532E+02  0.7320E+03  0.7319E+03
      6.394  0.7685E+02  0.7362E+02  0.7369E+03  0.7366E+03
      6.458  0.9076E+02  0.8769E+02  0.7427E+03  0.7422E+03
      6.522  0.7635E+02  0.7911E+02  0.7476E+03  0.7473E+03
      6.586  0.7843E+02  0.8118E+02  0.7527E+03  0.7525E+03
      6.650  0.8534E+02  0.7976E+02  0.7581E+03  0.7576E+03
      6.714  0.8006E+02  0.7667E+02  0.7633E+03  0.7625E+03
      6.778  0.6782E+02  0.7465E+02  0.7676E+03  0.7673E+03
      6.842  0.1040E+03  0.9508E+02  0.7743E+03  0.7734E+03
      6.906  0.9379E+02  0.9926E+02  0.7803E+03  0.7797E+03
      6.971  0.7712E+02  0.8007E+02  0.7852E+03  0.7849E+03
      7.035  0.8791E+02  0.8746E+02  0.7909E+03  0.7905E+03
      7.099  0.9167E+02  0.9019E+02  0.7967E+03  0.7963E+03
      7.163  0.9775E+02  0.8329E+02  0.8030E+03  0.8016E+03
      7.227  0.5997E+02  0.7144E+02  0.8069E+03  0.8062E+03
      7.291  0.1788E+02  0.2838E+02  0.8080E+03  0.8080E+03
      7.355  0.0000E+00  0.0000E+00  0.8080E+03  0.8080E+03
      7.419  0.0000E+00  0.0000E+00  0.8080E+03  0.8080E+03
      7.483  0.0000E+00  0.0000E+00  0.8080E+03  0.8080E+03
      7.547  0.0000E+00  0.0000E+00  0.8080E+03  0.8080E+03
      7.611  0.0000E+00  0.0000E+00  0.8080E+03  0.8080E+03
      7.675  0.0000E+00  0.0000E+00  0.8080E+03  0.8080E+03
      7.739  0.0000E+00  0.0000E+00  0.8080E+03  0.8080E+03
      7.804  0.0000E+00  0.0000E+00  0.8080E+03  0.8080E+03
      7.868  0.0000E+00  0.0000E+00  0.8080E+03  0.8080E+03
      7.932  0.0000E+00  0.0000E+00  0.8080E+03  0.8080E+03
      7.996  0.0000E+00  0.0000E+00  0.8080E+03  0.8080E+03
      8.060  0.0000E+00  0.0000E+00  0.8080E+03  0.8080E+03
      8.124  0.0000E+00  0.0000E+00  0.8080E+03  0.8080E+03
