 264 264   0   0
  0.2774202E+02  0.1958175E-08  0.1958175E-08  0.1910025E-08  0.5000000E-15
  1.000000000000000E-004
  CAR 
 Si and Ge interface calculation         
      6.63518082     -9.10555355  301      4.03550981      1.00000000
     -9.106  0.0000E+00  0.0000E+00  0.0000E+00  0.0000E+00
     -9.053  0.0000E+00  0.0000E+00  0.0000E+00  0.0000E+00
     -9.001  0.0000E+00  0.0000E+00  0.0000E+00  0.0000E+00
     -8.948  0.0000E+00  0.0000E+00  0.0000E+00  0.0000E+00
     -8.896  0.0000E+00  0.0000E+00  0.0000E+00  0.0000E+00
     -8.843  0.0000E+00  0.0000E+00  0.0000E+00  0.0000E+00
     -8.791  0.0000E+00  0.0000E+00  0.0000E+00  0.0000E+00
     -8.738  0.0000E+00  0.0000E+00  0.0000E+00  0.0000E+00
     -8.686  0.0000E+00  0.0000E+00  0.0000E+00  0.0000E+00
     -8.633  0.0000E+00  0.0000E+00  0.0000E+00  0.0000E+00
     -8.581  0.0000E+00  0.0000E+00  0.0000E+00  0.0000E+00
     -8.528  0.0000E+00  0.0000E+00  0.0000E+00  0.0000E+00
     -8.476  0.0000E+00  0.0000E+00  0.0000E+00  0.0000E+00
     -8.423  0.1101E-04  0.3847E-05  0.5779E-06  0.2018E-06
     -8.371  0.1268E+02  0.1182E+02  0.6652E+00  0.6204E+00
     -8.319  0.2544E+02  0.2629E+02  0.2000E+01  0.2000E+01
     -8.266  0.4797E-02  0.1985E-02  0.2000E+01  0.2000E+01
     -8.214  0.1871E+02  0.1850E+02  0.2982E+01  0.2971E+01
     -8.161  0.1296E+02  0.1241E+02  0.3662E+01  0.3622E+01
     -8.109  0.2028E+02  0.2022E+02  0.4726E+01  0.4683E+01
     -8.056  0.5219E+01  0.6045E+01  0.5000E+01  0.5000E+01
     -8.004  0.6725E+01  0.5324E+01  0.5353E+01  0.5279E+01
     -7.951  0.2754E+02  0.2805E+02  0.6798E+01  0.6751E+01
     -7.899  0.1924E+02  0.1928E+02  0.7807E+01  0.7763E+01
     -7.846  0.2027E+02  0.2000E+02  0.8871E+01  0.8812E+01
     -7.794  0.1286E+02  0.1368E+02  0.9545E+01  0.9530E+01
     -7.741  0.1831E+02  0.1856E+02  0.1051E+02  0.1050E+02
     -7.689  0.1894E+02  0.1899E+02  0.1150E+02  0.1150E+02
     -7.636  0.9726E-03  0.1804E-02  0.1150E+02  0.1150E+02
     -7.584  0.3089E+02  0.2960E+02  0.1312E+02  0.1305E+02
     -7.531  0.2814E+02  0.2835E+02  0.1460E+02  0.1454E+02
     -7.479  0.2425E+02  0.2456E+02  0.1587E+02  0.1583E+02
     -7.427  0.1151E+02  0.1122E+02  0.1647E+02  0.1642E+02
     -7.374  0.1003E+02  0.1108E+02  0.1700E+02  0.1700E+02
     -7.322  0.2820E+02  0.2789E+02  0.1848E+02  0.1846E+02
     -7.269  0.3468E+02  0.3312E+02  0.2030E+02  0.2020E+02
     -7.217  0.1961E+02  0.2040E+02  0.2133E+02  0.2127E+02
     -7.164  0.4299E+02  0.4292E+02  0.2358E+02  0.2352E+02
     -7.112  0.1971E+02  0.1893E+02  0.2462E+02  0.2452E+02
     -7.059  0.3676E+02  0.3837E+02  0.2655E+02  0.2653E+02
     -7.007  0.4016E+02  0.3833E+02  0.2865E+02  0.2854E+02
     -6.954  0.1578E+02  0.1726E+02  0.2948E+02  0.2945E+02
     -6.902  0.4879E+02  0.4847E+02  0.3204E+02  0.3199E+02
     -6.849  0.4144E+02  0.4138E+02  0.3422E+02  0.3416E+02
     -6.797  0.4357E+02  0.4241E+02  0.3650E+02  0.3639E+02
     -6.744  0.4370E+02  0.4407E+02  0.3879E+02  0.3870E+02
     -6.692  0.5930E+02  0.5818E+02  0.4191E+02  0.4175E+02
     -6.640  0.3048E+02  0.3335E+02  0.4351E+02  0.4350E+02
     -6.587  0.3704E+02  0.3626E+02  0.4545E+02  0.4540E+02
     -6.535  0.4544E+02  0.4543E+02  0.4783E+02  0.4779E+02
     -6.482  0.1064E+02  0.1024E+02  0.4839E+02  0.4832E+02
     -6.430  0.5968E+02  0.5764E+02  0.5152E+02  0.5135E+02
     -6.377  0.5126E+02  0.5291E+02  0.5421E+02  0.5413E+02
     -6.325  0.6493E+02  0.6461E+02  0.5762E+02  0.5752E+02
     -6.272  0.5076E+02  0.4955E+02  0.6028E+02  0.6011E+02
     -6.220  0.4616E+02  0.4730E+02  0.6270E+02  0.6260E+02
     -6.167  0.5804E+02  0.5626E+02  0.6575E+02  0.6555E+02
     -6.115  0.8553E+02  0.8739E+02  0.7024E+02  0.7013E+02
     -6.062  0.6788E+02  0.6682E+02  0.7380E+02  0.7364E+02
     -6.010  0.6121E+02  0.6132E+02  0.7701E+02  0.7686E+02
     -5.957  0.7608E+02  0.7622E+02  0.8100E+02  0.8086E+02
     -5.905  0.7155E+02  0.7197E+02  0.8476E+02  0.8463E+02
     -5.852  0.8162E+02  0.8099E+02  0.8904E+02  0.8888E+02
     -5.800  0.5919E+02  0.5915E+02  0.9214E+02  0.9199E+02
     -5.748  0.8562E+02  0.8608E+02  0.9664E+02  0.9650E+02
     -5.695  0.6875E+02  0.6757E+02  0.1002E+03  0.1000E+03
     -5.643  0.9220E+02  0.9135E+02  0.1051E+03  0.1048E+03
     -5.590  0.8369E+02  0.8483E+02  0.1095E+03  0.1093E+03
     -5.538  0.6233E+02  0.6492E+02  0.1127E+03  0.1127E+03
     -5.485  0.4209E+02  0.3948E+02  0.1150E+03  0.1148E+03
     -5.433  0.7693E+02  0.7728E+02  0.1190E+03  0.1188E+03
     -5.380  0.7650E+02  0.7612E+02  0.1230E+03  0.1228E+03
     -5.328  0.8543E+02  0.8686E+02  0.1275E+03  0.1274E+03
     -5.275  0.5349E+02  0.5200E+02  0.1303E+03  0.1301E+03
     -5.223  0.8660E+02  0.8887E+02  0.1348E+03  0.1348E+03
     -5.170  0.5149E+02  0.4925E+02  0.1375E+03  0.1374E+03
     -5.118  0.9161E+02  0.9007E+02  0.1423E+03  0.1421E+03
     -5.065  0.7090E+02  0.7289E+02  0.1461E+03  0.1459E+03
     -5.013  0.8037E+02  0.7965E+02  0.1503E+03  0.1501E+03
     -4.960  0.7036E+02  0.7040E+02  0.1540E+03  0.1538E+03
     -4.908  0.5539E+02  0.5594E+02  0.1569E+03  0.1567E+03
     -4.856  0.9240E+02  0.9088E+02  0.1617E+03  0.1615E+03
     -4.803  0.9719E+02  0.9700E+02  0.1668E+03  0.1666E+03
     -4.751  0.1188E+03  0.1182E+03  0.1731E+03  0.1728E+03
     -4.698  0.1316E+03  0.1299E+03  0.1800E+03  0.1796E+03
     -4.646  0.9633E+02  0.9845E+02  0.1850E+03  0.1847E+03
     -4.593  0.8226E+02  0.8317E+02  0.1893E+03  0.1891E+03
     -4.541  0.8762E+02  0.8571E+02  0.1939E+03  0.1936E+03
     -4.488  0.1082E+03  0.1076E+03  0.1996E+03  0.1993E+03
     -4.436  0.8902E+02  0.9165E+02  0.2043E+03  0.2041E+03
     -4.383  0.6794E+02  0.6969E+02  0.2078E+03  0.2077E+03
     -4.331  0.6668E+02  0.6512E+02  0.2113E+03  0.2111E+03
     -4.278  0.8372E+02  0.8413E+02  0.2157E+03  0.2156E+03
     -4.226  0.8705E+02  0.8281E+02  0.2203E+03  0.2199E+03
     -4.173  0.9549E+02  0.9785E+02  0.2253E+03  0.2250E+03
     -4.121  0.8052E+02  0.8300E+02  0.2295E+03  0.2294E+03
     -4.069  0.6713E+02  0.6362E+02  0.2331E+03  0.2327E+03
     -4.016  0.9036E+02  0.9187E+02  0.2378E+03  0.2375E+03
     -3.964  0.5641E+02  0.5459E+02  0.2408E+03  0.2404E+03
     -3.911  0.2492E+02  0.2930E+02  0.2421E+03  0.2419E+03
     -3.859  0.6169E+02  0.6011E+02  0.2453E+03  0.2451E+03
     -3.806  0.5862E+02  0.5815E+02  0.2484E+03  0.2482E+03
     -3.754  0.4493E+02  0.4551E+02  0.2507E+03  0.2505E+03
     -3.701  0.6375E+02  0.6325E+02  0.2541E+03  0.2539E+03
     -3.649  0.8209E+02  0.7746E+02  0.2584E+03  0.2579E+03
     -3.596  0.8229E+02  0.8607E+02  0.2627E+03  0.2624E+03
     -3.544  0.5647E+02  0.5672E+02  0.2657E+03  0.2654E+03
     -3.491  0.8155E+02  0.8274E+02  0.2700E+03  0.2698E+03
     -3.439  0.6839E+02  0.6708E+02  0.2735E+03  0.2733E+03
     -3.386  0.6537E+02  0.6455E+02  0.2770E+03  0.2767E+03
     -3.334  0.9088E+02  0.9078E+02  0.2817E+03  0.2814E+03
     -3.281  0.7699E+02  0.7742E+02  0.2858E+03  0.2855E+03
     -3.229  0.8153E+02  0.8216E+02  0.2901E+03  0.2898E+03
     -3.177  0.5920E+02  0.5851E+02  0.2932E+03  0.2929E+03
     -3.124  0.8101E+02  0.7978E+02  0.2974E+03  0.2971E+03
     -3.072  0.7681E+02  0.7616E+02  0.3014E+03  0.3011E+03
     -3.019  0.6687E+02  0.7147E+02  0.3050E+03  0.3048E+03
     -2.967  0.6344E+02  0.6003E+02  0.3083E+03  0.3080E+03
     -2.914  0.1025E+03  0.1024E+03  0.3137E+03  0.3133E+03
     -2.862  0.9871E+02  0.9595E+02  0.3188E+03  0.3184E+03
     -2.809  0.9550E+02  0.9681E+02  0.3238E+03  0.3234E+03
     -2.757  0.1071E+03  0.1069E+03  0.3295E+03  0.3290E+03
     -2.704  0.1014E+03  0.1041E+03  0.3348E+03  0.3345E+03
     -2.652  0.8834E+02  0.8982E+02  0.3394E+03  0.3392E+03
     -2.599  0.1004E+03  0.9815E+02  0.3447E+03  0.3444E+03
     -2.547  0.1299E+03  0.1281E+03  0.3515E+03  0.3511E+03
     -2.494  0.1095E+03  0.1097E+03  0.3573E+03  0.3568E+03
     -2.442  0.9324E+02  0.9837E+02  0.3621E+03  0.3620E+03
     -2.390  0.1016E+03  0.9681E+02  0.3675E+03  0.3671E+03
     -2.337  0.9357E+02  0.9253E+02  0.3724E+03  0.3719E+03
     -2.285  0.1113E+03  0.1119E+03  0.3782E+03  0.3778E+03
     -2.232  0.8745E+02  0.9150E+02  0.3828E+03  0.3826E+03
     -2.180  0.3531E+02  0.3797E+02  0.3847E+03  0.3846E+03
     -2.127  0.3018E+02  0.2656E+02  0.3863E+03  0.3860E+03
     -2.075  0.8245E+02  0.8326E+02  0.3906E+03  0.3904E+03
     -2.022  0.7806E+02  0.7643E+02  0.3947E+03  0.3944E+03
     -1.970  0.9008E+02  0.8850E+02  0.3994E+03  0.3990E+03
     -1.917  0.8671E+02  0.8634E+02  0.4039E+03  0.4036E+03
     -1.865  0.8707E+02  0.9211E+02  0.4085E+03  0.4084E+03
     -1.812  0.6300E+02  0.6028E+02  0.4118E+03  0.4116E+03
     -1.760  0.9662E+02  0.9499E+02  0.4169E+03  0.4165E+03
     -1.707  0.1189E+03  0.1198E+03  0.4231E+03  0.4228E+03
     -1.655  0.7852E+02  0.7831E+02  0.4273E+03  0.4269E+03
     -1.602  0.7745E+02  0.7525E+02  0.4313E+03  0.4309E+03
     -1.550  0.9692E+02  0.1011E+03  0.4364E+03  0.4362E+03
     -1.498  0.5559E+02  0.5469E+02  0.4393E+03  0.4391E+03
     -1.445  0.4761E+02  0.5082E+02  0.4418E+03  0.4417E+03
     -1.393  0.5900E+02  0.5641E+02  0.4449E+03  0.4447E+03
     -1.340  0.6986E+02  0.6644E+02  0.4486E+03  0.4482E+03
     -1.288  0.4098E+02  0.4802E+02  0.4507E+03  0.4507E+03
     -1.235  0.6214E+02  0.5685E+02  0.4540E+03  0.4537E+03
     -1.183  0.5497E+02  0.5962E+02  0.4569E+03  0.4568E+03
     -1.130  0.5671E+02  0.5535E+02  0.4598E+03  0.4597E+03
     -1.078  0.4895E+02  0.4969E+02  0.4624E+03  0.4623E+03
     -1.025  0.6207E+02  0.5937E+02  0.4657E+03  0.4654E+03
     -0.973  0.3722E+02  0.4062E+02  0.4676E+03  0.4676E+03
     -0.920  0.2815E+02  0.2550E+02  0.4691E+03  0.4689E+03
     -0.868  0.7108E+02  0.6941E+02  0.4728E+03  0.4725E+03
     -0.815  0.7199E+02  0.7435E+02  0.4766E+03  0.4764E+03
     -0.763  0.4673E+02  0.4751E+02  0.4791E+03  0.4789E+03
     -0.710  0.5618E+02  0.5271E+02  0.4820E+03  0.4817E+03
     -0.658  0.7898E+02  0.8055E+02  0.4862E+03  0.4859E+03
     -0.606  0.3782E+02  0.3983E+02  0.4881E+03  0.4880E+03
     -0.553  0.2159E+02  0.2326E+02  0.4893E+03  0.4892E+03
     -0.501  0.2276E+02  0.2165E+02  0.4905E+03  0.4904E+03
     -0.448  0.3187E+02  0.3205E+02  0.4921E+03  0.4920E+03
     -0.396  0.3585E+02  0.3522E+02  0.4940E+03  0.4939E+03
     -0.343  0.5482E+02  0.5413E+02  0.4969E+03  0.4967E+03
     -0.291  0.6940E+02  0.6897E+02  0.5005E+03  0.5004E+03
     -0.238  0.9377E+02  0.9373E+02  0.5055E+03  0.5053E+03
     -0.186  0.9277E+02  0.9238E+02  0.5103E+03  0.5101E+03
     -0.133  0.1087E+03  0.1074E+03  0.5160E+03  0.5158E+03
     -0.081  0.1246E+03  0.1255E+03  0.5226E+03  0.5223E+03
     -0.028  0.1022E+03  0.1023E+03  0.5279E+03  0.5277E+03
      0.024  0.1146E+03  0.1122E+03  0.5339E+03  0.5336E+03
      0.077  0.1282E+03  0.1309E+03  0.5407E+03  0.5405E+03
      0.129  0.1134E+03  0.1122E+03  0.5466E+03  0.5463E+03
      0.181  0.1058E+03  0.1070E+03  0.5522E+03  0.5520E+03
      0.234  0.6935E+02  0.6925E+02  0.5558E+03  0.5556E+03
      0.286  0.9795E+02  0.9593E+02  0.5609E+03  0.5606E+03
      0.339  0.8246E+02  0.8622E+02  0.5653E+03  0.5651E+03
      0.391  0.9273E+02  0.8885E+02  0.5701E+03  0.5698E+03
      0.444  0.9661E+02  0.1006E+03  0.5752E+03  0.5751E+03
      0.496  0.7594E+02  0.7601E+02  0.5792E+03  0.5791E+03
      0.549  0.1339E+03  0.1290E+03  0.5862E+03  0.5858E+03
      0.601  0.1179E+03  0.1202E+03  0.5924E+03  0.5922E+03
      0.654  0.1172E+03  0.1167E+03  0.5986E+03  0.5983E+03
      0.706  0.1616E+03  0.1610E+03  0.6070E+03  0.6067E+03
      0.759  0.1255E+03  0.1240E+03  0.6136E+03  0.6132E+03
      0.811  0.1300E+03  0.1317E+03  0.6204E+03  0.6201E+03
      0.864  0.8283E+02  0.8324E+02  0.6248E+03  0.6245E+03
      0.916  0.1102E+03  0.1106E+03  0.6306E+03  0.6303E+03
      0.969  0.1260E+03  0.1245E+03  0.6372E+03  0.6368E+03
      1.021  0.1024E+03  0.9971E+02  0.6425E+03  0.6421E+03
      1.073  0.1607E+03  0.1599E+03  0.6510E+03  0.6505E+03
      1.126  0.1495E+03  0.1544E+03  0.6588E+03  0.6586E+03
      1.178  0.1980E+03  0.1932E+03  0.6692E+03  0.6687E+03
      1.231  0.1688E+03  0.1669E+03  0.6781E+03  0.6775E+03
      1.283  0.1534E+03  0.1549E+03  0.6861E+03  0.6856E+03
      1.336  0.2050E+03  0.2061E+03  0.6969E+03  0.6964E+03
      1.388  0.1741E+03  0.1762E+03  0.7060E+03  0.7056E+03
      1.441  0.1289E+03  0.1284E+03  0.7128E+03  0.7124E+03
      1.493  0.1770E+03  0.1723E+03  0.7221E+03  0.7214E+03
      1.546  0.1987E+03  0.2028E+03  0.7325E+03  0.7321E+03
      1.598  0.2019E+03  0.1984E+03  0.7431E+03  0.7425E+03
      1.651  0.1685E+03  0.1726E+03  0.7519E+03  0.7515E+03
      1.703  0.1893E+03  0.1863E+03  0.7618E+03  0.7613E+03
      1.756  0.1905E+03  0.1873E+03  0.7718E+03  0.7711E+03
      1.808  0.1758E+03  0.1788E+03  0.7811E+03  0.7805E+03
      1.860  0.1574E+03  0.1606E+03  0.7893E+03  0.7889E+03
      1.913  0.1764E+03  0.1706E+03  0.7986E+03  0.7979E+03
      1.965  0.2183E+03  0.2199E+03  0.8100E+03  0.8094E+03
      2.018  0.1503E+03  0.1545E+03  0.8179E+03  0.8175E+03
      2.070  0.1981E+03  0.1914E+03  0.8283E+03  0.8276E+03
      2.123  0.1984E+03  0.1978E+03  0.8387E+03  0.8380E+03
      2.175  0.1875E+03  0.1957E+03  0.8486E+03  0.8482E+03
      2.228  0.1316E+03  0.1267E+03  0.8555E+03  0.8549E+03
      2.280  0.1750E+03  0.1735E+03  0.8646E+03  0.8640E+03
      2.333  0.1458E+03  0.1471E+03  0.8723E+03  0.8717E+03
      2.385  0.1952E+03  0.1898E+03  0.8825E+03  0.8817E+03
      2.438  0.1680E+03  0.1772E+03  0.8913E+03  0.8910E+03
      2.490  0.1263E+03  0.1232E+03  0.8980E+03  0.8974E+03
      2.543  0.1535E+03  0.1552E+03  0.9060E+03  0.9056E+03
      2.595  0.1339E+03  0.1314E+03  0.9131E+03  0.9125E+03
      2.648  0.1226E+03  0.1245E+03  0.9195E+03  0.9190E+03
      2.700  0.1223E+03  0.1200E+03  0.9259E+03  0.9253E+03
      2.752  0.1627E+03  0.1581E+03  0.9344E+03  0.9336E+03
      2.805  0.1375E+03  0.1431E+03  0.9417E+03  0.9411E+03
      2.857  0.1391E+03  0.1390E+03  0.9490E+03  0.9484E+03
      2.910  0.1494E+03  0.1518E+03  0.9568E+03  0.9563E+03
      2.962  0.1040E+03  0.1018E+03  0.9623E+03  0.9617E+03
      3.015  0.1315E+03  0.1295E+03  0.9692E+03  0.9685E+03
      3.067  0.1307E+03  0.1312E+03  0.9760E+03  0.9754E+03
      3.120  0.1123E+03  0.1113E+03  0.9819E+03  0.9812E+03
      3.172  0.1055E+03  0.1081E+03  0.9874E+03  0.9869E+03
      3.225  0.1250E+03  0.1258E+03  0.9940E+03  0.9935E+03
      3.277  0.1002E+03  0.9582E+02  0.9992E+03  0.9985E+03
      3.330  0.1035E+03  0.1089E+03  0.1005E+04  0.1004E+04
      3.382  0.9562E+02  0.9514E+02  0.1010E+04  0.1009E+04
      3.435  0.5763E+02  0.5786E+02  0.1013E+04  0.1012E+04
      3.487  0.1091E+03  0.1066E+03  0.1018E+04  0.1018E+04
      3.540  0.9846E+02  0.9873E+02  0.1024E+04  0.1023E+04
      3.592  0.9126E+02  0.8686E+02  0.1028E+04  0.1028E+04
      3.644  0.8684E+02  0.8982E+02  0.1033E+04  0.1032E+04
      3.697  0.5810E+02  0.6362E+02  0.1036E+04  0.1036E+04
      3.749  0.4359E+02  0.4558E+02  0.1038E+04  0.1038E+04
      3.802  0.6606E+02  0.6157E+02  0.1042E+04  0.1041E+04
      3.854  0.3957E+02  0.4043E+02  0.1044E+04  0.1043E+04
      3.907  0.3673E+02  0.3549E+02  0.1046E+04  0.1045E+04
      3.959  0.7725E+02  0.7256E+02  0.1050E+04  0.1049E+04
      4.012  0.7494E+02  0.6645E+02  0.1054E+04  0.1053E+04
      4.064  0.1137E+03  0.1128E+03  0.1060E+04  0.1058E+04
      4.117  0.9691E+02  0.1106E+03  0.1065E+04  0.1064E+04
      4.169  0.7546E+02  0.7047E+02  0.1069E+04  0.1068E+04
      4.222  0.8963E+02  0.8961E+02  0.1073E+04  0.1073E+04
      4.274  0.1116E+03  0.1094E+03  0.1079E+04  0.1078E+04
      4.327  0.1139E+03  0.1122E+03  0.1085E+04  0.1084E+04
      4.379  0.1033E+03  0.1023E+03  0.1091E+04  0.1090E+04
      4.431  0.1142E+03  0.1166E+03  0.1097E+04  0.1096E+04
      4.484  0.1124E+03  0.1130E+03  0.1103E+04  0.1102E+04
      4.536  0.1064E+03  0.1112E+03  0.1108E+04  0.1108E+04
      4.589  0.1211E+03  0.1187E+03  0.1115E+04  0.1114E+04
      4.641  0.1250E+03  0.1231E+03  0.1121E+04  0.1120E+04
      4.694  0.9079E+02  0.9789E+02  0.1126E+04  0.1125E+04
      4.746  0.1138E+03  0.1124E+03  0.1132E+04  0.1131E+04
      4.799  0.1057E+03  0.1045E+03  0.1137E+04  0.1137E+04
      4.851  0.1235E+03  0.1208E+03  0.1144E+04  0.1143E+04
      4.904  0.1294E+03  0.1309E+03  0.1151E+04  0.1150E+04
      4.956  0.9644E+02  0.9647E+02  0.1156E+04  0.1155E+04
      5.009  0.1319E+03  0.1275E+03  0.1163E+04  0.1162E+04
      5.061  0.1317E+03  0.1349E+03  0.1170E+04  0.1169E+04
      5.114  0.1051E+03  0.1128E+03  0.1175E+04  0.1175E+04
      5.166  0.1088E+03  0.1073E+03  0.1181E+04  0.1180E+04
      5.219  0.1182E+03  0.1177E+03  0.1187E+04  0.1186E+04
      5.271  0.8575E+02  0.8069E+02  0.1191E+04  0.1191E+04
      5.323  0.1200E+03  0.1204E+03  0.1198E+04  0.1197E+04
      5.376  0.1207E+03  0.1211E+03  0.1204E+04  0.1203E+04
      5.428  0.1365E+03  0.1383E+03  0.1211E+04  0.1211E+04
      5.481  0.1360E+03  0.1349E+03  0.1218E+04  0.1218E+04
      5.533  0.1589E+03  0.1596E+03  0.1227E+04  0.1226E+04
      5.586  0.1339E+03  0.1359E+03  0.1234E+04  0.1233E+04
      5.638  0.1398E+03  0.1393E+03  0.1241E+04  0.1241E+04
      5.691  0.1203E+03  0.1214E+03  0.1247E+04  0.1247E+04
      5.743  0.1074E+03  0.1094E+03  0.1253E+04  0.1253E+04
      5.796  0.1494E+03  0.1452E+03  0.1261E+04  0.1260E+04
      5.848  0.1161E+03  0.1276E+03  0.1267E+04  0.1267E+04
      5.901  0.8397E+02  0.8191E+02  0.1271E+04  0.1271E+04
      5.953  0.1181E+02  0.1386E+02  0.1272E+04  0.1272E+04
      6.006  0.0000E+00  0.0000E+00  0.1272E+04  0.1272E+04
      6.058  0.0000E+00  0.0000E+00  0.1272E+04  0.1272E+04
      6.110  0.0000E+00  0.0000E+00  0.1272E+04  0.1272E+04
      6.163  0.0000E+00  0.0000E+00  0.1272E+04  0.1272E+04
      6.215  0.0000E+00  0.0000E+00  0.1272E+04  0.1272E+04
      6.268  0.0000E+00  0.0000E+00  0.1272E+04  0.1272E+04
      6.320  0.0000E+00  0.0000E+00  0.1272E+04  0.1272E+04
      6.373  0.0000E+00  0.0000E+00  0.1272E+04  0.1272E+04
      6.425  0.0000E+00  0.0000E+00  0.1272E+04  0.1272E+04
      6.478  0.0000E+00  0.0000E+00  0.1272E+04  0.1272E+04
      6.530  0.0000E+00  0.0000E+00  0.1272E+04  0.1272E+04
      6.583  0.0000E+00  0.0000E+00  0.1272E+04  0.1272E+04
      6.635  0.0000E+00  0.0000E+00  0.1272E+04  0.1272E+04
