 120 120   0   0
  0.2648796E+02  0.9406768E-09  0.1330318E-08  0.2540001E-08  0.5000000E-15
  1.000000000000000E-004
  CAR 
 Si and Ge interface calculation         
      7.21741317     -8.42259502  301      4.30984936      1.00000000
     -8.423  0.0000E+00  0.0000E+00  0.0000E+00  0.0000E+00
     -8.370  0.0000E+00  0.0000E+00  0.0000E+00  0.0000E+00
     -8.318  0.0000E+00  0.0000E+00  0.0000E+00  0.0000E+00
     -8.266  0.0000E+00  0.0000E+00  0.0000E+00  0.0000E+00
     -8.214  0.0000E+00  0.0000E+00  0.0000E+00  0.0000E+00
     -8.162  0.0000E+00  0.0000E+00  0.0000E+00  0.0000E+00
     -8.110  0.0000E+00  0.0000E+00  0.0000E+00  0.0000E+00
     -8.058  0.0000E+00  0.0000E+00  0.0000E+00  0.0000E+00
     -8.006  0.0000E+00  0.0000E+00  0.0000E+00  0.0000E+00
     -7.953  0.0000E+00  0.0000E+00  0.0000E+00  0.0000E+00
     -7.901  0.0000E+00  0.0000E+00  0.0000E+00  0.0000E+00
     -7.849  0.0000E+00  0.0000E+00  0.0000E+00  0.0000E+00
     -7.797  0.0000E+00  0.0000E+00  0.0000E+00  0.0000E+00
     -7.745  0.8659E-05  0.3855E-07  0.4514E-06  0.2010E-08
     -7.693  0.6370E+01  0.6093E+01  0.3321E+00  0.3176E+00
     -7.641  0.2347E-01  0.3010E+00  0.3333E+00  0.3333E+00
     -7.588  0.1552E+01  0.1152E+00  0.4142E+00  0.3393E+00
     -7.536  0.2402E+02  0.2545E+02  0.1667E+01  0.1666E+01
     -7.484  0.3261E-01  0.1356E-01  0.1668E+01  0.1667E+01
     -7.432  0.3179E+02  0.2915E+02  0.3326E+01  0.3186E+01
     -7.380  0.1465E+00  0.2821E+01  0.3334E+01  0.3333E+01
     -7.328  0.3162E+02  0.2873E+02  0.4982E+01  0.4831E+01
     -7.276  0.1313E+02  0.1598E+02  0.5667E+01  0.5664E+01
     -7.224  0.2476E+02  0.2162E+02  0.6958E+01  0.6791E+01
     -7.171  0.8122E+00  0.4007E+01  0.7000E+01  0.7000E+01
     -7.119  0.5716E+01  0.4337E+01  0.7298E+01  0.7226E+01
     -7.067  0.1295E+02  0.1264E+02  0.7973E+01  0.7885E+01
     -7.015  0.1960E+02  0.2059E+02  0.8995E+01  0.8958E+01
     -6.963  0.1379E+02  0.1124E+02  0.9714E+01  0.9545E+01
     -6.911  0.2466E+02  0.2791E+02  0.1100E+02  0.1100E+02
     -6.859  0.9493E-04  0.3456E-02  0.1100E+02  0.1100E+02
     -6.806  0.1289E+02  0.1265E+02  0.1167E+02  0.1166E+02
     -6.754  0.8018E+01  0.7174E+01  0.1209E+02  0.1203E+02
     -6.702  0.1765E+02  0.1837E+02  0.1301E+02  0.1299E+02
     -6.650  0.3651E+02  0.3311E+02  0.1491E+02  0.1472E+02
     -6.598  0.1433E+02  0.1766E+02  0.1566E+02  0.1564E+02
     -6.546  0.1290E+02  0.1329E+02  0.1633E+02  0.1633E+02
     -6.494  0.1236E+00  0.4401E-01  0.1634E+02  0.1633E+02
     -6.442  0.1267E+02  0.1278E+02  0.1700E+02  0.1700E+02
     -6.389  0.1821E+01  0.3249E+00  0.1709E+02  0.1702E+02
     -6.337  0.2921E+02  0.2868E+02  0.1862E+02  0.1851E+02
     -6.285  0.7124E+01  0.8551E+01  0.1899E+02  0.1896E+02
     -6.233  0.1452E+02  0.1393E+02  0.1975E+02  0.1968E+02
     -6.181  0.1126E+02  0.1244E+02  0.2033E+02  0.2033E+02
     -6.129  0.4625E+02  0.3757E+02  0.2274E+02  0.2229E+02
     -6.077  0.2389E+02  0.3109E+02  0.2399E+02  0.2391E+02
     -6.024  0.2910E+02  0.2821E+02  0.2551E+02  0.2538E+02
     -5.972  0.4106E+02  0.4210E+02  0.2765E+02  0.2758E+02
     -5.920  0.1652E+02  0.1546E+02  0.2851E+02  0.2838E+02
     -5.868  0.2163E+02  0.2132E+02  0.2964E+02  0.2950E+02
     -5.816  0.1340E+02  0.1607E+02  0.3033E+02  0.3033E+02
     -5.764  0.3790E+02  0.3545E+02  0.3231E+02  0.3218E+02
     -5.712  0.2085E+02  0.2117E+02  0.3340E+02  0.3329E+02
     -5.660  0.5189E+01  0.7316E+01  0.3367E+02  0.3367E+02
     -5.607  0.3673E+02  0.2878E+02  0.3558E+02  0.3517E+02
     -5.555  0.4205E+02  0.4140E+02  0.3778E+02  0.3733E+02
     -5.503  0.3140E+02  0.3877E+02  0.3941E+02  0.3935E+02
     -5.451  0.6074E+02  0.4795E+02  0.4258E+02  0.4185E+02
     -5.399  0.4644E+02  0.6048E+02  0.4500E+02  0.4500E+02
     -5.347  0.9768E+01  0.4242E+01  0.4551E+02  0.4522E+02
     -5.295  0.3430E+02  0.3818E+02  0.4730E+02  0.4721E+02
     -5.242  0.4495E+02  0.4494E+02  0.4964E+02  0.4955E+02
     -5.190  0.2857E+02  0.2835E+02  0.5113E+02  0.5103E+02
     -5.138  0.4849E+02  0.3864E+02  0.5366E+02  0.5305E+02
     -5.086  0.2456E+02  0.3367E+02  0.5494E+02  0.5480E+02
     -5.034  0.2737E+02  0.2879E+02  0.5637E+02  0.5630E+02
     -4.982  0.5673E+02  0.5610E+02  0.5932E+02  0.5923E+02
     -4.930  0.5043E+02  0.3704E+02  0.6195E+02  0.6116E+02
     -4.878  0.3278E+02  0.4176E+02  0.6366E+02  0.6334E+02
     -4.825  0.4446E+02  0.4603E+02  0.6598E+02  0.6574E+02
     -4.773  0.3959E+02  0.3545E+02  0.6804E+02  0.6758E+02
     -4.721  0.5641E+02  0.6091E+02  0.7098E+02  0.7076E+02
     -4.669  0.3743E+02  0.3359E+02  0.7294E+02  0.7251E+02
     -4.617  0.4563E+02  0.5147E+02  0.7531E+02  0.7519E+02
     -4.565  0.3083E+02  0.2424E+02  0.7692E+02  0.7646E+02
     -4.513  0.3497E+02  0.4047E+02  0.7874E+02  0.7857E+02
     -4.460  0.3688E+02  0.3974E+02  0.8067E+02  0.8064E+02
     -4.408  0.2469E+02  0.2170E+02  0.8195E+02  0.8177E+02
     -4.356  0.4679E+02  0.4257E+02  0.8439E+02  0.8399E+02
     -4.304  0.2770E+02  0.3252E+02  0.8584E+02  0.8569E+02
     -4.252  0.4484E+02  0.4433E+02  0.8818E+02  0.8800E+02
     -4.200  0.4793E+02  0.5066E+02  0.9067E+02  0.9064E+02
     -4.148  0.3825E+02  0.3819E+02  0.9267E+02  0.9263E+02
     -4.096  0.5029E+02  0.4707E+02  0.9529E+02  0.9508E+02
     -4.043  0.2912E+02  0.2545E+02  0.9681E+02  0.9641E+02
     -3.991  0.4987E+02  0.5059E+02  0.9941E+02  0.9905E+02
     -3.939  0.2479E+02  0.3110E+02  0.1007E+03  0.1007E+03
     -3.887  0.4695E+02  0.4510E+02  0.1031E+03  0.1030E+03
     -3.835  0.3652E+02  0.3637E+02  0.1051E+03  0.1049E+03
     -3.783  0.3025E+02  0.2845E+02  0.1066E+03  0.1064E+03
     -3.731  0.3839E+02  0.2980E+02  0.1086E+03  0.1080E+03
     -3.678  0.3507E+02  0.3767E+02  0.1105E+03  0.1099E+03
     -3.626  0.2282E+02  0.3099E+02  0.1116E+03  0.1115E+03
     -3.574  0.2247E+02  0.1845E+02  0.1128E+03  0.1125E+03
     -3.522  0.1527E+02  0.1808E+02  0.1136E+03  0.1134E+03
     -3.470  0.3624E+02  0.3231E+02  0.1155E+03  0.1151E+03
     -3.418  0.2866E+02  0.3598E+02  0.1170E+03  0.1170E+03
     -3.366  0.1830E+02  0.6767E+01  0.1180E+03  0.1173E+03
     -3.314  0.3293E+02  0.4438E+02  0.1197E+03  0.1197E+03
     -3.261  0.3167E+02  0.2947E+02  0.1213E+03  0.1212E+03
     -3.209  0.3228E+02  0.3331E+02  0.1230E+03  0.1229E+03
     -3.157  0.1396E+02  0.1412E+02  0.1237E+03  0.1237E+03
     -3.105  0.2991E+02  0.2796E+02  0.1253E+03  0.1251E+03
     -3.053  0.8188E+00  0.3914E+01  0.1253E+03  0.1253E+03
     -3.001  0.3075E+02  0.2789E+02  0.1269E+03  0.1268E+03
     -2.949  0.3945E+02  0.2951E+02  0.1290E+03  0.1283E+03
     -2.896  0.3622E+02  0.4554E+02  0.1309E+03  0.1307E+03
     -2.844  0.3128E+02  0.3012E+02  0.1325E+03  0.1323E+03
     -2.792  0.2686E+02  0.2128E+02  0.1339E+03  0.1334E+03
     -2.740  0.5740E+02  0.6061E+02  0.1369E+03  0.1365E+03
     -2.688  0.1468E+02  0.2164E+02  0.1377E+03  0.1377E+03
     -2.636  0.3874E+02  0.3832E+02  0.1397E+03  0.1397E+03
     -2.584  0.3764E+02  0.2911E+02  0.1417E+03  0.1412E+03
     -2.532  0.3825E+02  0.4431E+02  0.1436E+03  0.1435E+03
     -2.479  0.4856E+02  0.4367E+02  0.1462E+03  0.1458E+03
     -2.427  0.6490E+02  0.6982E+02  0.1496E+03  0.1494E+03
     -2.375  0.4805E+02  0.4002E+02  0.1521E+03  0.1515E+03
     -2.323  0.6381E+02  0.6605E+02  0.1554E+03  0.1549E+03
     -2.271  0.3814E+02  0.4603E+02  0.1574E+03  0.1573E+03
     -2.219  0.3163E+02  0.2576E+02  0.1590E+03  0.1587E+03
     -2.167  0.2929E+02  0.3093E+02  0.1606E+03  0.1603E+03
     -2.114  0.3560E+02  0.3935E+02  0.1624E+03  0.1623E+03
     -2.062  0.4453E+02  0.3970E+02  0.1647E+03  0.1644E+03
     -2.010  0.5963E+02  0.6112E+02  0.1678E+03  0.1676E+03
     -1.958  0.4821E+02  0.4326E+02  0.1704E+03  0.1699E+03
     -1.906  0.2866E+02  0.3518E+02  0.1719E+03  0.1717E+03
     -1.854  0.5550E+02  0.4880E+02  0.1747E+03  0.1742E+03
     -1.802  0.5978E+02  0.6026E+02  0.1779E+03  0.1774E+03
     -1.750  0.3737E+02  0.3852E+02  0.1798E+03  0.1794E+03
     -1.697  0.2762E+02  0.3185E+02  0.1813E+03  0.1810E+03
     -1.645  0.3359E+02  0.3740E+02  0.1830E+03  0.1830E+03
     -1.593  0.5470E+02  0.5098E+02  0.1859E+03  0.1857E+03
     -1.541  0.5343E+02  0.5348E+02  0.1886E+03  0.1884E+03
     -1.489  0.1538E+02  0.1727E+02  0.1894E+03  0.1893E+03
     -1.437  0.2764E+02  0.2363E+02  0.1909E+03  0.1906E+03
     -1.385  0.1834E+02  0.1716E+02  0.1918E+03  0.1915E+03
     -1.332  0.4179E+02  0.4858E+02  0.1940E+03  0.1940E+03
     -1.280  0.2603E+02  0.2000E+02  0.1954E+03  0.1950E+03
     -1.228  0.4459E+02  0.4308E+02  0.1977E+03  0.1973E+03
     -1.176  0.3028E+02  0.3282E+02  0.1993E+03  0.1990E+03
     -1.124  0.3277E+02  0.3658E+02  0.2010E+03  0.2009E+03
     -1.072  0.2146E+02  0.1999E+02  0.2021E+03  0.2020E+03
     -1.020  0.5075E+02  0.4328E+02  0.2047E+03  0.2042E+03
     -0.968  0.2895E+02  0.3341E+02  0.2063E+03  0.2059E+03
     -0.915  0.2059E+02  0.2626E+02  0.2073E+03  0.2073E+03
     -0.863  0.1913E+02  0.1163E+02  0.2083E+03  0.2079E+03
     -0.811  0.2564E+02  0.3320E+02  0.2097E+03  0.2097E+03
     -0.759  0.8547E+00  0.2869E+00  0.2097E+03  0.2097E+03
     -0.707  0.5031E+02  0.5097E+02  0.2123E+03  0.2123E+03
     -0.655  0.2452E+02  0.2044E+02  0.2136E+03  0.2134E+03
     -0.603  0.1440E+02  0.1801E+02  0.2144E+03  0.2143E+03
     -0.550  0.5011E+02  0.4779E+02  0.2170E+03  0.2168E+03
     -0.498  0.8264E+00  0.3430E+01  0.2170E+03  0.2170E+03
     -0.446  0.5078E+02  0.5035E+02  0.2197E+03  0.2196E+03
     -0.394  0.9960E+00  0.8380E+00  0.2197E+03  0.2197E+03
     -0.342  0.1749E+02  0.1503E+02  0.2206E+03  0.2205E+03
     -0.290  0.7295E+00  0.4081E+01  0.2207E+03  0.2207E+03
     -0.238  0.1277E+02  0.1241E+02  0.2213E+03  0.2213E+03
     -0.186  0.2448E+02  0.1164E+02  0.2226E+03  0.2219E+03
     -0.133  0.2669E+02  0.3989E+02  0.2240E+03  0.2240E+03
     -0.081  0.1263E+02  0.1160E+02  0.2247E+03  0.2246E+03
     -0.029  0.1652E+02  0.1091E+02  0.2255E+03  0.2252E+03
      0.023  0.1770E+02  0.2298E+02  0.2264E+03  0.2264E+03
      0.075  0.6646E+02  0.6135E+02  0.2299E+03  0.2296E+03
      0.127  0.1132E+02  0.1553E+02  0.2305E+03  0.2304E+03
      0.179  0.1892E+02  0.1894E+02  0.2315E+03  0.2314E+03
      0.232  0.4486E+02  0.3934E+02  0.2338E+03  0.2334E+03
      0.284  0.6177E+02  0.6079E+02  0.2370E+03  0.2366E+03
      0.336  0.6486E+02  0.6304E+02  0.2404E+03  0.2399E+03
      0.388  0.3713E+02  0.4669E+02  0.2424E+03  0.2423E+03
      0.440  0.5324E+02  0.4728E+02  0.2451E+03  0.2448E+03
      0.492  0.5902E+02  0.5454E+02  0.2482E+03  0.2476E+03
      0.544  0.3685E+02  0.4079E+02  0.2501E+03  0.2497E+03
      0.596  0.6408E+02  0.6313E+02  0.2535E+03  0.2530E+03
      0.649  0.6756E+02  0.6670E+02  0.2570E+03  0.2565E+03
      0.701  0.6191E+02  0.6649E+02  0.2602E+03  0.2600E+03
      0.753  0.3757E+02  0.3865E+02  0.2622E+03  0.2620E+03
      0.805  0.4881E+02  0.4956E+02  0.2647E+03  0.2646E+03
      0.857  0.5629E+02  0.5816E+02  0.2677E+03  0.2676E+03
      0.909  0.5756E+02  0.5245E+02  0.2707E+03  0.2703E+03
      0.961  0.4541E+02  0.4646E+02  0.2730E+03  0.2728E+03
      1.014  0.3624E+02  0.3469E+02  0.2749E+03  0.2746E+03
      1.066  0.4320E+02  0.4357E+02  0.2772E+03  0.2768E+03
      1.118  0.6176E+02  0.6302E+02  0.2804E+03  0.2801E+03
      1.170  0.5540E+02  0.5664E+02  0.2833E+03  0.2831E+03
      1.222  0.7934E+02  0.7287E+02  0.2874E+03  0.2869E+03
      1.274  0.9502E+02  0.9095E+02  0.2924E+03  0.2916E+03
      1.326  0.5685E+02  0.7063E+02  0.2953E+03  0.2953E+03
      1.378  0.5928E+02  0.4881E+02  0.2984E+03  0.2979E+03
      1.431  0.7164E+02  0.6489E+02  0.3022E+03  0.3012E+03
      1.483  0.1052E+03  0.1121E+03  0.3076E+03  0.3071E+03
      1.535  0.9230E+02  0.8681E+02  0.3125E+03  0.3116E+03
      1.587  0.7348E+02  0.7820E+02  0.3163E+03  0.3157E+03
      1.639  0.9131E+02  0.8031E+02  0.3210E+03  0.3199E+03
      1.691  0.9660E+02  0.1079E+03  0.3261E+03  0.3255E+03
      1.743  0.7943E+02  0.7753E+02  0.3302E+03  0.3295E+03
      1.796  0.8053E+02  0.8466E+02  0.3344E+03  0.3339E+03
      1.848  0.9192E+02  0.8564E+02  0.3392E+03  0.3384E+03
      1.900  0.8141E+02  0.9153E+02  0.3435E+03  0.3432E+03
      1.952  0.8895E+02  0.8396E+02  0.3481E+03  0.3476E+03
      2.004  0.8802E+02  0.8882E+02  0.3527E+03  0.3522E+03
      2.056  0.6746E+02  0.6777E+02  0.3562E+03  0.3557E+03
      2.108  0.1170E+03  0.1093E+03  0.3623E+03  0.3614E+03
      2.160  0.6948E+02  0.7553E+02  0.3659E+03  0.3654E+03
      2.213  0.7024E+02  0.6678E+02  0.3696E+03  0.3688E+03
      2.265  0.9643E+02  0.9735E+02  0.3746E+03  0.3739E+03
      2.317  0.7096E+02  0.7392E+02  0.3783E+03  0.3778E+03
      2.369  0.8675E+02  0.8211E+02  0.3828E+03  0.3820E+03
      2.421  0.9067E+02  0.9323E+02  0.3876E+03  0.3869E+03
      2.473  0.6672E+02  0.6837E+02  0.3910E+03  0.3905E+03
      2.525  0.7705E+02  0.7809E+02  0.3951E+03  0.3945E+03
      2.578  0.7228E+02  0.6871E+02  0.3988E+03  0.3981E+03
      2.630  0.4532E+02  0.5338E+02  0.4012E+03  0.4009E+03
      2.682  0.7329E+02  0.6880E+02  0.4050E+03  0.4045E+03
      2.734  0.7621E+02  0.6381E+02  0.4090E+03  0.4078E+03
      2.786  0.8642E+02  0.9493E+02  0.4135E+03  0.4128E+03
      2.838  0.8489E+02  0.9230E+02  0.4179E+03  0.4176E+03
      2.890  0.6742E+02  0.6833E+02  0.4214E+03  0.4211E+03
      2.942  0.5313E+02  0.5149E+02  0.4242E+03  0.4238E+03
      2.995  0.6492E+02  0.5544E+02  0.4276E+03  0.4267E+03
      3.047  0.6465E+02  0.7246E+02  0.4309E+03  0.4305E+03
      3.099  0.4917E+02  0.5086E+02  0.4335E+03  0.4332E+03
      3.151  0.4114E+02  0.4232E+02  0.4357E+03  0.4354E+03
      3.203  0.7749E+02  0.6500E+02  0.4397E+03  0.4387E+03
      3.255  0.3689E+02  0.5105E+02  0.4416E+03  0.4414E+03
      3.307  0.3187E+02  0.2804E+02  0.4433E+03  0.4429E+03
      3.360  0.3963E+02  0.4634E+02  0.4453E+03  0.4453E+03
      3.412  0.1160E+02  0.1046E+02  0.4460E+03  0.4458E+03
      3.464  0.3823E+02  0.3304E+02  0.4479E+03  0.4476E+03
      3.516  0.2418E+02  0.2311E+02  0.4492E+03  0.4488E+03
      3.568  0.4967E+02  0.4153E+02  0.4518E+03  0.4509E+03
      3.620  0.4542E+02  0.5080E+02  0.4542E+03  0.4536E+03
      3.672  0.2650E+02  0.2971E+02  0.4555E+03  0.4551E+03
      3.724  0.5479E+02  0.5597E+02  0.4584E+03  0.4580E+03
      3.777  0.2967E+02  0.2942E+02  0.4599E+03  0.4596E+03
      3.829  0.5221E+02  0.5649E+02  0.4627E+03  0.4625E+03
      3.881  0.4971E+02  0.4629E+02  0.4653E+03  0.4649E+03
      3.933  0.1687E+02  0.1177E+02  0.4661E+03  0.4655E+03
      3.985  0.3396E+02  0.3539E+02  0.4679E+03  0.4674E+03
      4.037  0.2519E+02  0.3274E+02  0.4692E+03  0.4691E+03
      4.089  0.2961E+02  0.3012E+02  0.4708E+03  0.4707E+03
      4.142  0.3488E+02  0.3154E+02  0.4726E+03  0.4723E+03
      4.194  0.3993E+02  0.4518E+02  0.4747E+03  0.4747E+03
      4.246  0.3953E+02  0.2150E+02  0.4767E+03  0.4758E+03
      4.298  0.4442E+02  0.5372E+02  0.4790E+03  0.4786E+03
      4.350  0.2018E+02  0.2080E+02  0.4801E+03  0.4797E+03
      4.402  0.1816E+02  0.2550E+02  0.4810E+03  0.4810E+03
      4.454  0.1196E+02  0.1278E+02  0.4817E+03  0.4817E+03
      4.506  0.1401E+02  0.6962E+01  0.4824E+03  0.4820E+03
      4.559  0.4950E+02  0.4722E+02  0.4850E+03  0.4845E+03
      4.611  0.4752E+02  0.4059E+02  0.4875E+03  0.4866E+03
      4.663  0.3602E+02  0.5185E+02  0.4893E+03  0.4893E+03
      4.715  0.4285E+02  0.1874E+02  0.4916E+03  0.4903E+03
      4.767  0.2206E+02  0.4564E+02  0.4927E+03  0.4927E+03
      4.819  0.2365E+02  0.2174E+02  0.4940E+03  0.4938E+03
      4.871  0.1991E+02  0.1822E+02  0.4950E+03  0.4947E+03
      4.924  0.6564E+02  0.5465E+02  0.4984E+03  0.4976E+03
      4.976  0.1805E+02  0.2850E+02  0.4994E+03  0.4991E+03
      5.028  0.2812E+02  0.2345E+02  0.5008E+03  0.5003E+03
      5.080  0.3342E+02  0.3957E+02  0.5026E+03  0.5024E+03
      5.132  0.4312E+02  0.3708E+02  0.5048E+03  0.5043E+03
      5.184  0.2170E+02  0.2695E+02  0.5059E+03  0.5057E+03
      5.236  0.2299E+02  0.1890E+02  0.5071E+03  0.5067E+03
      5.288  0.2717E+02  0.3134E+02  0.5086E+03  0.5083E+03
      5.341  0.2034E+02  0.1680E+02  0.5096E+03  0.5092E+03
      5.393  0.4474E+02  0.4472E+02  0.5119E+03  0.5115E+03
      5.445  0.5162E+02  0.5108E+02  0.5146E+03  0.5142E+03
      5.497  0.4079E+02  0.4252E+02  0.5168E+03  0.5164E+03
      5.549  0.5213E+02  0.5267E+02  0.5195E+03  0.5192E+03
      5.601  0.5253E+02  0.5094E+02  0.5222E+03  0.5218E+03
      5.653  0.6682E+02  0.7226E+02  0.5257E+03  0.5256E+03
      5.706  0.6015E+02  0.5447E+02  0.5288E+03  0.5284E+03
      5.758  0.3443E+02  0.3857E+02  0.5306E+03  0.5304E+03
      5.810  0.5727E+02  0.5085E+02  0.5336E+03  0.5331E+03
      5.862  0.7643E+02  0.8258E+02  0.5376E+03  0.5374E+03
      5.914  0.7334E+02  0.6423E+02  0.5414E+03  0.5407E+03
      5.966  0.5383E+02  0.6329E+02  0.5442E+03  0.5440E+03
      6.018  0.4901E+02  0.4367E+02  0.5468E+03  0.5463E+03
      6.070  0.9073E+02  0.8633E+02  0.5515E+03  0.5508E+03
      6.123  0.6776E+02  0.7277E+02  0.5551E+03  0.5546E+03
      6.175  0.6838E+02  0.6398E+02  0.5586E+03  0.5579E+03
      6.227  0.4565E+02  0.4796E+02  0.5610E+03  0.5604E+03
      6.279  0.5297E+02  0.5817E+02  0.5638E+03  0.5635E+03
      6.331  0.7171E+02  0.6635E+02  0.5675E+03  0.5669E+03
      6.383  0.7116E+02  0.7393E+02  0.5712E+03  0.5708E+03
      6.435  0.3997E+02  0.4232E+02  0.5733E+03  0.5730E+03
      6.488  0.4575E+02  0.4075E+02  0.5757E+03  0.5751E+03
      6.540  0.6215E+01  0.1688E+02  0.5760E+03  0.5760E+03
      6.592  0.0000E+00  0.0000E+00  0.5760E+03  0.5760E+03
      6.644  0.0000E+00  0.0000E+00  0.5760E+03  0.5760E+03
      6.696  0.0000E+00  0.0000E+00  0.5760E+03  0.5760E+03
      6.748  0.0000E+00  0.0000E+00  0.5760E+03  0.5760E+03
      6.800  0.0000E+00  0.0000E+00  0.5760E+03  0.5760E+03
      6.852  0.0000E+00  0.0000E+00  0.5760E+03  0.5760E+03
      6.905  0.0000E+00  0.0000E+00  0.5760E+03  0.5760E+03
      6.957  0.0000E+00  0.0000E+00  0.5760E+03  0.5760E+03
      7.009  0.0000E+00  0.0000E+00  0.5760E+03  0.5760E+03
      7.061  0.0000E+00  0.0000E+00  0.5760E+03  0.5760E+03
      7.113  0.0000E+00  0.0000E+00  0.5760E+03  0.5760E+03
      7.165  0.0000E+00  0.0000E+00  0.5760E+03  0.5760E+03
      7.217  0.0000E+00  0.0000E+00  0.5760E+03  0.5760E+03
