 264 264   0   0
  0.2139018E+02  0.1946760E-08  0.1946760E-08  0.1490025E-08  0.5000000E-15
  1.000000000000000E-004
  CAR 
 Si and Ge interface calculation         
      9.35989547     -9.34219498  301      6.54210888      1.00000000
     -9.342  0.0000E+00  0.0000E+00  0.0000E+00  0.0000E+00
     -9.280  0.0000E+00  0.0000E+00  0.0000E+00  0.0000E+00
     -9.218  0.0000E+00  0.0000E+00  0.0000E+00  0.0000E+00
     -9.155  0.0000E+00  0.0000E+00  0.0000E+00  0.0000E+00
     -9.093  0.0000E+00  0.0000E+00  0.0000E+00  0.0000E+00
     -9.030  0.0000E+00  0.0000E+00  0.0000E+00  0.0000E+00
     -8.968  0.0000E+00  0.0000E+00  0.0000E+00  0.0000E+00
     -8.906  0.0000E+00  0.0000E+00  0.0000E+00  0.0000E+00
     -8.843  0.0000E+00  0.0000E+00  0.0000E+00  0.0000E+00
     -8.781  0.0000E+00  0.0000E+00  0.0000E+00  0.0000E+00
     -8.719  0.0000E+00  0.0000E+00  0.0000E+00  0.0000E+00
     -8.656  0.0000E+00  0.0000E+00  0.0000E+00  0.0000E+00
     -8.594  0.0000E+00  0.0000E+00  0.0000E+00  0.0000E+00
     -8.532  0.1671E-06  0.2964E-08  0.1042E-07  0.1848E-09
     -8.469  0.4837E+02  0.4989E+02  0.3015E+01  0.3110E+01
     -8.407  0.2548E+02  0.1760E+02  0.4606E+01  0.4212E+01
     -8.345  0.2236E+02  0.2869E+02  0.6000E+01  0.6000E+01
     -8.282  0.0000E+00  0.0000E+00  0.6000E+01  0.6000E+01
     -8.220  0.4981E+01  0.3584E+01  0.6311E+01  0.6223E+01
     -8.158  0.2710E+02  0.2850E+02  0.8000E+01  0.8000E+01
     -8.095  0.1606E-04  0.8285E-06  0.8000E+01  0.8000E+01
     -8.033  0.3208E+02  0.3207E+02  0.1000E+02  0.9999E+01
     -7.971  0.0000E+00  0.0000E+00  0.1000E+02  0.1000E+02
     -7.908  0.0000E+00  0.0000E+00  0.1000E+02  0.1000E+02
     -7.846  0.4105E-05  0.3686E-04  0.1000E+02  0.1000E+02
     -7.784  0.3208E+02  0.3208E+02  0.1200E+02  0.1200E+02
     -7.721  0.0000E+00  0.0000E+00  0.1200E+02  0.1200E+02
     -7.659  0.0000E+00  0.0000E+00  0.1200E+02  0.1200E+02
     -7.597  0.0000E+00  0.0000E+00  0.1200E+02  0.1200E+02
     -7.534  0.1251E-12  0.4452E-14  0.1200E+02  0.1200E+02
     -7.472  0.2573E+02  0.2058E+02  0.1360E+02  0.1328E+02
     -7.410  0.3856E+02  0.4371E+02  0.1601E+02  0.1601E+02
     -7.347  0.6239E+02  0.6221E+02  0.1990E+02  0.1989E+02
     -7.285  0.3141E+02  0.3092E+02  0.2186E+02  0.2181E+02
     -7.223  0.3503E+02  0.3530E+02  0.2404E+02  0.2401E+02
     -7.160  0.3143E+02  0.3179E+02  0.2600E+02  0.2600E+02
     -7.098  0.0000E+00  0.0000E+00  0.2600E+02  0.2600E+02
     -7.036  0.2522E+01  0.5033E+01  0.2616E+02  0.2631E+02
     -6.973  0.6164E+02  0.5913E+02  0.3000E+02  0.3000E+02
     -6.911  0.0000E+00  0.0000E+00  0.3000E+02  0.3000E+02
     -6.849  0.0000E+00  0.0000E+00  0.3000E+02  0.3000E+02
     -6.786  0.1906E-03  0.2846E-03  0.3000E+02  0.3000E+02
     -6.724  0.3397E+02  0.3268E+02  0.3212E+02  0.3204E+02
     -6.662  0.6009E+02  0.5775E+02  0.3586E+02  0.3564E+02
     -6.599  0.3388E+02  0.3767E+02  0.3798E+02  0.3799E+02
     -6.537  0.2922E+02  0.2943E+02  0.3981E+02  0.3982E+02
     -6.475  0.3124E+01  0.2828E+01  0.4000E+02  0.4000E+02
     -6.412  0.1580E+01  0.2617E+01  0.4010E+02  0.4016E+02
     -6.350  0.4060E+02  0.4397E+02  0.4263E+02  0.4290E+02
     -6.288  0.2198E+02  0.1758E+02  0.4400E+02  0.4400E+02
     -6.225  0.2289E+02  0.2278E+02  0.4543E+02  0.4542E+02
     -6.163  0.3513E+02  0.3564E+02  0.4762E+02  0.4764E+02
     -6.100  0.5653E+02  0.5593E+02  0.5114E+02  0.5113E+02
     -6.038  0.5386E+02  0.5438E+02  0.5450E+02  0.5452E+02
     -5.976  0.1096E+02  0.1324E+02  0.5518E+02  0.5535E+02
     -5.913  0.1341E+02  0.1098E+02  0.5602E+02  0.5603E+02
     -5.851  0.2442E+02  0.2522E+02  0.5754E+02  0.5760E+02
     -5.789  0.2395E+02  0.2423E+02  0.5904E+02  0.5911E+02
     -5.726  0.4354E+02  0.4232E+02  0.6175E+02  0.6175E+02
     -5.664  0.2979E+02  0.2980E+02  0.6361E+02  0.6361E+02
     -5.602  0.6301E+01  0.6230E+01  0.6400E+02  0.6400E+02
     -5.539  0.6049E+01  0.7411E+01  0.6438E+02  0.6446E+02
     -5.477  0.3311E+02  0.3158E+02  0.6644E+02  0.6643E+02
     -5.415  0.2501E+02  0.2518E+02  0.6800E+02  0.6800E+02
     -5.352  0.0000E+00  0.0000E+00  0.6800E+02  0.6800E+02
     -5.290  0.2969E+01  0.2213E+01  0.6819E+02  0.6814E+02
     -5.228  0.3781E+02  0.3847E+02  0.7054E+02  0.7054E+02
     -5.165  0.3353E+02  0.3346E+02  0.7263E+02  0.7262E+02
     -5.103  0.3622E+02  0.3515E+02  0.7489E+02  0.7481E+02
     -5.041  0.2025E+02  0.2106E+02  0.7615E+02  0.7613E+02
     -4.978  0.5385E+02  0.5409E+02  0.7951E+02  0.7950E+02
     -4.916  0.2754E+02  0.2739E+02  0.8123E+02  0.8121E+02
     -4.854  0.5406E+02  0.5435E+02  0.8460E+02  0.8460E+02
     -4.791  0.5199E+02  0.5156E+02  0.8784E+02  0.8781E+02
     -4.729  0.1814E+02  0.1831E+02  0.8897E+02  0.8895E+02
     -4.667  0.4702E+02  0.4656E+02  0.9190E+02  0.9186E+02
     -4.604  0.3331E+02  0.3403E+02  0.9398E+02  0.9398E+02
     -4.542  0.1686E+02  0.1675E+02  0.9503E+02  0.9502E+02
     -4.480  0.4918E+02  0.4889E+02  0.9810E+02  0.9807E+02
     -4.417  0.4188E+02  0.4111E+02  0.1007E+03  0.1006E+03
     -4.355  0.6204E+02  0.6156E+02  0.1046E+03  0.1045E+03
     -4.293  0.6028E+02  0.6064E+02  0.1083E+03  0.1083E+03
     -4.230  0.4403E+02  0.4490E+02  0.1111E+03  0.1111E+03
     -4.168  0.5298E+02  0.5219E+02  0.1144E+03  0.1143E+03
     -4.106  0.6113E+02  0.6190E+02  0.1182E+03  0.1182E+03
     -4.043  0.4772E+02  0.4694E+02  0.1212E+03  0.1211E+03
     -3.981  0.5394E+02  0.5500E+02  0.1245E+03  0.1245E+03
     -3.919  0.7745E+02  0.7772E+02  0.1294E+03  0.1294E+03
     -3.856  0.4071E+02  0.4058E+02  0.1319E+03  0.1319E+03
     -3.794  0.4366E+02  0.4361E+02  0.1346E+03  0.1346E+03
     -3.732  0.6799E+02  0.6693E+02  0.1389E+03  0.1388E+03
     -3.669  0.5176E+02  0.5241E+02  0.1421E+03  0.1421E+03
     -3.607  0.5503E+02  0.5575E+02  0.1455E+03  0.1455E+03
     -3.545  0.5234E+02  0.5116E+02  0.1488E+03  0.1487E+03
     -3.482  0.4144E+02  0.4255E+02  0.1514E+03  0.1514E+03
     -3.420  0.5154E+02  0.5094E+02  0.1546E+03  0.1546E+03
     -3.358  0.4014E+02  0.4095E+02  0.1571E+03  0.1571E+03
     -3.295  0.5748E+02  0.5736E+02  0.1607E+03  0.1607E+03
     -3.233  0.4845E+02  0.4855E+02  0.1637E+03  0.1637E+03
     -3.171  0.5419E+02  0.5408E+02  0.1671E+03  0.1671E+03
     -3.108  0.6384E+02  0.6386E+02  0.1711E+03  0.1711E+03
     -3.046  0.5171E+02  0.5138E+02  0.1743E+03  0.1743E+03
     -2.983  0.4076E+02  0.4121E+02  0.1768E+03  0.1768E+03
     -2.921  0.5361E+02  0.5393E+02  0.1802E+03  0.1802E+03
     -2.859  0.5031E+02  0.4990E+02  0.1833E+03  0.1833E+03
     -2.796  0.6122E+02  0.6025E+02  0.1871E+03  0.1871E+03
     -2.734  0.5947E+02  0.5974E+02  0.1908E+03  0.1908E+03
     -2.672  0.5369E+02  0.5309E+02  0.1942E+03  0.1941E+03
     -2.609  0.5315E+02  0.5329E+02  0.1975E+03  0.1974E+03
     -2.547  0.7307E+02  0.7399E+02  0.2020E+03  0.2020E+03
     -2.485  0.5810E+02  0.5808E+02  0.2057E+03  0.2057E+03
     -2.422  0.7097E+02  0.7072E+02  0.2101E+03  0.2101E+03
     -2.360  0.6341E+02  0.6363E+02  0.2140E+03  0.2140E+03
     -2.298  0.7054E+02  0.6932E+02  0.2184E+03  0.2184E+03
     -2.235  0.6518E+02  0.6495E+02  0.2225E+03  0.2224E+03
     -2.173  0.5930E+02  0.6072E+02  0.2262E+03  0.2262E+03
     -2.111  0.7075E+02  0.6860E+02  0.2306E+03  0.2305E+03
     -2.048  0.8407E+02  0.8373E+02  0.2359E+03  0.2357E+03
     -1.986  0.8185E+02  0.8212E+02  0.2410E+03  0.2408E+03
     -1.924  0.6436E+02  0.6551E+02  0.2450E+03  0.2449E+03
     -1.861  0.9028E+02  0.9012E+02  0.2506E+03  0.2505E+03
     -1.799  0.6796E+02  0.6852E+02  0.2548E+03  0.2548E+03
     -1.737  0.6407E+02  0.6386E+02  0.2588E+03  0.2588E+03
     -1.674  0.7330E+02  0.7284E+02  0.2634E+03  0.2633E+03
     -1.612  0.6865E+02  0.6923E+02  0.2677E+03  0.2676E+03
     -1.550  0.6807E+02  0.6834E+02  0.2719E+03  0.2719E+03
     -1.487  0.7082E+02  0.7078E+02  0.2764E+03  0.2763E+03
     -1.425  0.6821E+02  0.6831E+02  0.2806E+03  0.2806E+03
     -1.363  0.5038E+02  0.4950E+02  0.2837E+03  0.2837E+03
     -1.300  0.7695E+02  0.7618E+02  0.2885E+03  0.2884E+03
     -1.238  0.6826E+02  0.6714E+02  0.2928E+03  0.2926E+03
     -1.176  0.6542E+02  0.6797E+02  0.2969E+03  0.2968E+03
     -1.113  0.5776E+02  0.5714E+02  0.3005E+03  0.3004E+03
     -1.051  0.7061E+02  0.7161E+02  0.3049E+03  0.3049E+03
     -0.989  0.7639E+02  0.7613E+02  0.3096E+03  0.3096E+03
     -0.926  0.5419E+02  0.5478E+02  0.3130E+03  0.3130E+03
     -0.864  0.6694E+02  0.6748E+02  0.3172E+03  0.3172E+03
     -0.802  0.5877E+02  0.5838E+02  0.3209E+03  0.3209E+03
     -0.739  0.6111E+02  0.5979E+02  0.3247E+03  0.3246E+03
     -0.677  0.6188E+02  0.6315E+02  0.3285E+03  0.3285E+03
     -0.615  0.6342E+02  0.6412E+02  0.3325E+03  0.3325E+03
     -0.552  0.5880E+02  0.5832E+02  0.3362E+03  0.3362E+03
     -0.490  0.6520E+02  0.6550E+02  0.3402E+03  0.3403E+03
     -0.428  0.6938E+02  0.6725E+02  0.3445E+03  0.3444E+03
     -0.365  0.7086E+02  0.7327E+02  0.3490E+03  0.3490E+03
     -0.303  0.6496E+02  0.6386E+02  0.3530E+03  0.3530E+03
     -0.241  0.6446E+02  0.6301E+02  0.3570E+03  0.3569E+03
     -0.178  0.7281E+02  0.7407E+02  0.3616E+03  0.3615E+03
     -0.116  0.1012E+03  0.1020E+03  0.3679E+03  0.3679E+03
     -0.053  0.8908E+02  0.8561E+02  0.3734E+03  0.3732E+03
      0.009  0.6879E+02  0.7030E+02  0.3777E+03  0.3776E+03
      0.071  0.9878E+02  0.9909E+02  0.3839E+03  0.3838E+03
      0.134  0.8583E+02  0.8544E+02  0.3892E+03  0.3891E+03
      0.196  0.8523E+02  0.8431E+02  0.3946E+03  0.3944E+03
      0.258  0.7161E+02  0.7347E+02  0.3990E+03  0.3990E+03
      0.321  0.9171E+02  0.8875E+02  0.4047E+03  0.4045E+03
      0.383  0.8489E+02  0.8206E+02  0.4100E+03  0.4096E+03
      0.445  0.9137E+02  0.9201E+02  0.4157E+03  0.4154E+03
      0.508  0.9039E+02  0.9151E+02  0.4214E+03  0.4211E+03
      0.570  0.7807E+02  0.7994E+02  0.4262E+03  0.4261E+03
      0.632  0.9168E+02  0.9162E+02  0.4319E+03  0.4318E+03
      0.695  0.8697E+02  0.8214E+02  0.4374E+03  0.4369E+03
      0.757  0.9271E+02  0.9493E+02  0.4432E+03  0.4428E+03
      0.819  0.8904E+02  0.9065E+02  0.4487E+03  0.4485E+03
      0.882  0.8650E+02  0.8720E+02  0.4541E+03  0.4539E+03
      0.944  0.8593E+02  0.8777E+02  0.4595E+03  0.4594E+03
      1.006  0.8854E+02  0.8823E+02  0.4650E+03  0.4649E+03
      1.069  0.7871E+02  0.8017E+02  0.4699E+03  0.4699E+03
      1.131  0.8592E+02  0.8591E+02  0.4752E+03  0.4752E+03
      1.193  0.8457E+02  0.7295E+02  0.4805E+03  0.4798E+03
      1.256  0.7597E+02  0.8123E+02  0.4853E+03  0.4848E+03
      1.318  0.8378E+02  0.8233E+02  0.4905E+03  0.4900E+03
      1.380  0.7681E+02  0.8034E+02  0.4953E+03  0.4950E+03
      1.443  0.8018E+02  0.7683E+02  0.5003E+03  0.4998E+03
      1.505  0.9647E+02  0.1018E+03  0.5063E+03  0.5061E+03
      1.567  0.7859E+02  0.7901E+02  0.5112E+03  0.5111E+03
      1.630  0.7896E+02  0.8423E+02  0.5161E+03  0.5163E+03
      1.692  0.1042E+03  0.1003E+03  0.5226E+03  0.5226E+03
      1.754  0.9789E+02  0.9315E+02  0.5287E+03  0.5284E+03
      1.817  0.8427E+02  0.8467E+02  0.5340E+03  0.5337E+03
      1.879  0.9906E+02  0.1002E+03  0.5401E+03  0.5399E+03
      1.941  0.7766E+02  0.8199E+02  0.5450E+03  0.5450E+03
      2.004  0.9381E+02  0.8874E+02  0.5508E+03  0.5506E+03
      2.066  0.8726E+02  0.8934E+02  0.5563E+03  0.5561E+03
      2.128  0.9788E+02  0.9910E+02  0.5624E+03  0.5623E+03
      2.191  0.9335E+02  0.9182E+02  0.5682E+03  0.5680E+03
      2.253  0.9501E+02  0.9527E+02  0.5741E+03  0.5740E+03
      2.315  0.9478E+02  0.9431E+02  0.5800E+03  0.5799E+03
      2.378  0.1059E+03  0.1048E+03  0.5866E+03  0.5864E+03
      2.440  0.1053E+03  0.1061E+03  0.5932E+03  0.5930E+03
      2.502  0.1089E+03  0.1098E+03  0.6000E+03  0.5998E+03
      2.565  0.1045E+03  0.1094E+03  0.6065E+03  0.6067E+03
      2.627  0.9893E+02  0.9598E+02  0.6127E+03  0.6127E+03
      2.689  0.1235E+03  0.1199E+03  0.6204E+03  0.6201E+03
      2.752  0.1060E+03  0.1057E+03  0.6270E+03  0.6267E+03
      2.814  0.1279E+03  0.1287E+03  0.6350E+03  0.6347E+03
      2.877  0.1168E+03  0.1131E+03  0.6422E+03  0.6418E+03
      2.939  0.1168E+03  0.1216E+03  0.6495E+03  0.6494E+03
      3.001  0.1419E+03  0.1350E+03  0.6584E+03  0.6578E+03
      3.064  0.1126E+03  0.1187E+03  0.6654E+03  0.6652E+03
      3.126  0.1220E+03  0.1211E+03  0.6730E+03  0.6728E+03
      3.188  0.1059E+03  0.1075E+03  0.6796E+03  0.6795E+03
      3.251  0.1174E+03  0.1136E+03  0.6869E+03  0.6865E+03
      3.313  0.1325E+03  0.1331E+03  0.6952E+03  0.6948E+03
      3.375  0.1210E+03  0.1237E+03  0.7027E+03  0.7026E+03
      3.438  0.1304E+03  0.1147E+03  0.7109E+03  0.7097E+03
      3.500  0.1206E+03  0.1301E+03  0.7184E+03  0.7178E+03
      3.562  0.1333E+03  0.1362E+03  0.7267E+03  0.7263E+03
      3.625  0.1186E+03  0.1230E+03  0.7341E+03  0.7340E+03
      3.687  0.1276E+03  0.1255E+03  0.7420E+03  0.7418E+03
      3.749  0.1190E+03  0.1177E+03  0.7495E+03  0.7492E+03
      3.812  0.1080E+03  0.1104E+03  0.7562E+03  0.7560E+03
      3.874  0.1346E+03  0.1345E+03  0.7646E+03  0.7644E+03
      3.936  0.1206E+03  0.1144E+03  0.7721E+03  0.7716E+03
      3.999  0.1196E+03  0.1321E+03  0.7796E+03  0.7798E+03
      4.061  0.1132E+03  0.1071E+03  0.7866E+03  0.7865E+03
      4.123  0.1189E+03  0.1144E+03  0.7940E+03  0.7936E+03
      4.186  0.1129E+03  0.1216E+03  0.8011E+03  0.8012E+03
      4.248  0.1190E+03  0.1236E+03  0.8085E+03  0.8089E+03
      4.310  0.1141E+03  0.1065E+03  0.8156E+03  0.8155E+03
      4.373  0.1101E+03  0.1112E+03  0.8225E+03  0.8225E+03
      4.435  0.1103E+03  0.1172E+03  0.8294E+03  0.8298E+03
      4.497  0.1184E+03  0.1077E+03  0.8367E+03  0.8365E+03
      4.560  0.1018E+03  0.1044E+03  0.8431E+03  0.8430E+03
      4.622  0.1197E+03  0.1247E+03  0.8506E+03  0.8508E+03
      4.684  0.1134E+03  0.1117E+03  0.8576E+03  0.8577E+03
      4.747  0.1230E+03  0.1103E+03  0.8653E+03  0.8646E+03
      4.809  0.1022E+03  0.1089E+03  0.8717E+03  0.8714E+03
      4.871  0.1015E+03  0.9256E+02  0.8780E+03  0.8772E+03
      4.934  0.1004E+03  0.1032E+03  0.8843E+03  0.8836E+03
      4.996  0.9749E+02  0.9864E+02  0.8903E+03  0.8898E+03
      5.058  0.9949E+02  0.9790E+02  0.8965E+03  0.8959E+03
      5.121  0.1002E+03  0.9384E+02  0.9028E+03  0.9017E+03
      5.183  0.1110E+03  0.1002E+03  0.9097E+03  0.9080E+03
      5.245  0.8830E+02  0.8125E+02  0.9152E+03  0.9130E+03
      5.308  0.1096E+03  0.9908E+02  0.9220E+03  0.9192E+03
      5.370  0.1152E+03  0.1022E+03  0.9292E+03  0.9256E+03
      5.432  0.1154E+03  0.1113E+03  0.9364E+03  0.9325E+03
      5.495  0.1085E+03  0.9576E+02  0.9432E+03  0.9385E+03
      5.557  0.9497E+02  0.1002E+03  0.9491E+03  0.9447E+03
      5.619  0.1088E+03  0.1089E+03  0.9559E+03  0.9515E+03
      5.682  0.9858E+02  0.9190E+02  0.9620E+03  0.9573E+03
      5.744  0.1012E+03  0.1217E+03  0.9684E+03  0.9649E+03
      5.806  0.1027E+03  0.9746E+02  0.9748E+03  0.9709E+03
      5.869  0.9688E+02  0.1183E+03  0.9808E+03  0.9783E+03
      5.931  0.1100E+03  0.1026E+03  0.9877E+03  0.9847E+03
      5.994  0.9686E+02  0.1066E+03  0.9937E+03  0.9914E+03
      6.056  0.1174E+03  0.1055E+03  0.1001E+04  0.9979E+03
      6.118  0.1065E+03  0.1109E+03  0.1008E+04  0.1005E+04
      6.181  0.1101E+03  0.1248E+03  0.1015E+04  0.1013E+04
      6.243  0.1169E+03  0.1152E+03  0.1022E+04  0.1020E+04
      6.305  0.1088E+03  0.1133E+03  0.1029E+04  0.1027E+04
      6.368  0.1003E+03  0.1067E+03  0.1035E+04  0.1034E+04
      6.430  0.1242E+03  0.1178E+03  0.1043E+04  0.1041E+04
      6.492  0.1188E+03  0.1219E+03  0.1050E+04  0.1048E+04
      6.555  0.1074E+03  0.1213E+03  0.1057E+04  0.1056E+04
      6.617  0.1181E+03  0.1216E+03  0.1064E+04  0.1064E+04
      6.679  0.1157E+03  0.1124E+03  0.1071E+04  0.1071E+04
      6.742  0.1272E+03  0.1341E+03  0.1079E+04  0.1079E+04
      6.804  0.1203E+03  0.1161E+03  0.1087E+04  0.1086E+04
      6.866  0.1294E+03  0.1171E+03  0.1095E+04  0.1094E+04
      6.929  0.1146E+03  0.1201E+03  0.1102E+04  0.1101E+04
      6.991  0.1137E+03  0.1307E+03  0.1109E+04  0.1109E+04
      7.053  0.1263E+03  0.1060E+03  0.1117E+04  0.1116E+04
      7.116  0.1105E+03  0.1127E+03  0.1124E+04  0.1123E+04
      7.178  0.1152E+03  0.1260E+03  0.1131E+04  0.1131E+04
      7.240  0.1123E+03  0.1113E+03  0.1138E+04  0.1138E+04
      7.303  0.1245E+03  0.1197E+03  0.1146E+04  0.1145E+04
      7.365  0.1111E+03  0.1211E+03  0.1153E+04  0.1153E+04
      7.427  0.1140E+03  0.1137E+03  0.1160E+04  0.1160E+04
      7.490  0.1197E+03  0.1128E+03  0.1167E+04  0.1167E+04
      7.552  0.1189E+03  0.1179E+03  0.1175E+04  0.1174E+04
      7.614  0.1091E+03  0.9675E+02  0.1181E+04  0.1180E+04
      7.677  0.1214E+03  0.1266E+03  0.1189E+04  0.1188E+04
      7.739  0.1282E+03  0.1266E+03  0.1197E+04  0.1196E+04
      7.801  0.1320E+03  0.1203E+03  0.1205E+04  0.1203E+04
      7.864  0.1309E+03  0.1268E+03  0.1213E+04  0.1211E+04
      7.926  0.1233E+03  0.1168E+03  0.1221E+04  0.1219E+04
      7.988  0.1255E+03  0.1286E+03  0.1229E+04  0.1227E+04
      8.051  0.1356E+03  0.1306E+03  0.1237E+04  0.1235E+04
      8.113  0.1233E+03  0.1382E+03  0.1245E+04  0.1243E+04
      8.175  0.1501E+03  0.1350E+03  0.1254E+04  0.1252E+04
      8.238  0.1207E+03  0.1444E+03  0.1262E+04  0.1261E+04
      8.300  0.9246E+02  0.1023E+03  0.1268E+04  0.1267E+04
      8.362  0.1305E+02  0.4114E+02  0.1269E+04  0.1270E+04
      8.425  0.2251E+02  0.8118E+01  0.1270E+04  0.1270E+04
      8.487  0.2168E+02  0.2109E+02  0.1271E+04  0.1272E+04
      8.549  0.1134E+02  0.6849E+01  0.1272E+04  0.1272E+04
      8.612  0.0000E+00  0.0000E+00  0.1272E+04  0.1272E+04
      8.674  0.0000E+00  0.0000E+00  0.1272E+04  0.1272E+04
      8.736  0.0000E+00  0.0000E+00  0.1272E+04  0.1272E+04
      8.799  0.0000E+00  0.0000E+00  0.1272E+04  0.1272E+04
      8.861  0.0000E+00  0.0000E+00  0.1272E+04  0.1272E+04
      8.924  0.0000E+00  0.0000E+00  0.1272E+04  0.1272E+04
      8.986  0.0000E+00  0.0000E+00  0.1272E+04  0.1272E+04
      9.048  0.0000E+00  0.0000E+00  0.1272E+04  0.1272E+04
      9.111  0.0000E+00  0.0000E+00  0.1272E+04  0.1272E+04
      9.173  0.0000E+00  0.0000E+00  0.1272E+04  0.1272E+04
      9.235  0.0000E+00  0.0000E+00  0.1272E+04  0.1272E+04
      9.298  0.0000E+00  0.0000E+00  0.1272E+04  0.1272E+04
      9.360  0.0000E+00  0.0000E+00  0.1272E+04  0.1272E+04
