 264 264   0   0
  0.2770664E+02  0.1946760E-08  0.1946760E-08  0.1930025E-08  0.5000000E-15
  1.000000000000000E-004
  CAR 
 Si and Ge interface calculation         
      6.64969586     -8.90982946  301      4.05113303      1.00000000
     -8.910  0.0000E+00  0.0000E+00  0.0000E+00  0.0000E+00
     -8.858  0.0000E+00  0.0000E+00  0.0000E+00  0.0000E+00
     -8.806  0.0000E+00  0.0000E+00  0.0000E+00  0.0000E+00
     -8.754  0.0000E+00  0.0000E+00  0.0000E+00  0.0000E+00
     -8.702  0.0000E+00  0.0000E+00  0.0000E+00  0.0000E+00
     -8.651  0.0000E+00  0.0000E+00  0.0000E+00  0.0000E+00
     -8.599  0.0000E+00  0.0000E+00  0.0000E+00  0.0000E+00
     -8.547  0.0000E+00  0.0000E+00  0.0000E+00  0.0000E+00
     -8.495  0.0000E+00  0.0000E+00  0.0000E+00  0.0000E+00
     -8.443  0.0000E+00  0.0000E+00  0.0000E+00  0.0000E+00
     -8.391  0.0000E+00  0.0000E+00  0.0000E+00  0.0000E+00
     -8.339  0.0000E+00  0.0000E+00  0.0000E+00  0.0000E+00
     -8.287  0.0000E+00  0.0000E+00  0.0000E+00  0.0000E+00
     -8.236  0.1444E-04  0.3439E-05  0.7492E-06  0.1784E-06
     -8.184  0.9672E+01  0.9584E+01  0.5016E+00  0.4971E+00
     -8.132  0.2840E+02  0.2812E+02  0.1975E+01  0.1955E+01
     -8.080  0.2171E+01  0.1890E+01  0.2087E+01  0.2053E+01
     -8.028  0.1852E+02  0.1878E+02  0.3048E+01  0.3027E+01
     -7.976  0.1555E+02  0.1495E+02  0.3854E+01  0.3803E+01
     -7.924  0.2050E+02  0.2058E+02  0.4917E+01  0.4870E+01
     -7.873  0.1098E+02  0.1171E+02  0.5487E+01  0.5477E+01
     -7.821  0.1380E+02  0.1257E+02  0.6202E+01  0.6129E+01
     -7.769  0.1359E+02  0.1422E+02  0.6907E+01  0.6866E+01
     -7.717  0.3918E+02  0.3826E+02  0.8939E+01  0.8851E+01
     -7.665  0.2530E+02  0.2568E+02  0.1025E+02  0.1018E+02
     -7.613  0.4790E+01  0.6122E+01  0.1050E+02  0.1050E+02
     -7.561  0.9844E+01  0.9728E+01  0.1101E+02  0.1100E+02
     -7.509  0.9451E+01  0.9558E+01  0.1150E+02  0.1150E+02
     -7.458  0.1154E+02  0.1088E+02  0.1210E+02  0.1206E+02
     -7.406  0.4594E+02  0.4492E+02  0.1448E+02  0.1439E+02
     -7.354  0.2004E+02  0.2151E+02  0.1552E+02  0.1551E+02
     -7.302  0.4744E+02  0.4431E+02  0.1798E+02  0.1781E+02
     -7.250  0.3530E+02  0.3720E+02  0.1981E+02  0.1974E+02
     -7.198  0.2292E+02  0.2434E+02  0.2100E+02  0.2100E+02
     -7.146  0.9796E+01  0.9705E+01  0.2151E+02  0.2150E+02
     -7.095  0.4783E+02  0.4757E+02  0.2399E+02  0.2397E+02
     -7.043  0.5050E+02  0.4989E+02  0.2661E+02  0.2656E+02
     -6.991  0.1990E+02  0.1991E+02  0.2764E+02  0.2759E+02
     -6.939  0.3197E+02  0.3070E+02  0.2930E+02  0.2918E+02
     -6.887  0.3679E+02  0.3673E+02  0.3121E+02  0.3109E+02
     -6.835  0.4405E+02  0.4616E+02  0.3349E+02  0.3348E+02
     -6.783  0.4692E+02  0.4508E+02  0.3593E+02  0.3582E+02
     -6.731  0.4158E+02  0.4191E+02  0.3808E+02  0.3799E+02
     -6.680  0.4872E+02  0.4530E+02  0.4061E+02  0.4034E+02
     -6.628  0.4463E+02  0.4821E+02  0.4292E+02  0.4284E+02
     -6.576  0.4742E+02  0.4645E+02  0.4538E+02  0.4525E+02
     -6.524  0.5182E+02  0.5096E+02  0.4807E+02  0.4790E+02
     -6.472  0.2932E+02  0.3186E+02  0.4959E+02  0.4955E+02
     -6.420  0.6090E+02  0.5967E+02  0.5275E+02  0.5264E+02
     -6.368  0.3072E+02  0.3053E+02  0.5434E+02  0.5423E+02
     -6.317  0.4220E+02  0.4353E+02  0.5653E+02  0.5648E+02
     -6.265  0.4306E+02  0.4273E+02  0.5877E+02  0.5870E+02
     -6.213  0.3388E+02  0.3481E+02  0.6052E+02  0.6051E+02
     -6.161  0.6277E+02  0.6110E+02  0.6378E+02  0.6367E+02
     -6.109  0.8340E+02  0.8291E+02  0.6810E+02  0.6797E+02
     -6.057  0.6714E+02  0.6676E+02  0.7159E+02  0.7144E+02
     -6.005  0.7757E+02  0.7843E+02  0.7561E+02  0.7551E+02
     -5.954  0.5074E+02  0.5091E+02  0.7824E+02  0.7815E+02
     -5.902  0.6747E+02  0.6667E+02  0.8174E+02  0.8160E+02
     -5.850  0.6469E+02  0.6523E+02  0.8510E+02  0.8499E+02
     -5.798  0.6700E+02  0.6576E+02  0.8857E+02  0.8840E+02
     -5.746  0.8483E+02  0.8455E+02  0.9297E+02  0.9278E+02
     -5.694  0.8329E+02  0.8300E+02  0.9729E+02  0.9709E+02
     -5.642  0.9249E+02  0.9285E+02  0.1021E+03  0.1019E+03
     -5.590  0.7914E+02  0.7842E+02  0.1062E+03  0.1060E+03
     -5.539  0.7911E+02  0.7826E+02  0.1103E+03  0.1100E+03
     -5.487  0.6421E+02  0.6480E+02  0.1136E+03  0.1134E+03
     -5.435  0.6738E+02  0.6806E+02  0.1171E+03  0.1169E+03
     -5.383  0.5816E+02  0.5897E+02  0.1201E+03  0.1200E+03
     -5.331  0.7519E+02  0.7305E+02  0.1240E+03  0.1238E+03
     -5.279  0.8930E+02  0.9041E+02  0.1287E+03  0.1285E+03
     -5.227  0.6772E+02  0.6849E+02  0.1322E+03  0.1320E+03
     -5.176  0.6768E+02  0.6702E+02  0.1357E+03  0.1355E+03
     -5.124  0.5104E+02  0.5197E+02  0.1383E+03  0.1382E+03
     -5.072  0.7780E+02  0.7708E+02  0.1424E+03  0.1422E+03
     -5.020  0.7955E+02  0.7998E+02  0.1465E+03  0.1463E+03
     -4.968  0.6086E+02  0.6072E+02  0.1497E+03  0.1495E+03
     -4.916  0.6737E+02  0.6706E+02  0.1531E+03  0.1530E+03
     -4.864  0.9865E+02  0.9876E+02  0.1583E+03  0.1581E+03
     -4.812  0.1004E+03  0.9861E+02  0.1635E+03  0.1632E+03
     -4.761  0.1057E+03  0.1059E+03  0.1690E+03  0.1687E+03
     -4.709  0.1012E+03  0.1014E+03  0.1742E+03  0.1739E+03
     -4.657  0.1067E+03  0.1081E+03  0.1797E+03  0.1795E+03
     -4.605  0.9971E+02  0.9620E+02  0.1849E+03  0.1845E+03
     -4.553  0.1300E+03  0.1326E+03  0.1916E+03  0.1914E+03
     -4.501  0.1028E+03  0.1024E+03  0.1970E+03  0.1967E+03
     -4.449  0.7903E+02  0.7975E+02  0.2011E+03  0.2009E+03
     -4.398  0.8954E+02  0.8981E+02  0.2057E+03  0.2055E+03
     -4.346  0.8781E+02  0.8584E+02  0.2103E+03  0.2100E+03
     -4.294  0.8142E+02  0.8249E+02  0.2145E+03  0.2143E+03
     -4.242  0.7034E+02  0.6951E+02  0.2182E+03  0.2179E+03
     -4.190  0.7631E+02  0.7758E+02  0.2221E+03  0.2219E+03
     -4.138  0.7406E+02  0.7467E+02  0.2259E+03  0.2258E+03
     -4.086  0.7036E+02  0.7112E+02  0.2296E+03  0.2294E+03
     -4.035  0.5244E+02  0.5369E+02  0.2323E+03  0.2322E+03
     -3.983  0.6788E+02  0.6635E+02  0.2358E+03  0.2357E+03
     -3.931  0.6401E+02  0.6163E+02  0.2392E+03  0.2389E+03
     -3.879  0.8132E+02  0.8047E+02  0.2434E+03  0.2430E+03
     -3.827  0.9115E+02  0.9115E+02  0.2481E+03  0.2478E+03
     -3.775  0.6902E+02  0.7256E+02  0.2517E+03  0.2515E+03
     -3.723  0.5934E+02  0.5807E+02  0.2548E+03  0.2545E+03
     -3.671  0.7268E+02  0.7053E+02  0.2585E+03  0.2582E+03
     -3.620  0.7423E+02  0.7343E+02  0.2624E+03  0.2620E+03
     -3.568  0.4795E+02  0.5325E+02  0.2649E+03  0.2648E+03
     -3.516  0.5767E+02  0.5479E+02  0.2679E+03  0.2676E+03
     -3.464  0.7268E+02  0.7310E+02  0.2716E+03  0.2714E+03
     -3.412  0.8237E+02  0.8008E+02  0.2759E+03  0.2756E+03
     -3.360  0.7398E+02  0.7526E+02  0.2797E+03  0.2795E+03
     -3.308  0.6134E+02  0.6138E+02  0.2829E+03  0.2826E+03
     -3.257  0.8504E+02  0.8346E+02  0.2873E+03  0.2870E+03
     -3.205  0.6681E+02  0.6847E+02  0.2908E+03  0.2905E+03
     -3.153  0.7893E+02  0.7929E+02  0.2949E+03  0.2946E+03
     -3.101  0.9293E+02  0.9315E+02  0.2997E+03  0.2995E+03
     -3.049  0.6843E+02  0.6699E+02  0.3033E+03  0.3029E+03
     -2.997  0.6314E+02  0.6305E+02  0.3065E+03  0.3062E+03
     -2.945  0.8043E+02  0.7868E+02  0.3107E+03  0.3103E+03
     -2.893  0.1020E+03  0.1043E+03  0.3160E+03  0.3157E+03
     -2.842  0.8492E+02  0.8627E+02  0.3204E+03  0.3202E+03
     -2.790  0.7092E+02  0.7018E+02  0.3241E+03  0.3238E+03
     -2.738  0.1133E+03  0.1136E+03  0.3300E+03  0.3297E+03
     -2.686  0.9476E+02  0.9323E+02  0.3349E+03  0.3345E+03
     -2.634  0.9230E+02  0.9655E+02  0.3397E+03  0.3396E+03
     -2.582  0.9333E+02  0.8641E+02  0.3445E+03  0.3440E+03
     -2.530  0.1302E+03  0.1341E+03  0.3512E+03  0.3510E+03
     -2.479  0.1140E+03  0.1132E+03  0.3572E+03  0.3569E+03
     -2.427  0.8793E+02  0.8925E+02  0.3617E+03  0.3615E+03
     -2.375  0.1001E+03  0.9957E+02  0.3669E+03  0.3667E+03
     -2.323  0.8733E+02  0.8728E+02  0.3714E+03  0.3712E+03
     -2.271  0.1124E+03  0.1124E+03  0.3773E+03  0.3770E+03
     -2.219  0.6903E+02  0.7162E+02  0.3809E+03  0.3807E+03
     -2.167  0.5165E+02  0.5083E+02  0.3835E+03  0.3834E+03
     -2.116  0.6357E+02  0.6365E+02  0.3868E+03  0.3867E+03
     -2.064  0.4725E+02  0.4329E+02  0.3893E+03  0.3889E+03
     -2.012  0.8353E+02  0.8613E+02  0.3936E+03  0.3934E+03
     -1.960  0.9173E+02  0.8923E+02  0.3984E+03  0.3980E+03
     -1.908  0.8443E+02  0.8679E+02  0.4027E+03  0.4025E+03
     -1.856  0.9769E+02  0.9686E+02  0.4078E+03  0.4075E+03
     -1.804  0.8373E+02  0.8539E+02  0.4122E+03  0.4120E+03
     -1.752  0.8885E+02  0.8714E+02  0.4168E+03  0.4165E+03
     -1.701  0.8445E+02  0.8532E+02  0.4211E+03  0.4209E+03
     -1.649  0.8225E+02  0.8194E+02  0.4254E+03  0.4252E+03
     -1.597  0.7559E+02  0.7543E+02  0.4293E+03  0.4291E+03
     -1.545  0.8594E+02  0.8645E+02  0.4338E+03  0.4336E+03
     -1.493  0.8212E+02  0.8244E+02  0.4380E+03  0.4378E+03
     -1.441  0.5654E+02  0.5758E+02  0.4410E+03  0.4408E+03
     -1.389  0.3537E+02  0.3491E+02  0.4428E+03  0.4426E+03
     -1.338  0.6310E+02  0.6279E+02  0.4461E+03  0.4459E+03
     -1.286  0.7124E+02  0.7083E+02  0.4498E+03  0.4496E+03
     -1.234  0.4792E+02  0.5049E+02  0.4523E+03  0.4522E+03
     -1.182  0.5060E+02  0.4766E+02  0.4549E+03  0.4546E+03
     -1.130  0.6152E+02  0.6260E+02  0.4581E+03  0.4579E+03
     -1.078  0.4839E+02  0.5107E+02  0.4606E+03  0.4605E+03
     -1.026  0.6843E+02  0.6696E+02  0.4641E+03  0.4640E+03
     -0.974  0.3767E+02  0.3768E+02  0.4661E+03  0.4660E+03
     -0.923  0.4561E+02  0.4523E+02  0.4685E+03  0.4683E+03
     -0.871  0.6534E+02  0.6601E+02  0.4719E+03  0.4717E+03
     -0.819  0.4729E+02  0.4670E+02  0.4743E+03  0.4742E+03
     -0.767  0.7535E+02  0.7402E+02  0.4782E+03  0.4780E+03
     -0.715  0.6083E+02  0.5901E+02  0.4814E+03  0.4811E+03
     -0.663  0.5736E+02  0.6078E+02  0.4843E+03  0.4842E+03
     -0.611  0.4037E+02  0.4130E+02  0.4864E+03  0.4864E+03
     -0.560  0.3144E+02  0.2973E+02  0.4881E+03  0.4879E+03
     -0.508  0.2395E+02  0.2681E+02  0.4893E+03  0.4893E+03
     -0.456  0.3503E+02  0.3241E+02  0.4911E+03  0.4910E+03
     -0.404  0.4770E+02  0.4760E+02  0.4936E+03  0.4934E+03
     -0.352  0.5903E+02  0.5771E+02  0.4967E+03  0.4964E+03
     -0.300  0.7373E+02  0.7604E+02  0.5005E+03  0.5004E+03
     -0.248  0.8472E+02  0.8284E+02  0.5049E+03  0.5047E+03
     -0.196  0.6362E+02  0.6445E+02  0.5082E+03  0.5080E+03
     -0.145  0.1158E+03  0.1121E+03  0.5142E+03  0.5138E+03
     -0.093  0.1098E+03  0.1099E+03  0.5199E+03  0.5195E+03
     -0.041  0.1201E+03  0.1186E+03  0.5261E+03  0.5257E+03
      0.011  0.1025E+03  0.1057E+03  0.5314E+03  0.5312E+03
      0.063  0.1535E+03  0.1522E+03  0.5394E+03  0.5390E+03
      0.115  0.1492E+03  0.1504E+03  0.5471E+03  0.5468E+03
      0.167  0.7566E+02  0.7640E+02  0.5510E+03  0.5508E+03
      0.218  0.7684E+02  0.7565E+02  0.5550E+03  0.5547E+03
      0.270  0.1032E+03  0.1042E+03  0.5604E+03  0.5601E+03
      0.322  0.7089E+02  0.7205E+02  0.5641E+03  0.5639E+03
      0.374  0.8407E+02  0.8137E+02  0.5684E+03  0.5681E+03
      0.426  0.1093E+03  0.1115E+03  0.5741E+03  0.5739E+03
      0.478  0.7153E+02  0.7316E+02  0.5778E+03  0.5777E+03
      0.530  0.1096E+03  0.1087E+03  0.5835E+03  0.5833E+03
      0.581  0.1481E+03  0.1438E+03  0.5912E+03  0.5908E+03
      0.633  0.1348E+03  0.1360E+03  0.5982E+03  0.5978E+03
      0.685  0.1396E+03  0.1404E+03  0.6054E+03  0.6051E+03
      0.737  0.1258E+03  0.1257E+03  0.6119E+03  0.6116E+03
      0.789  0.1189E+03  0.1177E+03  0.6181E+03  0.6177E+03
      0.841  0.1062E+03  0.1082E+03  0.6236E+03  0.6233E+03
      0.893  0.8947E+02  0.9090E+02  0.6282E+03  0.6281E+03
      0.945  0.9392E+02  0.9202E+02  0.6331E+03  0.6328E+03
      0.996  0.1119E+03  0.1109E+03  0.6389E+03  0.6386E+03
      1.048  0.1619E+03  0.1568E+03  0.6473E+03  0.6467E+03
      1.100  0.1246E+03  0.1320E+03  0.6538E+03  0.6536E+03
      1.152  0.1242E+03  0.1191E+03  0.6602E+03  0.6597E+03
      1.204  0.1750E+03  0.1728E+03  0.6693E+03  0.6687E+03
      1.256  0.1701E+03  0.1729E+03  0.6781E+03  0.6777E+03
      1.308  0.1688E+03  0.1667E+03  0.6869E+03  0.6863E+03
      1.359  0.1907E+03  0.1913E+03  0.6967E+03  0.6962E+03
      1.411  0.2004E+03  0.2007E+03  0.7071E+03  0.7066E+03
      1.463  0.1300E+03  0.1340E+03  0.7139E+03  0.7136E+03
      1.515  0.1863E+03  0.1791E+03  0.7235E+03  0.7229E+03
      1.567  0.2061E+03  0.2076E+03  0.7342E+03  0.7337E+03
      1.619  0.2073E+03  0.2099E+03  0.7450E+03  0.7445E+03
      1.671  0.1629E+03  0.1608E+03  0.7534E+03  0.7529E+03
      1.723  0.1808E+03  0.1801E+03  0.7628E+03  0.7622E+03
      1.774  0.1931E+03  0.1985E+03  0.7728E+03  0.7725E+03
      1.826  0.1616E+03  0.1550E+03  0.7812E+03  0.7806E+03
      1.878  0.1761E+03  0.1803E+03  0.7903E+03  0.7899E+03
      1.930  0.1825E+03  0.1777E+03  0.7998E+03  0.7991E+03
      1.982  0.2013E+03  0.2042E+03  0.8102E+03  0.8097E+03
      2.034  0.1622E+03  0.1623E+03  0.8187E+03  0.8181E+03
      2.086  0.2025E+03  0.2002E+03  0.8292E+03  0.8285E+03
      2.137  0.1537E+03  0.1566E+03  0.8371E+03  0.8366E+03
      2.189  0.1967E+03  0.1960E+03  0.8473E+03  0.8468E+03
      2.241  0.1651E+03  0.1660E+03  0.8559E+03  0.8554E+03
      2.293  0.1767E+03  0.1757E+03  0.8651E+03  0.8645E+03
      2.345  0.1581E+03  0.1590E+03  0.8733E+03  0.8728E+03
      2.397  0.1989E+03  0.1954E+03  0.8836E+03  0.8829E+03
      2.449  0.1590E+03  0.1640E+03  0.8918E+03  0.8914E+03
      2.500  0.1476E+03  0.1457E+03  0.8995E+03  0.8990E+03
      2.552  0.1676E+03  0.1675E+03  0.9082E+03  0.9076E+03
      2.604  0.1475E+03  0.1487E+03  0.9158E+03  0.9154E+03
      2.656  0.1162E+03  0.1177E+03  0.9218E+03  0.9215E+03
      2.708  0.1439E+03  0.1416E+03  0.9293E+03  0.9288E+03
      2.760  0.1423E+03  0.1446E+03  0.9367E+03  0.9363E+03
      2.812  0.1289E+03  0.1223E+03  0.9434E+03  0.9427E+03
      2.864  0.1537E+03  0.1547E+03  0.9514E+03  0.9507E+03
      2.915  0.1348E+03  0.1337E+03  0.9583E+03  0.9576E+03
      2.967  0.9760E+02  0.1047E+03  0.9634E+03  0.9630E+03
      3.019  0.1419E+03  0.1359E+03  0.9708E+03  0.9701E+03
      3.071  0.1374E+03  0.1409E+03  0.9779E+03  0.9774E+03
      3.123  0.1217E+03  0.1173E+03  0.9842E+03  0.9835E+03
      3.175  0.9676E+02  0.9803E+02  0.9892E+03  0.9886E+03
      3.227  0.1100E+03  0.1112E+03  0.9949E+03  0.9943E+03
      3.278  0.1057E+03  0.1032E+03  0.1000E+04  0.9997E+03
      3.330  0.1232E+03  0.1293E+03  0.1007E+04  0.1006E+04
      3.382  0.6543E+02  0.6777E+02  0.1010E+04  0.1010E+04
      3.434  0.9296E+02  0.8951E+02  0.1015E+04  0.1015E+04
      3.486  0.8605E+02  0.8698E+02  0.1019E+04  0.1019E+04
      3.538  0.7924E+02  0.7707E+02  0.1024E+04  0.1023E+04
      3.590  0.8105E+02  0.8469E+02  0.1028E+04  0.1027E+04
      3.642  0.7437E+02  0.7836E+02  0.1032E+04  0.1032E+04
      3.693  0.5113E+02  0.4933E+02  0.1034E+04  0.1034E+04
      3.745  0.5711E+02  0.5685E+02  0.1037E+04  0.1037E+04
      3.797  0.5006E+02  0.3966E+02  0.1040E+04  0.1039E+04
      3.849  0.5540E+02  0.6770E+02  0.1043E+04  0.1043E+04
      3.901  0.4299E+02  0.4249E+02  0.1045E+04  0.1045E+04
      3.953  0.5941E+02  0.5161E+02  0.1048E+04  0.1047E+04
      4.005  0.8162E+02  0.8385E+02  0.1052E+04  0.1052E+04
      4.056  0.7913E+02  0.6863E+02  0.1056E+04  0.1055E+04
      4.108  0.8989E+02  0.8887E+02  0.1061E+04  0.1060E+04
      4.160  0.1083E+03  0.1141E+03  0.1067E+04  0.1066E+04
      4.212  0.8486E+02  0.8883E+02  0.1071E+04  0.1071E+04
      4.264  0.8676E+02  0.8097E+02  0.1076E+04  0.1075E+04
      4.316  0.9600E+02  0.1005E+03  0.1081E+04  0.1080E+04
      4.368  0.1188E+03  0.1136E+03  0.1087E+04  0.1086E+04
      4.419  0.1233E+03  0.1213E+03  0.1093E+04  0.1092E+04
      4.471  0.1262E+03  0.1309E+03  0.1100E+04  0.1099E+04
      4.523  0.9151E+02  0.9296E+02  0.1104E+04  0.1104E+04
      4.575  0.9351E+02  0.9495E+02  0.1109E+04  0.1109E+04
      4.627  0.1098E+03  0.1072E+03  0.1115E+04  0.1114E+04
      4.679  0.1095E+03  0.1150E+03  0.1121E+04  0.1120E+04
      4.731  0.1199E+03  0.1144E+03  0.1127E+04  0.1126E+04
      4.783  0.1093E+03  0.1114E+03  0.1133E+04  0.1132E+04
      4.834  0.1438E+03  0.1462E+03  0.1140E+04  0.1139E+04
      4.886  0.1004E+03  0.9634E+02  0.1145E+04  0.1144E+04
      4.938  0.1120E+03  0.1162E+03  0.1151E+04  0.1150E+04
      4.990  0.1343E+03  0.1327E+03  0.1158E+04  0.1157E+04
      5.042  0.1338E+03  0.1322E+03  0.1165E+04  0.1164E+04
      5.094  0.1154E+03  0.1176E+03  0.1171E+04  0.1170E+04
      5.146  0.9368E+02  0.9533E+02  0.1176E+04  0.1175E+04
      5.197  0.9768E+02  0.9661E+02  0.1181E+04  0.1180E+04
      5.249  0.1107E+03  0.1086E+03  0.1187E+04  0.1186E+04
      5.301  0.1191E+03  0.1191E+03  0.1193E+04  0.1192E+04
      5.353  0.1225E+03  0.1280E+03  0.1199E+04  0.1199E+04
      5.405  0.1408E+03  0.1356E+03  0.1206E+04  0.1206E+04
      5.457  0.1499E+03  0.1538E+03  0.1214E+04  0.1214E+04
      5.509  0.1271E+03  0.1265E+03  0.1221E+04  0.1220E+04
      5.561  0.1346E+03  0.1316E+03  0.1228E+04  0.1227E+04
      5.612  0.1439E+03  0.1442E+03  0.1235E+04  0.1235E+04
      5.664  0.1361E+03  0.1368E+03  0.1242E+04  0.1242E+04
      5.716  0.1382E+03  0.1390E+03  0.1249E+04  0.1249E+04
      5.768  0.1191E+03  0.1180E+03  0.1256E+04  0.1255E+04
      5.820  0.1321E+03  0.1333E+03  0.1262E+04  0.1262E+04
      5.872  0.1291E+03  0.1270E+03  0.1269E+04  0.1269E+04
      5.924  0.4636E+02  0.5521E+02  0.1272E+04  0.1271E+04
      5.975  0.8983E+01  0.1177E+02  0.1272E+04  0.1272E+04
      6.027  0.0000E+00  0.0000E+00  0.1272E+04  0.1272E+04
      6.079  0.0000E+00  0.0000E+00  0.1272E+04  0.1272E+04
      6.131  0.0000E+00  0.0000E+00  0.1272E+04  0.1272E+04
      6.183  0.0000E+00  0.0000E+00  0.1272E+04  0.1272E+04
      6.235  0.0000E+00  0.0000E+00  0.1272E+04  0.1272E+04
      6.287  0.0000E+00  0.0000E+00  0.1272E+04  0.1272E+04
      6.339  0.0000E+00  0.0000E+00  0.1272E+04  0.1272E+04
      6.390  0.0000E+00  0.0000E+00  0.1272E+04  0.1272E+04
      6.442  0.0000E+00  0.0000E+00  0.1272E+04  0.1272E+04
      6.494  0.0000E+00  0.0000E+00  0.1272E+04  0.1272E+04
      6.546  0.0000E+00  0.0000E+00  0.1272E+04  0.1272E+04
      6.598  0.0000E+00  0.0000E+00  0.1272E+04  0.1272E+04
      6.650  0.0000E+00  0.0000E+00  0.1272E+04  0.1272E+04
