 168 168   0   0
  0.2055162E+02  0.1589523E-08  0.1589523E-08  0.1577942E-08  0.5000000E-15
  1.000000000000000E-004
  CAR 
 Si and Ge interface calculation         
      9.48471098    -11.12536445  301      6.54321767      1.00000000
    -11.125  0.0000E+00  0.0000E+00  0.0000E+00  0.0000E+00
    -11.057  0.0000E+00  0.0000E+00  0.0000E+00  0.0000E+00
    -10.988  0.0000E+00  0.0000E+00  0.0000E+00  0.0000E+00
    -10.919  0.0000E+00  0.0000E+00  0.0000E+00  0.0000E+00
    -10.851  0.0000E+00  0.0000E+00  0.0000E+00  0.0000E+00
    -10.782  0.0000E+00  0.0000E+00  0.0000E+00  0.0000E+00
    -10.713  0.0000E+00  0.0000E+00  0.0000E+00  0.0000E+00
    -10.644  0.0000E+00  0.0000E+00  0.0000E+00  0.0000E+00
    -10.576  0.0000E+00  0.0000E+00  0.0000E+00  0.0000E+00
    -10.507  0.0000E+00  0.0000E+00  0.0000E+00  0.0000E+00
    -10.438  0.0000E+00  0.0000E+00  0.0000E+00  0.0000E+00
    -10.370  0.0000E+00  0.0000E+00  0.0000E+00  0.0000E+00
    -10.301  0.0000E+00  0.0000E+00  0.0000E+00  0.0000E+00
    -10.232  0.2137E-08  0.3585E-10  0.1468E-09  0.2463E-11
    -10.164  0.1324E+02  0.9562E+01  0.9095E+00  0.6569E+00
    -10.095  0.1184E+03  0.1147E+03  0.9043E+01  0.8535E+01
    -10.026  0.1008E+03  0.1081E+03  0.1600E+02  0.1599E+02
     -9.957  0.0000E+00  0.0000E+00  0.1600E+02  0.1600E+02
     -9.889  0.0000E+00  0.0000E+00  0.1600E+02  0.1600E+02
     -9.820  0.0000E+00  0.0000E+00  0.1600E+02  0.1600E+02
     -9.751  0.0000E+00  0.0000E+00  0.1600E+02  0.1600E+02
     -9.683  0.0000E+00  0.0000E+00  0.1600E+02  0.1600E+02
     -9.614  0.0000E+00  0.0000E+00  0.1600E+02  0.1600E+02
     -9.545  0.0000E+00  0.0000E+00  0.1600E+02  0.1600E+02
     -9.477  0.0000E+00  0.0000E+00  0.1600E+02  0.1600E+02
     -9.408  0.0000E+00  0.0000E+00  0.1600E+02  0.1600E+02
     -9.339  0.0000E+00  0.0000E+00  0.1600E+02  0.1600E+02
     -9.270  0.0000E+00  0.0000E+00  0.1600E+02  0.1600E+02
     -9.202  0.0000E+00  0.0000E+00  0.1600E+02  0.1600E+02
     -9.133  0.0000E+00  0.0000E+00  0.1600E+02  0.1600E+02
     -9.064  0.0000E+00  0.0000E+00  0.1600E+02  0.1600E+02
     -8.996  0.7875E+00  0.1270E+00  0.1605E+02  0.1601E+02
     -8.927  0.5743E+02  0.5328E+02  0.2000E+02  0.1967E+02
     -8.858  0.5427E+02  0.5230E+02  0.2373E+02  0.2328E+02
     -8.790  0.6372E+02  0.6495E+02  0.2811E+02  0.2774E+02
     -8.721  0.3894E+02  0.4064E+02  0.3078E+02  0.3053E+02
     -8.652  0.1611E+02  0.1834E+02  0.3189E+02  0.3179E+02
     -8.583  0.1596E+01  0.3022E+01  0.3200E+02  0.3200E+02
     -8.515  0.5047E-04  0.1086E-05  0.3200E+02  0.3200E+02
     -8.446  0.2911E+02  0.2910E+02  0.3400E+02  0.3400E+02
     -8.377  0.4369E+02  0.3871E+02  0.3700E+02  0.3666E+02
     -8.309  0.8188E+02  0.8577E+02  0.4263E+02  0.4255E+02
     -8.240  0.5775E+02  0.5593E+02  0.4659E+02  0.4640E+02
     -8.171  0.1854E+02  0.2014E+02  0.4787E+02  0.4778E+02
     -8.103  0.1908E+01  0.3193E+01  0.4800E+02  0.4800E+02
     -8.034  0.0000E+00  0.0000E+00  0.4800E+02  0.4800E+02
     -7.965  0.0000E+00  0.0000E+00  0.4800E+02  0.4800E+02
     -7.896  0.0000E+00  0.0000E+00  0.4800E+02  0.4800E+02
     -7.828  0.0000E+00  0.0000E+00  0.4800E+02  0.4800E+02
     -7.759  0.0000E+00  0.0000E+00  0.4800E+02  0.4800E+02
     -7.690  0.0000E+00  0.0000E+00  0.4800E+02  0.4800E+02
     -7.622  0.0000E+00  0.0000E+00  0.4800E+02  0.4800E+02
     -7.553  0.0000E+00  0.0000E+00  0.4800E+02  0.4800E+02
     -7.484  0.0000E+00  0.0000E+00  0.4800E+02  0.4800E+02
     -7.416  0.0000E+00  0.0000E+00  0.4800E+02  0.4800E+02
     -7.347  0.0000E+00  0.0000E+00  0.4800E+02  0.4800E+02
     -7.278  0.0000E+00  0.0000E+00  0.4800E+02  0.4800E+02
     -7.209  0.0000E+00  0.0000E+00  0.4800E+02  0.4800E+02
     -7.141  0.0000E+00  0.0000E+00  0.4800E+02  0.4800E+02
     -7.072  0.0000E+00  0.0000E+00  0.4800E+02  0.4800E+02
     -7.003  0.0000E+00  0.0000E+00  0.4800E+02  0.4800E+02
     -6.935  0.0000E+00  0.0000E+00  0.4800E+02  0.4800E+02
     -6.866  0.0000E+00  0.0000E+00  0.4800E+02  0.4800E+02
     -6.797  0.0000E+00  0.0000E+00  0.4800E+02  0.4800E+02
     -6.729  0.0000E+00  0.0000E+00  0.4800E+02  0.4800E+02
     -6.660  0.0000E+00  0.0000E+00  0.4800E+02  0.4800E+02
     -6.591  0.0000E+00  0.0000E+00  0.4800E+02  0.4800E+02
     -6.522  0.0000E+00  0.0000E+00  0.4800E+02  0.4800E+02
     -6.454  0.0000E+00  0.0000E+00  0.4800E+02  0.4800E+02
     -6.385  0.0000E+00  0.0000E+00  0.4800E+02  0.4800E+02
     -6.316  0.0000E+00  0.0000E+00  0.4800E+02  0.4800E+02
     -6.248  0.0000E+00  0.0000E+00  0.4800E+02  0.4800E+02
     -6.179  0.0000E+00  0.0000E+00  0.4800E+02  0.4800E+02
     -6.110  0.0000E+00  0.0000E+00  0.4800E+02  0.4800E+02
     -6.042  0.0000E+00  0.0000E+00  0.4800E+02  0.4800E+02
     -5.973  0.0000E+00  0.0000E+00  0.4800E+02  0.4800E+02
     -5.904  0.0000E+00  0.0000E+00  0.4800E+02  0.4800E+02
     -5.835  0.2002E+01  0.6066E+00  0.4814E+02  0.4804E+02
     -5.767  0.6335E+02  0.6296E+02  0.5249E+02  0.5237E+02
     -5.698  0.1576E+02  0.1667E+02  0.5357E+02  0.5351E+02
     -5.629  0.4859E+02  0.4614E+02  0.5691E+02  0.5668E+02
     -5.561  0.6381E+02  0.6260E+02  0.6130E+02  0.6100E+02
     -5.492  0.6497E+02  0.6242E+02  0.6580E+02  0.6529E+02
     -5.423  0.3176E+02  0.3848E+02  0.6800E+02  0.6800E+02
     -5.355  0.7278E+01  0.7278E+01  0.6850E+02  0.6850E+02
     -5.286  0.1449E+02  0.1425E+02  0.6950E+02  0.6948E+02
     -5.217  0.7353E+02  0.6656E+02  0.7455E+02  0.7407E+02
     -5.148  0.4700E+02  0.4839E+02  0.7779E+02  0.7744E+02
     -5.080  0.3957E+02  0.4042E+02  0.8051E+02  0.8021E+02
     -5.011  0.5779E+02  0.6118E+02  0.8448E+02  0.8442E+02
     -4.942  0.8595E-05  0.1192E+01  0.8450E+02  0.8450E+02
     -4.874  0.2907E+02  0.2887E+02  0.8650E+02  0.8648E+02
     -4.805  0.5346E+02  0.4933E+02  0.9017E+02  0.8989E+02
     -4.736  0.4830E+02  0.5201E+02  0.9349E+02  0.9346E+02
     -4.668  0.4952E+02  0.4582E+02  0.9690E+02  0.9661E+02
     -4.599  0.3773E+02  0.4162E+02  0.9950E+02  0.9950E+02
     -4.530  0.0000E+00  0.0000E+00  0.9950E+02  0.9950E+02
     -4.461  0.1117E+02  0.6411E+01  0.1003E+03  0.9994E+02
     -4.393  0.4035E+02  0.4268E+02  0.1030E+03  0.1029E+03
     -4.324  0.1423E+02  0.1646E+02  0.1040E+03  0.1040E+03
     -4.255  0.4342E+02  0.4361E+02  0.1070E+03  0.1070E+03
     -4.187  0.7198E+01  0.4329E+01  0.1075E+03  0.1073E+03
     -4.118  0.1464E+02  0.1750E+02  0.1085E+03  0.1085E+03
     -4.049  0.5875E+02  0.4732E+02  0.1125E+03  0.1118E+03
     -3.981  0.2847E+02  0.3959E+02  0.1145E+03  0.1145E+03
     -3.912  0.0000E+00  0.0000E+00  0.1145E+03  0.1145E+03
     -3.843  0.0000E+00  0.0000E+00  0.1145E+03  0.1145E+03
     -3.774  0.0000E+00  0.0000E+00  0.1145E+03  0.1145E+03
     -3.706  0.8546E-03  0.1026E-03  0.1145E+03  0.1145E+03
     -3.637  0.4517E+02  0.3918E+02  0.1176E+03  0.1172E+03
     -3.568  0.5067E+02  0.5453E+02  0.1211E+03  0.1209E+03
     -3.500  0.3223E+02  0.3352E+02  0.1233E+03  0.1233E+03
     -3.431  0.6956E+02  0.6234E+02  0.1281E+03  0.1276E+03
     -3.362  0.1151E+03  0.1197E+03  0.1360E+03  0.1358E+03
     -3.294  0.6368E+02  0.6354E+02  0.1404E+03  0.1402E+03
     -3.225  0.5328E+02  0.5219E+02  0.1441E+03  0.1438E+03
     -3.156  0.6114E+01  0.1022E+02  0.1445E+03  0.1445E+03
     -3.087  0.0000E+00  0.0000E+00  0.1445E+03  0.1445E+03
     -3.019  0.8495E-01  0.1825E-01  0.1445E+03  0.1445E+03
     -2.950  0.6420E+02  0.6032E+02  0.1489E+03  0.1486E+03
     -2.881  0.3384E+02  0.3670E+02  0.1512E+03  0.1512E+03
     -2.813  0.1584E+02  0.1506E+02  0.1523E+03  0.1522E+03
     -2.744  0.1679E+02  0.1882E+02  0.1535E+03  0.1535E+03
     -2.675  0.2419E+02  0.1954E+02  0.1552E+03  0.1548E+03
     -2.607  0.3868E+02  0.4061E+02  0.1579E+03  0.1576E+03
     -2.538  0.3160E+02  0.3429E+02  0.1600E+03  0.1600E+03
     -2.469  0.3955E+02  0.3873E+02  0.1628E+03  0.1626E+03
     -2.400  0.5583E+02  0.5617E+02  0.1666E+03  0.1665E+03
     -2.332  0.2880E+02  0.2531E+02  0.1686E+03  0.1683E+03
     -2.263  0.7732E+02  0.7871E+02  0.1739E+03  0.1737E+03
     -2.194  0.5665E+02  0.5361E+02  0.1778E+03  0.1774E+03
     -2.126  0.5027E+02  0.5342E+02  0.1813E+03  0.1811E+03
     -2.057  0.8840E+02  0.8283E+02  0.1873E+03  0.1868E+03
     -1.988  0.7534E+02  0.7752E+02  0.1925E+03  0.1921E+03
     -1.920  0.5984E+02  0.6155E+02  0.1966E+03  0.1963E+03
     -1.851  0.6931E+02  0.6880E+02  0.2014E+03  0.2011E+03
     -1.782  0.5283E+02  0.5228E+02  0.2051E+03  0.2047E+03
     -1.713  0.8194E+02  0.8278E+02  0.2107E+03  0.2103E+03
     -1.645  0.7011E+02  0.7175E+02  0.2155E+03  0.2153E+03
     -1.576  0.4422E+02  0.4060E+02  0.2186E+03  0.2181E+03
     -1.507  0.1232E+03  0.1249E+03  0.2270E+03  0.2267E+03
     -1.439  0.3238E+02  0.3475E+02  0.2293E+03  0.2291E+03
     -1.370  0.6381E+02  0.6129E+02  0.2337E+03  0.2333E+03
     -1.301  0.2579E+02  0.2990E+02  0.2354E+03  0.2353E+03
     -1.233  0.4058E+02  0.3798E+02  0.2382E+03  0.2380E+03
     -1.164  0.3920E+01  0.7619E+01  0.2385E+03  0.2385E+03
     -1.095  0.1791E+02  0.1564E+02  0.2397E+03  0.2396E+03
     -1.026  0.4056E+02  0.4262E+02  0.2425E+03  0.2425E+03
     -0.958  0.3637E+02  0.3136E+02  0.2450E+03  0.2447E+03
     -0.889  0.5159E+02  0.5072E+02  0.2486E+03  0.2481E+03
     -0.820  0.3162E+02  0.3747E+02  0.2507E+03  0.2507E+03
     -0.752  0.3105E+01  0.1566E+01  0.2510E+03  0.2508E+03
     -0.683  0.2010E+02  0.1773E+02  0.2523E+03  0.2520E+03
     -0.614  0.1525E+02  0.1727E+02  0.2534E+03  0.2532E+03
     -0.546  0.1431E+02  0.1425E+02  0.2544E+03  0.2542E+03
     -0.477  0.2323E+02  0.2443E+02  0.2560E+03  0.2559E+03
     -0.408  0.1031E+02  0.8589E+01  0.2567E+03  0.2565E+03
     -0.339  0.1880E+02  0.2209E+02  0.2580E+03  0.2580E+03
     -0.271  0.2908E+02  0.2880E+02  0.2600E+03  0.2600E+03
     -0.202  0.7305E+01  0.7282E+01  0.2605E+03  0.2605E+03
     -0.133  0.5652E+02  0.4609E+02  0.2644E+03  0.2637E+03
     -0.065  0.4097E+02  0.4547E+02  0.2672E+03  0.2668E+03
      0.004  0.3003E+02  0.3428E+02  0.2693E+03  0.2692E+03
      0.073  0.8616E+02  0.8654E+02  0.2752E+03  0.2751E+03
      0.141  0.5902E+02  0.4939E+02  0.2793E+03  0.2786E+03
      0.210  0.8082E+02  0.8494E+02  0.2848E+03  0.2844E+03
      0.279  0.5058E+02  0.4828E+02  0.2883E+03  0.2877E+03
      0.348  0.8150E+02  0.8487E+02  0.2940E+03  0.2936E+03
      0.416  0.5432E+02  0.5582E+02  0.2977E+03  0.2974E+03
      0.485  0.8980E+02  0.8944E+02  0.3039E+03  0.3036E+03
      0.554  0.5282E+02  0.5413E+02  0.3075E+03  0.3073E+03
      0.622  0.4216E+02  0.3964E+02  0.3104E+03  0.3101E+03
      0.691  0.7417E+02  0.7477E+02  0.3155E+03  0.3152E+03
      0.760  0.6724E+02  0.6814E+02  0.3201E+03  0.3199E+03
      0.828  0.3812E+02  0.2854E+02  0.3228E+03  0.3219E+03
      0.897  0.5322E+02  0.6142E+02  0.3264E+03  0.3261E+03
      0.966  0.3650E+02  0.3822E+02  0.3290E+03  0.3287E+03
      1.035  0.7892E+02  0.7534E+02  0.3344E+03  0.3339E+03
      1.103  0.5522E+02  0.5825E+02  0.3382E+03  0.3379E+03
      1.172  0.5123E+02  0.5404E+02  0.3417E+03  0.3417E+03
      1.241  0.5891E+02  0.5380E+02  0.3458E+03  0.3454E+03
      1.309  0.2675E+02  0.3116E+02  0.3477E+03  0.3475E+03
      1.378  0.9101E+02  0.9130E+02  0.3539E+03  0.3538E+03
      1.447  0.4527E+02  0.4383E+02  0.3570E+03  0.3568E+03
      1.515  0.2423E+02  0.2504E+02  0.3587E+03  0.3586E+03
      1.584  0.2516E+02  0.2151E+02  0.3604E+03  0.3601E+03
      1.653  0.5213E+02  0.5307E+02  0.3640E+03  0.3637E+03
      1.722  0.8084E+02  0.7735E+02  0.3696E+03  0.3690E+03
      1.790  0.4271E+02  0.4702E+02  0.3725E+03  0.3723E+03
      1.859  0.3030E+02  0.3063E+02  0.3746E+03  0.3744E+03
      1.928  0.5487E+02  0.5632E+02  0.3784E+03  0.3782E+03
      1.996  0.6126E+01  0.7425E+01  0.3788E+03  0.3788E+03
      2.065  0.7866E+02  0.7429E+02  0.3842E+03  0.3839E+03
      2.134  0.2948E+02  0.3442E+02  0.3862E+03  0.3862E+03
      2.202  0.1949E+02  0.1441E+02  0.3876E+03  0.3872E+03
      2.271  0.4138E+02  0.4448E+02  0.3904E+03  0.3903E+03
      2.340  0.2088E+02  0.2003E+02  0.3919E+03  0.3917E+03
      2.409  0.8191E+02  0.8213E+02  0.3975E+03  0.3973E+03
      2.477  0.3980E+02  0.4081E+02  0.4003E+03  0.4002E+03
      2.546  0.6281E+02  0.5577E+02  0.4046E+03  0.4040E+03
      2.615  0.4124E+02  0.4773E+02  0.4074E+03  0.4073E+03
      2.683  0.2685E+02  0.2630E+02  0.4093E+03  0.4091E+03
      2.752  0.3708E+02  0.3543E+02  0.4118E+03  0.4115E+03
      2.821  0.8818E+02  0.7945E+02  0.4179E+03  0.4170E+03
      2.889  0.4460E+02  0.5637E+02  0.4210E+03  0.4208E+03
      2.958  0.6725E+02  0.6800E+02  0.4256E+03  0.4255E+03
      3.027  0.2740E+02  0.2557E+02  0.4275E+03  0.4273E+03
      3.096  0.8161E+02  0.7848E+02  0.4331E+03  0.4327E+03
      3.164  0.5107E+02  0.5364E+02  0.4367E+03  0.4364E+03
      3.233  0.6796E+02  0.6762E+02  0.4413E+03  0.4410E+03
      3.302  0.6510E+02  0.6255E+02  0.4458E+03  0.4453E+03
      3.370  0.7921E+02  0.8336E+02  0.4513E+03  0.4510E+03
      3.439  0.4695E+02  0.4472E+02  0.4545E+03  0.4541E+03
      3.508  0.5196E+02  0.5273E+02  0.4581E+03  0.4577E+03
      3.576  0.3985E+02  0.3877E+02  0.4608E+03  0.4604E+03
      3.645  0.7413E+02  0.7651E+02  0.4660E+03  0.4657E+03
      3.714  0.9060E+02  0.8605E+02  0.4722E+03  0.4716E+03
      3.783  0.6504E+02  0.7066E+02  0.4767E+03  0.4765E+03
      3.851  0.5116E+02  0.5071E+02  0.4802E+03  0.4800E+03
      3.920  0.1098E+03  0.1016E+03  0.4878E+03  0.4870E+03
      3.989  0.8021E+02  0.8869E+02  0.4933E+03  0.4931E+03
      4.057  0.6198E+02  0.5366E+02  0.4975E+03  0.4968E+03
      4.126  0.7764E+02  0.8503E+02  0.5029E+03  0.5027E+03
      4.195  0.4876E+02  0.5174E+02  0.5063E+03  0.5062E+03
      4.263  0.8841E+02  0.7893E+02  0.5123E+03  0.5117E+03
      4.332  0.1066E+03  0.1138E+03  0.5197E+03  0.5195E+03
      4.401  0.7015E+02  0.6653E+02  0.5245E+03  0.5241E+03
      4.470  0.6319E+02  0.6457E+02  0.5289E+03  0.5286E+03
      4.538  0.7658E+02  0.7227E+02  0.5341E+03  0.5336E+03
      4.607  0.8393E+02  0.8514E+02  0.5399E+03  0.5394E+03
      4.676  0.7927E+02  0.8342E+02  0.5454E+03  0.5451E+03
      4.744  0.6676E+02  0.5719E+02  0.5500E+03  0.5491E+03
      4.813  0.8606E+02  0.9565E+02  0.5559E+03  0.5557E+03
      4.882  0.5747E+02  0.5621E+02  0.5598E+03  0.5595E+03
      4.950  0.8216E+02  0.7653E+02  0.5655E+03  0.5648E+03
      5.019  0.8657E+02  0.9350E+02  0.5714E+03  0.5712E+03
      5.088  0.5940E+02  0.5896E+02  0.5755E+03  0.5753E+03
      5.157  0.9014E+02  0.9241E+02  0.5817E+03  0.5817E+03
      5.225  0.6672E+02  0.5480E+02  0.5863E+03  0.5855E+03
      5.294  0.6192E+02  0.6664E+02  0.5906E+03  0.5901E+03
      5.363  0.7331E+02  0.7333E+02  0.5956E+03  0.5951E+03
      5.431  0.7463E+02  0.8136E+02  0.6008E+03  0.6007E+03
      5.500  0.5161E+02  0.4788E+02  0.6043E+03  0.6040E+03
      5.569  0.5994E+02  0.5877E+02  0.6085E+03  0.6081E+03
      5.637  0.4588E+02  0.4820E+02  0.6116E+03  0.6114E+03
      5.706  0.6126E+02  0.5342E+02  0.6159E+03  0.6151E+03
      5.775  0.7384E+02  0.8035E+02  0.6209E+03  0.6206E+03
      5.844  0.6980E+02  0.6935E+02  0.6257E+03  0.6254E+03
      5.912  0.8167E+02  0.7977E+02  0.6313E+03  0.6309E+03
      5.981  0.6867E+02  0.7258E+02  0.6361E+03  0.6359E+03
      6.050  0.2352E+02  0.2117E+02  0.6377E+03  0.6373E+03
      6.118  0.9346E+02  0.9361E+02  0.6441E+03  0.6438E+03
      6.187  0.7835E+02  0.7413E+02  0.6495E+03  0.6489E+03
      6.256  0.6775E+02  0.5954E+02  0.6542E+03  0.6530E+03
      6.324  0.8009E+02  0.9059E+02  0.6597E+03  0.6592E+03
      6.393  0.3798E+02  0.3837E+02  0.6623E+03  0.6619E+03
      6.462  0.6329E+02  0.6221E+02  0.6667E+03  0.6662E+03
      6.531  0.6156E+02  0.6092E+02  0.6709E+03  0.6704E+03
      6.599  0.5426E+02  0.5180E+02  0.6746E+03  0.6739E+03
      6.668  0.5877E+02  0.5838E+02  0.6787E+03  0.6779E+03
      6.737  0.7257E+02  0.6913E+02  0.6837E+03  0.6827E+03
      6.805  0.7791E+02  0.8719E+02  0.6891E+03  0.6887E+03
      6.874  0.4941E+02  0.4605E+02  0.6925E+03  0.6919E+03
      6.943  0.4719E+02  0.5230E+02  0.6958E+03  0.6955E+03
      7.012  0.6851E+02  0.6968E+02  0.7005E+03  0.7003E+03
      7.080  0.3667E+02  0.2927E+02  0.7030E+03  0.7023E+03
      7.149  0.5355E+02  0.5295E+02  0.7067E+03  0.7059E+03
      7.218  0.5919E+02  0.6626E+02  0.7108E+03  0.7105E+03
      7.286  0.6314E+02  0.5677E+02  0.7151E+03  0.7144E+03
      7.355  0.7149E+02  0.7229E+02  0.7200E+03  0.7194E+03
      7.424  0.5064E+02  0.4615E+02  0.7235E+03  0.7225E+03
      7.492  0.6431E+02  0.6904E+02  0.7280E+03  0.7273E+03
      7.561  0.9592E+02  0.9811E+02  0.7346E+03  0.7340E+03
      7.630  0.3735E+02  0.3695E+02  0.7371E+03  0.7366E+03
      7.699  0.5075E+02  0.5283E+02  0.7406E+03  0.7403E+03
      7.767  0.9050E+02  0.8467E+02  0.7469E+03  0.7461E+03
      7.836  0.7126E+02  0.8229E+02  0.7518E+03  0.7517E+03
      7.905  0.6980E+02  0.6324E+02  0.7565E+03  0.7561E+03
      7.973  0.9227E+02  0.9227E+02  0.7629E+03  0.7625E+03
      8.042  0.6775E+02  0.6312E+02  0.7676E+03  0.7668E+03
      8.111  0.9503E+02  0.9872E+02  0.7741E+03  0.7736E+03
      8.179  0.1010E+03  0.1021E+03  0.7811E+03  0.7806E+03
      8.248  0.6599E+02  0.5620E+02  0.7856E+03  0.7845E+03
      8.317  0.7951E+02  0.9089E+02  0.7911E+03  0.7907E+03
      8.386  0.9065E+02  0.9211E+02  0.7974E+03  0.7971E+03
      8.454  0.1004E+03  0.9506E+02  0.8043E+03  0.8036E+03
      8.523  0.4770E+02  0.5164E+02  0.8076E+03  0.8072E+03
      8.592  0.6421E+01  0.1183E+02  0.8080E+03  0.8080E+03
      8.660  0.0000E+00  0.0000E+00  0.8080E+03  0.8080E+03
      8.729  0.0000E+00  0.0000E+00  0.8080E+03  0.8080E+03
      8.798  0.0000E+00  0.0000E+00  0.8080E+03  0.8080E+03
      8.866  0.0000E+00  0.0000E+00  0.8080E+03  0.8080E+03
      8.935  0.0000E+00  0.0000E+00  0.8080E+03  0.8080E+03
      9.004  0.0000E+00  0.0000E+00  0.8080E+03  0.8080E+03
      9.073  0.0000E+00  0.0000E+00  0.8080E+03  0.8080E+03
      9.141  0.0000E+00  0.0000E+00  0.8080E+03  0.8080E+03
      9.210  0.0000E+00  0.0000E+00  0.8080E+03  0.8080E+03
      9.279  0.0000E+00  0.0000E+00  0.8080E+03  0.8080E+03
      9.347  0.0000E+00  0.0000E+00  0.8080E+03  0.8080E+03
      9.416  0.0000E+00  0.0000E+00  0.8080E+03  0.8080E+03
      9.485  0.0000E+00  0.0000E+00  0.8080E+03  0.8080E+03
