 228 228   0   0
  0.2256881E+02  0.1697340E-08  0.1697340E-08  0.1786100E-08  0.5000000E-15
  1.000000000000000E-004
  CAR 
 Si and Ge interface calculation         
      7.15309711     -8.86611000  301      4.30180434      1.00000000
     -8.866  0.0000E+00  0.0000E+00  0.0000E+00  0.0000E+00
     -8.813  0.0000E+00  0.0000E+00  0.0000E+00  0.0000E+00
     -8.759  0.0000E+00  0.0000E+00  0.0000E+00  0.0000E+00
     -8.706  0.0000E+00  0.0000E+00  0.0000E+00  0.0000E+00
     -8.653  0.0000E+00  0.0000E+00  0.0000E+00  0.0000E+00
     -8.599  0.0000E+00  0.0000E+00  0.0000E+00  0.0000E+00
     -8.546  0.0000E+00  0.0000E+00  0.0000E+00  0.0000E+00
     -8.492  0.0000E+00  0.0000E+00  0.0000E+00  0.0000E+00
     -8.439  0.0000E+00  0.0000E+00  0.0000E+00  0.0000E+00
     -8.386  0.0000E+00  0.0000E+00  0.0000E+00  0.0000E+00
     -8.332  0.0000E+00  0.0000E+00  0.0000E+00  0.0000E+00
     -8.279  0.0000E+00  0.0000E+00  0.0000E+00  0.0000E+00
     -8.225  0.0000E+00  0.0000E+00  0.0000E+00  0.0000E+00
     -8.172  0.3617E-05  0.6206E-06  0.1931E-06  0.3314E-07
     -8.119  0.9033E+01  0.8749E+01  0.4823E+00  0.4672E+00
     -8.065  0.3311E+00  0.6144E+00  0.5000E+00  0.5000E+00
     -8.012  0.3605E+02  0.3490E+02  0.2425E+01  0.2364E+01
     -7.958  0.7220E+01  0.7717E+01  0.2810E+01  0.2776E+01
     -7.905  0.1708E+02  0.1655E+02  0.3722E+01  0.3659E+01
     -7.852  0.1456E+02  0.1574E+02  0.4500E+01  0.4500E+01
     -7.798  0.8152E-03  0.4235E-02  0.4500E+01  0.4500E+01
     -7.745  0.9567E+01  0.8099E+01  0.5011E+01  0.4932E+01
     -7.691  0.1453E+02  0.1559E+02  0.5787E+01  0.5765E+01
     -7.638  0.3458E+02  0.3110E+02  0.7633E+01  0.7425E+01
     -7.585  0.8094E+02  0.8257E+02  0.1196E+02  0.1183E+02
     -7.531  0.2965E+02  0.3154E+02  0.1354E+02  0.1352E+02
     -7.478  0.8843E+01  0.9095E+01  0.1401E+02  0.1400E+02
     -7.424  0.1721E+02  0.1661E+02  0.1493E+02  0.1489E+02
     -7.371  0.6978E+01  0.7054E+01  0.1530E+02  0.1527E+02
     -7.318  0.1849E+02  0.1879E+02  0.1629E+02  0.1627E+02
     -7.264  0.5964E+02  0.5907E+02  0.1947E+02  0.1943E+02
     -7.211  0.3266E+02  0.3082E+02  0.2122E+02  0.2107E+02
     -7.157  0.7931E+02  0.7912E+02  0.2545E+02  0.2530E+02
     -7.104  0.5612E+02  0.5686E+02  0.2845E+02  0.2833E+02
     -7.051  0.5455E+02  0.5123E+02  0.3136E+02  0.3107E+02
     -6.997  0.3473E+02  0.3965E+02  0.3322E+02  0.3318E+02
     -6.944  0.9981E+01  0.1047E+02  0.3375E+02  0.3374E+02
     -6.890  0.5803E+02  0.5340E+02  0.3685E+02  0.3659E+02
     -6.837  0.7005E+02  0.6842E+02  0.4059E+02  0.4025E+02
     -6.784  0.6747E+02  0.7228E+02  0.4419E+02  0.4411E+02
     -6.730  0.3231E+02  0.3040E+02  0.4592E+02  0.4573E+02
     -6.677  0.7993E+02  0.7958E+02  0.5019E+02  0.4998E+02
     -6.623  0.4576E+02  0.4844E+02  0.5263E+02  0.5257E+02
     -6.570  0.4919E+02  0.4518E+02  0.5526E+02  0.5498E+02
     -6.517  0.6161E+02  0.6162E+02  0.5855E+02  0.5827E+02
     -6.463  0.8294E+02  0.7766E+02  0.6297E+02  0.6242E+02
     -6.410  0.9436E+02  0.1003E+03  0.6801E+02  0.6777E+02
     -6.356  0.8268E+02  0.8508E+02  0.7243E+02  0.7232E+02
     -6.303  0.1004E+03  0.9861E+02  0.7779E+02  0.7758E+02
     -6.250  0.8501E+02  0.8705E+02  0.8233E+02  0.8223E+02
     -6.196  0.7776E+02  0.7491E+02  0.8648E+02  0.8623E+02
     -6.143  0.7112E+02  0.7151E+02  0.9028E+02  0.9005E+02
     -6.089  0.3908E+02  0.4164E+02  0.9236E+02  0.9227E+02
     -6.036  0.6733E+02  0.6469E+02  0.9596E+02  0.9573E+02
     -5.983  0.9289E+02  0.9097E+02  0.1009E+03  0.1006E+03
     -5.929  0.6487E+02  0.6790E+02  0.1044E+03  0.1042E+03
     -5.876  0.4934E+02  0.4943E+02  0.1070E+03  0.1068E+03
     -5.822  0.6913E+02  0.6828E+02  0.1107E+03  0.1105E+03
     -5.769  0.7503E+02  0.7437E+02  0.1147E+03  0.1145E+03
     -5.716  0.8163E+02  0.8169E+02  0.1191E+03  0.1188E+03
     -5.662  0.8984E+02  0.9027E+02  0.1239E+03  0.1236E+03
     -5.609  0.5037E+02  0.5311E+02  0.1266E+03  0.1265E+03
     -5.555  0.9635E+02  0.8882E+02  0.1317E+03  0.1312E+03
     -5.502  0.1150E+03  0.1203E+03  0.1378E+03  0.1377E+03
     -5.449  0.7942E+02  0.7872E+02  0.1421E+03  0.1419E+03
     -5.395  0.4889E+02  0.5092E+02  0.1447E+03  0.1446E+03
     -5.342  0.4927E+02  0.5016E+02  0.1473E+03  0.1473E+03
     -5.288  0.9018E+02  0.8694E+02  0.1521E+03  0.1519E+03
     -5.235  0.8783E+02  0.8552E+02  0.1568E+03  0.1565E+03
     -5.182  0.9167E+02  0.9079E+02  0.1617E+03  0.1613E+03
     -5.128  0.6000E+02  0.6333E+02  0.1649E+03  0.1647E+03
     -5.075  0.7405E+02  0.7425E+02  0.1689E+03  0.1687E+03
     -5.022  0.5848E+02  0.5837E+02  0.1720E+03  0.1718E+03
     -4.968  0.6935E+02  0.6797E+02  0.1757E+03  0.1754E+03
     -4.915  0.7043E+02  0.6843E+02  0.1795E+03  0.1791E+03
     -4.861  0.5913E+02  0.6448E+02  0.1826E+03  0.1825E+03
     -4.808  0.6349E+02  0.5944E+02  0.1860E+03  0.1857E+03
     -4.755  0.5431E+02  0.5824E+02  0.1889E+03  0.1888E+03
     -4.701  0.5247E+02  0.5084E+02  0.1917E+03  0.1915E+03
     -4.648  0.5414E+02  0.5621E+02  0.1946E+03  0.1945E+03
     -4.594  0.5114E+02  0.5087E+02  0.1973E+03  0.1972E+03
     -4.541  0.6276E+02  0.6125E+02  0.2007E+03  0.2005E+03
     -4.488  0.6850E+02  0.6843E+02  0.2044E+03  0.2041E+03
     -4.434  0.6040E+02  0.6223E+02  0.2076E+03  0.2075E+03
     -4.381  0.5917E+02  0.5055E+02  0.2107E+03  0.2102E+03
     -4.327  0.6088E+02  0.6740E+02  0.2140E+03  0.2138E+03
     -4.274  0.1889E+02  0.2311E+02  0.2150E+03  0.2150E+03
     -4.221  0.3758E+02  0.3230E+02  0.2170E+03  0.2167E+03
     -4.167  0.5627E+02  0.5474E+02  0.2200E+03  0.2196E+03
     -4.114  0.2426E+02  0.2782E+02  0.2213E+03  0.2211E+03
     -4.060  0.3172E+02  0.3503E+02  0.2230E+03  0.2230E+03
     -4.007  0.3442E+02  0.2613E+02  0.2248E+03  0.2244E+03
     -3.954  0.6346E+02  0.6555E+02  0.2282E+03  0.2279E+03
     -3.900  0.4305E+02  0.4892E+02  0.2305E+03  0.2305E+03
     -3.847  0.3170E+02  0.2954E+02  0.2322E+03  0.2321E+03
     -3.793  0.3768E+02  0.3510E+02  0.2342E+03  0.2340E+03
     -3.740  0.4374E+02  0.4628E+02  0.2366E+03  0.2364E+03
     -3.687  0.2151E+02  0.2343E+02  0.2377E+03  0.2377E+03
     -3.633  0.3537E+02  0.3271E+02  0.2396E+03  0.2394E+03
     -3.580  0.4910E+02  0.4926E+02  0.2422E+03  0.2421E+03
     -3.526  0.1737E+02  0.1854E+02  0.2432E+03  0.2430E+03
     -3.473  0.7110E+02  0.6328E+02  0.2469E+03  0.2464E+03
     -3.420  0.1091E+03  0.1109E+03  0.2528E+03  0.2523E+03
     -3.366  0.9086E+02  0.9000E+02  0.2576E+03  0.2572E+03
     -3.313  0.5747E+02  0.6107E+02  0.2607E+03  0.2604E+03
     -3.259  0.9711E+02  0.9566E+02  0.2659E+03  0.2655E+03
     -3.206  0.6443E+02  0.6278E+02  0.2693E+03  0.2689E+03
     -3.153  0.9142E+02  0.9014E+02  0.2742E+03  0.2737E+03
     -3.099  0.7610E+02  0.8214E+02  0.2783E+03  0.2781E+03
     -3.046  0.8905E+02  0.8585E+02  0.2830E+03  0.2827E+03
     -2.992  0.7330E+02  0.7507E+02  0.2869E+03  0.2867E+03
     -2.939  0.5637E+02  0.5564E+02  0.2899E+03  0.2896E+03
     -2.886  0.9260E+02  0.9436E+02  0.2949E+03  0.2947E+03
     -2.832  0.5604E+02  0.5717E+02  0.2979E+03  0.2977E+03
     -2.779  0.7242E+02  0.6884E+02  0.3017E+03  0.3014E+03
     -2.725  0.6817E+02  0.6942E+02  0.3054E+03  0.3051E+03
     -2.672  0.7313E+02  0.7536E+02  0.3093E+03  0.3091E+03
     -2.619  0.7338E+02  0.7117E+02  0.3132E+03  0.3129E+03
     -2.565  0.6349E+02  0.6667E+02  0.3166E+03  0.3165E+03
     -2.512  0.5343E+02  0.4879E+02  0.3195E+03  0.3191E+03
     -2.458  0.7905E+02  0.8207E+02  0.3237E+03  0.3235E+03
     -2.405  0.6326E+02  0.6388E+02  0.3271E+03  0.3269E+03
     -2.352  0.7234E+02  0.7099E+02  0.3309E+03  0.3307E+03
     -2.298  0.1105E+03  0.1099E+03  0.3368E+03  0.3366E+03
     -2.245  0.6890E+02  0.6534E+02  0.3405E+03  0.3400E+03
     -2.191  0.9713E+02  0.1002E+03  0.3457E+03  0.3454E+03
     -2.138  0.5749E+02  0.6248E+02  0.3488E+03  0.3487E+03
     -2.085  0.5704E+02  0.5278E+02  0.3518E+03  0.3515E+03
     -2.031  0.5733E+02  0.5905E+02  0.3549E+03  0.3547E+03
     -1.978  0.5447E+02  0.5383E+02  0.3578E+03  0.3576E+03
     -1.924  0.6610E+02  0.6208E+02  0.3613E+03  0.3609E+03
     -1.871  0.9859E+02  0.1001E+03  0.3666E+03  0.3662E+03
     -1.818  0.4031E+02  0.4413E+02  0.3687E+03  0.3686E+03
     -1.764  0.3967E+02  0.4106E+02  0.3708E+03  0.3708E+03
     -1.711  0.3121E+02  0.3140E+02  0.3725E+03  0.3725E+03
     -1.657  0.7957E+02  0.7651E+02  0.3767E+03  0.3765E+03
     -1.604  0.3442E+02  0.3632E+02  0.3786E+03  0.3785E+03
     -1.551  0.4949E+02  0.4759E+02  0.3812E+03  0.3810E+03
     -1.497  0.3917E+02  0.4173E+02  0.3833E+03  0.3833E+03
     -1.444  0.3548E+02  0.3247E+02  0.3852E+03  0.3850E+03
     -1.390  0.3793E+02  0.3898E+02  0.3872E+03  0.3871E+03
     -1.337  0.2286E+02  0.2407E+02  0.3885E+03  0.3884E+03
     -1.284  0.4581E+02  0.4390E+02  0.3909E+03  0.3907E+03
     -1.230  0.3792E+02  0.3956E+02  0.3929E+03  0.3928E+03
     -1.177  0.9418E+02  0.9443E+02  0.3980E+03  0.3979E+03
     -1.123  0.4196E+02  0.3994E+02  0.4002E+03  0.4000E+03
     -1.070  0.3345E+02  0.3529E+02  0.4020E+03  0.4019E+03
     -1.017  0.4239E+02  0.4426E+02  0.4043E+03  0.4042E+03
     -0.963  0.2731E+02  0.2649E+02  0.4057E+03  0.4056E+03
     -0.910  0.6152E+02  0.5882E+02  0.4090E+03  0.4088E+03
     -0.857  0.2349E+02  0.2739E+02  0.4103E+03  0.4102E+03
     -0.803  0.3860E+02  0.3660E+02  0.4123E+03  0.4122E+03
     -0.750  0.2758E+02  0.2909E+02  0.4138E+03  0.4138E+03
     -0.696  0.2302E+02  0.2231E+02  0.4150E+03  0.4149E+03
     -0.643  0.5129E+02  0.5236E+02  0.4178E+03  0.4177E+03
     -0.590  0.2240E+02  0.2008E+02  0.4189E+03  0.4188E+03
     -0.536  0.1113E+02  0.1264E+02  0.4195E+03  0.4195E+03
     -0.483  0.3641E+02  0.3612E+02  0.4215E+03  0.4214E+03
     -0.429  0.2429E+02  0.2270E+02  0.4228E+03  0.4226E+03
     -0.376  0.3926E+02  0.3606E+02  0.4249E+03  0.4246E+03
     -0.323  0.3026E+02  0.3603E+02  0.4265E+03  0.4265E+03
     -0.269  0.3142E+02  0.2748E+02  0.4282E+03  0.4279E+03
     -0.216  0.4411E+02  0.4515E+02  0.4305E+03  0.4304E+03
     -0.162  0.5980E+02  0.5856E+02  0.4337E+03  0.4335E+03
     -0.109  0.4045E+02  0.4266E+02  0.4359E+03  0.4358E+03
     -0.056  0.3527E+02  0.3020E+02  0.4378E+03  0.4374E+03
     -0.002  0.7806E+02  0.8363E+02  0.4419E+03  0.4418E+03
      0.051  0.8858E+02  0.8342E+02  0.4467E+03  0.4463E+03
      0.105  0.1110E+03  0.1131E+03  0.4526E+03  0.4523E+03
      0.158  0.5805E+02  0.5897E+02  0.4557E+03  0.4555E+03
      0.211  0.1129E+03  0.1050E+03  0.4617E+03  0.4611E+03
      0.265  0.1445E+03  0.1473E+03  0.4694E+03  0.4690E+03
      0.318  0.1223E+03  0.1174E+03  0.4760E+03  0.4752E+03
      0.372  0.1082E+03  0.1136E+03  0.4817E+03  0.4813E+03
      0.425  0.1395E+03  0.1390E+03  0.4892E+03  0.4887E+03
      0.478  0.6702E+02  0.7048E+02  0.4928E+03  0.4925E+03
      0.532  0.1412E+03  0.1317E+03  0.5003E+03  0.4995E+03
      0.585  0.1583E+03  0.1607E+03  0.5088E+03  0.5081E+03
      0.639  0.1365E+03  0.1351E+03  0.5161E+03  0.5153E+03
      0.692  0.1427E+03  0.1458E+03  0.5237E+03  0.5231E+03
      0.745  0.1500E+03  0.1511E+03  0.5317E+03  0.5312E+03
      0.799  0.1154E+03  0.1160E+03  0.5378E+03  0.5373E+03
      0.852  0.1298E+03  0.1326E+03  0.5448E+03  0.5444E+03
      0.906  0.1511E+03  0.1455E+03  0.5528E+03  0.5522E+03
      0.959  0.1317E+03  0.1338E+03  0.5599E+03  0.5593E+03
      1.012  0.1158E+03  0.1155E+03  0.5661E+03  0.5655E+03
      1.066  0.9981E+02  0.1026E+03  0.5714E+03  0.5710E+03
      1.119  0.1350E+03  0.1344E+03  0.5786E+03  0.5782E+03
      1.173  0.1398E+03  0.1422E+03  0.5861E+03  0.5858E+03
      1.226  0.1427E+03  0.1436E+03  0.5937E+03  0.5934E+03
      1.279  0.1670E+03  0.1626E+03  0.6026E+03  0.6021E+03
      1.333  0.1628E+03  0.1671E+03  0.6113E+03  0.6110E+03
      1.386  0.1194E+03  0.1176E+03  0.6177E+03  0.6173E+03
      1.440  0.1170E+03  0.1168E+03  0.6239E+03  0.6235E+03
      1.493  0.1208E+03  0.1214E+03  0.6304E+03  0.6300E+03
      1.546  0.1597E+03  0.1579E+03  0.6389E+03  0.6385E+03
      1.600  0.1586E+03  0.1530E+03  0.6474E+03  0.6466E+03
      1.653  0.1635E+03  0.1685E+03  0.6561E+03  0.6556E+03
      1.707  0.1216E+03  0.1240E+03  0.6626E+03  0.6622E+03
      1.760  0.1149E+03  0.1141E+03  0.6687E+03  0.6683E+03
      1.813  0.1769E+03  0.1753E+03  0.6782E+03  0.6777E+03
      1.867  0.1127E+03  0.1127E+03  0.6842E+03  0.6837E+03
      1.920  0.1143E+03  0.1163E+03  0.6903E+03  0.6899E+03
      1.974  0.1327E+03  0.1306E+03  0.6974E+03  0.6969E+03
      2.027  0.1118E+03  0.1145E+03  0.7033E+03  0.7030E+03
      2.080  0.9348E+02  0.9259E+02  0.7083E+03  0.7080E+03
      2.134  0.1186E+03  0.1127E+03  0.7147E+03  0.7140E+03
      2.187  0.1998E+03  0.2020E+03  0.7253E+03  0.7248E+03
      2.241  0.1290E+03  0.1314E+03  0.7322E+03  0.7318E+03
      2.294  0.1312E+03  0.1282E+03  0.7392E+03  0.7386E+03
      2.347  0.1202E+03  0.1182E+03  0.7457E+03  0.7449E+03
      2.401  0.1367E+03  0.1384E+03  0.7530E+03  0.7523E+03
      2.454  0.1406E+03  0.1394E+03  0.7605E+03  0.7598E+03
      2.508  0.1046E+03  0.1072E+03  0.7660E+03  0.7655E+03
      2.561  0.1104E+03  0.1092E+03  0.7719E+03  0.7713E+03
      2.614  0.1507E+03  0.1525E+03  0.7800E+03  0.7795E+03
      2.668  0.9121E+02  0.9152E+02  0.7849E+03  0.7844E+03
      2.721  0.1216E+03  0.1177E+03  0.7914E+03  0.7907E+03
      2.775  0.1050E+03  0.1053E+03  0.7970E+03  0.7963E+03
      2.828  0.1244E+03  0.1234E+03  0.8036E+03  0.8029E+03
      2.881  0.1560E+03  0.1618E+03  0.8119E+03  0.8115E+03
      2.935  0.1252E+03  0.1264E+03  0.8186E+03  0.8183E+03
      2.988  0.1146E+03  0.1070E+03  0.8247E+03  0.8240E+03
      3.042  0.7750E+02  0.8466E+02  0.8289E+03  0.8285E+03
      3.095  0.1182E+03  0.1129E+03  0.8352E+03  0.8345E+03
      3.148  0.7134E+02  0.7343E+02  0.8390E+03  0.8384E+03
      3.202  0.8336E+02  0.8478E+02  0.8434E+03  0.8430E+03
      3.255  0.4648E+02  0.4864E+02  0.8459E+03  0.8456E+03
      3.308  0.9216E+02  0.8940E+02  0.8508E+03  0.8503E+03
      3.362  0.9177E+02  0.8386E+02  0.8557E+03  0.8548E+03
      3.415  0.1005E+03  0.1065E+03  0.8611E+03  0.8605E+03
      3.469  0.9385E+02  0.9235E+02  0.8661E+03  0.8654E+03
      3.522  0.6297E+02  0.6723E+02  0.8695E+03  0.8690E+03
      3.575  0.9098E+02  0.8764E+02  0.8743E+03  0.8737E+03
      3.629  0.4205E+02  0.4657E+02  0.8766E+03  0.8762E+03
      3.682  0.3418E+02  0.3848E+02  0.8784E+03  0.8782E+03
      3.736  0.8135E+02  0.7279E+02  0.8828E+03  0.8821E+03
      3.789  0.6568E+02  0.6469E+02  0.8863E+03  0.8856E+03
      3.842  0.5929E+02  0.6652E+02  0.8894E+03  0.8891E+03
      3.896  0.3072E+02  0.2780E+02  0.8911E+03  0.8906E+03
      3.949  0.4592E+02  0.4193E+02  0.8935E+03  0.8929E+03
      4.003  0.7200E+02  0.7192E+02  0.8974E+03  0.8967E+03
      4.056  0.3287E+02  0.4196E+02  0.8991E+03  0.8989E+03
      4.109  0.1988E+02  0.1452E+02  0.9002E+03  0.8997E+03
      4.163  0.4299E+02  0.4481E+02  0.9025E+03  0.9021E+03
      4.216  0.5174E+02  0.4660E+02  0.9052E+03  0.9046E+03
      4.270  0.8725E+02  0.7605E+02  0.9099E+03  0.9087E+03
      4.323  0.4255E+02  0.5969E+02  0.9122E+03  0.9118E+03
      4.376  0.7878E+02  0.6430E+02  0.9164E+03  0.9153E+03
      4.430  0.6084E+02  0.6981E+02  0.9196E+03  0.9190E+03
      4.483  0.5521E+02  0.5930E+02  0.9226E+03  0.9222E+03
      4.537  0.5614E+02  0.5375E+02  0.9256E+03  0.9250E+03
      4.590  0.6848E+02  0.6679E+02  0.9292E+03  0.9286E+03
      4.643  0.6351E+02  0.6167E+02  0.9326E+03  0.9319E+03
      4.697  0.6629E+02  0.7087E+02  0.9362E+03  0.9357E+03
      4.750  0.9007E+02  0.8241E+02  0.9410E+03  0.9401E+03
      4.804  0.6239E+02  0.6996E+02  0.9443E+03  0.9438E+03
      4.857  0.8331E+02  0.7508E+02  0.9488E+03  0.9478E+03
      4.910  0.8761E+02  0.8918E+02  0.9534E+03  0.9526E+03
      4.964  0.7263E+02  0.7520E+02  0.9573E+03  0.9566E+03
      5.017  0.9088E+02  0.8876E+02  0.9622E+03  0.9613E+03
      5.071  0.7836E+02  0.7951E+02  0.9663E+03  0.9656E+03
      5.124  0.1050E+03  0.9875E+02  0.9720E+03  0.9709E+03
      5.177  0.1108E+03  0.1128E+03  0.9779E+03  0.9769E+03
      5.231  0.7708E+02  0.8310E+02  0.9820E+03  0.9813E+03
      5.284  0.7723E+02  0.7553E+02  0.9861E+03  0.9854E+03
      5.338  0.7854E+02  0.8495E+02  0.9903E+03  0.9899E+03
      5.391  0.1012E+03  0.9556E+02  0.9957E+03  0.9950E+03
      5.444  0.7023E+02  0.7783E+02  0.9995E+03  0.9992E+03
      5.498  0.1381E+03  0.1321E+03  0.1007E+04  0.1006E+04
      5.551  0.9901E+02  0.9807E+02  0.1012E+04  0.1011E+04
      5.605  0.9479E+02  0.9714E+02  0.1017E+04  0.1017E+04
      5.658  0.1237E+03  0.1207E+03  0.1024E+04  0.1023E+04
      5.711  0.9350E+02  0.9561E+02  0.1029E+04  0.1028E+04
      5.765  0.8759E+02  0.9105E+02  0.1033E+04  0.1033E+04
      5.818  0.1245E+03  0.1180E+03  0.1040E+04  0.1039E+04
      5.872  0.1015E+03  0.1026E+03  0.1046E+04  0.1045E+04
      5.925  0.1222E+03  0.1213E+03  0.1052E+04  0.1051E+04
      5.978  0.1195E+03  0.1197E+03  0.1058E+04  0.1058E+04
      6.032  0.1128E+03  0.1157E+03  0.1064E+04  0.1064E+04
      6.085  0.1172E+03  0.1177E+03  0.1071E+04  0.1070E+04
      6.139  0.6442E+02  0.6900E+02  0.1074E+04  0.1074E+04
      6.192  0.1151E+03  0.1116E+03  0.1080E+04  0.1080E+04
      6.245  0.8749E+02  0.8685E+02  0.1085E+04  0.1084E+04
      6.299  0.7093E+02  0.7776E+02  0.1089E+04  0.1089E+04
      6.352  0.7675E+02  0.7911E+02  0.1093E+04  0.1093E+04
      6.406  0.4939E+02  0.5130E+02  0.1095E+04  0.1096E+04
      6.459  0.9413E+01  0.8302E+01  0.1096E+04  0.1096E+04
      6.512  0.0000E+00  0.0000E+00  0.1096E+04  0.1096E+04
      6.566  0.0000E+00  0.0000E+00  0.1096E+04  0.1096E+04
      6.619  0.0000E+00  0.0000E+00  0.1096E+04  0.1096E+04
      6.673  0.0000E+00  0.0000E+00  0.1096E+04  0.1096E+04
      6.726  0.0000E+00  0.0000E+00  0.1096E+04  0.1096E+04
      6.779  0.0000E+00  0.0000E+00  0.1096E+04  0.1096E+04
      6.833  0.0000E+00  0.0000E+00  0.1096E+04  0.1096E+04
      6.886  0.0000E+00  0.0000E+00  0.1096E+04  0.1096E+04
      6.940  0.0000E+00  0.0000E+00  0.1096E+04  0.1096E+04
      6.993  0.0000E+00  0.0000E+00  0.1096E+04  0.1096E+04
      7.046  0.0000E+00  0.0000E+00  0.1096E+04  0.1096E+04
      7.100  0.0000E+00  0.0000E+00  0.1096E+04  0.1096E+04
      7.153  0.0000E+00  0.0000E+00  0.1096E+04  0.1096E+04
