Si and Ge interface calculation         
           1
    16.973400    0.000000    0.000000
     0.000000   16.973400    0.000000
     0.000000    0.000000   17.861000
   Ge   Si
   108   120
Direct configuration=     1
   0.99430549  0.66666657  0.00000000
   0.82763886  0.66666657  0.15838417
   0.66097212  0.66666657  0.31676838
   0.99430549  0.33333328  0.00000000
   0.82763886  0.33333328  0.15838417
   0.66097212  0.33333328  0.31676838
   0.99430549  0.00000000  0.00000000
   0.82763886  0.00000000  0.15838417
   0.66097212  0.00000000  0.31676838
   0.32763880  0.66666657  0.00000000
   0.16097215  0.66666657  0.15838417
   0.99430543  0.66666657  0.31676838
   0.32763880  0.33333328  0.00000000
   0.16097215  0.33333328  0.15838417
   0.99430543  0.33333328  0.31676838
   0.32763880  0.00000000  0.00000000
   0.16097215  0.00000000  0.15838417
   0.99430543  0.00000000  0.31676838
   0.66097212  0.66666657  0.00000000
   0.49430543  0.66666657  0.15838417
   0.32763875  0.66666657  0.31676838
   0.66097212  0.33333328  0.00000000
   0.49430543  0.33333328  0.15838417
   0.32763875  0.33333328  0.31676838
   0.66097212  0.00000000  0.00000000
   0.49430543  0.00000000  0.15838417
   0.32763875  0.00000000  0.31676838
   0.07763884  0.91666657  0.07919210
   0.91097212  0.91666657  0.23757629
   0.74430549  0.91666657  0.39596048
   0.07763884  0.58333331  0.07919210
   0.91097212  0.58333331  0.23757629
   0.74430549  0.58333331  0.39596048
   0.07763884  0.24999995  0.07919210
   0.91097212  0.24999995  0.23757629
   0.74430549  0.24999995  0.39596048
   0.41097209  0.91666657  0.07919210
   0.24430542  0.91666657  0.23757629
   0.07763872  0.91666657  0.39596048
   0.41097209  0.58333331  0.07919210
   0.24430542  0.58333331  0.23757629
   0.07763872  0.58333331  0.39596048
   0.41097209  0.24999995  0.07919210
   0.24430542  0.24999995  0.23757629
   0.07763872  0.24999995  0.39596048
   0.74430549  0.91666657  0.07919210
   0.57763875  0.91666657  0.23757629
   0.41097206  0.91666657  0.39596048
   0.74430549  0.58333331  0.07919210
   0.57763875  0.58333331  0.23757629
   0.41097206  0.58333331  0.39596048
   0.74430549  0.24999995  0.07919210
   0.57763875  0.24999995  0.23757629
   0.41097206  0.24999995  0.39596048
   0.16097216  0.83333319  0.00000000
   0.99430549  0.83333319  0.15838417
   0.82763880  0.83333319  0.31676838
   0.16097216  0.49999991  0.00000000
   0.99430549  0.49999991  0.15838417
   0.82763880  0.49999991  0.31676838
   0.16097216  0.16666664  0.00000000
   0.99430549  0.16666664  0.15838417
   0.82763880  0.16666664  0.31676838
   0.49430543  0.83333319  0.00000000
   0.32763875  0.83333319  0.15838417
   0.16097207  0.83333319  0.31676838
   0.49430543  0.49999991  0.00000000
   0.32763875  0.49999991  0.15838417
   0.16097207  0.49999991  0.31676838
   0.49430543  0.16666664  0.00000000
   0.32763875  0.16666664  0.15838417
   0.16097207  0.16666664  0.31676838
   0.82763880  0.83333319  0.00000000
   0.66097212  0.83333319  0.15838417
   0.49430543  0.83333319  0.31676838
   0.82763880  0.49999991  0.00000000
   0.66097212  0.49999991  0.15838417
   0.49430543  0.49999991  0.31676838
   0.82763880  0.16666664  0.00000000
   0.66097212  0.16666664  0.15838417
   0.49430543  0.16666664  0.31676838
   0.24430546  0.74999988  0.07919210
   0.07763878  0.74999988  0.23757629
   0.91097212  0.74999988  0.39596048
   0.24430546  0.41666663  0.07919210
   0.07763878  0.41666663  0.23757629
   0.91097212  0.41666663  0.39596048
   0.24430546  0.08333333  0.07919210
   0.07763878  0.08333333  0.23757629
   0.91097212  0.08333333  0.39596048
   0.57763886  0.74999988  0.07919210
   0.41097215  0.74999988  0.23757629
   0.24430545  0.74999988  0.39596048
   0.57763886  0.41666663  0.07919210
   0.41097215  0.41666663  0.23757629
   0.24430545  0.41666663  0.39596048
   0.57763886  0.08333333  0.07919210
   0.41097215  0.08333333  0.23757629
   0.24430545  0.08333333  0.39596048
   0.91097218  0.74999988  0.07919210
   0.74430549  0.74999988  0.23757629
   0.57763875  0.74999988  0.39596048
   0.91097218  0.41666663  0.07919210
   0.74430549  0.41666663  0.23757629
   0.57763875  0.41666663  0.39596048
   0.91097218  0.08333333  0.07919210
   0.74430549  0.08333333  0.23757629
   0.57763875  0.08333333  0.39596048
   0.44022322  0.19053712  0.50793630
   0.29022312  0.24053718  0.65997148
   0.14022303  0.29053724  0.81200665
   0.54022312  0.49053717  0.50793630
   0.39022303  0.54053724  0.65997148
   0.24022293  0.59053731  0.81200665
   0.64022303  0.79053712  0.50793630
   0.49022293  0.84053713  0.65997148
   0.34022307  0.89053726  0.81200665
   0.14022303  0.29053712  0.50793630
   0.99022305  0.34053719  0.65997148
   0.84022296  0.39053723  0.81200665
   0.24022305  0.59053713  0.50793630
   0.09022307  0.64053720  0.65997148
   0.94022298  0.69053727  0.81200665
   0.34022307  0.89053714  0.50793630
   0.19022298  0.94053716  0.65997148
   0.04022288  0.99053729  0.81200665
   0.74022305  0.09053709  0.50793630
   0.59022307  0.14053716  0.65997148
   0.44022298  0.19053721  0.81200665
   0.84022307  0.39053711  0.50793630
   0.69022298  0.44053718  0.65997148
   0.54022288  0.49053723  0.81200665
   0.94022310  0.69053716  0.50793630
   0.79022300  0.74053723  0.65997148
   0.64022303  0.79053730  0.81200665
   0.04022312  0.99053711  0.50793630
   0.89022297  0.04053712  0.65997148
   0.74022293  0.09053731  0.81200665
   0.69022298  0.19053710  0.58395392
   0.54022288  0.24053717  0.73598909
   0.39022279  0.29053724  0.88802421
   0.39022315  0.29053712  0.58395392
   0.24022317  0.34053719  0.73598909
   0.09022296  0.39053726  0.88802421
   0.49022317  0.59053719  0.58395392
   0.34022307  0.64053726  0.73598909
   0.19022298  0.69053727  0.88802421
   0.59022307  0.89053714  0.58395392
   0.44022298  0.94053727  0.73598909
   0.29022288  0.99053729  0.88802421
   0.99022305  0.09053707  0.58395392
   0.84022301  0.14053726  0.73598909
   0.69022298  0.19053733  0.88802421
   0.09022307  0.39053711  0.58395392
   0.94022298  0.44053721  0.73598909
   0.79022288  0.49053723  0.88802421
   0.19022310  0.69053710  0.58395392
   0.04022300  0.74053717  0.73598909
   0.89022291  0.79053730  0.88802421
   0.29022312  0.99053711  0.58395392
   0.14022303  0.04053724  0.73598909
   0.99022293  0.09053731  0.88802421
   0.79022306  0.49053711  0.58395392
   0.64022303  0.54053724  0.73598909
   0.49022293  0.59053725  0.88802421
   0.89022309  0.79053718  0.58395392
   0.74022293  0.84053725  0.73598909
   0.59022284  0.89053726  0.88802421
   0.64022303  0.29053712  0.50793630
   0.49022305  0.34053719  0.65997148
   0.34022296  0.39053729  0.81200665
   0.24022305  0.09053709  0.50793630
   0.09022307  0.14053716  0.65997148
   0.94022292  0.19053724  0.81200665
   0.34022307  0.39053711  0.50793630
   0.19022298  0.44053718  0.65997148
   0.04022288  0.49053729  0.81200665
   0.44022310  0.69053716  0.50793630
   0.29022312  0.74053723  0.65997148
   0.14022291  0.79053730  0.81200665
   0.54022312  0.99053729  0.50793630
   0.39022303  0.04053736  0.65997148
   0.24022293  0.09053731  0.81200665
   0.94022310  0.19053711  0.50793630
   0.79022300  0.24053718  0.65997148
   0.64022291  0.29053724  0.81200665
   0.04022312  0.49053717  0.50793630
   0.89022303  0.54053724  0.65997148
   0.74022293  0.59053731  0.81200665
   0.14022303  0.79053712  0.50793630
   0.99022299  0.84053719  0.65997148
   0.84022289  0.89053726  0.81200665
   0.74022305  0.59053707  0.50793630
   0.59022307  0.64053720  0.65997148
   0.44022298  0.69053727  0.81200665
   0.84022307  0.89053714  0.50793630
   0.69022298  0.94053721  0.65997148
   0.54022288  0.99053729  0.81200665
   0.49022305  0.09053707  0.58395392
   0.34022307  0.14053726  0.73598909
   0.19022298  0.19053721  0.88802421
   0.59022307  0.39053711  0.58395392
   0.44022298  0.44053721  0.73598909
   0.29022288  0.49053723  0.88802421
   0.69022310  0.69053710  0.58395392
   0.54022312  0.74053717  0.73598909
   0.39022303  0.79053724  0.88802421
   0.19022310  0.19053710  0.58395392
   0.04022300  0.24053718  0.73598909
   0.89022291  0.29053724  0.88802421
   0.29022312  0.49053717  0.58395392
   0.14022303  0.54053718  0.73598909
   0.99022299  0.59053725  0.88802421
   0.39022303  0.79053712  0.58395392
   0.24022305  0.84053719  0.73598909
   0.09022296  0.89053732  0.88802421
   0.89022309  0.29053712  0.58395392
   0.74022305  0.34053719  0.73598909
   0.59022284  0.39053726  0.88802421
   0.99022305  0.59053713  0.58395392
   0.84022301  0.64053720  0.73598909
   0.69022298  0.69053721  0.88802421
   0.09022307  0.89053708  0.58395392
   0.94022298  0.94053716  0.73598909
   0.79022288  0.99053729  0.88802421
   0.79022306  0.99053711  0.58395392
   0.64022303  0.04053724  0.73598909
   0.49022293  0.09053731  0.88802421
