 120 120   0   0
  0.2425666E+02  0.1629300E-08  0.1717433E-08  0.1040235E-08  0.5000000E-15
  1.000000000000000E-004
  CAR 
 Si and Ge interface calculation         
      6.20523022     -9.12084211  301      3.61567486      1.00000000
     -9.121  0.0000E+00  0.0000E+00  0.0000E+00  0.0000E+00
     -9.070  0.0000E+00  0.0000E+00  0.0000E+00  0.0000E+00
     -9.019  0.0000E+00  0.0000E+00  0.0000E+00  0.0000E+00
     -8.968  0.0000E+00  0.0000E+00  0.0000E+00  0.0000E+00
     -8.916  0.0000E+00  0.0000E+00  0.0000E+00  0.0000E+00
     -8.865  0.0000E+00  0.0000E+00  0.0000E+00  0.0000E+00
     -8.814  0.0000E+00  0.0000E+00  0.0000E+00  0.0000E+00
     -8.763  0.0000E+00  0.0000E+00  0.0000E+00  0.0000E+00
     -8.712  0.0000E+00  0.0000E+00  0.0000E+00  0.0000E+00
     -8.661  0.0000E+00  0.0000E+00  0.0000E+00  0.0000E+00
     -8.610  0.0000E+00  0.0000E+00  0.0000E+00  0.0000E+00
     -8.559  0.0000E+00  0.0000E+00  0.0000E+00  0.0000E+00
     -8.508  0.0000E+00  0.0000E+00  0.0000E+00  0.0000E+00
     -8.457  0.6972E-05  0.1128E-06  0.3562E-06  0.5765E-08
     -8.406  0.5762E+01  0.4737E+01  0.2944E+00  0.2420E+00
     -8.355  0.7836E+01  0.6774E+01  0.6947E+00  0.5881E+00
     -8.303  0.2171E+02  0.2089E+02  0.1804E+01  0.1655E+01
     -8.252  0.1022E+02  0.1252E+02  0.2326E+01  0.2295E+01
     -8.201  0.3748E+01  0.3742E+01  0.2517E+01  0.2486E+01
     -8.150  0.3196E+02  0.3126E+02  0.4150E+01  0.4083E+01
     -8.099  0.1333E+02  0.1123E+02  0.4831E+01  0.4657E+01
     -8.048  0.9840E+01  0.1321E+02  0.5334E+01  0.5332E+01
     -7.997  0.1428E+02  0.1324E+02  0.6063E+01  0.6008E+01
     -7.946  0.1182E+02  0.1023E+02  0.6667E+01  0.6531E+01
     -7.895  0.2610E+02  0.2876E+02  0.8000E+01  0.8000E+01
     -7.844  0.1640E+02  0.1152E+02  0.8838E+01  0.8588E+01
     -7.793  0.2262E+02  0.2682E+02  0.9993E+01  0.9959E+01
     -7.741  0.1462E+02  0.7838E+01  0.1074E+02  0.1036E+02
     -7.690  0.2466E+02  0.3212E+02  0.1200E+02  0.1200E+02
     -7.639  0.1704E+02  0.1397E+02  0.1287E+02  0.1271E+02
     -7.588  0.2896E+02  0.2569E+02  0.1435E+02  0.1403E+02
     -7.537  0.1287E+02  0.1908E+02  0.1501E+02  0.1500E+02
     -7.486  0.6398E+01  0.6459E+01  0.1533E+02  0.1533E+02
     -7.435  0.1182E+02  0.1039E+02  0.1594E+02  0.1586E+02
     -7.384  0.2001E+02  0.1971E+02  0.1696E+02  0.1687E+02
     -7.333  0.4005E+02  0.3802E+02  0.1901E+02  0.1881E+02
     -7.282  0.3685E+02  0.3719E+02  0.2089E+02  0.2071E+02
     -7.231  0.2087E+02  0.1753E+02  0.2196E+02  0.2161E+02
     -7.180  0.3504E+02  0.3828E+02  0.2375E+02  0.2356E+02
     -7.128  0.3228E+02  0.3269E+02  0.2539E+02  0.2523E+02
     -7.077  0.2259E+02  0.2036E+02  0.2655E+02  0.2627E+02
     -7.026  0.3454E+02  0.3355E+02  0.2831E+02  0.2799E+02
     -6.975  0.3293E+02  0.3480E+02  0.3000E+02  0.2976E+02
     -6.924  0.3358E+02  0.3429E+02  0.3171E+02  0.3152E+02
     -6.873  0.3737E+02  0.3807E+02  0.3362E+02  0.3346E+02
     -6.822  0.2024E+02  0.2085E+02  0.3465E+02  0.3453E+02
     -6.771  0.4795E+02  0.4671E+02  0.3710E+02  0.3691E+02
     -6.720  0.3135E+02  0.2877E+02  0.3871E+02  0.3838E+02
     -6.669  0.1883E+02  0.2089E+02  0.3967E+02  0.3945E+02
     -6.618  0.3159E+02  0.3406E+02  0.4128E+02  0.4119E+02
     -6.566  0.3117E+02  0.2589E+02  0.4287E+02  0.4251E+02
     -6.515  0.3261E+02  0.3270E+02  0.4454E+02  0.4418E+02
     -6.464  0.3304E+02  0.3352E+02  0.4623E+02  0.4589E+02
     -6.413  0.4224E+02  0.4179E+02  0.4839E+02  0.4803E+02
     -6.362  0.3475E+02  0.3875E+02  0.5016E+02  0.5001E+02
     -6.311  0.2215E+02  0.2123E+02  0.5129E+02  0.5109E+02
     -6.260  0.4449E+02  0.4228E+02  0.5357E+02  0.5325E+02
     -6.209  0.3374E+02  0.3231E+02  0.5529E+02  0.5490E+02
     -6.158  0.4809E+02  0.5390E+02  0.5775E+02  0.5766E+02
     -6.107  0.3599E+02  0.3320E+02  0.5958E+02  0.5935E+02
     -6.056  0.2346E+02  0.2221E+02  0.6078E+02  0.6049E+02
     -6.005  0.4696E+02  0.4911E+02  0.6318E+02  0.6300E+02
     -5.953  0.4619E+02  0.4496E+02  0.6554E+02  0.6530E+02
     -5.902  0.3864E+02  0.3528E+02  0.6752E+02  0.6710E+02
     -5.851  0.3832E+02  0.4246E+02  0.6947E+02  0.6927E+02
     -5.800  0.3409E+02  0.3532E+02  0.7121E+02  0.7107E+02
     -5.749  0.2821E+02  0.2803E+02  0.7266E+02  0.7250E+02
     -5.698  0.3574E+02  0.3392E+02  0.7448E+02  0.7424E+02
     -5.647  0.3815E+02  0.3441E+02  0.7643E+02  0.7599E+02
     -5.596  0.4401E+02  0.4651E+02  0.7868E+02  0.7837E+02
     -5.545  0.3458E+02  0.3512E+02  0.8045E+02  0.8016E+02
     -5.494  0.3828E+02  0.3829E+02  0.8240E+02  0.8212E+02
     -5.443  0.3389E+02  0.3627E+02  0.8413E+02  0.8397E+02
     -5.391  0.4349E+02  0.3953E+02  0.8635E+02  0.8599E+02
     -5.340  0.3285E+02  0.3802E+02  0.8803E+02  0.8793E+02
     -5.289  0.2036E+02  0.1938E+02  0.8907E+02  0.8892E+02
     -5.238  0.3823E+02  0.3601E+02  0.9103E+02  0.9076E+02
     -5.187  0.3425E+02  0.3688E+02  0.9278E+02  0.9265E+02
     -5.136  0.5247E+02  0.4999E+02  0.9546E+02  0.9520E+02
     -5.085  0.2296E+02  0.2389E+02  0.9663E+02  0.9642E+02
     -5.034  0.3551E+02  0.3554E+02  0.9844E+02  0.9824E+02
     -4.983  0.3285E+02  0.2769E+02  0.1001E+03  0.9965E+02
     -4.932  0.3773E+02  0.4085E+02  0.1020E+03  0.1017E+03
     -4.881  0.1333E+02  0.1507E+02  0.1027E+03  0.1025E+03
     -4.830  0.4278E+02  0.4268E+02  0.1049E+03  0.1047E+03
     -4.778  0.3707E+02  0.3444E+02  0.1068E+03  0.1065E+03
     -4.727  0.3579E+02  0.3705E+02  0.1086E+03  0.1083E+03
     -4.676  0.3305E+02  0.3721E+02  0.1103E+03  0.1102E+03
     -4.625  0.4091E+02  0.3678E+02  0.1124E+03  0.1121E+03
     -4.574  0.2271E+02  0.2491E+02  0.1136E+03  0.1134E+03
     -4.523  0.3053E+02  0.2927E+02  0.1151E+03  0.1149E+03
     -4.472  0.3500E+02  0.3550E+02  0.1169E+03  0.1167E+03
     -4.421  0.4002E+02  0.3861E+02  0.1190E+03  0.1187E+03
     -4.370  0.3144E+02  0.3532E+02  0.1206E+03  0.1205E+03
     -4.319  0.3569E+02  0.3100E+02  0.1224E+03  0.1221E+03
     -4.268  0.3758E+02  0.3874E+02  0.1243E+03  0.1240E+03
     -4.216  0.3755E+02  0.3795E+02  0.1262E+03  0.1260E+03
     -4.165  0.2434E+02  0.2592E+02  0.1275E+03  0.1273E+03
     -4.114  0.3339E+02  0.3316E+02  0.1292E+03  0.1290E+03
     -4.063  0.1549E+02  0.1731E+02  0.1300E+03  0.1299E+03
     -4.012  0.2094E+02  0.1995E+02  0.1310E+03  0.1309E+03
     -3.961  0.1579E+02  0.1748E+02  0.1319E+03  0.1318E+03
     -3.910  0.4888E+02  0.4587E+02  0.1344E+03  0.1341E+03
     -3.859  0.2104E+02  0.2138E+02  0.1354E+03  0.1352E+03
     -3.808  0.2936E+02  0.2811E+02  0.1369E+03  0.1367E+03
     -3.757  0.2011E+02  0.2200E+02  0.1380E+03  0.1378E+03
     -3.706  0.1187E+02  0.1114E+02  0.1386E+03  0.1384E+03
     -3.655  0.2052E+02  0.2077E+02  0.1396E+03  0.1394E+03
     -3.603  0.4111E+02  0.4039E+02  0.1417E+03  0.1415E+03
     -3.552  0.2480E+02  0.2688E+02  0.1430E+03  0.1429E+03
     -3.501  0.2972E+02  0.2723E+02  0.1445E+03  0.1443E+03
     -3.450  0.4097E+02  0.3722E+02  0.1466E+03  0.1462E+03
     -3.399  0.2134E+02  0.2965E+02  0.1477E+03  0.1477E+03
     -3.348  0.2302E+02  0.1826E+02  0.1489E+03  0.1486E+03
     -3.297  0.3992E+02  0.3719E+02  0.1509E+03  0.1505E+03
     -3.246  0.4245E+02  0.4225E+02  0.1531E+03  0.1527E+03
     -3.195  0.2570E+02  0.2464E+02  0.1544E+03  0.1539E+03
     -3.144  0.3162E+02  0.3378E+02  0.1560E+03  0.1556E+03
     -3.093  0.3709E+02  0.4072E+02  0.1579E+03  0.1577E+03
     -3.042  0.2304E+02  0.2347E+02  0.1591E+03  0.1589E+03
     -2.990  0.4368E+02  0.3953E+02  0.1613E+03  0.1609E+03
     -2.939  0.2846E+02  0.3165E+02  0.1627E+03  0.1626E+03
     -2.888  0.3452E+02  0.3487E+02  0.1645E+03  0.1643E+03
     -2.837  0.4071E+02  0.3743E+02  0.1666E+03  0.1663E+03
     -2.786  0.5083E+02  0.4902E+02  0.1692E+03  0.1688E+03
     -2.735  0.2539E+02  0.3057E+02  0.1705E+03  0.1703E+03
     -2.684  0.2749E+02  0.2959E+02  0.1719E+03  0.1718E+03
     -2.633  0.3369E+02  0.2819E+02  0.1736E+03  0.1733E+03
     -2.582  0.3381E+02  0.3626E+02  0.1753E+03  0.1751E+03
     -2.531  0.2996E+02  0.2654E+02  0.1769E+03  0.1765E+03
     -2.480  0.2431E+02  0.2929E+02  0.1781E+03  0.1780E+03
     -2.428  0.3202E+02  0.2882E+02  0.1797E+03  0.1794E+03
     -2.377  0.4515E+02  0.4303E+02  0.1820E+03  0.1816E+03
     -2.326  0.4404E+02  0.4919E+02  0.1843E+03  0.1842E+03
     -2.275  0.3093E+02  0.2957E+02  0.1859E+03  0.1857E+03
     -2.224  0.4320E+02  0.3989E+02  0.1881E+03  0.1877E+03
     -2.173  0.3920E+02  0.4125E+02  0.1901E+03  0.1898E+03
     -2.122  0.2852E+02  0.3160E+02  0.1915E+03  0.1914E+03
     -2.071  0.6145E+02  0.5694E+02  0.1947E+03  0.1943E+03
     -2.020  0.2244E+02  0.2685E+02  0.1958E+03  0.1957E+03
     -1.969  0.3546E+02  0.2999E+02  0.1976E+03  0.1972E+03
     -1.918  0.2623E+02  0.3192E+02  0.1990E+03  0.1989E+03
     -1.867  0.3577E+02  0.2852E+02  0.2008E+03  0.2003E+03
     -1.815  0.3781E+02  0.4091E+02  0.2027E+03  0.2024E+03
     -1.764  0.3864E+02  0.4017E+02  0.2047E+03  0.2045E+03
     -1.713  0.3048E+02  0.3231E+02  0.2063E+03  0.2061E+03
     -1.662  0.2644E+02  0.2689E+02  0.2076E+03  0.2075E+03
     -1.611  0.2026E+02  0.1905E+02  0.2087E+03  0.2085E+03
     -1.560  0.2143E+02  0.2244E+02  0.2098E+03  0.2096E+03
     -1.509  0.3542E+02  0.3211E+02  0.2116E+03  0.2113E+03
     -1.458  0.2990E+02  0.3297E+02  0.2131E+03  0.2129E+03
     -1.407  0.2806E+02  0.2777E+02  0.2145E+03  0.2144E+03
     -1.356  0.2596E+02  0.2880E+02  0.2159E+03  0.2158E+03
     -1.305  0.1921E+02  0.1515E+02  0.2168E+03  0.2166E+03
     -1.253  0.1854E+02  0.1839E+02  0.2178E+03  0.2175E+03
     -1.202  0.1651E+02  0.1745E+02  0.2186E+03  0.2184E+03
     -1.151  0.5018E+02  0.5022E+02  0.2212E+03  0.2210E+03
     -1.100  0.3267E+02  0.3160E+02  0.2229E+03  0.2226E+03
     -1.049  0.3679E+02  0.3780E+02  0.2247E+03  0.2245E+03
     -0.998  0.1651E+02  0.1887E+02  0.2256E+03  0.2255E+03
     -0.947  0.2899E+02  0.2273E+02  0.2271E+03  0.2267E+03
     -0.896  0.1519E+02  0.2275E+02  0.2278E+03  0.2278E+03
     -0.845  0.1974E+02  0.1957E+02  0.2288E+03  0.2288E+03
     -0.794  0.1285E+02  0.1305E+02  0.2295E+03  0.2295E+03
     -0.743  0.6732E+01  0.5016E+01  0.2298E+03  0.2298E+03
     -0.692  0.1945E+02  0.2033E+02  0.2308E+03  0.2308E+03
     -0.640  0.1300E+02  0.1125E+02  0.2315E+03  0.2314E+03
     -0.589  0.9840E+01  0.1235E+02  0.2320E+03  0.2320E+03
     -0.538  0.2791E+02  0.2337E+02  0.2334E+03  0.2332E+03
     -0.487  0.1467E+02  0.1906E+02  0.2342E+03  0.2342E+03
     -0.436  0.1624E+02  0.1629E+02  0.2350E+03  0.2350E+03
     -0.385  0.1371E+02  0.1318E+02  0.2357E+03  0.2357E+03
     -0.334  0.3365E+02  0.3007E+02  0.2374E+03  0.2372E+03
     -0.283  0.3439E+02  0.3084E+02  0.2392E+03  0.2388E+03
     -0.232  0.5734E+02  0.5834E+02  0.2421E+03  0.2418E+03
     -0.181  0.4179E+02  0.4123E+02  0.2442E+03  0.2439E+03
     -0.130  0.5329E+02  0.5087E+02  0.2470E+03  0.2465E+03
     -0.078  0.7049E+02  0.7312E+02  0.2506E+03  0.2502E+03
     -0.027  0.5500E+02  0.5342E+02  0.2534E+03  0.2529E+03
      0.024  0.7301E+02  0.7253E+02  0.2571E+03  0.2566E+03
      0.075  0.5973E+02  0.6320E+02  0.2602E+03  0.2599E+03
      0.126  0.6609E+02  0.6153E+02  0.2635E+03  0.2630E+03
      0.177  0.7253E+02  0.7469E+02  0.2672E+03  0.2668E+03
      0.228  0.6652E+02  0.6822E+02  0.2706E+03  0.2703E+03
      0.279  0.6848E+02  0.6431E+02  0.2741E+03  0.2736E+03
      0.330  0.6653E+02  0.6971E+02  0.2775E+03  0.2772E+03
      0.381  0.7861E+02  0.7752E+02  0.2816E+03  0.2811E+03
      0.432  0.6147E+02  0.6194E+02  0.2847E+03  0.2843E+03
      0.483  0.6639E+02  0.6393E+02  0.2881E+03  0.2876E+03
      0.535  0.5965E+02  0.5953E+02  0.2911E+03  0.2906E+03
      0.586  0.7431E+02  0.7504E+02  0.2949E+03  0.2944E+03
      0.637  0.5986E+02  0.5864E+02  0.2980E+03  0.2974E+03
      0.688  0.7696E+02  0.7821E+02  0.3019E+03  0.3014E+03
      0.739  0.7193E+02  0.7199E+02  0.3056E+03  0.3051E+03
      0.790  0.6061E+02  0.6162E+02  0.3087E+03  0.3082E+03
      0.841  0.7904E+02  0.8003E+02  0.3127E+03  0.3123E+03
      0.892  0.7026E+02  0.7276E+02  0.3163E+03  0.3160E+03
      0.943  0.7542E+02  0.6953E+02  0.3202E+03  0.3196E+03
      0.994  0.6885E+02  0.7055E+02  0.3237E+03  0.3232E+03
      1.045  0.6753E+02  0.6605E+02  0.3271E+03  0.3266E+03
      1.097  0.5448E+02  0.5919E+02  0.3299E+03  0.3296E+03
      1.148  0.6018E+02  0.5591E+02  0.3330E+03  0.3325E+03
      1.199  0.7932E+02  0.7406E+02  0.3371E+03  0.3362E+03
      1.250  0.7050E+02  0.7402E+02  0.3407E+03  0.3400E+03
      1.301  0.7239E+02  0.7278E+02  0.3444E+03  0.3437E+03
      1.352  0.5388E+02  0.5741E+02  0.3471E+03  0.3467E+03
      1.403  0.5391E+02  0.5560E+02  0.3499E+03  0.3495E+03
      1.454  0.7777E+02  0.7243E+02  0.3538E+03  0.3532E+03
      1.505  0.7519E+02  0.7812E+02  0.3577E+03  0.3572E+03
      1.556  0.5715E+02  0.5810E+02  0.3606E+03  0.3602E+03
      1.607  0.6078E+02  0.5859E+02  0.3637E+03  0.3632E+03
      1.658  0.5459E+02  0.5712E+02  0.3665E+03  0.3661E+03
      1.710  0.5850E+02  0.6152E+02  0.3695E+03  0.3692E+03
      1.761  0.7591E+02  0.7037E+02  0.3734E+03  0.3728E+03
      1.812  0.6764E+02  0.6518E+02  0.3768E+03  0.3762E+03
      1.863  0.5289E+02  0.6094E+02  0.3795E+03  0.3793E+03
      1.914  0.6732E+02  0.6271E+02  0.3829E+03  0.3825E+03
      1.965  0.5269E+02  0.5627E+02  0.3856E+03  0.3853E+03
      2.016  0.6230E+02  0.6042E+02  0.3888E+03  0.3884E+03
      2.067  0.5937E+02  0.5407E+02  0.3919E+03  0.3912E+03
      2.118  0.6375E+02  0.6773E+02  0.3951E+03  0.3947E+03
      2.169  0.7205E+02  0.6667E+02  0.3988E+03  0.3981E+03
      2.220  0.6564E+02  0.6854E+02  0.4021E+03  0.4016E+03
      2.272  0.6476E+02  0.5998E+02  0.4055E+03  0.4046E+03
      2.323  0.6374E+02  0.7300E+02  0.4087E+03  0.4084E+03
      2.374  0.7335E+02  0.6944E+02  0.4125E+03  0.4119E+03
      2.425  0.5306E+02  0.5309E+02  0.4152E+03  0.4146E+03
      2.476  0.6997E+02  0.7046E+02  0.4187E+03  0.4182E+03
      2.527  0.5402E+02  0.5375E+02  0.4215E+03  0.4210E+03
      2.578  0.5558E+02  0.5084E+02  0.4243E+03  0.4236E+03
      2.629  0.6547E+02  0.6825E+02  0.4277E+03  0.4270E+03
      2.680  0.4418E+02  0.5081E+02  0.4299E+03  0.4296E+03
      2.731  0.4086E+02  0.3863E+02  0.4320E+03  0.4316E+03
      2.782  0.6085E+02  0.5696E+02  0.4351E+03  0.4345E+03
      2.833  0.5601E+02  0.6243E+02  0.4380E+03  0.4377E+03
      2.885  0.4246E+02  0.3542E+02  0.4402E+03  0.4395E+03
      2.936  0.6353E+02  0.6521E+02  0.4434E+03  0.4429E+03
      2.987  0.4231E+02  0.4584E+02  0.4456E+03  0.4452E+03
      3.038  0.4863E+02  0.5031E+02  0.4481E+03  0.4478E+03
      3.089  0.3609E+02  0.3239E+02  0.4499E+03  0.4494E+03
      3.140  0.5935E+02  0.5599E+02  0.4529E+03  0.4523E+03
      3.191  0.6124E+02  0.5665E+02  0.4561E+03  0.4552E+03
      3.242  0.5656E+02  0.5497E+02  0.4590E+03  0.4580E+03
      3.293  0.4459E+02  0.5031E+02  0.4612E+03  0.4606E+03
      3.344  0.6302E+02  0.6068E+02  0.4645E+03  0.4637E+03
      3.395  0.5943E+02  0.6111E+02  0.4675E+03  0.4668E+03
      3.447  0.5554E+02  0.5238E+02  0.4703E+03  0.4695E+03
      3.498  0.5184E+02  0.5387E+02  0.4730E+03  0.4722E+03
      3.549  0.5673E+02  0.5598E+02  0.4759E+03  0.4751E+03
      3.600  0.6115E+02  0.5715E+02  0.4790E+03  0.4780E+03
      3.651  0.4113E+02  0.4884E+02  0.4811E+03  0.4805E+03
      3.702  0.5442E+02  0.4899E+02  0.4839E+03  0.4830E+03
      3.753  0.5099E+02  0.5299E+02  0.4865E+03  0.4857E+03
      3.804  0.5552E+02  0.6235E+02  0.4893E+03  0.4889E+03
      3.855  0.7460E+02  0.6675E+02  0.4931E+03  0.4923E+03
      3.906  0.3061E+02  0.3734E+02  0.4947E+03  0.4942E+03
      3.957  0.5410E+02  0.5325E+02  0.4975E+03  0.4969E+03
      4.008  0.5830E+02  0.5448E+02  0.5004E+03  0.4997E+03
      4.060  0.5930E+02  0.6196E+02  0.5035E+03  0.5029E+03
      4.111  0.4963E+02  0.5102E+02  0.5060E+03  0.5055E+03
      4.162  0.6288E+02  0.5962E+02  0.5092E+03  0.5085E+03
      4.213  0.4584E+02  0.5015E+02  0.5116E+03  0.5111E+03
      4.264  0.5035E+02  0.4287E+02  0.5141E+03  0.5133E+03
      4.315  0.5149E+02  0.5025E+02  0.5168E+03  0.5158E+03
      4.366  0.3968E+02  0.4621E+02  0.5188E+03  0.5182E+03
      4.417  0.5462E+02  0.4704E+02  0.5216E+03  0.5206E+03
      4.468  0.4201E+02  0.5339E+02  0.5237E+03  0.5233E+03
      4.519  0.5614E+02  0.4917E+02  0.5266E+03  0.5258E+03
      4.570  0.4926E+02  0.5932E+02  0.5291E+03  0.5289E+03
      4.622  0.5345E+02  0.4398E+02  0.5318E+03  0.5311E+03
      4.673  0.5290E+02  0.5634E+02  0.5345E+03  0.5340E+03
      4.724  0.5589E+02  0.5288E+02  0.5374E+03  0.5367E+03
      4.775  0.5561E+02  0.5936E+02  0.5402E+03  0.5397E+03
      4.826  0.4796E+02  0.5252E+02  0.5427E+03  0.5424E+03
      4.877  0.4738E+02  0.3991E+02  0.5451E+03  0.5444E+03
      4.928  0.6028E+02  0.6349E+02  0.5482E+03  0.5477E+03
      4.979  0.4396E+02  0.4483E+02  0.5504E+03  0.5500E+03
      5.030  0.5263E+02  0.5408E+02  0.5531E+03  0.5527E+03
      5.081  0.6754E+02  0.6059E+02  0.5566E+03  0.5558E+03
      5.132  0.4150E+02  0.4767E+02  0.5587E+03  0.5583E+03
      5.183  0.5650E+02  0.5518E+02  0.5616E+03  0.5611E+03
      5.235  0.3908E+02  0.3994E+02  0.5636E+03  0.5631E+03
      5.286  0.5811E+02  0.5658E+02  0.5665E+03  0.5660E+03
      5.337  0.4956E+02  0.5333E+02  0.5691E+03  0.5688E+03
      5.388  0.5402E+02  0.5472E+02  0.5718E+03  0.5715E+03
      5.439  0.4675E+02  0.4566E+02  0.5742E+03  0.5739E+03
      5.490  0.2632E+02  0.3581E+02  0.5756E+03  0.5757E+03
      5.541  0.8440E+01  0.5726E+01  0.5760E+03  0.5760E+03
      5.592  0.0000E+00  0.0000E+00  0.5760E+03  0.5760E+03
      5.643  0.0000E+00  0.0000E+00  0.5760E+03  0.5760E+03
      5.694  0.0000E+00  0.0000E+00  0.5760E+03  0.5760E+03
      5.745  0.0000E+00  0.0000E+00  0.5760E+03  0.5760E+03
      5.797  0.0000E+00  0.0000E+00  0.5760E+03  0.5760E+03
      5.848  0.0000E+00  0.0000E+00  0.5760E+03  0.5760E+03
      5.899  0.0000E+00  0.0000E+00  0.5760E+03  0.5760E+03
      5.950  0.0000E+00  0.0000E+00  0.5760E+03  0.5760E+03
      6.001  0.0000E+00  0.0000E+00  0.5760E+03  0.5760E+03
      6.052  0.0000E+00  0.0000E+00  0.5760E+03  0.5760E+03
      6.103  0.0000E+00  0.0000E+00  0.5760E+03  0.5760E+03
      6.154  0.0000E+00  0.0000E+00  0.5760E+03  0.5760E+03
      6.205  0.0000E+00  0.0000E+00  0.5760E+03  0.5760E+03
