 vasp.6.4.3 19Mar24 (build Oct 22 2024 11:23:12) complex                        
  
 executed on             LinuxIFC date 2025.06.08  15:27:14
 running   64 mpi-ranks, on    4 nodes
 distrk:  each k-point on   64 cores,    1 groups
 distr:  one band on NCORE=  16 cores,    4 groups


--------------------------------------------------------------------------------------------------------


 INCAR:
   SYSTEM = Si and Ge interface calculation
   ISTART = 0
   ICHARG = 2
   LWAVE = .FALSE.
   LREAL = AUTO
   ENCUT = 700
   ENAUG = 900
   ADDGRID = .TRUE.
   LMAXMIX = 6
   LASPH = .TRUE.
   LMIXTAU = .TRUE.
   NCORE = 16
   NELM = 100
   NBANDS = 288
   EDIFF = 1d-7
   AMIX = 0.6
   ISMEAR = 0
   SIGMA = 0.01
   NELECT = 480
   ISPIN = 2
   NUPDOWN = 1
   LVTOT = .FALSE.
   LVHAR = .TRUE.

 POTCAR:    PAW_PBE Si 05Jan2001                  
 POTCAR:    PAW_PBE Ge 05Jan2001                  
 -----------------------------------------------------------------------------
|                                                                             |
|           W    W    AA    RRRRR   N    N  II  N    N   GGGG   !!!           |
|           W    W   A  A   R    R  NN   N  II  NN   N  G    G  !!!           |
|           W    W  A    A  R    R  N N  N  II  N N  N  G       !!!           |
|           W WW W  AAAAAA  RRRRR   N  N N  II  N  N N  G  GGG   !            |
|           WW  WW  A    A  R   R   N   NN  II  N   NN  G    G                |
|           W    W  A    A  R    R  N    N  II  N    N   GGGG   !!!           |
|                                                                             |
|     You use a magnetic or noncollinear calculation, but did not specify     |
|     the initial magnetic moment with the MAGMOM tag. Note that a            |
|     default of 8.333e-3 will be used for all atoms. This ferromagnetic      |
|     setup may break the symmetry of the crystal, in particular it may       |
|     rule out finding an antiferromagnetic solution. Thence, we              |
|     recommend setting the initial magnetic moment manually or verifying     |
|     carefully that this magnetic setup is desired.                          |
|                                                                             |
 -----------------------------------------------------------------------------

 POTCAR:    PAW_PBE Si 05Jan2001                  
   VRHFIN =Si: s2p2                                                                                 
   LEXCH  = PE                                                                                      
   EATOM  =   103.0669 eV,    7.5752 Ry                                                             
                                                                                                    
   TITEL  = PAW_PBE Si 05Jan2001                                                                    
   LULTRA =        F    use ultrasoft PP ?                                                          
   IUNSCR =        1    unscreen: 0-lin 1-nonlin 2-no                                               
   RPACOR =    1.500    partial core radius                                                         
   POMASS =   28.085; ZVAL   =    4.000    mass and valenz                                          
   RCORE  =    1.900    outmost cutoff radius                                                       
   RWIGS  =    2.480; RWIGS  =    1.312    wigner-seitz radius (au A)                               
   ENMAX  =  245.345; ENMIN  =  184.009 eV                                                          
   ICORE  =        2    local potential                                                             
   LCOR   =        T    correct aug charges                                                         
   LPAW   =        T    paw PP                                                                      
   EAUG   =  322.069                                                                                
   DEXC   =    0.000                                                                                
   RMAX   =    1.950    core radius for proj-oper                                                   
   RAUG   =    1.300    factor for augmentation sphere                                              
   RDEP   =    1.993    radius for radial grids                                                     
   RDEPT  =    1.837    core radius for aug-charge                                                  
                                                                                                    
   Atomic configuration                                                                             
    6 entries                                                                                       
     n  l   j            E        occ.                                                              
     1  0  0.50     -1785.8828   2.0000                                                             
     2  0  0.50      -139.4969   2.0000                                                             
     2  1  1.50       -95.5546   6.0000                                                             
     3  0  0.50       -10.8127   2.0000                                                             
     3  1  0.50        -4.0811   2.0000                                                             
     3  2  1.50        -4.0817   0.0000                                                             
   Description                                                                                      
     l       E           TYP  RCUT    TYP  RCUT                                                     
     0    -10.8127223     23  1.900                                                                 
     0     -7.6451159     23  1.900                                                                 
     1     -4.0811372     23  1.900                                                                 
     1      2.4879257     23  1.900                                                                 
     2     -4.0817478      7  1.900                                                                 
  local pseudopotential read in
  partial core-charges read in
  partial kinetic energy density read in
  atomic valenz-charges read in
  non local Contribution for L=           0  read in
    real space projection operators read in
  non local Contribution for L=           0  read in
    real space projection operators read in
  non local Contribution for L=           1  read in
    real space projection operators read in
  non local Contribution for L=           1  read in
    real space projection operators read in
    PAW grid and wavefunctions read in
 
   number of l-projection  operators is LMAX  =           4
   number of lm-projection operators is LMMAX =           8
 
 POTCAR:    PAW_PBE Ge 05Jan2001                  
   VRHFIN =Ge: s2p2                                                                                 
   LEXCH  = PE                                                                                      
   EATOM  =   104.9960 eV,    7.7170 Ry                                                             
                                                                                                    
   TITEL  = PAW_PBE Ge 05Jan2001                                                                    
   LULTRA =        F    use ultrasoft PP ?                                                          
   IUNSCR =        1    unscreen: 0-lin 1-nonlin 2-no                                               
   RPACOR =    2.170    partial core radius                                                         
   POMASS =   72.610; ZVAL   =    4.000    mass and valenz                                          
   RCORE  =    2.300    outmost cutoff radius                                                       
   RWIGS  =    2.300; RWIGS  =    1.217    wigner-seitz radius (au A)                               
   ENMAX  =  173.807; ENMIN  =  130.355 eV                                                          
   ICORE  =        3    local potential                                                             
   LCOR   =        T    correct aug charges                                                         
   LPAW   =        T    paw PP                                                                      
   EAUG   =  385.843                                                                                
   DEXC   =    0.000                                                                                
   RMAX   =    2.342    core radius for proj-oper                                                   
   RAUG   =    1.300    factor for augmentation sphere                                              
   RDEP   =    2.318    radius for radial grids                                                     
   RDEPT  =    2.103    core radius for aug-charge                                                  
                                                                                                    
   Atomic configuration                                                                             
   10 entries                                                                                       
     n  l   j            E        occ.                                                              
     1  0  0.50    -10959.8463   2.0000                                                             
     2  0  0.50     -1371.6056   2.0000                                                             
     2  1  1.50     -1198.4791   6.0000                                                             
     3  0  0.50      -168.4733   2.0000                                                             
     3  1  1.50      -115.6019   6.0000                                                             
     3  2  2.50       -29.3106  10.0000                                                             
     4  0  0.50       -11.7309   2.0000                                                             
     4  1  0.50        -3.8952   2.0000                                                             
     4  2  1.50        -4.0817   0.0000                                                             
     4  3  2.50        -4.0817   0.0000                                                             
   Description                                                                                      
     l       E           TYP  RCUT    TYP  RCUT                                                     
     0    -11.7309493     23  2.300                                                                 
     0     -7.4578696     23  2.300                                                                 
     1     -3.8952261     23  2.300                                                                 
     1      6.1178114     23  2.300                                                                 
     2     -4.0817478     23  2.300                                                                 
     3     -1.3605826      7  2.300                                                                 
  local pseudopotential read in
  partial core-charges read in
  partial kinetic energy density read in
  atomic valenz-charges read in
  non local Contribution for L=           0  read in
    real space projection operators read in
  non local Contribution for L=           0  read in
    real space projection operators read in
  non local Contribution for L=           1  read in
    real space projection operators read in
  non local Contribution for L=           1  read in
    real space projection operators read in
  non local Contribution for L=           2  read in
    real space projection operators read in
    PAW grid and wavefunctions read in
 
   number of l-projection  operators is LMAX  =           5
   number of lm-projection operators is LMMAX =          13
 
 Optimization of the real space projectors (new method)

 maximal supplied QI-value         = 19.84
 optimisation between [QCUT,QGAM] = [ 13.49, 26.99] = [ 50.98,203.92] Ry 
 Optimized for a Real-space Cutoff    1.07 Angstroem

   l    n(q)    QCUT    max X(q) W(low)/X(q) W(high)/X(q)  e(spline) 
   0      9    13.493   159.560    0.22E-03    0.15E-03    0.72E-07
   0      9    13.493   115.863    0.21E-03    0.15E-03    0.71E-07
   1      8    13.493    88.339    0.15E-03    0.11E-03    0.13E-06
   1      8    13.493    48.592    0.15E-03    0.10E-03    0.13E-06
 Optimization of the real space projectors (new method)

 maximal supplied QI-value         = 16.25
 optimisation between [QCUT,QGAM] = [ 13.49, 26.98] = [ 50.95,203.80] Ry 
 Optimized for a Real-space Cutoff    1.25 Angstroem

   l    n(q)    QCUT    max X(q) W(low)/X(q) W(high)/X(q)  e(spline) 
   0     10    13.489    65.336    0.91E-04    0.11E-03    0.34E-06
   0     10    13.489    52.220    0.89E-04    0.11E-03    0.34E-06
   1     10    13.489    36.409    0.22E-03    0.27E-03    0.14E-06
   1     10    13.489    21.334    0.21E-03    0.27E-03    0.14E-06
   2      9    13.489     4.673    0.11E-03    0.12E-03    0.19E-06
  PAW_PBE Si 05Jan2001                  :
 energy of atom  1       EATOM= -103.0669
 kinetic energy error for atom=    0.0003 (will be added to EATOM!!)
  PAW_PBE Ge 05Jan2001                  :
 energy of atom  2       EATOM= -104.9960
 kinetic energy error for atom=    0.0001 (will be added to EATOM!!)
 
 
 POSCAR: Si+Ge
  positions in direct lattice
  No initial velocities read in


 exchange-correlation table for PE
   RHO(1)=    0.500       N(1)  =     2000
   RHO(2)=  100.500       N(2)  =     4000
 


--------------------------------------------------------------------------------------------------------


 ion  position               nearest neighbor table
   1  0.130  0.826  0.413-  72 2.35  35 2.35
   2  0.964  0.076  0.000- 113 2.23  64 2.35  21 2.35
   3  0.797  0.426  0.083-  65 2.35  68 2.35  22 2.35 102 2.86
   4  0.630  0.776  0.165-  66 2.35  32 2.35  69 2.35  23 2.35
   5  0.464  0.126  0.248-  61 2.35  33 2.35  24 2.35  70 2.35
   6  0.297  0.476  0.330-  71 2.35  19 2.35  34 2.35  85 2.45
   7  0.464  0.826  0.413-  60 2.35  23 2.35 109 2.84  75 3.03
   8  0.297  0.076  0.000-  70 2.35  27 2.35  83 2.64
   9  0.130  0.426  0.083-  71 2.35  56 2.35  28 2.35 108 2.80
  10  0.964  0.776  0.165-  72 2.35  20 2.35  57 2.35  29 2.35
  11  0.797  0.126  0.248-  67 2.35  30 2.35  21 2.35  58 2.35
  12  0.630  0.476  0.330-  25 2.35  59 2.35  22 2.35  97 2.49
  13  0.797  0.826  0.413-  66 2.35  29 2.35
  14  0.630  0.076  0.000-  58 2.35  33 2.35  77 2.57
  15  0.464  0.426  0.083-  59 2.35  62 2.35  34 2.35  90 2.48
  16  0.297  0.776  0.165-  60 2.35  26 2.35  63 2.35  35 2.35
  17  0.130  0.126  0.248-  55 2.35  27 2.35  36 2.35  64 2.35
  18  0.964  0.476  0.330-  31 2.35  65 2.35  28 2.35
  19  0.214  0.576  0.413-  73 2.29  53 2.35   6 2.35
  20  0.047  0.826  0.000- 120 2.15 101 2.31  10 2.35  45 2.35
  21  0.880  0.176  0.083-  46 2.35  11 2.35   2 2.35
  22  0.714  0.526  0.165-  50 2.35  47 2.35  12 2.35   3 2.35
  23  0.547  0.876  0.248-  51 2.35  48 2.35   7 2.35   4 2.35
  24  0.380  0.226  0.330-  52 2.35   5 2.35  43 2.35
  25  0.547  0.576  0.413-  41 2.35  12 2.35 109 2.69  97 2.90
  26  0.380  0.826  0.000-  78 2.19  95 2.35  16 2.35  51 2.35
  27  0.214  0.176  0.083-  52 2.35  17 2.35   8 2.35
  28  0.047  0.526  0.165-  38 2.35  53 2.35  18 2.35   9 2.35
  29  0.880  0.876  0.248-  39 2.35  54 2.35  13 2.35  10 2.35
  30  0.714  0.226  0.330-  40 2.35  11 2.35  49 2.35
  31  0.880  0.576  0.413-  47 2.35  18 2.35 115 2.62  91 2.94
  32  0.714  0.826  0.000-   4 2.35  39 2.35  84 2.85 114 2.95  89 2.97
  33  0.547  0.176  0.083-  40 2.35   5 2.35  14 2.35
  34  0.380  0.526  0.165-  44 2.35  41 2.35   6 2.35  15 2.35
  35  0.214  0.876  0.248-  45 2.35  42 2.35   1 2.35  16 2.35
  36  0.047  0.226  0.330-  46 2.35  17 2.35  37 2.35
  37  0.130  0.326  0.413- 110 2.26  71 2.35  36 2.35 103 2.40
  38  0.964  0.576  0.000-  96 2.06  28 2.35  57 2.35
  39  0.797  0.926  0.083-  29 2.35  58 2.35  32 2.35
  40  0.630  0.276  0.165-  30 2.35  68 2.35  33 2.35  59 2.35
  41  0.464  0.626  0.248-  25 2.35  34 2.35  69 2.35  60 2.35
  42  0.297  0.976  0.330-  70 2.35  35 2.35  55 2.35
  43  0.464  0.326  0.413-  59 2.35  24 2.35 116 2.90  80 3.00  97 3.02
  44  0.297  0.576  0.000-  34 2.35  63 2.35 108 2.51 112 2.98
  45  0.130  0.926  0.083-  35 2.35  64 2.35  20 2.35
  46  0.964  0.276  0.165-  36 2.35  56 2.35  21 2.35  65 2.35
  47  0.797  0.626  0.248-  31 2.35  22 2.35  57 2.35  66 2.35
  48  0.630  0.976  0.330-  58 2.35  23 2.35  61 2.35
  49  0.797  0.326  0.413-  74 2.22  65 2.35  30 2.35  91 2.37
  50  0.630  0.576  0.000-  22 2.35  69 2.35 102 2.43  82 3.01
  51  0.464  0.926  0.083-  23 2.35  70 2.35  26 2.35
  52  0.297  0.276  0.165-  24 2.35  62 2.35  27 2.35  71 2.35
  53  0.130  0.626  0.248-  19 2.35  63 2.35  28 2.35  72 2.35
  54  0.964  0.976  0.330-  64 2.35  29 2.35  67 2.35
  55  0.214  0.076  0.413-  98 2.13  17 2.35  42 2.35
  56  0.047  0.326  0.000-  46 2.35   9 2.35
  57  0.880  0.676  0.083-  38 2.35  47 2.35  10 2.35  84 2.59
  58  0.714  0.026  0.165-  14 2.35  48 2.35  39 2.35  11 2.35
  59  0.547  0.376  0.248-  15 2.35  43 2.35  12 2.35  40 2.35
  60  0.380  0.726  0.330-  16 2.35   7 2.35  41 2.35 109 2.70
  61  0.547  0.076  0.413-   5 2.35  48 2.35  92 2.56
  62  0.380  0.326  0.000-  52 2.35  15 2.35
  63  0.214  0.676  0.083-  53 2.35  44 2.35  16 2.35
  64  0.047  0.026  0.165-   2 2.35  54 2.35  45 2.35  17 2.35
  65  0.880  0.376  0.248-   3 2.35  49 2.35  18 2.35  46 2.35
  66  0.714  0.726  0.330-   4 2.35  13 2.35  47 2.35  79 2.37
  67  0.880  0.076  0.413-  11 2.35  54 2.35  86 2.49
  68  0.714  0.326  0.000-  40 2.35   3 2.35  94 2.92
  69  0.547  0.676  0.083-  41 2.35  50 2.35   4 2.35 114 2.55
  70  0.380  0.026  0.165-   8 2.35  42 2.35  51 2.35   5 2.35
  71  0.214  0.376  0.248-   9 2.35  37 2.35   6 2.35  52 2.35
  72  0.047  0.726  0.330-  10 2.35   1 2.35  53 2.35 115 2.77
  73  0.210  0.682  0.546-  19 2.29  93 2.48 105 2.48
  74  0.835  0.293  0.610-  49 2.22  91 2.48 106 2.48  94 2.48
  75  0.460  0.904  0.674-  92 2.48 107 2.48  95 2.48   7 3.03
  76  0.085  0.515  0.738- 103 2.46  93 2.48 108 2.48  96 2.48
  77  0.710  0.126  0.803- 104 2.46  94 2.48  14 2.57
  78  0.335  0.738  0.867-  26 2.19 105 2.46  95 2.48
  79  0.710  0.682  0.546-  66 2.37  87 2.48  99 2.48
  80  0.335  0.293  0.610-  85 2.48  88 2.48 100 2.48  43 3.00
  81  0.960  0.904  0.674-  86 2.48  89 2.48 101 2.48
  82  0.585  0.515  0.738-  97 2.46  87 2.48  90 2.48 102 2.48  50 3.01
  83  0.210  0.126  0.803-  98 2.46  88 2.48   8 2.64
  84  0.835  0.738  0.867-  99 2.46  89 2.48  57 2.59  32 2.85
  85  0.335  0.432  0.546-   6 2.45 112 2.46  80 2.48
  86  0.960  0.043  0.610- 113 2.46  81 2.48  67 2.49
  87  0.585  0.654  0.674- 114 2.46  82 2.48  79 2.48 109 2.48
  88  0.210  0.265  0.738-  83 2.48  80 2.48 110 2.48
  89  0.835  0.876  0.803-  84 2.48 111 2.48  81 2.48  32 2.97
  90  0.460  0.488  0.867- 112 2.48  82 2.48  15 2.48
  91  0.835  0.432  0.546-  49 2.37 118 2.46  74 2.48  31 2.94
  92  0.460  0.043  0.610- 119 2.46  75 2.48  61 2.56
  93  0.085  0.654  0.674- 120 2.46  76 2.48  73 2.48 115 2.48
  94  0.710  0.265  0.738-  77 2.48 116 2.48  74 2.48  68 2.92
  95  0.335  0.876  0.803-  26 2.35  78 2.48 117 2.48  75 2.48
  96  0.960  0.488  0.867-  38 2.06 118 2.48  76 2.48
  97  0.585  0.432  0.546-  82 2.46 116 2.48  12 2.49  25 2.90  43 3.02
  98  0.210  0.043  0.610-  55 2.13  83 2.46 117 2.48
  99  0.835  0.654  0.674-  84 2.46 118 2.48 115 2.48  79 2.48
 100  0.460  0.265  0.738- 119 2.48 116 2.48  80 2.48
 101  0.085  0.876  0.803-  20 2.31 120 2.48 117 2.48  81 2.48
 102  0.710  0.488  0.867-  50 2.43 118 2.48  82 2.48   3 2.86
 103  0.085  0.432  0.546-  37 2.40  76 2.46 110 2.48
 104  0.710  0.043  0.610-  77 2.46 111 2.48
 105  0.335  0.654  0.674-  78 2.46 112 2.48 109 2.48  73 2.48
 106  0.960  0.265  0.738- 113 2.48 110 2.48  74 2.48
 107  0.585  0.876  0.803- 114 2.48  75 2.48 111 2.48
 108  0.210  0.488  0.867- 112 2.48  76 2.48  44 2.51   9 2.80
 109  0.460  0.682  0.546- 105 2.48  87 2.48  25 2.69  60 2.70   7 2.84
 110  0.085  0.293  0.610-  37 2.26 103 2.48 106 2.48  88 2.48
 111  0.710  0.904  0.674- 104 2.48  89 2.48 107 2.48
 112  0.335  0.515  0.738-  85 2.46 105 2.48 108 2.48  90 2.48  44 2.98
 113  0.960  0.126  0.803-   2 2.23  86 2.46 106 2.48
 114  0.585  0.738  0.867-  87 2.46 107 2.48  69 2.55  32 2.95
 115  0.960  0.682  0.546-  99 2.48  93 2.48  31 2.62  72 2.77
 116  0.585  0.293  0.610-  97 2.48  94 2.48 100 2.48  43 2.90
 117  0.210  0.904  0.674-  98 2.48 101 2.48  95 2.48
 118  0.835  0.515  0.738-  91 2.46  99 2.48  96 2.48 102 2.48
 119  0.460  0.126  0.803-  92 2.46 100 2.48
 120  0.085  0.738  0.867-  20 2.15  93 2.46 101 2.48
 
  LATTYP: Found a simple orthorhombic cell.
 ALAT       =    10.4023485180
 B/A-ratio  =     1.5662810323
 C/A-ratio  =     1.6510050330
  
  Lattice vectors:
  
 A1 = (   0.0000000000,   0.0000002530,  10.4023485180)
 A2 = (  16.2930011750,   0.0000000000,   0.0000000000)
 A3 = (   0.0000000000,  17.1743297580,   0.0000000000)


Analysis of symmetry for initial positions (statically):
=====================================================================
 Subroutine PRICEL returns:
 Original cell was already a primitive cell.
 

 Routine SETGRP: Setting up the symmetry group for a 
 simple orthorhombic supercell.


 Subroutine GETGRP returns: Found  1 space group operations
 (whereof  1 operations were pure point group operations)
 out of a pool of  8 trial point group operations.


The static configuration has the point symmetry C_1 .


Analysis of symmetry for dynamics (positions and initial velocities):
=====================================================================
 Subroutine PRICEL returns:
 Original cell was already a primitive cell.
 

 Routine SETGRP: Setting up the symmetry group for a 
 simple orthorhombic supercell.


 Subroutine GETGRP returns: Found  1 space group operations
 (whereof  1 operations were pure point group operations)
 out of a pool of  8 trial point group operations.


The dynamic configuration has the point symmetry C_1 .


Analysis of structural, dynamic, and magnetic symmetry:
=====================================================================
 Subroutine PRICEL returns:
 Original cell was already a primitive cell.
 

 Routine SETGRP: Setting up the symmetry group for a 
 simple orthorhombic supercell.


 Subroutine GETGRP returns: Found  1 space group operations
 (whereof  1 operations were pure point group operations)
 out of a pool of  8 trial point group operations.


The overall configuration has the point symmetry C_1 .


 Subroutine INISYM returns: Found  1 space group operations
 (whereof  1 operations are pure point group operations),
 and found     1 'primitive' translations


----------------------------------------------------------------------------------------

                                     Primitive cell                                     

  volume of cell :    2910.7995

  direct lattice vectors                    reciprocal lattice vectors
    16.293001175  0.000000000  0.000000000     0.061376047  0.000000000  0.000000000
     0.000000000 17.174329758  0.000000000     0.000000000  0.058226435 -0.000000001
     0.000000000  0.000000253 10.402348518     0.000000000  0.000000000  0.096132138

  length of vectors
    16.293001175 17.174329758 10.402348518     0.061376047  0.058226435  0.096132138

  position of ions in fractional coordinates (direct lattice)
     0.130378902  0.826204658  0.412751913
     0.963712454  0.076203912  0.000000057
     0.797045708  0.426204026  0.082550436
     0.630379081  0.776204169  0.165100768
     0.463712275  0.126204491  0.247651175
     0.297045529  0.476204634  0.330201566
     0.463712275  0.826204658  0.412751913
     0.297045797  0.076203912  0.000000057
     0.130379081  0.426204026  0.082550436
     0.963712394  0.776204169  0.165100768
     0.797045588  0.126204491  0.247651175
     0.630378842  0.476204634  0.330201566
     0.797045588  0.826204658  0.412751913
     0.630379140  0.076203912  0.000000057
     0.463712424  0.426204026  0.082550436
     0.297045767  0.776204169  0.165100768
     0.130378976  0.126204491  0.247651175
     0.963712215  0.476204634  0.330201566
     0.213712215  0.576204777  0.412751853
     0.047045767  0.826204002  0.000000000
     0.880379081  0.176204205  0.082550406
     0.713712335  0.526204467  0.165100709
     0.547045588  0.876204610  0.247651130
     0.380378962  0.226204634  0.330201447
     0.547045588  0.576204777  0.412751853
     0.380379081  0.826204002  0.000000000
     0.213712379  0.176204205  0.082550406
     0.047045693  0.526204467  0.165100709
     0.880378962  0.876204610  0.247651130
     0.713712335  0.226204634  0.330201447
     0.880378902  0.576204777  0.412751853
     0.713712394  0.826204002  0.000000000
     0.547045708  0.176204205  0.082550406
     0.380378991  0.526204467  0.165100709
     0.213712230  0.876204610  0.247651130
     0.047045581  0.226204634  0.330201447
     0.130378902  0.326204777  0.412751913
     0.963712394  0.576204002  0.000000023
     0.797045708  0.926204145  0.082550384
     0.630379021  0.276204228  0.165100709
     0.463712275  0.626204491  0.247651175
     0.297045648  0.976204634  0.330201447
     0.463712275  0.326204777  0.412751913
     0.297045767  0.576204002  0.000000023
     0.130379051  0.926204145  0.082550384
     0.963712394  0.276204228  0.165100709
     0.797045588  0.626204491  0.247651175
     0.630378962  0.976204634  0.330201447
     0.797045588  0.326204777  0.412751913
     0.630379140  0.576204002  0.000000023
     0.463712394  0.926204145  0.082550384
     0.297045738  0.276204228  0.165100709
     0.130378976  0.626204491  0.247651175
     0.963712335  0.976204634  0.330201447
     0.213712215  0.076204777  0.412751824
     0.047045767  0.326203912  0.000000057
     0.880379081  0.676204026  0.082550392
     0.713712394  0.026204228  0.165100724
     0.547045588  0.376204491  0.247651130
     0.380378842  0.726204753  0.330201447
     0.547045588  0.076204777  0.412751824
     0.380379111  0.326203912  0.000000057
     0.213712409  0.676204026  0.082550392
     0.047045726  0.026204228  0.165100724
     0.880378962  0.376204491  0.247651130
     0.713712215  0.726204753  0.330201447
     0.880378962  0.076204777  0.412751824
     0.713712454  0.326203912  0.000000057
     0.547045767  0.676204026  0.082550392
     0.380379081  0.026204228  0.165100724
     0.213712290  0.376204491  0.247651130
     0.047045540  0.726204753  0.330201447
     0.209534049  0.681954145  0.546128571
     0.834534049  0.293065190  0.610227466
     0.459534109  0.904176295  0.674326420
     0.084534168  0.515287161  0.738425493
     0.709534109  0.126398325  0.802524388
     0.334533989  0.737509251  0.866623282
     0.709533989  0.681954145  0.546128571
     0.334534019  0.293065071  0.610227466
     0.959534049  0.904176235  0.674326420
     0.584533989  0.515287161  0.738425374
     0.209534168  0.126398325  0.802524388
     0.834534109  0.737509489  0.866623402
     0.334534019  0.431954026  0.546128571
     0.959534049  0.043065071  0.610227466
     0.584534109  0.654176235  0.674326420
     0.209534168  0.265287161  0.738425374
     0.834533989  0.876398206  0.802524328
     0.459533989  0.487509489  0.866623282
     0.834533989  0.431954026  0.546128571
     0.459533989  0.043065071  0.610227466
     0.084534049  0.654176235  0.674326420
     0.709533989  0.265287280  0.738425374
     0.334534049  0.876398265  0.802524388
     0.959533989  0.487509489  0.866623282
     0.584534049  0.431954026  0.546128571
     0.209534049  0.043065071  0.610227466
     0.834534109  0.654176235  0.674326420
     0.459534109  0.265287161  0.738425374
     0.084534168  0.876398265  0.802524328
     0.709534109  0.487509251  0.866623282
     0.084533930  0.431953907  0.546128571
     0.709534049  0.043065071  0.610227466
     0.334534079  0.654176235  0.674326420
     0.959534049  0.265287161  0.738425374
     0.584533989  0.876398265  0.802524328
     0.209534168  0.487509489  0.866623282
     0.459534019  0.681954145  0.546128571
     0.084533930  0.293065071  0.610227466
     0.709534109  0.904176295  0.674326420
     0.334534049  0.515287161  0.738425493
     0.959534109  0.126398325  0.802524209
     0.584533989  0.737509251  0.866623282
     0.959533989  0.681954145  0.546128631
     0.584534049  0.293065071  0.610227466
     0.209534049  0.904176295  0.674326420
     0.834534109  0.515287161  0.738425493
     0.459533989  0.126398325  0.802524209
     0.084534168  0.737509489  0.866623282

  ion indices of the primitive-cell ions
   primitive index   ion index
                 1           1
                 2           2
                 3           3
                 4           4
                 5           5
                 6           6
                 7           7
                 8           8
                 9           9
                10          10
                11          11
                12          12
                13          13
                14          14
                15          15
                16          16
                17          17
                18          18
                19          19
                20          20
                21          21
                22          22
                23          23
                24          24
                25          25
                26          26
                27          27
                28          28
                29          29
                30          30
                31          31
                32          32
                33          33
                34          34
                35          35
                36          36
                37          37
                38          38
                39          39
                40          40
                41          41
                42          42
                43          43
                44          44
                45          45
                46          46
                47          47
                48          48
                49          49
                50          50
                51          51
                52          52
                53          53
                54          54
                55          55
                56          56
                57          57
                58          58
                59          59
                60          60
                61          61
                62          62
                63          63
                64          64
                65          65
                66          66
                67          67
                68          68
                69          69
                70          70
                71          71
                72          72
                73          73
                74          74
                75          75
                76          76
                77          77
                78          78
                79          79
                80          80
                81          81
                82          82
                83          83
                84          84
                85          85
                86          86
                87          87
                88          88
                89          89
                90          90
                91          91
                92          92
                93          93
                94          94
                95          95
                96          96
                97          97
                98          98
                99          99
               100         100
               101         101
               102         102
               103         103
               104         104
               105         105
               106         106
               107         107
               108         108
               109         109
               110         110
               111         111
               112         112
               113         113
               114         114
               115         115
               116         116
               117         117
               118         118
               119         119
               120         120

----------------------------------------------------------------------------------------

 
 
 KPOINTS: Automatic KPOINTS generated             

Automatic generation of k-mesh.
 Grid dimensions read from file:
 generate k-points for:    2    2    3

 Generating k-lattice:

  Cartesian coordinates                     Fractional coordinates (reciprocal lattice)
     0.030688023  0.000000000  0.000000000     0.500000000  0.000000000  0.000000000
     0.000000000  0.029113218 -0.000000001     0.000000000  0.500000000 -0.000000000
     0.000000000  0.000000000  0.032044046     0.000000000  0.000000000  0.333333333

  Length of vectors
     0.030688023  0.029113218  0.032044046

  Shift w.r.t. Gamma in fractional coordinates (k-lattice)
     0.000000000  0.000000000  0.000000000

 
 Subroutine IBZKPT returns following result:
 ===========================================
 
 Found      8 irreducible k-points:
 
 Following reciprocal coordinates:
            Coordinates               Weight
  0.000000  0.000000  0.000000      1.000000
  0.500000  0.000000  0.000000      1.000000
  0.000000  0.500000  0.000000      1.000000
  0.500000  0.500000  0.000000      1.000000
  0.000000  0.000000  0.333333      2.000000
  0.500000  0.000000  0.333333      2.000000
  0.000000  0.500000  0.333333      2.000000
  0.500000  0.500000  0.333333      2.000000
 
 Following cartesian coordinates:
            Coordinates               Weight
  0.000000  0.000000  0.000000      1.000000
  0.030688  0.000000  0.000000      1.000000
  0.000000  0.029113 -0.000000      1.000000
  0.030688  0.029113 -0.000000      1.000000
  0.000000  0.000000  0.032044      2.000000
  0.030688  0.000000  0.032044      2.000000
  0.000000  0.029113  0.032044      2.000000
  0.030688  0.029113  0.032044      2.000000
 


--------------------------------------------------------------------------------------------------------




 Dimension of arrays:
   k-points           NKPTS =      8   k-points in BZ     NKDIM =      8   number of bands    NBANDS=    288
   number of dos      NEDOS =    301   number of ions     NIONS =    120
   non local maximal  LDIM  =      5   non local SUM 2l+1 LMDIM =     13
   total plane-waves  NPLWV = 846720
   max r-space proj   IRMAX =   2407   max aug-charges    IRDMAX= 126664
   dimension x,y,z NGX =   108 NGY =  112 NGZ =   70
   dimension x,y,z NGXF=   216 NGYF=  224 NGZF=  140
   support grid    NGXF=   432 NGYF=  448 NGZF=  280
   ions per type =              72  48
   NGX,Y,Z   is equivalent  to a cutoff of  11.02, 10.84, 11.19 a.u.
   NGXF,Y,Z  is equivalent  to a cutoff of  22.04, 21.68, 22.37 a.u.

 SYSTEM =  Si and Ge interface calculation         
 POSCAR =  Si+Ge                                   

 Startparameter for this run:
   NWRITE =      2    write-flag & timer
   PREC   = normal    normal or accurate (medium, high low for compatibility)
   ISTART =      0    job   : 0-new  1-cont  2-samecut
   ICHARG =      2    charge: 1-file 2-atom 10-const
   ISPIN  =      2    spin polarized calculation?
   LNONCOLLINEAR =      F non collinear calculations
   LSORBIT =      F    spin-orbit coupling
   INIWAV =      1    electr: 0-lowe 1-rand  2-diag
   LASPH  =      T    aspherical Exc in radial PAW
 Electronic Relaxation 1
   ENCUT  =  700.0 eV  51.45 Ry    7.17 a.u.  35.15 37.05 22.44*2*pi/ulx,y,z
   ENINI  =  700.0     initial cutoff
   ENAUG  =  900.0 eV  augmentation charge cutoff
   NELM   =    100;   NELMIN=  2; NELMDL= -5     # of ELM steps 
   EDIFF  = 0.1E-06   stopping-criterion for ELM
   LREAL  =      T    real-space projection
   NLSPLINE    = F    spline interpolate recip. space projectors
   LCOMPAT=      F    compatible to vasp.4.4
   GGA_COMPAT  = T    GGA compatible to vasp.4.4-vasp.4.6
   LMAXPAW     = -100 max onsite density
   LMAXMIX     =    6 max onsite mixed and CHGCAR
   VOSKOWN=      0    Vosko Wilk Nusair interpolation
   ROPT   =   -0.00050  -0.00050
 Ionic relaxation
   EDIFFG = 0.1E-05   stopping-criterion for IOM
   NSW    =      0    number of steps for IOM
   NBLOCK =      1;   KBLOCK =      1    inner block; outer block 
   IBRION =     -1    ionic relax: 0-MD 1-quasi-New 2-CG
   NFREE  =      0    steps in history (QN), initial steepest desc. (CG)
   ISIF   =      2    stress and relaxation
   IWAVPR =     10    prediction:  0-non 1-charg 2-wave 3-comb
   ISYM   =      2    0-nonsym 1-usesym 2-fastsym
   LCORR  =      T    Harris-Foulkes like correction to forces

   POTIM  = 0.5000    time-step for ionic-motion
   TEIN   =    0.0    initial temperature
   TEBEG  =    0.0;   TEEND  =   0.0 temperature during run
   SMASS  =  -3.00    Nose mass-parameter (am)
   estimated Nose-frequenzy (Omega)   =  0.10E-29 period in steps = 0.13E+47 mass=  -0.607E-26a.u.
   SCALEE = 1.0000    scale energy and forces
   NPACO  =    256;   APACO  = 10.0  distance and # of slots for P.C.
   PSTRESS=    0.0 pullay stress

  Mass of Ions in am
   POMASS =  28.09 72.61
  Ionic Valenz
   ZVAL   =   4.00  4.00
  Atomic Wigner-Seitz radii
   RWIGS  =  -1.00 -1.00
  virtual crystal weights 
   VCA    =   1.00  1.00
   NELECT =     480.0000    total number of electrons
   NUPDOWN=       1.0000    fix difference up-down

 DOS related values:
   EMIN   =  10.00;   EMAX   =-10.00  energy-range for DOS
   EFERMI =   0.00;   METHOD = LEGACY      
   ISMEAR =     0;   SIGMA  =   0.01  broadening in eV -4-tet -1-fermi 0-gaus

 Electronic relaxation 2 (details)
   IALGO  =     38    algorithm
   LDIAG  =      T    sub-space diagonalisation (order eigenvalues)
   LSUBROT=      F    optimize rotation matrix (better conditioning)
   TURBO    =      0    0=normal 1=particle mesh
   IRESTART =      0    0=no restart 2=restart with 2 vectors
   NREBOOT  =      0    no. of reboots
   NMIN     =      0    reboot dimension
   EREF     =   0.00    reference energy to select bands
   IMIX   =      4    mixing-type and parameters
     AMIX     =   0.60;   BMIX     =  1.00
     AMIX_MAG =   2.40;   BMIX_MAG =  1.00
     AMIN     =   0.10
     WC   =   100.;   INIMIX=   1;  MIXPRE=   1;  MAXMIX= -45

 Intra band minimization:
   WEIMIN = 0.0000     energy-eigenvalue tresh-hold
   EBREAK =  0.87E-10  absolut break condition
   DEPER  =   0.30     relativ break condition  

   TIME   =   0.40     timestep for ELM

  volume/ion in A,a.u.               =      24.26       163.69
  Fermi-wavevector in a.u.,A,eV,Ry     =   0.897741  1.696485 10.965469  0.805939
  Thomas-Fermi vector in A             =   2.020363
 
 Write flags
   LWAVE        =      F    write WAVECAR
   LDOWNSAMPLE  =      F    k-point downsampling of WAVECAR
   LCHARG       =      T    write CHGCAR
   LVTOT        =      F    write LOCPOT, total local potential
   LVHAR        =      T    write LOCPOT, Hartree potential only
   WRT_POTENTIAL=  hartree ionic  ! write potential to hdf5 file
   LELF         =      F    write electronic localiz. function (ELF)
   LORBIT       =      0    0 simple, 1 ext, 2 COOP (PROOUT), +10 PAW based schemes


 Dipole corrections
   LMONO      =      F    monopole corrections only (constant potential shift)
   LDIPOL     =      F    correct potential (dipole corrections)
   IDIPOL     =      0    1-x, 2-y, 3-z, 4-all directions 
   EPSILON    =  1.0000000 bulk dielectric constant
   LVACPOTAV  =      F  vacuum potentials using an averaging scheme for the charge density
   VACPOTFLAT =  0.1000000 required flatness to determine vacuum potential
 Exchange correlation treatment:
   GGA     = PE    functional components
   XC_C    = 1    coefficients multiplying the functional components
   LIBXC   =     F    Libxc                    
   VOSKOWN =     0    Vosko Wilk Nusair interpolation
   LHFCALC =     F    Hartree Fock is set to
   LHFONE  =     F    Hartree Fock one center treatment
   AEXX    =    0.0000 exact exchange contribution

 Parameters of functionals:
   PE:
     No parameter
 
 Van der Waals corrections
   IVDW    =     0    specifies the selected vdW correction

 Linear response parameters
   LEPSILON=     F    determine dielectric tensor
   LRPA    =     F    only Hartree local field effects (RPA)
   LNABLA  =     F    use nabla operator in PAW spheres
   LVEL    =     F    velocity operator in full k-point grid
   CSHIFT  =0.1000    complex shift for real part using Kramers Kronig
   OMEGAMAX=  -1.0    maximum frequency
   DEG_THRESHOLD= 0.2000000E-02 threshold for treating states as degnerate
   RTIME   =   -0.100 relaxation time in fs
  (WPLASMAI=    0.000 imaginary part of plasma frequency in eV, 0.658/RTIME)
   DFIELD  = 0.0000000 0.0000000 0.0000000 field for delta impulse in time
 
  Optional k-point grid parameters
   LKPOINTS_OPT  =     F    use optional k-point grid
   KPOINTS_OPT_MODE=     1    mode for optional k-point grid
 
 Orbital magnetization related:
   ORBITALMAG=     F  switch on orbital magnetization
   LCHIMAG   =     F  perturbation theory with respect to B field
   DQ        =  0.001000  dq finite difference perturbation B field
   LLRAUG    =     F  two centre corrections for induced B field
   LBONE     =     F  B-component reconstruction in AE one-centre
   LVGVCALC  =     T  calculate vGv susceptibility
   LVGVAPPL  =     F  apply vGv susceptibility instead of pGv for G=0

 Random number generation:
   RANDOM_GENERATOR = DEFAULT
   PCG_SEED         = not used


--------------------------------------------------------------------------------------------------------


 Static calculation
 charge density and potential will be updated during run
 spin polarized calculation
 Variant of blocked Davidson
 Davidson routine will perform the subspace rotation
 perform sub-space diagonalisation
    after iterative eigenvector-optimisation
 modified Broyden-mixing scheme, WC =      100.0
 initial mixing is a Kerker type mixing with AMIX =  0.6000 and BMIX =      1.0000
 Hartree-type preconditioning will be used
 using additional bands           48
 real space projection scheme for non local part
 use partial core corrections
 calculate Harris-corrections to forces 
   (improved forces if not selfconsistent)
 use gradient corrections 
 use of overlap-Matrix (Vanderbilt PP)
 Gauss-broadening in eV      SIGMA  =   0.01


--------------------------------------------------------------------------------------------------------


  energy-cutoff  :      700.00
  volume of cell :     2910.80
      direct lattice vectors                 reciprocal lattice vectors
    16.293001175  0.000000000  0.000000000     0.061376047  0.000000000  0.000000000
     0.000000000 17.174329758  0.000000000     0.000000000  0.058226435 -0.000000001
     0.000000000  0.000000253 10.402348518     0.000000000  0.000000000  0.096132138

  length of vectors
    16.293001175 17.174329758 10.402348518     0.061376047  0.058226435  0.096132138


 
 k-points in units of 2pi/SCALE and weight: Automatic KPOINTS generated             
   0.00000000  0.00000000  0.00000000       0.083
   0.03068802  0.00000000  0.00000000       0.083
   0.00000000  0.02911322 -0.00000000       0.083
   0.03068802  0.02911322 -0.00000000       0.083
   0.00000000  0.00000000  0.03204405       0.167
   0.03068802  0.00000000  0.03204405       0.167
   0.00000000  0.02911322  0.03204405       0.167
   0.03068802  0.02911322  0.03204405       0.167
 
 k-points in reciprocal lattice and weights: Automatic KPOINTS generated             
   0.00000000  0.00000000  0.00000000       0.083
   0.50000000  0.00000000  0.00000000       0.083
   0.00000000  0.50000000  0.00000000       0.083
   0.50000000  0.50000000  0.00000000       0.083
   0.00000000  0.00000000  0.33333333       0.167
   0.50000000  0.00000000  0.33333333       0.167
   0.00000000  0.50000000  0.33333333       0.167
   0.50000000  0.50000000  0.33333333       0.167
 
 position of ions in fractional coordinates (direct lattice) 
   0.13037890  0.82620466  0.41275191
   0.96371245  0.07620391  0.00000006
   0.79704571  0.42620403  0.08255044
   0.63037908  0.77620417  0.16510077
   0.46371227  0.12620449  0.24765118
   0.29704553  0.47620463  0.33020157
   0.46371227  0.82620466  0.41275191
   0.29704580  0.07620391  0.00000006
   0.13037908  0.42620403  0.08255044
   0.96371239  0.77620417  0.16510077
   0.79704559  0.12620449  0.24765118
   0.63037884  0.47620463  0.33020157
   0.79704559  0.82620466  0.41275191
   0.63037914  0.07620391  0.00000006
   0.46371242  0.42620403  0.08255044
   0.29704577  0.77620417  0.16510077
   0.13037898  0.12620449  0.24765118
   0.96371222  0.47620463  0.33020157
   0.21371222  0.57620478  0.41275185
   0.04704577  0.82620400  0.00000000
   0.88037908  0.17620420  0.08255041
   0.71371233  0.52620447  0.16510071
   0.54704559  0.87620461  0.24765113
   0.38037896  0.22620463  0.33020145
   0.54704559  0.57620478  0.41275185
   0.38037908  0.82620400  0.00000000
   0.21371238  0.17620420  0.08255041
   0.04704569  0.52620447  0.16510071
   0.88037896  0.87620461  0.24765113
   0.71371233  0.22620463  0.33020145
   0.88037890  0.57620478  0.41275185
   0.71371239  0.82620400  0.00000000
   0.54704571  0.17620420  0.08255041
   0.38037899  0.52620447  0.16510071
   0.21371223  0.87620461  0.24765113
   0.04704558  0.22620463  0.33020145
   0.13037890  0.32620478  0.41275191
   0.96371239  0.57620400  0.00000002
   0.79704571  0.92620414  0.08255038
   0.63037902  0.27620423  0.16510071
   0.46371227  0.62620449  0.24765118
   0.29704565  0.97620463  0.33020145
   0.46371227  0.32620478  0.41275191
   0.29704577  0.57620400  0.00000002
   0.13037905  0.92620414  0.08255038
   0.96371239  0.27620423  0.16510071
   0.79704559  0.62620449  0.24765118
   0.63037896  0.97620463  0.33020145
   0.79704559  0.32620478  0.41275191
   0.63037914  0.57620400  0.00000002
   0.46371239  0.92620414  0.08255038
   0.29704574  0.27620423  0.16510071
   0.13037898  0.62620449  0.24765118
   0.96371233  0.97620463  0.33020145
   0.21371222  0.07620478  0.41275182
   0.04704577  0.32620391  0.00000006
   0.88037908  0.67620403  0.08255039
   0.71371239  0.02620423  0.16510072
   0.54704559  0.37620449  0.24765113
   0.38037884  0.72620475  0.33020145
   0.54704559  0.07620478  0.41275182
   0.38037911  0.32620391  0.00000006
   0.21371241  0.67620403  0.08255039
   0.04704573  0.02620423  0.16510072
   0.88037896  0.37620449  0.24765113
   0.71371222  0.72620475  0.33020145
   0.88037896  0.07620478  0.41275182
   0.71371245  0.32620391  0.00000006
   0.54704577  0.67620403  0.08255039
   0.38037908  0.02620423  0.16510072
   0.21371229  0.37620449  0.24765113
   0.04704554  0.72620475  0.33020145
   0.20953405  0.68195414  0.54612857
   0.83453405  0.29306519  0.61022747
   0.45953411  0.90417629  0.67432642
   0.08453417  0.51528716  0.73842549
   0.70953411  0.12639832  0.80252439
   0.33453399  0.73750925  0.86662328
   0.70953399  0.68195414  0.54612857
   0.33453402  0.29306507  0.61022747
   0.95953405  0.90417624  0.67432642
   0.58453399  0.51528716  0.73842537
   0.20953417  0.12639832  0.80252439
   0.83453411  0.73750949  0.86662340
   0.33453402  0.43195403  0.54612857
   0.95953405  0.04306507  0.61022747
   0.58453411  0.65417624  0.67432642
   0.20953417  0.26528716  0.73842537
   0.83453399  0.87639821  0.80252433
   0.45953399  0.48750949  0.86662328
   0.83453399  0.43195403  0.54612857
   0.45953399  0.04306507  0.61022747
   0.08453405  0.65417624  0.67432642
   0.70953399  0.26528728  0.73842537
   0.33453405  0.87639826  0.80252439
   0.95953399  0.48750949  0.86662328
   0.58453405  0.43195403  0.54612857
   0.20953405  0.04306507  0.61022747
   0.83453411  0.65417624  0.67432642
   0.45953411  0.26528716  0.73842537
   0.08453417  0.87639826  0.80252433
   0.70953411  0.48750925  0.86662328
   0.08453393  0.43195391  0.54612857
   0.70953405  0.04306507  0.61022747
   0.33453408  0.65417624  0.67432642
   0.95953405  0.26528716  0.73842537
   0.58453399  0.87639826  0.80252433
   0.20953417  0.48750949  0.86662328
   0.45953402  0.68195414  0.54612857
   0.08453393  0.29306507  0.61022747
   0.70953411  0.90417629  0.67432642
   0.33453405  0.51528716  0.73842549
   0.95953411  0.12639832  0.80252421
   0.58453399  0.73750925  0.86662328
   0.95953399  0.68195414  0.54612863
   0.58453405  0.29306507  0.61022747
   0.20953405  0.90417629  0.67432642
   0.83453411  0.51528716  0.73842549
   0.45953399  0.12639832  0.80252421
   0.08453417  0.73750949  0.86662328
 
 position of ions in cartesian coordinates  (Angst):
   2.12426360 14.18951135  4.29358925
  15.70176815  1.30875111  0.00000059
  12.98626666  7.31976851  0.85871841
  10.27076711 13.33078640  1.71743573
   7.55526464  2.16747761  2.57615383
   4.83976315  8.17849550  3.43487177
   7.55526464 14.18951135  4.29358925
   4.83976752  1.30875111  0.00000059
   2.12426652  7.31976851  0.85871841
  15.70176717 13.33078640  1.71743573
  12.98626470  2.16747761  2.57615383
  10.27076321  8.17849550  3.43487177
  12.98626470 14.18951135  4.29358925
  10.27076807  1.30875111  0.00000059
   7.55526707  7.31976851  0.85871841
   4.83976703 13.33078640  1.71743573
   2.12426481  2.16747761  2.57615383
  15.70176425  8.17849550  3.43487177
   3.48201337  9.89593095  4.29358863
   0.76651674 14.18949998  0.00000000
  14.34401740  3.02618914  0.85871809
  11.62851591  9.03720908  1.71743512
   8.91301441 15.04822697  2.57615337
   6.19751487  3.88491306  3.43487053
   8.91301441  9.89593095  4.29358863
   6.19751681 14.18949998  0.00000000
   3.48201604  3.02618914  0.85871809
   0.76651553  9.03720908  1.71743512
  14.34401546 15.04822697  2.57615337
  11.62851591  3.88491306  3.43487053
  14.34401448  9.89593095  4.29358863
  11.62851687 14.18949998  0.00000000
   8.91301636  3.02618914  0.85871809
   6.19751535  9.03720908  1.71743512
   3.48201361 15.04822697  2.57615337
   0.76651371  3.88491306  3.43487053
   2.12426360  5.60234851  4.29358925
  15.70176717  9.89591754  0.00000024
  12.98626666 15.90693543  0.85871786
  10.27076613  4.74362253  1.71743512
   7.55526464 10.75464249  2.57615383
   4.83976509 16.76566038  3.43487053
   7.55526464  5.60234851  4.29358925
   4.83976703  9.89591754  0.00000024
   2.12426603 15.90693543  0.85871786
  15.70176717  4.74362253  1.71743512
  12.98626470 10.75464249  2.57615383
  10.27076517 16.76566038  3.43487053
  12.98626470  5.60234851  4.29358925
  10.27076807  9.89591754  0.00000024
   7.55526658 15.90693543  0.85871786
   4.83976656  4.74362253  1.71743512
   2.12426481 10.75464249  2.57615383
  15.70176621 16.76566038  3.43487053
   3.48201337  1.30876607  4.29358832
   0.76651674  5.60233355  0.00000059
  14.34401740 11.61335095  0.85871795
  11.62851687  0.45004009  1.71743527
   8.91301441  6.46106005  2.57615337
   6.19751292 12.47207998  3.43487053
   8.91301441  1.30876607  4.29358832
   6.19751730  5.60233355  0.00000059
   3.48201653 11.61335095  0.85871795
   0.76651607  0.45004009  1.71743527
  14.34401546  6.46106005  2.57615337
  11.62851396 12.47207998  3.43487053
  14.34401546  1.30876607  4.29358832
  11.62851785  5.60233355  0.00000059
   8.91301732 11.61335095  0.85871795
   6.19751681  0.45004009  1.71743527
   3.48201459  6.46106005  2.57615337
   0.76651304 12.47207998  3.43487053
   3.41393851 11.71210550  5.68101973
  13.59706424  5.03319837  6.34779878
   7.48718978 15.52862202  7.01457844
   1.37731530  8.84971181  7.68135933
  11.56044007  2.17080672  8.34813838
   5.45056268 12.66622730  9.01491741
  11.56043812 11.71210550  5.68101973
   5.45056316  5.03319632  6.34779878
  15.63368939 15.52862099  7.01457844
   9.52381297  8.84971181  7.68135809
   3.41394045  2.17080672  8.34813838
  13.59706522 12.66623138  9.01491866
   5.45056316  7.41852102  5.68101973
  15.63368939  0.73961388  6.34779878
   9.52381492 11.23503855  7.01457844
   3.41394045  4.55612937  7.68135809
  13.59706326 15.05155199  8.34813775
   7.48718782  8.37264894  9.01491741
  13.59706326  7.41852102  5.68101973
   7.48718782  0.73961388  6.34779878
   1.37731336 11.23503855  7.01457844
  11.56043812  4.55613141  7.68135809
   5.45056365 15.05155301  8.34813838
  15.63368841  8.37264894  9.01491741
   9.52381395  7.41852102  5.68101973
   3.41393851  0.73961388  6.34779878
  13.59706522 11.23503855  7.01457844
   7.48718978  4.55612937  7.68135809
   1.37731530 15.05155301  8.34813775
  11.56044007  8.37264486  9.01491741
   1.37731142  7.41851898  5.68101973
  11.56043909  0.73961388  6.34779878
   5.45056414 11.23503855  7.01457844
  15.63368939  4.55612937  7.68135809
   9.52381297 15.05155301  8.34813775
   3.41394045  8.37264894  9.01491741
   7.48718831 11.71210550  5.68101973
   1.37731142  5.03319632  6.34779878
  11.56044007 15.52862202  7.01457844
   5.45056365  8.84971181  7.68135933
  15.63369037  2.17080672  8.34813652
   9.52381297 12.66622730  9.01491741
  15.63368841 11.71210550  5.68102036
   9.52381395  5.03319632  6.34779878
   3.41393851 15.52862202  7.01457844
  13.59706522  8.84971181  7.68135933
   7.48718782  2.17080672  8.34813652
   1.37731530 12.66623138  9.01491741
 


--------------------------------------------------------------------------------------------------------


 k-point     1 :   0.0000 0.0000 0.0000  plane waves:  122369
 k-point     2 :   0.5000 0.0000 0.0000  plane waves:  122546
 k-point     3 :   0.0000 0.5000 0.0000  plane waves:  122390
 k-point     4 :   0.5000 0.5000 0.0000  plane waves:  122480
 k-point     5 :   0.0000 0.0000 0.3333  plane waves:  122341
 k-point     6 :   0.5000 0.0000 0.3333  plane waves:  122338
 k-point     7 :   0.0000 0.5000 0.3333  plane waves:  122410
 k-point     8 :   0.5000 0.5000 0.3333  plane waves:  122416

 maximum and minimum number of plane-waves per node :      7748     7603

 maximum number of plane-waves:    122546
 maximum index in each direction: 
   IXMAX=   35   IYMAX=   37   IZMAX=   22
   IXMIN=  -35   IYMIN=  -37   IZMIN=  -22


 real space projection operators:
  total allocation   :      17762.34 KBytes
  max/ min on nodes  :       1190.02        960.08


 parallel 3D FFT for wavefunctions:
    minimum data exchange during FFTs selected (reduces bandwidth)
 parallel 3D FFT for charge:
    minimum data exchange during FFTs selected (reduces bandwidth)


 total amount of memory used by VASP MPI-rank0   211389. kBytes
=======================================================================

   base      :      30000. kBytes
   nonlr-proj:       6255. kBytes
   fftplans  :      17777. kBytes
   grid      :      14565. kBytes
   one-center:        129. kBytes
   wavefun   :     142663. kBytes
 
     INWAV:  cpu time      0.0000: real time      0.0001
 Broyden mixing: mesh for mixing (old mesh)
   NGX = 71   NGY = 75   NGZ = 45
  (NGX  =216   NGY  =224   NGZ  =140)
  gives a total of 239625 points

 initial charge density was supplied:
 charge density of overlapping atoms calculated
 number of electron     480.0000000 magnetization       1.0000000
 keeping initial charge density in first step


--------------------------------------------------------------------------------------------------------


 Maximum index for non-local projection operator          209
 Maximum index for augmentation-charges         2951 (set IRDMAX)


--------------------------------------------------------------------------------------------------------


 First call to EWALD:  gamma=   0.124
 Maximum number of real-space cells 2x 2x 4
 Maximum number of reciprocal cells 3x 3x 2

    FEWALD:  cpu time      0.0034: real time      0.0034


--------------------------------------- Ionic step        1  -------------------------------------------




--------------------------------------- Iteration      1(   1)  ---------------------------------------


    POTLOK:  cpu time      0.2392: real time      0.2409
    SETDIJ:  cpu time      1.0851: real time      1.0905
     EDDAV:  cpu time     26.2729: real time     26.4988
       DOS:  cpu time      0.0022: real time      0.0022
    --------------------------------------------
      LOOP:  cpu time     27.5994: real time     27.8325

 eigenvalue-minimisations  :  9216
 total energy-change (2. order) : 0.1959558E+04  (-0.2088953E+05)
 number of electron     480.0000000 magnetization       1.0000000
 augmentation part      480.0000000 magnetization       1.0000000

 Free energy of the ion-electron system (eV)
  ---------------------------------------------------
  alpha Z        PSCENC =       478.14066449
  Ewald energy   TEWEN  =    -12150.18456722
  -Hartree energ DENC   =     -1430.67085090
  -exchange      EXHF   =         0.00000000
  -V(xc)+E(xc)   XCENC  =     -1053.21887590
  PAW double counting   =     10575.88222728    -8613.76247617
  entropy T*S    EENTRO =        -0.00182111
  eigenvalues    EBANDS =      1692.77302004
  atomic energy  EATOM  =     12460.60057749
  Solvation  Ediel_sol  =         0.00000000
  ---------------------------------------------------
  free energy    TOTEN  =      1959.55789799 eV

  energy without entropy =     1959.55971910  energy(sigma->0) =     1959.55880855


--------------------------------------------------------------------------------------------------------




--------------------------------------- Iteration      1(   2)  ---------------------------------------


     EDDAV:  cpu time     29.6004: real time     29.8533
       DOS:  cpu time      0.0017: real time      0.0017
    --------------------------------------------
      LOOP:  cpu time     29.6021: real time     29.8550

 eigenvalue-minimisations  : 10776
 total energy-change (2. order) :-0.2285322E+04  (-0.2211529E+04)
 number of electron     480.0000000 magnetization       1.0000000
 augmentation part      480.0000000 magnetization       1.0000000

 Free energy of the ion-electron system (eV)
  ---------------------------------------------------
  alpha Z        PSCENC =       478.14066449
  Ewald energy   TEWEN  =    -12150.18456722
  -Hartree energ DENC   =     -1430.67085090
  -exchange      EXHF   =         0.00000000
  -V(xc)+E(xc)   XCENC  =     -1053.21887590
  PAW double counting   =     10575.88222728    -8613.76247617
  entropy T*S    EENTRO =        -0.00194403
  eigenvalues    EBANDS =      -592.54924380
  atomic energy  EATOM  =     12460.60057749
  Solvation  Ediel_sol  =         0.00000000
  ---------------------------------------------------
  free energy    TOTEN  =      -325.76448876 eV

  energy without entropy =     -325.76254474  energy(sigma->0) =     -325.76351675


--------------------------------------------------------------------------------------------------------




--------------------------------------- Iteration      1(   3)  ---------------------------------------


     EDDAV:  cpu time     31.3115: real time     31.5790
       DOS:  cpu time      0.0018: real time      0.0018
    --------------------------------------------
      LOOP:  cpu time     31.3133: real time     31.5808

 eigenvalue-minimisations  : 11616
 total energy-change (2. order) :-0.2152902E+03  (-0.2060024E+03)
 number of electron     480.0000000 magnetization       1.0000000
 augmentation part      480.0000000 magnetization       1.0000000

 Free energy of the ion-electron system (eV)
  ---------------------------------------------------
  alpha Z        PSCENC =       478.14066449
  Ewald energy   TEWEN  =    -12150.18456722
  -Hartree energ DENC   =     -1430.67085090
  -exchange      EXHF   =         0.00000000
  -V(xc)+E(xc)   XCENC  =     -1053.21887590
  PAW double counting   =     10575.88222728    -8613.76247617
  entropy T*S    EENTRO =        -0.00171743
  eigenvalues    EBANDS =      -807.83971806
  atomic energy  EATOM  =     12460.60057749
  Solvation  Ediel_sol  =         0.00000000
  ---------------------------------------------------
  free energy    TOTEN  =      -541.05473642 eV

  energy without entropy =     -541.05301900  energy(sigma->0) =     -541.05387771


--------------------------------------------------------------------------------------------------------




--------------------------------------- Iteration      1(   4)  ---------------------------------------


     EDDAV:  cpu time     30.1823: real time     30.4729
       DOS:  cpu time      0.0017: real time      0.0017
    --------------------------------------------
      LOOP:  cpu time     30.1840: real time     30.4746

 eigenvalue-minimisations  : 11112
 total energy-change (2. order) :-0.9064048E+01  (-0.8797132E+01)
 number of electron     480.0000000 magnetization       1.0000000
 augmentation part      480.0000000 magnetization       1.0000000

 Free energy of the ion-electron system (eV)
  ---------------------------------------------------
  alpha Z        PSCENC =       478.14066449
  Ewald energy   TEWEN  =    -12150.18456722
  -Hartree energ DENC   =     -1430.67085090
  -exchange      EXHF   =         0.00000000
  -V(xc)+E(xc)   XCENC  =     -1053.21887590
  PAW double counting   =     10575.88222728    -8613.76247617
  entropy T*S    EENTRO =        -0.00307236
  eigenvalues    EBANDS =      -816.90241150
  atomic energy  EATOM  =     12460.60057749
  Solvation  Ediel_sol  =         0.00000000
  ---------------------------------------------------
  free energy    TOTEN  =      -550.11878480 eV

  energy without entropy =     -550.11571244  energy(sigma->0) =     -550.11724862


--------------------------------------------------------------------------------------------------------




--------------------------------------- Iteration      1(   5)  ---------------------------------------


     EDDAV:  cpu time     33.6340: real time     33.9210
       DOS:  cpu time      0.0017: real time      0.0017
    CHARGE:  cpu time      1.3019: real time      1.3167
    MIXING:  cpu time      0.0087: real time      0.0088
    --------------------------------------------
      LOOP:  cpu time     34.9464: real time     35.2483

 eigenvalue-minimisations  : 12688
 total energy-change (2. order) :-0.3740604E+00  (-0.3703683E+00)
 number of electron     479.9999997 magnetization       1.0000000
 augmentation part      -49.2466223 magnetization      -0.0581834

 Broyden mixing:
  rms(total) = 0.29302E+01    rms(broyden)= 0.29302E+01
  rms(prec ) = 0.32086E+01
  weight for this iteration     100.00

 Free energy of the ion-electron system (eV)
  ---------------------------------------------------
  alpha Z        PSCENC =       478.14066449
  Ewald energy   TEWEN  =    -12150.18456722
  -Hartree energ DENC   =     -1430.67085090
  -exchange      EXHF   =         0.00000000
  -V(xc)+E(xc)   XCENC  =     -1053.21887590
  PAW double counting   =     10575.88222728    -8613.76247617
  entropy T*S    EENTRO =        -0.00310106
  eigenvalues    EBANDS =      -817.27644322
  atomic energy  EATOM  =     12460.60057749
  Solvation  Ediel_sol  =         0.00000000
  ---------------------------------------------------
  free energy    TOTEN  =      -550.49284522 eV

  energy without entropy =     -550.48974416  energy(sigma->0) =     -550.49129469


--------------------------------------------------------------------------------------------------------




--------------------------------------- Iteration      1(   6)  ---------------------------------------


    POTLOK:  cpu time      0.2184: real time      0.2206
    SETDIJ:  cpu time      1.0813: real time      1.0865
     EDDAV:  cpu time     30.0318: real time     30.2991
       DOS:  cpu time      0.0018: real time      0.0018
    CHARGE:  cpu time      1.3034: real time      1.3132
    MIXING:  cpu time      0.0081: real time      0.0081
    --------------------------------------------
      LOOP:  cpu time     32.6448: real time     32.9293

 eigenvalue-minimisations  : 11048
 total energy-change (2. order) : 0.1018716E+02  (-0.3694495E+01)
 number of electron     479.9999997 magnetization       1.0000000
 augmentation part      -49.2400885 magnetization      -0.0474598

 Broyden mixing:
  rms(total) = 0.12860E+01    rms(broyden)= 0.12860E+01
  rms(prec ) = 0.14736E+01
  weight for this iteration     100.00

 eigenvalues of (default mixing * dielectric matrix)
  average eigenvalue GAMMA=   1.5367
  1.5367

 Free energy of the ion-electron system (eV)
  ---------------------------------------------------
  alpha Z        PSCENC =       478.14066449
  Ewald energy   TEWEN  =    -12150.18456722
  -Hartree energ DENC   =     -1563.86975897
  -exchange      EXHF   =         0.00000000
  -V(xc)+E(xc)   XCENC  =     -1036.96558387
  PAW double counting   =     20718.98661309   -18763.99370676
  entropy T*S    EENTRO =        -0.00319206
  eigenvalues    EBANDS =      -683.01673317
  atomic energy  EATOM  =     12460.60057749
  Solvation  Ediel_sol  =         0.00000000
  ---------------------------------------------------
  free energy    TOTEN  =      -540.30568698 eV

  energy without entropy =     -540.30249492  energy(sigma->0) =     -540.30409095


--------------------------------------------------------------------------------------------------------




--------------------------------------- Iteration      1(   7)  ---------------------------------------


    POTLOK:  cpu time      0.2169: real time      0.2184
    SETDIJ:  cpu time      1.0866: real time      1.0978
     EDDAV:  cpu time     30.5586: real time     30.8321
       DOS:  cpu time      0.0018: real time      0.0018
    CHARGE:  cpu time      1.3031: real time      1.3128
    MIXING:  cpu time      0.0084: real time      0.0084
    --------------------------------------------
      LOOP:  cpu time     33.1754: real time     33.4713

 eigenvalue-minimisations  : 11288
 total energy-change (2. order) :-0.9790260E-01  (-0.2170015E+01)
 number of electron     479.9999997 magnetization       1.0000000
 augmentation part      -49.0885166 magnetization      -0.0542174

 Broyden mixing:
  rms(total) = 0.79072E+00    rms(broyden)= 0.79072E+00
  rms(prec ) = 0.10950E+01
  weight for this iteration     100.00

 eigenvalues of (default mixing * dielectric matrix)
  average eigenvalue GAMMA=   1.1499
  1.7880  0.5117

 Free energy of the ion-electron system (eV)
  ---------------------------------------------------
  alpha Z        PSCENC =       478.14066449
  Ewald energy   TEWEN  =    -12150.18456722
  -Hartree energ DENC   =     -1589.75441965
  -exchange      EXHF   =         0.00000000
  -V(xc)+E(xc)   XCENC  =     -1029.59605859
  PAW double counting   =     27821.57719760   -25869.56496458
  entropy T*S    EENTRO =        -0.00241641
  eigenvalues    EBANDS =      -661.61960272
  atomic energy  EATOM  =     12460.60057749
  Solvation  Ediel_sol  =         0.00000000
  ---------------------------------------------------
  free energy    TOTEN  =      -540.40358958 eV

  energy without entropy =     -540.40117318  energy(sigma->0) =     -540.40238138


--------------------------------------------------------------------------------------------------------




--------------------------------------- Iteration      1(   8)  ---------------------------------------


    POTLOK:  cpu time      0.2174: real time      0.2200
    SETDIJ:  cpu time      1.0747: real time      1.0797
     EDDAV:  cpu time     31.6649: real time     31.9325
       DOS:  cpu time      0.0021: real time      0.0021
    CHARGE:  cpu time      1.3033: real time      1.3132
    MIXING:  cpu time      0.0084: real time      0.0085
    --------------------------------------------
      LOOP:  cpu time     34.2708: real time     34.5560

 eigenvalue-minimisations  : 11824
 total energy-change (2. order) : 0.7688023E+00  (-0.5638257E+00)
 number of electron     479.9999997 magnetization       1.0000000
 augmentation part      -48.9569346 magnetization      -0.0543279

 Broyden mixing:
  rms(total) = 0.31128E+00    rms(broyden)= 0.31128E+00
  rms(prec ) = 0.56076E+00
  weight for this iteration     100.00

 eigenvalues of (default mixing * dielectric matrix)
  average eigenvalue GAMMA=   1.0176
  1.8142  0.6193  0.6193

 Free energy of the ion-electron system (eV)
  ---------------------------------------------------
  alpha Z        PSCENC =       478.14066449
  Ewald energy   TEWEN  =    -12150.18456722
  -Hartree energ DENC   =     -1616.00718942
  -exchange      EXHF   =         0.00000000
  -V(xc)+E(xc)   XCENC  =     -1026.16737464
  PAW double counting   =     32810.14514763   -30859.58776284
  entropy T*S    EENTRO =        -0.00292424
  eigenvalues    EBANDS =      -636.57135855
  atomic energy  EATOM  =     12460.60057749
  Solvation  Ediel_sol  =         0.00000000
  ---------------------------------------------------
  free energy    TOTEN  =      -539.63478731 eV

  energy without entropy =     -539.63186306  energy(sigma->0) =     -539.63332518


--------------------------------------------------------------------------------------------------------




--------------------------------------- Iteration      1(   9)  ---------------------------------------


    POTLOK:  cpu time      0.2162: real time      0.2177
    SETDIJ:  cpu time      1.0751: real time      1.0801
     EDDAV:  cpu time     31.4342: real time     31.7060
       DOS:  cpu time      0.0018: real time      0.0018
    CHARGE:  cpu time      1.2890: real time      1.2988
    MIXING:  cpu time      0.0090: real time      0.0090
    --------------------------------------------
      LOOP:  cpu time     34.0253: real time     34.3134

 eigenvalue-minimisations  : 11704
 total energy-change (2. order) : 0.2707496E+00  (-0.1675733E+00)
 number of electron     479.9999997 magnetization       1.0000000
 augmentation part      -49.0027287 magnetization      -0.0531393

 Broyden mixing:
  rms(total) = 0.15139E+00    rms(broyden)= 0.15139E+00
  rms(prec ) = 0.22216E+00
  weight for this iteration     100.00

 eigenvalues of (default mixing * dielectric matrix)
  average eigenvalue GAMMA=   0.9827
  1.7400  1.1484  0.6739  0.3686

 Free energy of the ion-electron system (eV)
  ---------------------------------------------------
  alpha Z        PSCENC =       478.14066449
  Ewald energy   TEWEN  =    -12150.18456722
  -Hartree energ DENC   =     -1614.56788486
  -exchange      EXHF   =         0.00000000
  -V(xc)+E(xc)   XCENC  =     -1025.76262792
  PAW double counting   =     33977.37210287   -32027.01890428
  entropy T*S    EENTRO =        -0.00275008
  eigenvalues    EBANDS =      -637.94064823
  atomic energy  EATOM  =     12460.60057749
  Solvation  Ediel_sol  =         0.00000000
  ---------------------------------------------------
  free energy    TOTEN  =      -539.36403775 eV

  energy without entropy =     -539.36128767  energy(sigma->0) =     -539.36266271


--------------------------------------------------------------------------------------------------------




--------------------------------------- Iteration      1(  10)  ---------------------------------------


    POTLOK:  cpu time      0.2181: real time      0.2199
    SETDIJ:  cpu time      1.0758: real time      1.0808
     EDDAV:  cpu time     30.0824: real time     30.3532
       DOS:  cpu time      0.0019: real time      0.0019
    CHARGE:  cpu time      1.2926: real time      1.3023
    MIXING:  cpu time      0.0087: real time      0.0088
    --------------------------------------------
      LOOP:  cpu time     32.6796: real time     32.9668

 eigenvalue-minimisations  : 10888
 total energy-change (2. order) : 0.3570691E-01  (-0.4173994E-01)
 number of electron     479.9999997 magnetization       1.0000000
 augmentation part      -49.0619546 magnetization      -0.0540735

 Broyden mixing:
  rms(total) = 0.85702E-01    rms(broyden)= 0.85702E-01
  rms(prec ) = 0.10441E+00
  weight for this iteration     100.00

 eigenvalues of (default mixing * dielectric matrix)
  average eigenvalue GAMMA=   0.9746
  1.5678  1.5678  0.7940  0.5791  0.3644

 Free energy of the ion-electron system (eV)
  ---------------------------------------------------
  alpha Z        PSCENC =       478.14066449
  Ewald energy   TEWEN  =    -12150.18456722
  -Hartree energ DENC   =     -1610.05482809
  -exchange      EXHF   =         0.00000000
  -V(xc)+E(xc)   XCENC  =     -1026.21796958
  PAW double counting   =     34282.64938915   -32332.17546064
  entropy T*S    EENTRO =        -0.00297809
  eigenvalues    EBANDS =      -642.08315834
  atomic energy  EATOM  =     12460.60057749
  Solvation  Ediel_sol  =         0.00000000
  ---------------------------------------------------
  free energy    TOTEN  =      -539.32833084 eV

  energy without entropy =     -539.32535275  energy(sigma->0) =     -539.32684179


--------------------------------------------------------------------------------------------------------




--------------------------------------- Iteration      1(  11)  ---------------------------------------


    POTLOK:  cpu time      0.2167: real time      0.2195
    SETDIJ:  cpu time      1.0699: real time      1.0759
     EDDAV:  cpu time     29.6778: real time     29.9337
       DOS:  cpu time      0.0017: real time      0.0018
    CHARGE:  cpu time      1.2957: real time      1.3061
    MIXING:  cpu time      0.0089: real time      0.0089
    --------------------------------------------
      LOOP:  cpu time     32.2708: real time     32.5459

 eigenvalue-minimisations  : 10848
 total energy-change (2. order) : 0.4785686E-02  (-0.1009643E-01)
 number of electron     479.9999997 magnetization       1.0000000
 augmentation part      -49.0891530 magnetization      -0.0538633

 Broyden mixing:
  rms(total) = 0.46795E-01    rms(broyden)= 0.46795E-01
  rms(prec ) = 0.58268E-01
  weight for this iteration     100.00

 eigenvalues of (default mixing * dielectric matrix)
  average eigenvalue GAMMA=   0.9886
  1.6528  1.6528  1.0982  0.3739  0.5769  0.5769

 Free energy of the ion-electron system (eV)
  ---------------------------------------------------
  alpha Z        PSCENC =       478.14066449
  Ewald energy   TEWEN  =    -12150.18456722
  -Hartree energ DENC   =     -1607.36100553
  -exchange      EXHF   =         0.00000000
  -V(xc)+E(xc)   XCENC  =     -1026.48522551
  PAW double counting   =     34353.57002346   -32403.02111886
  entropy T*S    EENTRO =        -0.00314767
  eigenvalues    EBANDS =      -644.57974581
  atomic energy  EATOM  =     12460.60057749
  Solvation  Ediel_sol  =         0.00000000
  ---------------------------------------------------
  free energy    TOTEN  =      -539.32354515 eV

  energy without entropy =     -539.32039748  energy(sigma->0) =     -539.32197132


--------------------------------------------------------------------------------------------------------




--------------------------------------- Iteration      1(  12)  ---------------------------------------


    POTLOK:  cpu time      0.2155: real time      0.2183
    SETDIJ:  cpu time      1.0727: real time      1.0780
     EDDAV:  cpu time     29.8690: real time     30.1220
       DOS:  cpu time      0.0018: real time      0.0018
    CHARGE:  cpu time      1.3017: real time      1.3119
    MIXING:  cpu time      0.0101: real time      0.0101
    --------------------------------------------
      LOOP:  cpu time     32.4708: real time     32.7420

 eigenvalue-minimisations  : 10928
 total energy-change (2. order) :-0.6659895E-04  (-0.2548124E-02)
 number of electron     479.9999997 magnetization       1.0000000
 augmentation part      -49.0882593 magnetization      -0.0540877

 Broyden mixing:
  rms(total) = 0.26461E-01    rms(broyden)= 0.26461E-01
  rms(prec ) = 0.36136E-01
  weight for this iteration     100.00

 eigenvalues of (default mixing * dielectric matrix)
  average eigenvalue GAMMA=   0.9921
  1.6289  1.6289  1.5056  0.6696  0.6696  0.3790  0.4628

 Free energy of the ion-electron system (eV)
  ---------------------------------------------------
  alpha Z        PSCENC =       478.14066449
  Ewald energy   TEWEN  =    -12150.18456722
  -Hartree energ DENC   =     -1606.97209337
  -exchange      EXHF   =         0.00000000
  -V(xc)+E(xc)   XCENC  =     -1026.55290287
  PAW double counting   =     34415.00619088   -32464.44857334
  entropy T*S    EENTRO =        -0.00301701
  eigenvalues    EBANDS =      -644.90989080
  atomic energy  EATOM  =     12460.60057749
  Solvation  Ediel_sol  =         0.00000000
  ---------------------------------------------------
  free energy    TOTEN  =      -539.32361175 eV

  energy without entropy =     -539.32059474  energy(sigma->0) =     -539.32210325


--------------------------------------------------------------------------------------------------------




--------------------------------------- Iteration      1(  13)  ---------------------------------------


    POTLOK:  cpu time      0.2199: real time      0.2215
    SETDIJ:  cpu time      1.0755: real time      1.0818
     EDDAV:  cpu time     30.3406: real time     30.6311
       DOS:  cpu time      0.0017: real time      0.0017
    CHARGE:  cpu time      1.3078: real time      1.3185
    MIXING:  cpu time      0.0084: real time      0.0084
    --------------------------------------------
      LOOP:  cpu time     32.9538: real time     33.2631

 eigenvalue-minimisations  : 11112
 total energy-change (2. order) : 0.4251083E-03  (-0.7642798E-03)
 number of electron     479.9999997 magnetization       1.0000000
 augmentation part      -49.0849881 magnetization      -0.0540392

 Broyden mixing:
  rms(total) = 0.15139E-01    rms(broyden)= 0.15139E-01
  rms(prec ) = 0.19305E-01
  weight for this iteration     100.00

 eigenvalues of (default mixing * dielectric matrix)
  average eigenvalue GAMMA=   1.0059
  1.7734  1.7734  1.6271  0.7484  0.7484  0.5673  0.3675  0.4416

 Free energy of the ion-electron system (eV)
  ---------------------------------------------------
  alpha Z        PSCENC =       478.14066449
  Ewald energy   TEWEN  =    -12150.18456722
  -Hartree energ DENC   =     -1607.31764406
  -exchange      EXHF   =         0.00000000
  -V(xc)+E(xc)   XCENC  =     -1026.53733558
  PAW double counting   =     34422.38848187   -32471.84511930
  entropy T*S    EENTRO =        -0.00305542
  eigenvalues    EBANDS =      -644.56518891
  atomic energy  EATOM  =     12460.60057749
  Solvation  Ediel_sol  =         0.00000000
  ---------------------------------------------------
  free energy    TOTEN  =      -539.32318664 eV

  energy without entropy =     -539.32013122  energy(sigma->0) =     -539.32165893


--------------------------------------------------------------------------------------------------------




--------------------------------------- Iteration      1(  14)  ---------------------------------------


    POTLOK:  cpu time      0.2180: real time      0.2196
    SETDIJ:  cpu time      1.0758: real time      1.0816
     EDDAV:  cpu time     29.9674: real time     30.2499
       DOS:  cpu time      0.0019: real time      0.0019
    CHARGE:  cpu time      1.3032: real time      1.3144
    MIXING:  cpu time      0.0091: real time      0.0092
    --------------------------------------------
      LOOP:  cpu time     32.5754: real time     32.8766

 eigenvalue-minimisations  : 10944
 total energy-change (2. order) : 0.1164068E-03  (-0.2147962E-03)
 number of electron     479.9999997 magnetization       1.0000000
[...]
   0.178E+02 -.142E+02 0.268E+02   -.158E+02 0.134E+02 -.248E+02   -.202E+01 0.115E+01 -.249E+01   -.921E-03 -.133E-03 -.203E-04
   -.113E+01 -.703E+01 0.901E+01   0.859E+00 0.660E+01 -.828E+01   0.152E+00 0.168E-01 -.874E+00   -.291E-03 0.264E-03 -.994E-04
   -.169E+01 0.211E+02 0.425E+01   0.188E+01 -.209E+02 -.470E+01   0.257E+00 -.124E+00 0.395E+00   0.478E-03 -.146E-03 0.497E-04
   0.172E+02 -.189E+02 -.176E+02   -.148E+02 0.203E+02 0.165E+02   -.198E+01 -.114E+01 0.856E+00   0.743E-03 -.293E-03 0.162E-03
   0.772E+01 -.159E+02 -.399E+02   -.746E+01 0.141E+02 0.383E+02   0.645E-01 0.139E+01 0.230E+01   0.738E-03 0.320E-03 -.356E-04
   -.505E+00 0.345E+02 0.440E+02   0.965E+00 -.339E+02 -.420E+02   -.835E-01 -.390E+00 -.291E+01   0.830E-03 0.196E-03 -.182E-03
   0.206E+02 -.936E+01 0.186E+02   -.193E+02 0.940E+01 -.170E+02   -.971E+00 0.129E+00 -.239E+01   0.346E-03 -.311E-03 -.169E-03
   -.754E+00 -.674E+01 0.900E+01   0.291E+00 0.656E+01 -.828E+01   0.432E+00 -.228E+00 -.601E+00   -.886E-03 0.176E-03 0.701E-04
   -.185E+00 0.207E+02 0.205E+01   0.449E+00 -.206E+02 -.214E+01   0.287E-01 0.495E-01 -.255E-01   -.812E-03 -.109E-03 0.875E-04
   0.133E+02 -.163E+02 -.278E+02   -.114E+02 0.174E+02 0.258E+02   -.242E+01 -.840E+00 0.242E+01   -.366E-03 -.163E-04 0.144E-03
   -.524E+01 -.417E+02 -.139E+02   0.540E+01 0.425E+02 0.130E+02   0.962E-01 0.890E+00 0.926E+00   -.866E-03 -.134E-03 0.828E-04
   -.106E+02 0.440E+02 -.292E+02   0.109E+02 -.445E+02 0.287E+02   0.696E+00 -.610E+00 0.246E+01   0.733E-03 0.262E-03 0.906E-04
   -.811E-01 -.164E+02 0.153E+02   0.296E+00 0.165E+02 -.153E+02   -.350E+00 -.551E+00 -.121E+01   -.270E-03 -.319E-03 -.255E-04
   -.194E+01 0.144E+02 0.434E+01   0.169E+01 -.136E+02 -.375E+01   0.198E+00 -.433E+00 -.304E+00   -.525E-03 -.330E-03 -.527E-04
   -.100E+02 0.865E+01 0.320E+01   0.107E+02 -.937E+01 -.304E+01   -.721E+00 0.236E+00 0.801E+00   0.115E-02 0.433E-03 0.515E-05
   0.381E+01 0.545E+01 0.239E+02   -.423E+01 -.581E+01 -.238E+02   -.352E+00 -.221E+01 -.115E+01   -.493E-03 -.617E-04 -.206E-03
   0.553E+01 -.173E+02 -.172E+02   -.589E+01 0.179E+02 0.169E+02   -.205E+00 -.615E+00 0.518E+00   0.756E-03 -.303E-03 0.131E-03
   0.778E+01 0.374E+02 -.908E+01   -.805E+01 -.380E+02 0.904E+01   0.135E+00 0.189E+00 -.697E+00   -.785E-03 0.276E-03 -.929E-04
   0.987E-01 -.119E+02 0.190E+02   -.341E+00 0.111E+02 -.193E+02   0.189E+00 0.473E+00 -.251E+00   0.228E-03 -.135E-04 0.431E-04
   0.252E+01 0.185E+02 0.369E+01   -.206E+01 -.188E+02 -.388E+01   -.608E+00 0.279E+00 0.104E+00   0.521E-03 -.228E-03 -.675E-04
   0.101E+02 0.108E+02 0.515E+01   -.103E+02 -.109E+02 -.487E+01   0.565E+00 -.251E+00 0.714E+00   -.103E-02 0.205E-03 0.934E-05
   0.768E+00 -.879E+01 0.137E+02   -.187E+00 0.920E+01 -.135E+02   -.110E+01 -.117E+00 0.137E+01   0.626E-03 -.251E-03 -.109E-03
   -.547E+01 0.122E+02 -.165E+02   0.491E+01 -.125E+02 0.164E+02   0.118E+01 -.352E+00 -.877E+00   -.569E-03 -.810E-04 -.563E-05
   -.115E+02 -.118E+02 -.748E+01   0.117E+02 0.119E+02 0.747E+01   -.455E+00 0.159E+00 -.624E+00   0.341E-03 0.204E-03 0.438E-04
   -.184E+01 -.187E+02 -.311E+01   0.136E+01 0.189E+02 0.338E+01   0.686E+00 -.228E+00 -.275E+00   0.539E-03 -.272E-03 0.287E-05
   -.867E+00 0.125E+02 -.198E+02   0.125E+01 -.118E+02 0.203E+02   -.254E+00 -.280E+00 0.128E+00   -.951E-03 0.254E-03 -.787E-04
   -.819E+01 -.383E+02 0.106E+02   0.853E+01 0.390E+02 -.105E+02   -.392E-01 -.104E+00 0.719E+00   0.809E-03 -.900E-04 -.522E-04
   -.427E+01 0.180E+02 0.141E+02   0.466E+01 -.189E+02 -.139E+02   0.136E+00 0.704E+00 0.184E+00   0.836E-04 -.121E-03 -.149E-03
   0.247E+01 -.590E+00 -.193E+02   -.186E+01 0.904E+00 0.191E+02   -.370E+00 0.135E+01 0.516E-01   0.550E-03 -.398E-04 0.143E-03
   0.105E+02 -.999E+01 -.328E+01   -.113E+02 0.105E+02 0.309E+01   0.949E+00 -.319E+00 -.783E+00   -.422E-03 -.398E-04 -.105E-03
   0.137E+01 -.139E+02 -.450E+01   -.108E+01 0.130E+02 0.349E+01   -.247E+00 0.631E+00 0.995E+00   -.516E-03 -.201E-03 0.332E-04
   0.101E+01 0.162E+02 -.131E+02   -.131E+01 -.164E+02 0.134E+02   0.410E+00 0.516E+00 0.114E+01   0.927E-03 0.562E-03 -.329E-06
   0.105E+02 -.447E+02 0.234E+02   -.106E+02 0.455E+02 -.229E+02   -.450E+00 0.282E+00 -.120E+01   -.741E-03 0.330E-05 -.931E-04
   0.524E+01 0.504E+02 0.202E+02   -.538E+01 -.514E+02 -.199E+02   -.317E+00 -.318E+01 -.313E+01   0.135E-03 -.239E-03 -.128E-03
   -.301E+01 0.175E+02 -.225E+02   0.347E+01 -.175E+02 0.225E+02   -.519E+00 0.721E-01 -.490E+00   0.476E-03 -.131E-04 0.157E-03
   0.341E+01 -.682E+01 -.221E+02   -.332E+01 0.666E+01 0.223E+02   -.253E+00 -.537E+00 0.222E+01   -.939E-03 0.190E-03 -.956E-04
   0.241E+01 -.167E+02 -.672E+01   -.237E+01 0.164E+02 0.687E+01   -.361E+00 0.389E+00 -.292E+00   0.518E-03 -.246E-03 -.115E-04
   -.300E+01 0.152E+02 -.198E+02   0.325E+01 -.155E+02 0.197E+02   -.550E+00 0.748E+00 0.782E+00   -.166E-03 0.569E-03 -.933E-04
   -.637E+01 -.451E+02 0.268E+02   0.610E+01 0.456E+02 -.272E+02   0.417E+00 0.992E+00 -.994E+00   -.507E-03 0.126E-03 0.107E-04
   -.645E+01 0.297E+02 0.179E+02   0.620E+01 -.303E+02 -.176E+02   0.201E+00 0.133E-01 0.885E-01   0.726E-03 -.169E-03 -.182E-03
   0.673E+01 -.477E+01 -.133E+02   -.650E+01 0.533E+01 0.122E+02   -.798E+00 0.824E+00 -.359E+00   -.456E-03 -.184E-03 0.213E-03
   -.276E+01 -.132E+02 0.449E+01   0.287E+01 0.138E+02 -.575E+01   0.141E+00 -.313E+00 0.184E+00   0.104E-02 0.505E-04 -.585E-04
   -.201E+01 -.152E+02 -.275E-01   0.208E+01 0.154E+02 -.112E+00   -.576E-01 -.113E+00 0.226E+00   -.529E-03 -.230E-03 -.603E-04
   0.337E+01 0.128E+02 -.140E+02   -.320E+01 -.124E+02 0.149E+02   0.944E-01 -.854E-01 -.350E-02   0.214E-03 0.213E-03 0.296E-04
   0.433E+01 -.387E+02 0.710E+01   -.405E+01 0.392E+02 -.689E+01   0.122E+00 -.243E+00 0.670E+00   0.456E-03 -.365E-03 -.107E-03
   0.561E+01 0.343E+02 0.944E+01   -.552E+01 -.348E+02 -.889E+01   -.134E+00 -.257E+00 0.784E+00   -.922E-03 -.321E-03 -.173E-03
   0.197E+01 -.229E+02 -.175E+02   -.176E+01 0.232E+02 0.172E+02   0.174E+00 -.208E+00 -.373E+00   0.154E-04 -.290E-03 0.228E-03
   0.938E+01 0.423E+02 -.278E+02   -.909E+01 -.426E+02 0.282E+02   -.583E+00 -.101E+01 0.138E+01   -.478E-03 0.131E-03 0.687E-05
   0.209E+01 -.149E+02 0.205E+02   -.249E+01 0.150E+02 -.206E+02   0.503E+00 -.678E+00 -.476E+00   0.898E-03 -.314E-03 -.542E-04
   -.324E+01 0.172E+02 0.796E+01   0.312E+01 -.171E+02 -.808E+01   0.334E+00 -.268E+00 0.182E+00   -.551E-03 -.292E-03 -.171E-03
   -.137E+01 0.425E+01 0.181E+02   0.135E+01 -.439E+01 -.181E+02   0.626E-01 0.485E+00 -.982E+00   0.229E-03 0.214E-03 0.172E-03
   0.524E+01 -.156E+02 0.195E+02   -.549E+01 0.155E+02 -.195E+02   0.218E+00 0.709E-01 0.830E+00   0.477E-03 -.289E-03 -.217E-03
   -.240E+01 -.333E+02 -.783E+01   0.224E+01 0.339E+02 0.738E+01   0.907E-01 -.339E+00 -.101E+01   0.825E-04 -.150E-03 0.330E-05
   -.672E+01 0.393E+02 -.898E+01   0.631E+01 -.396E+02 0.859E+01   -.276E+00 0.632E-01 -.466E+00   0.522E-03 0.538E-03 -.573E-04
   -.267E+01 -.128E+02 0.140E+02   0.253E+01 0.123E+02 -.148E+02   0.111E-01 0.171E+00 0.504E-01   -.864E-03 0.285E-04 -.287E-04
   0.262E+01 0.151E+02 -.451E+00   -.276E+01 -.153E+02 0.287E+00   0.525E-01 0.195E+00 0.161E+00   0.542E-03 -.224E-03 -.225E-04
   0.166E+01 0.132E+02 -.475E+01   -.168E+01 -.136E+02 0.602E+01   -.261E+00 0.275E+00 -.122E+00   -.355E-03 0.377E-03 0.636E-04
   -.102E+02 0.124E+02 0.198E+02   0.995E+01 -.129E+02 -.190E+02   0.160E+01 -.255E+01 -.170E+01   -.577E-03 -.101E-03 -.148E-03
 -----------------------------------------------------------------------------------------------
   0.304E+01 -.593E+01 0.921E+00   0.391E-13 0.153E-12 -.121E-12   -.298E+01 0.613E+01 -.856E+00   -.927E-04 -.126E-02 0.247E-03
 
 
 POSITION                                       TOTAL-FORCE (eV/Angst)
 -----------------------------------------------------------------------------------
      2.12426     14.18951      4.29359         0.381225     -0.011870      0.898037
     15.70177      1.30875      0.00000        -0.353630     -0.300121      1.406175
     12.98627      7.31977      0.85872        -0.138391     -0.041445     -0.197193
     10.27077     13.33079      1.71744        -0.175990     -0.330955      0.339939
      7.55526      2.16748      2.57615         0.136083      0.152015     -0.038962
      4.83976      8.17850      3.43487        -0.098895      0.225703      0.508797
      7.55526     14.18951      4.29359        -0.432712     -0.059774      0.885211
      4.83977      1.30875      0.00000        -0.447029      0.453780     -1.032261
      2.12427      7.31977      0.85872         0.320276     -0.003386     -0.681926
     15.70177     13.33079      1.71744        -0.346047     -0.102085      0.231934
     12.98626      2.16748      2.57615         0.072435      0.479309     -0.015351
     10.27076      8.17850      3.43487        -0.109967     -0.074698      0.503031
     12.98626     14.18951      4.29359        -0.448652      0.420253      0.558781
     10.27077      1.30875      0.00000        -0.194193      0.353570     -0.759463
      7.55527      7.31977      0.85872        -0.488494     -0.026913     -0.373553
      4.83977     13.33079      1.71744        -0.547772     -0.046038      0.127758
      2.12426      2.16748      2.57615         0.158494      0.382964      0.179486
     15.70176      8.17850      3.43487         0.364064     -0.202596      0.766184
      3.48201      9.89593      4.29359        -0.372703     -0.961052     -1.064022
      0.76652     14.18950      0.00000        -1.304782      1.400985      3.324873
     14.34402      3.02619      0.85872        -0.124708      0.031424     -0.192747
     11.62852      9.03721      1.71744         0.190100     -0.299986      0.176262
      8.91301     15.04823      2.57615         0.085889      0.107084      0.133881
      6.19751      3.88491      3.43487        -0.451043      0.083974      0.616764
      8.91301      9.89593      4.29359        -0.234537      0.341105      0.114602
      6.19752     14.18950      0.00000         1.137084      1.261163      2.144701
      3.48202      3.02619      0.85872        -0.091799      0.148316     -0.203422
      0.76652      9.03721      1.71744         0.249599      0.190782     -0.231227
     14.34402     15.04823      2.57615         0.180678      0.072668     -0.046992
     11.62852      3.88491      3.43487        -0.785187      0.021616      0.110992
     14.34401      9.89593      4.29359         0.526585     -0.482550      0.434380
     11.62852     14.18950      0.00000        -0.200859     -0.760764     -0.680331
      8.91302      3.02619      0.85872        -0.321399     -0.018773     -0.313387
      6.19752      9.03721      1.71744         0.002435     -0.251869      0.004934
      3.48201     15.04823      2.57615         0.172208     -0.035434      0.128260
      0.76651      3.88491      3.43487        -0.526660      0.088218      0.147402
      2.12426      5.60235      4.29359         0.768560     -0.039135     -2.147041
     15.70177      9.89592      0.00000         0.357858      3.540576      3.668403
     12.98627     15.90694      0.85872         0.373454     -0.028473     -0.798003
     10.27077      4.74362      1.71744        -0.031579     -0.134013     -0.146210
      7.55526     10.75464      2.57615        -0.260666      0.312918     -0.212339
      4.83977     16.76566      3.43487         0.130711     -0.073232      0.159377
      7.55526      5.60235      4.29359         0.227117      0.498690      0.722051
      4.83977      9.89592      0.00000        -0.261275      0.644494     -0.111974
      2.12427     15.90694      0.85872         0.493830      0.066724     -0.324305
     15.70177      4.74362      1.71744        -0.137085     -0.007756     -0.166069
     12.98626     10.75464      2.57615        -0.148259      0.165200      0.033435
     10.27077     16.76566      3.43487         0.293514     -0.141364      0.222040
     12.98626      5.60235      4.29359        -0.914800     -0.071222     -2.389045
     10.27077      9.89592      0.00000         0.093348      0.074273      0.465709
      7.55527     15.90694      0.85872         0.774796     -0.045063     -0.239162
      4.83977      4.74362      1.71744        -0.187871     -0.101248      0.008734
      2.12426     10.75464      2.57615        -0.275109     -0.245654      0.204749
     15.70177     16.76566      3.43487         0.043449     -0.220778      0.174913
      3.48201      1.30877      4.29359         0.384057      0.591214     -2.980067
      0.76652      5.60233      0.00000        -0.217086     -0.200571     -0.735704
     14.34402     11.61335      0.85872         0.039586      0.196623     -0.921441
     11.62852      0.45004      1.71744        -0.094701     -0.164402      0.042803
      8.91301      6.46106      2.57615         0.297043      0.340245     -0.349421
      6.19751     12.47208      3.43487        -0.040082      0.108567      0.011537
      8.91301      1.30877      4.29359         0.207958     -0.197171      0.733994
      6.19752      5.60233      0.00000         0.681663     -0.355950     -0.620448
      3.48202     11.61335      0.85872        -0.059091      0.397425     -0.570456
      0.76652      0.45004      1.71744        -0.118898     -0.406966     -0.144101
     14.34402      6.46106      2.57615         0.442075      0.037464     -0.057833
     11.62851     12.47208      3.43487         0.423547      0.257069     -0.232682
     14.34402      1.30877      4.29359         0.325886     -0.412377      0.721071
     11.62852      5.60233      0.00000         0.377429      0.154983     -0.872598
      8.91302     11.61335      0.85872         0.247260      0.163023     -0.779517
      6.19752      0.45004      1.71744        -0.032152     -0.403005      0.123537
      3.48201      6.46106      2.57615         0.290835      0.177588     -0.116440
      0.76651     12.47208      3.43487        -0.488624      0.173942      0.478624
      3.41394     11.71211      5.68102         0.246462      1.685913      0.044468
     13.59706      5.03320      6.34780         0.937986     -1.071644      1.965817
      7.48719     15.52862      7.01458        -0.135864     -0.421669     -1.240377
      1.37732      8.84971      7.68136        -0.055124      0.316711      0.288539
     11.56044      2.17081      8.34814        -0.079062     -0.478124      0.954400
      5.45056     12.66623      9.01492        -0.776253     -2.572839     -1.036072
     11.56044     11.71211      5.68102        -0.558139     -0.012807      0.183728
      5.45056      5.03320      6.34780        -0.135133     -0.405804     -0.740111
     15.63369     15.52862      7.01458        -0.053249     -0.326891     -0.572775
      9.52381      8.84971      7.68136        -0.138764      0.013528     -0.094140
      3.41394      2.17081      8.34814         0.288248     -0.341396      0.993686
     13.59707     12.66623      9.01492        -0.513804      0.286649      1.560069
      5.45056      7.41852      5.68102         0.614742     -0.698975     -0.950240
     15.63369      0.73961      6.34780        -0.237207      0.318239     -0.632755
      9.52381     11.23504      7.01458         0.211601     -0.028162     -0.005319
      3.41394      4.55613      7.68136         0.123862      0.384503      0.531637
     13.59706     15.05155      8.34814         0.300133      0.601399      0.806082
      7.48719      8.37265      9.01492         0.520429     -0.210554      0.435416
     13.59706      7.41852      5.68102         0.240099      1.661837     -0.176270
      7.48719      0.73961      6.34780         0.181530      0.232295     -0.976004
      1.37731     11.23504      7.01458         0.037850     -0.262408     -0.009388
     11.56044      4.55613      7.68136         0.110992      0.345042      1.436882
      5.45056     15.05155      8.34814        -0.545514      1.045875     -0.731016
     15.63369      8.37265      9.01492        -0.451095     -4.151667     -2.749725
      9.52381      7.41852      5.68102        -0.061616      0.107548     -0.562346
      3.41394      0.73961      6.34780        -0.169807     -0.698108      2.464619
     13.59707     11.23504      7.01458        -0.321496      0.095807     -0.142553
      7.48719      4.55613      7.68136        -0.299071      0.437178      0.745612
      1.37732     15.05155      8.34814         0.147511      1.489937     -1.378554
     11.56044      8.37264      9.01492        -0.039744     -0.599242      0.414274
      1.37731      7.41852      5.68102        -0.574973      1.377564     -1.411251
     11.56044      0.73961      6.34780         0.253888      0.241789     -1.070674
      5.45056     11.23504      7.01458         0.020324      0.167438      0.085599
     15.63369      4.55613      7.68136         0.266952      0.258786      0.925491
      9.52381     15.05155      8.34814         0.403505      0.228453      0.872095
      3.41394      8.37265      9.01492        -0.043912     -0.695442      1.329427
      7.48719     11.71211      5.68102         0.387109      0.176422     -0.641857
      1.37731      5.03320      6.34780        -0.285215     -1.290340      1.813075
     11.56044     15.52862      7.01458         0.110349     -0.573778     -0.570173
      5.45056      8.84971      7.68136         0.215395     -0.216743      0.056723
     15.63369      2.17081      8.34814         0.035216      0.347151     -1.020290
      9.52381     12.66623      9.01492        -0.031984     -0.033994      0.797642
     15.63369     11.71211      5.68102        -0.069036      0.206547     -1.469988
      9.52381      5.03320      6.34780        -0.684516     -0.197980     -0.856567
      3.41394     15.52862      7.01458        -0.130234     -0.315289     -0.775195
     13.59707      8.84971      7.68136        -0.088559     -0.033115     -0.003977
      7.48719      2.17081      8.34814        -0.281937     -0.170331      1.148379
      1.37732     12.66623      9.01492         1.318723     -3.076564     -0.803710
 -----------------------------------------------------------------------------------
    total drift:                                0.058011      0.200535      0.064869


--------------------------------------------------------------------------------------------------------



  FREE ENERGIE OF THE ION-ELECTRON SYSTEM (eV)
  ---------------------------------------------------
  free  energy   TOTEN  =      -539.32309714 eV

  energy  without entropy=     -539.32007958  energy(sigma->0) =     -539.32158836
 


--------------------------------------------------------------------------------------------------------


    POTLOK:  cpu time      1.3008: real time      1.3073


--------------------------------------------------------------------------------------------------------


     LOOP+:  cpu time    686.3780: real time    692.9462
    4ORBIT:  cpu time      0.0000: real time      0.0000

 total amount of memory used by VASP MPI-rank0   211389. kBytes
=======================================================================

   base      :      30000. kBytes
   nonlr-proj:       6255. kBytes
   fftplans  :      17777. kBytes
   grid      :      14565. kBytes
   one-center:        129. kBytes
   wavefun   :     142663. kBytes
 
  
  
 General timing and accounting informations for this job:
 ========================================================
  
                  Total CPU time used (sec):      755.799
                            User time (sec):      710.188
                          System time (sec):       45.611
                         Elapsed time (sec):      765.389
  
                   Maximum memory used (kb):      480144.
                   Average memory used (kb):          N/A
  
                          Minor page faults:       146020
                          Major page faults:           35
                 Voluntary context switches:         1889
