  48  48   0   0
  0.3605712E+02  0.1297840E-08  0.1946760E-08  0.9190412E-09  0.5000000E-15
  1.000000000000000E-004
  CAR 
 Si and Ge interface calculation         
      3.87261278    -10.79983737  301      1.69635904      1.00000000
    -10.800  0.0000E+00  0.0000E+00  0.0000E+00  0.0000E+00
    -10.751  0.0000E+00  0.0000E+00  0.0000E+00  0.0000E+00
    -10.702  0.0000E+00  0.0000E+00  0.0000E+00  0.0000E+00
    -10.653  0.0000E+00  0.0000E+00  0.0000E+00  0.0000E+00
    -10.604  0.0000E+00  0.0000E+00  0.0000E+00  0.0000E+00
    -10.555  0.0000E+00  0.0000E+00  0.0000E+00  0.0000E+00
    -10.506  0.0000E+00  0.0000E+00  0.0000E+00  0.0000E+00
    -10.457  0.0000E+00  0.0000E+00  0.0000E+00  0.0000E+00
    -10.409  0.0000E+00  0.0000E+00  0.0000E+00  0.0000E+00
    -10.360  0.0000E+00  0.0000E+00  0.0000E+00  0.0000E+00
    -10.311  0.0000E+00  0.0000E+00  0.0000E+00  0.0000E+00
    -10.262  0.0000E+00  0.0000E+00  0.0000E+00  0.0000E+00
    -10.213  0.0000E+00  0.0000E+00  0.0000E+00  0.0000E+00
    -10.164  0.5480E-04  0.7807E-07  0.2680E-05  0.3818E-08
    -10.115  0.3955E+02  0.3051E+02  0.1934E+01  0.1492E+01
    -10.066  0.1341E+01  0.1038E+02  0.2000E+01  0.2000E+01
    -10.017  0.0000E+00  0.0000E+00  0.2000E+01  0.2000E+01
     -9.968  0.0000E+00  0.0000E+00  0.2000E+01  0.2000E+01
     -9.919  0.0000E+00  0.0000E+00  0.2000E+01  0.2000E+01
     -9.871  0.0000E+00  0.0000E+00  0.2000E+01  0.2000E+01
     -9.822  0.0000E+00  0.0000E+00  0.2000E+01  0.2000E+01
     -9.773  0.0000E+00  0.0000E+00  0.2000E+01  0.2000E+01
     -9.724  0.0000E+00  0.0000E+00  0.2000E+01  0.2000E+01
     -9.675  0.0000E+00  0.0000E+00  0.2000E+01  0.2000E+01
     -9.626  0.0000E+00  0.0000E+00  0.2000E+01  0.2000E+01
     -9.577  0.0000E+00  0.0000E+00  0.2000E+01  0.2000E+01
     -9.528  0.0000E+00  0.0000E+00  0.2000E+01  0.2000E+01
     -9.479  0.2394E-03  0.1378E-07  0.2000E+01  0.2000E+01
     -9.430  0.1342E+02  0.7292E+01  0.2656E+01  0.2357E+01
     -9.382  0.2748E+02  0.3306E+02  0.4000E+01  0.3974E+01
     -9.333  0.1288E-02  0.5393E+00  0.4000E+01  0.4000E+01
     -9.284  0.0000E+00  0.0000E+00  0.4000E+01  0.4000E+01
     -9.235  0.0000E+00  0.0000E+00  0.4000E+01  0.4000E+01
     -9.186  0.5801E-14  0.0000E+00  0.4000E+01  0.4000E+01
     -9.137  0.1860E+01  0.1792E-02  0.4091E+01  0.4000E+01
     -9.088  0.3813E+02  0.3409E+02  0.5956E+01  0.5667E+01
     -9.039  0.8990E+00  0.6799E+01  0.6000E+01  0.6000E+01
     -8.990  0.0000E+00  0.0000E+00  0.6000E+01  0.6000E+01
     -8.941  0.0000E+00  0.0000E+00  0.6000E+01  0.6000E+01
     -8.892  0.0000E+00  0.0000E+00  0.6000E+01  0.6000E+01
     -8.844  0.2728E-11  0.0000E+00  0.6000E+01  0.6000E+01
     -8.795  0.2749E+01  0.1703E+00  0.6134E+01  0.6008E+01
     -8.746  0.2172E+02  0.2039E+02  0.7197E+01  0.7006E+01
     -8.697  0.1061E+02  0.1352E+02  0.7716E+01  0.7667E+01
     -8.648  0.8866E+01  0.7246E+01  0.8149E+01  0.8022E+01
     -8.599  0.2109E+02  0.1201E+02  0.9181E+01  0.8609E+01
     -8.550  0.1675E+02  0.2844E+02  0.1000E+02  0.1000E+02
     -8.501  0.0000E+00  0.4033E-03  0.1000E+02  0.1000E+02
     -8.452  0.0000E+00  0.0000E+00  0.1000E+02  0.1000E+02
     -8.403  0.3884E-13  0.0000E+00  0.1000E+02  0.1000E+02
     -8.354  0.6506E+00  0.5066E-04  0.1003E+02  0.1000E+02
     -8.306  0.1928E+02  0.8463E+01  0.1097E+02  0.1041E+02
     -8.257  0.1423E+02  0.2417E+02  0.1167E+02  0.1160E+02
     -8.208  0.6413E+01  0.4406E+01  0.1198E+02  0.1181E+02
     -8.159  0.9318E+01  0.6457E+01  0.1244E+02  0.1213E+02
     -8.110  0.1981E+02  0.2007E+02  0.1341E+02  0.1311E+02
     -8.061  0.1208E+02  0.1820E+02  0.1400E+02  0.1400E+02
     -8.012  0.5446E+00  0.2014E-01  0.1403E+02  0.1400E+02
     -7.963  0.3000E+02  0.2044E+02  0.1549E+02  0.1500E+02
     -7.914  0.1313E+02  0.1661E+02  0.1614E+02  0.1581E+02
     -7.865  0.8459E+01  0.9751E+01  0.1655E+02  0.1629E+02
     -7.816  0.2334E+02  0.1271E+02  0.1769E+02  0.1691E+02
     -7.768  0.6423E+01  0.2131E+02  0.1801E+02  0.1795E+02
     -7.719  0.9027E+01  0.6465E+01  0.1845E+02  0.1827E+02
     -7.670  0.1356E+02  0.1177E+02  0.1911E+02  0.1884E+02
     -7.621  0.8161E+01  0.9765E+01  0.1951E+02  0.1932E+02
     -7.572  0.5875E+01  0.4957E+01  0.1980E+02  0.1956E+02
     -7.523  0.3398E+01  0.6752E+01  0.1996E+02  0.1989E+02
     -7.474  0.1582E+02  0.5458E+01  0.2074E+02  0.2016E+02
     -7.425  0.2557E+02  0.3153E+02  0.2199E+02  0.2170E+02
     -7.376  0.1286E+02  0.1194E+02  0.2262E+02  0.2229E+02
     -7.327  0.1426E+02  0.1656E+02  0.2331E+02  0.2310E+02
     -7.278  0.1327E+02  0.1175E+02  0.2396E+02  0.2367E+02
     -7.230  0.2296E+02  0.2527E+02  0.2509E+02  0.2491E+02
     -7.181  0.8939E+01  0.8698E+01  0.2552E+02  0.2533E+02
     -7.132  0.2201E+02  0.2215E+02  0.2660E+02  0.2642E+02
     -7.083  0.1183E+02  0.1268E+02  0.2718E+02  0.2704E+02
     -7.034  0.2960E+02  0.2101E+02  0.2862E+02  0.2806E+02
     -6.985  0.2146E+02  0.2854E+02  0.2967E+02  0.2946E+02
     -6.936  0.1115E+02  0.8982E+01  0.3022E+02  0.2990E+02
     -6.887  0.1151E+02  0.1393E+02  0.3078E+02  0.3058E+02
     -6.838  0.2148E+02  0.1560E+02  0.3183E+02  0.3134E+02
     -6.789  0.7962E+01  0.1345E+02  0.3222E+02  0.3200E+02
     -6.740  0.2069E+02  0.2055E+02  0.3323E+02  0.3301E+02
     -6.692  0.1854E+02  0.2071E+02  0.3414E+02  0.3402E+02
     -6.643  0.2662E+02  0.2183E+02  0.3544E+02  0.3509E+02
     -6.594  0.1936E+02  0.2150E+02  0.3639E+02  0.3614E+02
     -6.545  0.2216E+02  0.1634E+02  0.3747E+02  0.3694E+02
     -6.496  0.1929E+02  0.2643E+02  0.3842E+02  0.3823E+02
     -6.447  0.1259E+02  0.1222E+02  0.3903E+02  0.3883E+02
     -6.398  0.2280E+02  0.2057E+02  0.4015E+02  0.3983E+02
     -6.349  0.1947E+02  0.2223E+02  0.4110E+02  0.4092E+02
     -6.300  0.1886E+02  0.1926E+02  0.4202E+02  0.4186E+02
     -6.251  0.1567E+02  0.1739E+02  0.4279E+02  0.4271E+02
     -6.202  0.1989E+02  0.1578E+02  0.4376E+02  0.4349E+02
     -6.154  0.6975E+01  0.1150E+02  0.4410E+02  0.4405E+02
     -6.105  0.5330E+01  0.1660E+01  0.4436E+02  0.4413E+02
     -6.056  0.2511E+02  0.2455E+02  0.4559E+02  0.4533E+02
     -6.007  0.1507E+02  0.1627E+02  0.4633E+02  0.4613E+02
     -5.958  0.2799E+02  0.2494E+02  0.4770E+02  0.4735E+02
     -5.909  0.1518E+02  0.1971E+02  0.4844E+02  0.4831E+02
     -5.860  0.1372E+01  0.2752E+01  0.4851E+02  0.4844E+02
     -5.811  0.1829E+02  0.1596E+02  0.4940E+02  0.4923E+02
     -5.762  0.8317E+01  0.9043E+01  0.4981E+02  0.4967E+02
     -5.713  0.1064E+02  0.1034E+02  0.5033E+02  0.5017E+02
     -5.664  0.1348E+02  0.1261E+02  0.5099E+02  0.5079E+02
     -5.616  0.8543E+01  0.8960E+01  0.5141E+02  0.5123E+02
     -5.567  0.1277E+02  0.1400E+02  0.5203E+02  0.5191E+02
     -5.518  0.2642E+02  0.2288E+02  0.5332E+02  0.5303E+02
     -5.469  0.1125E+02  0.1350E+02  0.5387E+02  0.5369E+02
     -5.420  0.2745E+01  0.6174E+01  0.5401E+02  0.5399E+02
     -5.371  0.1101E+02  0.9131E+01  0.5455E+02  0.5444E+02
     -5.322  0.2175E+02  0.2124E+02  0.5561E+02  0.5548E+02
     -5.273  0.1472E+02  0.1368E+02  0.5633E+02  0.5615E+02
     -5.224  0.5867E+00  0.3777E+01  0.5636E+02  0.5633E+02
     -5.175  0.1156E+02  0.7148E+01  0.5692E+02  0.5668E+02
     -5.126  0.8260E+01  0.1029E+02  0.5733E+02  0.5719E+02
     -5.078  0.2292E+02  0.1113E+02  0.5845E+02  0.5773E+02
     -5.029  0.1326E+02  0.2260E+02  0.5910E+02  0.5884E+02
     -4.980  0.4938E+01  0.1017E+02  0.5934E+02  0.5933E+02
     -4.931  0.9996E+01  0.4984E+01  0.5983E+02  0.5958E+02
     -4.882  0.2743E+02  0.2114E+02  0.6117E+02  0.6061E+02
     -4.833  0.3554E+01  0.1477E+02  0.6134E+02  0.6133E+02
     -4.784  0.1378E+02  0.7278E+01  0.6202E+02  0.6169E+02
     -4.735  0.1656E+02  0.1776E+02  0.6283E+02  0.6256E+02
     -4.686  0.1761E+02  0.1850E+02  0.6369E+02  0.6346E+02
     -4.637  0.2006E+02  0.2393E+02  0.6467E+02  0.6463E+02
     -4.589  0.1832E+02  0.9725E+01  0.6556E+02  0.6511E+02
     -4.540  0.1558E+02  0.2219E+02  0.6633E+02  0.6619E+02
     -4.491  0.8959E+01  0.4085E+01  0.6676E+02  0.6639E+02
     -4.442  0.1882E+02  0.2052E+02  0.6769E+02  0.6740E+02
     -4.393  0.2643E+02  0.2843E+02  0.6898E+02  0.6879E+02
     -4.344  0.1166E+02  0.1021E+02  0.6955E+02  0.6929E+02
     -4.295  0.1799E+02  0.1780E+02  0.7043E+02  0.7016E+02
     -4.246  0.1298E+02  0.1075E+02  0.7106E+02  0.7068E+02
     -4.197  0.2285E+02  0.2219E+02  0.7218E+02  0.7177E+02
     -4.148  0.1094E+02  0.1416E+02  0.7272E+02  0.7246E+02
     -4.099  0.1699E+02  0.1403E+02  0.7355E+02  0.7315E+02
     -4.051  0.9455E+01  0.1326E+02  0.7401E+02  0.7380E+02
     -4.002  0.1959E+02  0.1385E+02  0.7497E+02  0.7447E+02
     -3.953  0.1537E+02  0.2003E+02  0.7572E+02  0.7545E+02
     -3.904  0.1824E+02  0.1765E+02  0.7661E+02  0.7632E+02
     -3.855  0.1030E+02  0.1598E+02  0.7711E+02  0.7710E+02
     -3.806  0.1336E+02  0.1071E+02  0.7777E+02  0.7762E+02
     -3.757  0.1092E+02  0.8643E+01  0.7830E+02  0.7804E+02
     -3.708  0.1335E+02  0.1335E+02  0.7896E+02  0.7870E+02
     -3.659  0.1740E+02  0.1216E+02  0.7981E+02  0.7929E+02
     -3.610  0.1304E+02  0.2307E+02  0.8044E+02  0.8042E+02
     -3.561  0.1494E+01  0.5137E+00  0.8052E+02  0.8045E+02
     -3.513  0.1676E+02  0.1323E+02  0.8134E+02  0.8109E+02
     -3.464  0.2244E+01  0.7200E+01  0.8145E+02  0.8144E+02
     -3.415  0.9258E+01  0.8684E+01  0.8190E+02  0.8187E+02
     -3.366  0.1832E+02  0.1424E+02  0.8280E+02  0.8257E+02
     -3.317  0.1194E+02  0.1269E+02  0.8338E+02  0.8319E+02
     -3.268  0.6434E+01  0.7819E+01  0.8369E+02  0.8357E+02
     -3.219  0.1084E+02  0.1142E+02  0.8422E+02  0.8413E+02
     -3.170  0.1078E+02  0.1039E+02  0.8475E+02  0.8464E+02
     -3.121  0.1006E+02  0.1191E+02  0.8524E+02  0.8522E+02
     -3.072  0.5043E+01  0.4654E+01  0.8549E+02  0.8545E+02
     -3.023  0.1233E+02  0.9337E+01  0.8609E+02  0.8590E+02
     -2.975  0.9568E+01  0.8489E+01  0.8656E+02  0.8632E+02
     -2.926  0.1421E+02  0.1725E+02  0.8726E+02  0.8716E+02
     -2.877  0.1119E+02  0.1245E+02  0.8780E+02  0.8777E+02
     -2.828  0.1246E+02  0.9400E+01  0.8841E+02  0.8823E+02
     -2.779  0.1799E+02  0.1821E+02  0.8929E+02  0.8912E+02
     -2.730  0.5995E+01  0.6937E+01  0.8959E+02  0.8946E+02
     -2.681  0.1154E+02  0.1115E+02  0.9015E+02  0.9001E+02
     -2.632  0.6994E+01  0.8973E+01  0.9049E+02  0.9044E+02
     -2.583  0.1406E+02  0.6359E+01  0.9118E+02  0.9075E+02
     -2.534  0.5832E+01  0.1410E+02  0.9147E+02  0.9144E+02
     -2.485  0.4116E+01  0.4541E+01  0.9167E+02  0.9167E+02
     -2.437  0.1037E+02  0.6269E+01  0.9217E+02  0.9197E+02
     -2.388  0.1462E+02  0.1777E+02  0.9289E+02  0.9284E+02
     -2.339  0.4515E+01  0.3119E+01  0.9311E+02  0.9299E+02
     -2.290  0.1154E+02  0.1059E+02  0.9367E+02  0.9351E+02
     -2.241  0.5204E+01  0.5597E+01  0.9393E+02  0.9379E+02
     -2.192  0.6063E+01  0.6778E+01  0.9422E+02  0.9412E+02
     -2.143  0.1677E+02  0.1582E+02  0.9505E+02  0.9489E+02
     -2.094  0.9925E+01  0.1032E+02  0.9553E+02  0.9540E+02
     -2.045  0.4359E+01  0.4849E+01  0.9574E+02  0.9563E+02
     -1.996  0.1581E+01  0.2969E+01  0.9582E+02  0.9578E+02
     -1.947  0.3656E+01  0.4531E+01  0.9600E+02  0.9600E+02
     -1.899  0.0000E+00  0.7526E-04  0.9600E+02  0.9600E+02
     -1.850  0.1367E+00  0.4401E-03  0.9601E+02  0.9600E+02
     -1.801  0.1266E+02  0.5623E+01  0.9663E+02  0.9628E+02
     -1.752  0.1916E+02  0.2408E+02  0.9756E+02  0.9745E+02
     -1.703  0.8938E+01  0.1118E+02  0.9800E+02  0.9800E+02
     -1.654  0.0000E+00  0.9010E-02  0.9800E+02  0.9800E+02
     -1.605  0.1825E-04  0.6517E-09  0.9800E+02  0.9800E+02
     -1.556  0.2561E+01  0.1737E+01  0.9813E+02  0.9808E+02
     -1.507  0.3484E+02  0.2498E+02  0.9983E+02  0.9931E+02
     -1.458  0.3492E+01  0.1418E+02  0.1000E+03  0.1000E+03
     -1.409  0.1176E+02  0.2090E+01  0.1006E+03  0.1001E+03
     -1.361  0.2215E+02  0.2728E+02  0.1017E+03  0.1014E+03
     -1.312  0.1297E+02  0.9492E+01  0.1023E+03  0.1019E+03
     -1.263  0.2573E+02  0.2855E+02  0.1036E+03  0.1033E+03
     -1.214  0.2286E+02  0.2118E+02  0.1047E+03  0.1043E+03
     -1.165  0.1752E+02  0.2032E+02  0.1055E+03  0.1053E+03
     -1.116  0.2865E+02  0.2536E+02  0.1069E+03  0.1066E+03
     -1.067  0.2040E+02  0.2085E+02  0.1079E+03  0.1076E+03
     -1.018  0.3622E+02  0.2660E+02  0.1097E+03  0.1089E+03
     -0.969  0.1980E+02  0.3019E+02  0.1107E+03  0.1104E+03
     -0.920  0.2558E+02  0.3026E+02  0.1119E+03  0.1118E+03
     -0.871  0.3404E+02  0.2838E+02  0.1136E+03  0.1132E+03
     -0.823  0.2219E+02  0.1896E+02  0.1147E+03  0.1142E+03
     -0.774  0.3375E+02  0.3756E+02  0.1163E+03  0.1160E+03
     -0.725  0.3704E+02  0.3650E+02  0.1181E+03  0.1178E+03
     -0.676  0.2392E+02  0.1999E+02  0.1193E+03  0.1188E+03
     -0.627  0.4128E+02  0.4014E+02  0.1213E+03  0.1207E+03
     -0.578  0.2196E+02  0.3022E+02  0.1224E+03  0.1222E+03
     -0.529  0.3057E+02  0.2799E+02  0.1239E+03  0.1236E+03
     -0.480  0.4185E+02  0.3675E+02  0.1259E+03  0.1254E+03
     -0.431  0.2196E+02  0.2857E+02  0.1270E+03  0.1268E+03
     -0.382  0.3108E+02  0.3056E+02  0.1285E+03  0.1283E+03
     -0.333  0.2316E+02  0.1802E+02  0.1297E+03  0.1291E+03
     -0.285  0.2862E+02  0.3043E+02  0.1311E+03  0.1306E+03
     -0.236  0.5081E+02  0.4188E+02  0.1335E+03  0.1327E+03
     -0.187  0.2652E+02  0.3510E+02  0.1348E+03  0.1344E+03
     -0.138  0.2362E+02  0.1885E+02  0.1360E+03  0.1353E+03
     -0.089  0.2820E+02  0.2976E+02  0.1374E+03  0.1368E+03
     -0.040  0.3853E+02  0.3470E+02  0.1393E+03  0.1385E+03
      0.009  0.2570E+02  0.3196E+02  0.1405E+03  0.1400E+03
      0.058  0.3245E+02  0.3190E+02  0.1421E+03  0.1416E+03
      0.107  0.1866E+02  0.1817E+02  0.1430E+03  0.1425E+03
      0.156  0.3751E+02  0.3291E+02  0.1449E+03  0.1441E+03
      0.205  0.3409E+02  0.3576E+02  0.1465E+03  0.1458E+03
      0.253  0.3425E+02  0.3402E+02  0.1482E+03  0.1475E+03
      0.302  0.2705E+02  0.2814E+02  0.1495E+03  0.1489E+03
      0.351  0.3355E+02  0.3593E+02  0.1512E+03  0.1506E+03
      0.400  0.4118E+02  0.3155E+02  0.1532E+03  0.1522E+03
      0.449  0.2479E+02  0.3244E+02  0.1544E+03  0.1538E+03
      0.498  0.3427E+02  0.3486E+02  0.1561E+03  0.1555E+03
      0.547  0.2791E+02  0.2778E+02  0.1574E+03  0.1568E+03
      0.596  0.2616E+02  0.3230E+02  0.1587E+03  0.1584E+03
      0.645  0.2884E+02  0.2088E+02  0.1601E+03  0.1594E+03
      0.694  0.2666E+02  0.3054E+02  0.1614E+03  0.1609E+03
      0.742  0.3303E+02  0.3696E+02  0.1630E+03  0.1627E+03
      0.791  0.2583E+02  0.2366E+02  0.1643E+03  0.1639E+03
      0.840  0.3432E+02  0.2329E+02  0.1660E+03  0.1650E+03
      0.889  0.3365E+02  0.3806E+02  0.1676E+03  0.1669E+03
      0.938  0.3266E+02  0.3062E+02  0.1692E+03  0.1684E+03
      0.987  0.2847E+02  0.3452E+02  0.1706E+03  0.1701E+03
      1.036  0.3400E+02  0.3735E+02  0.1723E+03  0.1719E+03
      1.085  0.3856E+02  0.2820E+02  0.1742E+03  0.1733E+03
      1.134  0.2895E+02  0.2396E+02  0.1756E+03  0.1745E+03
      1.183  0.3365E+02  0.4368E+02  0.1772E+03  0.1766E+03
      1.232  0.3165E+02  0.3433E+02  0.1788E+03  0.1783E+03
      1.280  0.1930E+02  0.2827E+02  0.1797E+03  0.1796E+03
      1.329  0.3741E+02  0.2174E+02  0.1815E+03  0.1807E+03
      1.378  0.2979E+02  0.3449E+02  0.1830E+03  0.1824E+03
      1.427  0.1249E+02  0.1426E+02  0.1836E+03  0.1831E+03
      1.476  0.3483E+02  0.3460E+02  0.1853E+03  0.1848E+03
      1.525  0.2565E+02  0.2463E+02  0.1866E+03  0.1860E+03
      1.574  0.3616E+02  0.3053E+02  0.1883E+03  0.1875E+03
      1.623  0.3566E+02  0.3509E+02  0.1901E+03  0.1892E+03
      1.672  0.2456E+02  0.2600E+02  0.1913E+03  0.1905E+03
      1.721  0.3174E+02  0.2736E+02  0.1928E+03  0.1918E+03
      1.770  0.3924E+02  0.3453E+02  0.1948E+03  0.1935E+03
      1.818  0.4101E+02  0.5125E+02  0.1968E+03  0.1960E+03
      1.867  0.2452E+02  0.2531E+02  0.1980E+03  0.1972E+03
      1.916  0.2485E+02  0.2201E+02  0.1992E+03  0.1983E+03
      1.965  0.2337E+02  0.2534E+02  0.2003E+03  0.1996E+03
      2.014  0.3110E+02  0.4106E+02  0.2018E+03  0.2016E+03
      2.063  0.3328E+02  0.2919E+02  0.2035E+03  0.2030E+03
      2.112  0.2640E+02  0.2609E+02  0.2048E+03  0.2043E+03
      2.161  0.3828E+02  0.3037E+02  0.2066E+03  0.2058E+03
      2.210  0.2433E+02  0.2406E+02  0.2078E+03  0.2069E+03
      2.259  0.3045E+02  0.3146E+02  0.2093E+03  0.2085E+03
      2.308  0.2070E+02  0.2327E+02  0.2103E+03  0.2096E+03
      2.356  0.2520E+02  0.2731E+02  0.2116E+03  0.2109E+03
      2.405  0.1993E+02  0.2487E+02  0.2125E+03  0.2122E+03
      2.454  0.3044E+02  0.3126E+02  0.2140E+03  0.2137E+03
      2.503  0.3590E+02  0.3206E+02  0.2158E+03  0.2153E+03
      2.552  0.3155E+02  0.2688E+02  0.2173E+03  0.2166E+03
      2.601  0.2166E+02  0.2638E+02  0.2184E+03  0.2179E+03
      2.650  0.2795E+02  0.2699E+02  0.2197E+03  0.2192E+03
      2.699  0.1900E+02  0.2150E+02  0.2207E+03  0.2202E+03
      2.748  0.3000E+02  0.2138E+02  0.2221E+03  0.2213E+03
      2.797  0.2211E+02  0.3324E+02  0.2232E+03  0.2229E+03
      2.846  0.2979E+02  0.2671E+02  0.2247E+03  0.2242E+03
      2.894  0.2240E+02  0.2110E+02  0.2258E+03  0.2252E+03
      2.943  0.3092E+02  0.3031E+02  0.2273E+03  0.2267E+03
      2.992  0.1537E+02  0.1888E+02  0.2280E+03  0.2277E+03
      3.041  0.3495E+02  0.2666E+02  0.2297E+03  0.2290E+03
      3.090  0.1697E+02  0.3220E+02  0.2306E+03  0.2305E+03
      3.139  0.1816E+02  0.1107E+02  0.2315E+03  0.2311E+03
      3.188  0.8231E+01  0.1437E+02  0.2319E+03  0.2318E+03
      3.237  0.2724E+01  0.4572E+01  0.2320E+03  0.2320E+03
      3.286  0.0000E+00  0.0000E+00  0.2320E+03  0.2320E+03
      3.335  0.0000E+00  0.0000E+00  0.2320E+03  0.2320E+03
      3.384  0.0000E+00  0.0000E+00  0.2320E+03  0.2320E+03
      3.432  0.0000E+00  0.0000E+00  0.2320E+03  0.2320E+03
      3.481  0.0000E+00  0.0000E+00  0.2320E+03  0.2320E+03
      3.530  0.0000E+00  0.0000E+00  0.2320E+03  0.2320E+03
      3.579  0.0000E+00  0.0000E+00  0.2320E+03  0.2320E+03
      3.628  0.0000E+00  0.0000E+00  0.2320E+03  0.2320E+03
      3.677  0.0000E+00  0.0000E+00  0.2320E+03  0.2320E+03
      3.726  0.0000E+00  0.0000E+00  0.2320E+03  0.2320E+03
      3.775  0.0000E+00  0.0000E+00  0.2320E+03  0.2320E+03
      3.824  0.0000E+00  0.0000E+00  0.2320E+03  0.2320E+03
      3.873  0.0000E+00  0.0000E+00  0.2320E+03  0.2320E+03
