Si and Ge interface calculation         
           1
    12.978400    0.000000    0.000000
   -12.978400   14.510293    0.000000
     0.000000    0.000000    9.190412
   Sn   Ge
    24    24
Direct configuration=     1
   0.97956431  0.03065353  0.00000001
   0.77956426  0.33065358  0.15788515
   0.57956415  0.63065362  0.31577030
   0.47956425  0.03065353  0.00000001
   0.27956420  0.33065358  0.15788515
   0.07956413  0.63065362  0.31577030
   0.25456432  0.68065351  0.07894242
   0.05456416  0.98065347  0.23682758
   0.85456413  0.28065360  0.39471269
   0.75456440  0.68065351  0.07894242
   0.55456424  0.98065347  0.23682758
   0.35456416  0.28065360  0.39471269
   0.22956428  0.53065348  0.00000000
   0.02956419  0.83065349  0.15788515
   0.82956403  0.13065362  0.31577030
   0.72956419  0.53065348  0.00000000
   0.52956414  0.83065349  0.15788515
   0.32956403  0.13065362  0.31577030
   0.00456433  0.18065351  0.07894243
   0.80456418  0.48065358  0.23682758
   0.60456425  0.78065366  0.39471269
   0.50456429  0.18065351  0.07894243
   0.30456418  0.48065358  0.23682758
   0.10456417  0.78065366  0.39471269
   0.32959640  0.40359747  0.55686057
   0.21292973  0.98693073  0.61305881
   0.09626293  0.57026398  0.66925722
   0.97959608  0.15359724  0.72545558
   0.86292940  0.73693061  0.78165376
   0.74626255  0.32026362  0.83785212
   0.82959640  0.65359747  0.55686057
   0.71292961  0.23693061  0.61305881
   0.59626287  0.82026398  0.66925722
   0.47959608  0.40359724  0.72545540
   0.36292934  0.98693049  0.78165370
   0.24626267  0.57026362  0.83785200
   0.82959640  0.90359747  0.55686063
   0.71292961  0.48693073  0.61305892
   0.59626281  0.07026398  0.66925722
   0.47959611  0.65359718  0.72545552
   0.36292940  0.23693049  0.78165376
   0.24626255  0.82026350  0.83785212
   0.32959628  0.15359747  0.55686063
   0.21292961  0.73693067  0.61305892
   0.09626293  0.32026386  0.66925722
   0.97959608  0.90359718  0.72545552
   0.86292934  0.48693049  0.78165382
   0.74626255  0.07026350  0.83785212
