<?xml version="1.0" encoding="ISO-8859-1"?>
<modeling>
 <generator>
  <i name="program" type="string">vasp </i>
  <i name="version" type="string">6.4.3  </i>
  <i name="subversion" type="string">19Mar24 (build Oct 22 2024 11:23:12) complex                          parallel </i>
  <i name="platform" type="string">LinuxIFC </i>
  <i name="date" type="string">2025 06 10 </i>
  <i name="time" type="string">04:43:07 </i>
 </generator>
 <incar>
  <i type="string" name="SYSTEM">Si and Ge interface calculation</i>
  <i type="int" name="ISTART">     0</i>
  <i type="logical" name="ADDGRID"> T  </i>
  <i type="int" name="ISPIN">     2</i>
  <i name="AMIX">      0.60000000</i>
  <i type="int" name="ICHARG">     2</i>
  <i type="int" name="NELM">   100</i>
  <i name="EDIFF">      0.00000010</i>
  <i name="ENCUT">    700.00000000</i>
  <i name="ENAUG">    900.00000000</i>
  <i type="int" name="NBANDS">   634</i>
  <i name="NUPDOWN">      1.00000000</i>
  <i name="NELECT">   1056.00000000</i>
  <i type="string" name="LREAL">AUTO</i>
  <i type="int" name="ISMEAR">     0</i>
  <i name="SIGMA">      0.01000000</i>
  <i type="int" name="LMAXMIX">     6</i>
  <i type="logical" name="LWAVE"> F  </i>
  <i type="logical" name="LVTOT"> F  </i>
  <i type="logical" name="LVHAR"> T  </i>
  <i type="logical" name="LASPH"> T  </i>
  <i type="logical" name="LMIXTAU"> T  </i>
 </incar>
 <primitive_cell>
  <structure name="primitive_cell" >
   <crystal>
    <varray name="basis" >
     <v>      19.58175087       0.00000000       0.00000000 </v>
     <v>       0.00000000      19.58174896       0.00000000 </v>
     <v>       0.00000000       0.00000000      19.10025024 </v>
    </varray>
    <i name="volume">   7323.89411345 </i>
    <varray name="rec_basis" >
     <v>       0.05106796       0.00000000       0.00000000 </v>
     <v>       0.00000000       0.05106796       0.00000000 </v>
     <v>       0.00000000       0.00000000       0.05235533 </v>
    </varray>
   </crystal>
   <varray name="positions" >
    <v>       0.99589300       0.99726200       0.00000000 </v>
    <v>       0.88050836       0.92033887       0.14217091 </v>
    <v>       0.76512373       0.84341574       0.28434190 </v>
    <v>       0.07281613       0.38187745       0.00000000 </v>
    <v>       0.95743144       0.30495429       0.14217091 </v>
    <v>       0.84204680       0.22803116       0.28434190 </v>
    <v>       0.77195829       0.87948716       0.80511779 </v>
    <v>       0.11127762       0.07418505       0.14217091 </v>
    <v>       0.99589294       0.99726194       0.28434190 </v>
    <v>       0.85529149       0.46282056       0.89005387 </v>
    <v>       0.03435453       0.68956971       0.14217091 </v>
    <v>       0.91896987       0.61264658       0.28434190 </v>
    <v>       0.30358541       0.53572357       0.00000000 </v>
    <v>       0.18820073       0.45880044       0.14217091 </v>
    <v>       0.07281607       0.38187730       0.28434190 </v>
    <v>       0.45743155       0.30495435       0.00000000 </v>
    <v>       0.34204686       0.22803120       0.14217091 </v>
    <v>       0.22666220       0.15110807       0.28434190 </v>
    <v>       0.35529149       0.96282059       0.89005387 </v>
    <v>       0.49589300       0.99726194       0.14217091 </v>
    <v>       0.38050836       0.92033881       0.28434190 </v>
    <v>       0.38050851       0.92033905       0.00000000 </v>
    <v>       0.26512384       0.84341592       0.14217091 </v>
    <v>       0.14973918       0.76649272       0.28434190 </v>
    <v>       0.53435463       0.68956971       0.00000000 </v>
    <v>       0.41896993       0.61264658       0.14217091 </v>
    <v>       0.30358526       0.53572345       0.28434190 </v>
    <v>       0.52195823       0.12948719       0.89005387 </v>
    <v>       0.57281607       0.38187736       0.14217091 </v>
    <v>       0.45743138       0.30495423       0.28434190 </v>
    <v>       0.84204692       0.22803119       0.00000000 </v>
    <v>       0.72666228       0.15110804       0.14217091 </v>
    <v>       0.61127758       0.07418491       0.28434190 </v>
    <v>       0.76512390       0.84341586       0.00000000 </v>
    <v>       0.64973927       0.76649272       0.14217091 </v>
    <v>       0.53435457       0.68956959       0.28434190 </v>
    <v>       0.91897005       0.61264664       0.00000000 </v>
    <v>       0.80358541       0.53572351       0.14217091 </v>
    <v>       0.68820071       0.45880038       0.28434190 </v>
    <v>       0.01512384       0.59341586       0.07108547 </v>
    <v>       0.02195823       0.96282059       0.55030960 </v>
    <v>       0.60529155       0.04615385       0.46537358 </v>
    <v>       0.16896996       0.36264667       0.07108547 </v>
    <v>       0.68862486       0.62948728       0.55030960 </v>
    <v>       0.93820059       0.20880038       0.35542738 </v>
    <v>       0.32281613       0.13187741       0.07108547 </v>
    <v>       0.20743145       0.05495427       0.21325642 </v>
    <v>       0.77195823       0.21282051       0.46537358 </v>
    <v>       0.09204689       0.97803128       0.07108547 </v>
    <v>       0.97666222       0.90110815       0.21325642 </v>
    <v>       0.43862486       0.21282051       0.46537358 </v>
    <v>       0.24589306       0.74726206       0.07108547 </v>
    <v>       0.13050841       0.67033893       0.21325642 </v>
    <v>       0.27195823       0.71282053       0.46537358 </v>
    <v>       0.39973927       0.51649284       0.07108547 </v>
    <v>       0.28435460       0.43956968       0.21325642 </v>
    <v>       0.16896993       0.36264655       0.35542738 </v>
    <v>       0.55358541       0.28572354       0.07108547 </v>
    <v>       0.43820071       0.20880039       0.21325642 </v>
    <v>       0.43862486       0.54615384       0.46537358 </v>
    <v>       0.70743155       0.05495430       0.07108547 </v>
    <v>       0.59204686       0.97803116       0.21325642 </v>
    <v>       0.47666219       0.90110803       0.35542738 </v>
    <v>       0.47666240       0.90110820       0.07108547 </v>
    <v>       0.36127770       0.82418507       0.21325642 </v>
    <v>       0.24589300       0.74726194       0.35542738 </v>
    <v>       0.63050854       0.67033899       0.07108547 </v>
    <v>       0.51512384       0.59341580       0.21325642 </v>
    <v>       0.39973915       0.51649267       0.35542738 </v>
    <v>       0.78435469       0.43956971       0.07108547 </v>
    <v>       0.66896999       0.36264655       0.21325642 </v>
    <v>       0.43862486       0.87948716       0.46537358 </v>
    <v>       0.93820083       0.20880049       0.07108547 </v>
    <v>       0.82281613       0.13187735       0.21325642 </v>
    <v>       0.70743144       0.05495421       0.35542738 </v>
    <v>       0.86127788       0.82418513       0.07108547 </v>
    <v>       0.74589318       0.74726200       0.21325642 </v>
    <v>       0.63050842       0.67033881       0.35542738 </v>
    <v>       0.85529149       0.79615390       0.89005387 </v>
    <v>       0.91896993       0.11264660       0.14217091 </v>
    <v>       0.68862486       0.29615384       0.55030960 </v>
    <v>       0.68862486       0.96282059       0.89005387 </v>
    <v>       0.99589300       0.49726200       0.14217091 </v>
    <v>       0.77195823       0.87948716       0.46537358 </v>
    <v>       0.52195823       0.46282056       0.89005387 </v>
    <v>       0.27195823       0.71282053       0.80511779 </v>
    <v>       0.77195823       0.54615384       0.46537358 </v>
    <v>       0.41896999       0.11264660       0.00000000 </v>
    <v>       0.93862486       0.37948719       0.80511779 </v>
    <v>       0.93862486       0.04615385       0.46537358 </v>
    <v>       0.18820076       0.95880044       0.00000000 </v>
    <v>       0.07281606       0.88187730       0.14217091 </v>
    <v>       0.95743138       0.80495423       0.28434190 </v>
    <v>       0.02195811       0.96282059       0.89005387 </v>
    <v>       0.22666223       0.65110815       0.14217091 </v>
    <v>       0.11127757       0.57418501       0.28434190 </v>
    <v>       0.49589309       0.49726200       0.00000000 </v>
    <v>       0.38050842       0.42033887       0.14217091 </v>
    <v>       0.10529160       0.87948716       0.46537358 </v>
    <v>       0.64973927       0.26649278       0.00000000 </v>
    <v>       0.53435463       0.18956965       0.14217091 </v>
    <v>       0.41896993       0.11264652       0.28434190 </v>
    <v>       0.68862486       0.62948728       0.89005387 </v>
    <v>       0.68820071       0.95880044       0.14217091 </v>
    <v>       0.57281607       0.88187730       0.28434190 </v>
    <v>       0.68862486       0.29615384       0.89005387 </v>
    <v>       0.45743144       0.80495429       0.14217091 </v>
    <v>       0.10529160       0.54615384       0.46537358 </v>
    <v>       0.72666234       0.65110815       0.00000000 </v>
    <v>       0.61127764       0.57418501       0.14217091 </v>
    <v>       0.49589294       0.49726185       0.28434190 </v>
    <v>       0.88050848       0.42033899       0.00000000 </v>
    <v>       0.76512384       0.34341586       0.14217091 </v>
    <v>       0.35529152       0.29615384       0.55030960 </v>
    <v>       0.95743161       0.80495429       0.00000000 </v>
    <v>       0.84204692       0.72803116       0.14217091 </v>
    <v>       0.72666228       0.65110803       0.28434190 </v>
    <v>       0.02195811       0.62948728       0.89005387 </v>
    <v>       0.01512377       0.09341583       0.21325642 </v>
    <v>       0.60529155       0.71282053       0.46537358 </v>
    <v>       0.93862486       0.04615385       0.80511779 </v>
    <v>       0.93820071       0.70880044       0.21325642 </v>
    <v>       0.82281601       0.63187730       0.35542738 </v>
    <v>       0.20743152       0.55495441       0.07108547 </v>
    <v>       0.09204687       0.47803125       0.21325642 </v>
    <v>       0.52195817       0.12948719       0.55030960 </v>
    <v>       0.36127770       0.32418513       0.07108547 </v>
    <v>       0.24589303       0.24726200       0.21325642 </v>
    <v>       0.13050833       0.17033885       0.35542738 </v>
    <v>       0.35529149       0.62948728       0.89005387 </v>
    <v>       0.39973921       0.01649272       0.21325642 </v>
    <v>       0.28435451       0.93956953       0.35542738 </v>
    <v>       0.02195811       0.29615384       0.89005387 </v>
    <v>       0.16896999       0.86264664       0.21325642 </v>
    <v>       0.05358529       0.78572351       0.35542738 </v>
    <v>       0.18862486       0.79615390       0.89005387 </v>
    <v>       0.32281607       0.63187742       0.21325642 </v>
    <v>       0.20743141       0.55495429       0.35542738 </v>
    <v>       0.35529149       0.29615384       0.89005387 </v>
    <v>       0.47666228       0.40110815       0.21325642 </v>
    <v>       0.10529160       0.21282051       0.46537358 </v>
    <v>       0.74589312       0.24726200       0.07108547 </v>
    <v>       0.63050842       0.17033887       0.21325642 </v>
    <v>       0.51512379       0.09341572       0.35542738 </v>
    <v>       0.60529155       0.04615385       0.80511779 </v>
    <v>       0.78435457       0.93956965       0.21325642 </v>
    <v>       0.66896993       0.86264652       0.35542738 </v>
    <v>       0.66897011       0.86264676       0.07108547 </v>
    <v>       0.55358541       0.78572363       0.21325642 </v>
    <v>       0.27195823       0.37948719       0.46537358 </v>
    <v>       0.82281625       0.63187742       0.07108547 </v>
    <v>       0.70743155       0.55495429       0.21325642 </v>
    <v>       0.59204680       0.47803113       0.35542738 </v>
    <v>       0.97666228       0.40110824       0.07108547 </v>
    <v>       0.86127758       0.32418507       0.21325642 </v>
    <v>       0.74589288       0.24726193       0.35542738 </v>
    <v>       0.01512372       0.59341580       0.35542738 </v>
    <v>       0.10529149       0.71282053       0.63524568 </v>
    <v>       0.93862486       0.71282053       0.80511779 </v>
    <v>       0.43820071       0.70880049       0.35542738 </v>
    <v>       0.10529149       0.37948719       0.63524568 </v>
    <v>       0.30358532       0.03572347       0.14217091 </v>
    <v>       0.27195823       0.04615385       0.46537358 </v>
    <v>       0.10529149       0.04615385       0.63524568 </v>
    <v>       0.05358534       0.78572363       0.07108547 </v>
    <v>       0.89973909       0.01649269       0.35542738 </v>
    <v>       0.43862483       0.71282053       0.63524568 </v>
    <v>       0.14973919       0.26649278       0.14217091 </v>
    <v>       0.60529155       0.37948719       0.46537358 </v>
    <v>       0.43862483       0.37948719       0.63524568 </v>
    <v>       0.27195823       0.37948719       0.80511779 </v>
    <v>       0.78435451       0.43956962       0.35542738 </v>
    <v>       0.43862483       0.04615385       0.63524568 </v>
    <v>       0.27195823       0.04615385       0.80511779 </v>
    <v>       0.93862486       0.71282053       0.46537358 </v>
    <v>       0.77195823       0.71282053       0.63524568 </v>
    <v>       0.60529155       0.71282053       0.80511779 </v>
    <v>       0.93862486       0.37948719       0.46537358 </v>
    <v>       0.77195823       0.37948719       0.63524568 </v>
    <v>       0.60529155       0.37948719       0.80511779 </v>
    <v>       0.18820064       0.95880032       0.28434190 </v>
    <v>       0.77195823       0.04615385       0.63524568 </v>
    <v>       0.89973927       0.01649279       0.07108547 </v>
    <v>       0.35529152       0.96282059       0.55030960 </v>
    <v>       0.18862486       0.96282059       0.72018170 </v>
    <v>       0.34204692       0.72803128       0.00000000 </v>
    <v>       0.35529152       0.62948728       0.55030960 </v>
    <v>       0.18862486       0.62948728       0.72018170 </v>
    <v>       0.13050844       0.17033896       0.07108547 </v>
    <v>       0.64973915       0.26649272       0.28434190 </v>
    <v>       0.18862486       0.29615384       0.72018170 </v>
    <v>       0.28435466       0.93956983       0.07108547 </v>
    <v>       0.68862486       0.96282059       0.55030960 </v>
    <v>       0.52195817       0.96282059       0.72018170 </v>
    <v>       0.61127770       0.07418510       0.00000000 </v>
    <v>       0.05358529       0.28572354       0.21325642 </v>
    <v>       0.52195817       0.62948728       0.72018170 </v>
    <v>       0.51512384       0.09341585       0.07108547 </v>
    <v>       0.80358523       0.03572347       0.28434190 </v>
    <v>       0.52195817       0.29615384       0.72018170 </v>
    <v>       0.59204698       0.47803128       0.07108547 </v>
    <v>       0.89973921       0.51649272       0.21325642 </v>
    <v>       0.85529160       0.96282059       0.72018170 </v>
    <v>       0.11127766       0.57418507       0.00000000 </v>
    <v>       0.02195823       0.62948728       0.55030960 </v>
    <v>       0.85529160       0.62948728       0.72018170 </v>
    <v>       0.80358541       0.03572357       0.00000000 </v>
    <v>       0.02195823       0.29615384       0.55030960 </v>
    <v>       0.85529160       0.29615384       0.72018170 </v>
    <v>       0.57281613       0.88187736       0.00000000 </v>
    <v>       0.55358529       0.28572342       0.35542738 </v>
    <v>       0.27195811       0.87948716       0.63524568 </v>
    <v>       0.10529149       0.87948716       0.80511779 </v>
    <v>       0.32281604       0.13187726       0.35542738 </v>
    <v>       0.27195811       0.54615384       0.63524568 </v>
    <v>       0.10529149       0.54615384       0.80511779 </v>
    <v>       0.86127752       0.82418501       0.35542738 </v>
    <v>       0.27195811       0.21282051       0.63524568 </v>
    <v>       0.10529149       0.21282051       0.80511779 </v>
    <v>       0.88050830       0.42033884       0.28434190 </v>
    <v>       0.60529149       0.87948716       0.63524568 </v>
    <v>       0.43862486       0.87948716       0.80511779 </v>
    <v>       0.03435449       0.18956965       0.28434190 </v>
    <v>       0.60529149       0.54615384       0.63524568 </v>
    <v>       0.43862486       0.54615384       0.80511779 </v>
    <v>       0.09204677       0.97803116       0.35542738 </v>
    <v>       0.60529149       0.21282051       0.63524568 </v>
    <v>       0.43862486       0.21282051       0.80511779 </v>
    <v>       0.26512373       0.34341574       0.28434190 </v>
    <v>       0.93862498       0.87948716       0.63524568 </v>
    <v>       0.22666228       0.15110818       0.00000000 </v>
    <v>       0.34204680       0.72803110       0.28434190 </v>
    <v>       0.93862498       0.54615384       0.63524568 </v>
    <v>       0.77195829       0.54615384       0.80511779 </v>
    <v>       0.36127761       0.32418501       0.35542738 </v>
    <v>       0.93862498       0.21282051       0.63524568 </v>
    <v>       0.77195829       0.21282051       0.80511779 </v>
    <v>       0.52195817       0.79615390       0.55030960 </v>
    <v>       0.35529152       0.79615390       0.72018170 </v>
    <v>       0.43820077       0.70880061       0.07108547 </v>
    <v>       0.52195817       0.46282056       0.55030960 </v>
    <v>       0.35529152       0.46282056       0.72018170 </v>
    <v>       0.18862486       0.46282056       0.89005387 </v>
    <v>       0.97666216       0.40110809       0.35542738 </v>
    <v>       0.35529152       0.12948719       0.72018170 </v>
    <v>       0.18862486       0.12948719       0.89005387 </v>
    <v>       0.85529160       0.79615390       0.55030960 </v>
    <v>       0.68862498       0.79615390       0.72018170 </v>
    <v>       0.52195823       0.79615390       0.89005387 </v>
    <v>       0.85529160       0.46282056       0.55030960 </v>
    <v>       0.68862498       0.46282056       0.72018170 </v>
    <v>       0.26512384       0.34341592       0.00000000 </v>
    <v>       0.85529160       0.12948719       0.55030960 </v>
    <v>       0.68862498       0.12948719       0.72018170 </v>
    <v>       0.68820071       0.45880049       0.00000000 </v>
    <v>       0.18862486       0.79615390       0.55030960 </v>
    <v>       0.02195811       0.79615390       0.72018170 </v>
    <v>       0.03435459       0.18956974       0.00000000 </v>
    <v>       0.18862486       0.46282056       0.55030960 </v>
    <v>       0.02195811       0.46282056       0.72018170 </v>
    <v>       0.14973922       0.76649284       0.00000000 </v>
    <v>       0.18862486       0.12948719       0.55030960 </v>
    <v>       0.02195811       0.12948719       0.72018170 </v>
    <v>       0.85529149       0.12948719       0.89005387 </v>
   </varray>
  </structure>
  <varray name="primitive_index" >
   <v type="int" >        1 </v>
   <v type="int" >        2 </v>
   <v type="int" >        3 </v>
   <v type="int" >        4 </v>
   <v type="int" >        5 </v>
   <v type="int" >        6 </v>
   <v type="int" >        7 </v>
   <v type="int" >        8 </v>
   <v type="int" >        9 </v>
   <v type="int" >       10 </v>
   <v type="int" >       11 </v>
   <v type="int" >       12 </v>
   <v type="int" >       13 </v>
   <v type="int" >       14 </v>
   <v type="int" >       15 </v>
   <v type="int" >       16 </v>
   <v type="int" >       17 </v>
   <v type="int" >       18 </v>
   <v type="int" >       19 </v>
   <v type="int" >       20 </v>
   <v type="int" >       21 </v>
   <v type="int" >       22 </v>
   <v type="int" >       23 </v>
   <v type="int" >       24 </v>
   <v type="int" >       25 </v>
   <v type="int" >       26 </v>
   <v type="int" >       27 </v>
   <v type="int" >       28 </v>
   <v type="int" >       29 </v>
   <v type="int" >       30 </v>
   <v type="int" >       31 </v>
   <v type="int" >       32 </v>
   <v type="int" >       33 </v>
   <v type="int" >       34 </v>
   <v type="int" >       35 </v>
   <v type="int" >       36 </v>
   <v type="int" >       37 </v>
   <v type="int" >       38 </v>
   <v type="int" >       39 </v>
   <v type="int" >       40 </v>
   <v type="int" >       41 </v>
   <v type="int" >       42 </v>
   <v type="int" >       43 </v>
   <v type="int" >       44 </v>
   <v type="int" >       45 </v>
   <v type="int" >       46 </v>
   <v type="int" >       47 </v>
   <v type="int" >       48 </v>
   <v type="int" >       49 </v>
   <v type="int" >       50 </v>
   <v type="int" >       51 </v>
   <v type="int" >       52 </v>
   <v type="int" >       53 </v>
   <v type="int" >       54 </v>
   <v type="int" >       55 </v>
   <v type="int" >       56 </v>
   <v type="int" >       57 </v>
   <v type="int" >       58 </v>
   <v type="int" >       59 </v>
   <v type="int" >       60 </v>
   <v type="int" >       61 </v>
   <v type="int" >       62 </v>
   <v type="int" >       63 </v>
   <v type="int" >       64 </v>
   <v type="int" >       65 </v>
   <v type="int" >       66 </v>
   <v type="int" >       67 </v>
   <v type="int" >       68 </v>
   <v type="int" >       69 </v>
   <v type="int" >       70 </v>
   <v type="int" >       71 </v>
   <v type="int" >       72 </v>
   <v type="int" >       73 </v>
   <v type="int" >       74 </v>
   <v type="int" >       75 </v>
   <v type="int" >       76 </v>
   <v type="int" >       77 </v>
   <v type="int" >       78 </v>
   <v type="int" >       79 </v>
   <v type="int" >       80 </v>
   <v type="int" >       81 </v>
   <v type="int" >       82 </v>
   <v type="int" >       83 </v>
   <v type="int" >       84 </v>
   <v type="int" >       85 </v>
   <v type="int" >       86 </v>
   <v type="int" >       87 </v>
   <v type="int" >       88 </v>
   <v type="int" >       89 </v>
   <v type="int" >       90 </v>
   <v type="int" >       91 </v>
   <v type="int" >       92 </v>
   <v type="int" >       93 </v>
   <v type="int" >       94 </v>
   <v type="int" >       95 </v>
   <v type="int" >       96 </v>
   <v type="int" >       97 </v>
   <v type="int" >       98 </v>
   <v type="int" >       99 </v>
   <v type="int" >      100 </v>
   <v type="int" >      101 </v>
   <v type="int" >      102 </v>
   <v type="int" >      103 </v>
   <v type="int" >      104 </v>
   <v type="int" >      105 </v>
   <v type="int" >      106 </v>
   <v type="int" >      107 </v>
   <v type="int" >      108 </v>
   <v type="int" >      109 </v>
   <v type="int" >      110 </v>
   <v type="int" >      111 </v>
   <v type="int" >      112 </v>
   <v type="int" >      113 </v>
   <v type="int" >      114 </v>
   <v type="int" >      115 </v>
   <v type="int" >      116 </v>
   <v type="int" >      117 </v>
   <v type="int" >      118 </v>
   <v type="int" >      119 </v>
   <v type="int" >      120 </v>
   <v type="int" >      121 </v>
   <v type="int" >      122 </v>
   <v type="int" >      123 </v>
   <v type="int" >      124 </v>
   <v type="int" >      125 </v>
   <v type="int" >      126 </v>
   <v type="int" >      127 </v>
   <v type="int" >      128 </v>
   <v type="int" >      129 </v>
   <v type="int" >      130 </v>
   <v type="int" >      131 </v>
   <v type="int" >      132 </v>
   <v type="int" >      133 </v>
   <v type="int" >      134 </v>
   <v type="int" >      135 </v>
   <v type="int" >      136 </v>
   <v type="int" >      137 </v>
   <v type="int" >      138 </v>
   <v type="int" >      139 </v>
   <v type="int" >      140 </v>
   <v type="int" >      141 </v>
   <v type="int" >      142 </v>
   <v type="int" >      143 </v>
   <v type="int" >      144 </v>
   <v type="int" >      145 </v>
   <v type="int" >      146 </v>
   <v type="int" >      147 </v>
   <v type="int" >      148 </v>
   <v type="int" >      149 </v>
   <v type="int" >      150 </v>
   <v type="int" >      151 </v>
   <v type="int" >      152 </v>
   <v type="int" >      153 </v>
   <v type="int" >      154 </v>
   <v type="int" >      155 </v>
   <v type="int" >      156 </v>
   <v type="int" >      157 </v>
   <v type="int" >      158 </v>
   <v type="int" >      159 </v>
   <v type="int" >      160 </v>
   <v type="int" >      161 </v>
   <v type="int" >      162 </v>
   <v type="int" >      163 </v>
   <v type="int" >      164 </v>
   <v type="int" >      165 </v>
   <v type="int" >      166 </v>
   <v type="int" >      167 </v>
   <v type="int" >      168 </v>
   <v type="int" >      169 </v>
   <v type="int" >      170 </v>
   <v type="int" >      171 </v>
   <v type="int" >      172 </v>
   <v type="int" >      173 </v>
   <v type="int" >      174 </v>
   <v type="int" >      175 </v>
   <v type="int" >      176 </v>
   <v type="int" >      177 </v>
   <v type="int" >      178 </v>
   <v type="int" >      179 </v>
   <v type="int" >      180 </v>
   <v type="int" >      181 </v>
   <v type="int" >      182 </v>
   <v type="int" >      183 </v>
   <v type="int" >      184 </v>
   <v type="int" >      185 </v>
   <v type="int" >      186 </v>
   <v type="int" >      187 </v>
   <v type="int" >      188 </v>
   <v type="int" >      189 </v>
   <v type="int" >      190 </v>
   <v type="int" >      191 </v>
   <v type="int" >      192 </v>
   <v type="int" >      193 </v>
   <v type="int" >      194 </v>
   <v type="int" >      195 </v>
   <v type="int" >      196 </v>
   <v type="int" >      197 </v>
   <v type="int" >      198 </v>
   <v type="int" >      199 </v>
   <v type="int" >      200 </v>
   <v type="int" >      201 </v>
   <v type="int" >      202 </v>
   <v type="int" >      203 </v>
   <v type="int" >      204 </v>
   <v type="int" >      205 </v>
   <v type="int" >      206 </v>
   <v type="int" >      207 </v>
   <v type="int" >      208 </v>
   <v type="int" >      209 </v>
   <v type="int" >      210 </v>
   <v type="int" >      211 </v>
   <v type="int" >      212 </v>
   <v type="int" >      213 </v>
   <v type="int" >      214 </v>
   <v type="int" >      215 </v>
   <v type="int" >      216 </v>
   <v type="int" >      217 </v>
   <v type="int" >      218 </v>
   <v type="int" >      219 </v>
   <v type="int" >      220 </v>
   <v type="int" >      221 </v>
   <v type="int" >      222 </v>
   <v type="int" >      223 </v>
   <v type="int" >      224 </v>
   <v type="int" >      225 </v>
   <v type="int" >      226 </v>
   <v type="int" >      227 </v>
   <v type="int" >      228 </v>
   <v type="int" >      229 </v>
   <v type="int" >      230 </v>
   <v type="int" >      231 </v>
   <v type="int" >      232 </v>
   <v type="int" >      233 </v>
   <v type="int" >      234 </v>
   <v type="int" >      235 </v>
   <v type="int" >      236 </v>
   <v type="int" >      237 </v>
   <v type="int" >      238 </v>
   <v type="int" >      239 </v>
   <v type="int" >      240 </v>
   <v type="int" >      241 </v>
   <v type="int" >      242 </v>
   <v type="int" >      243 </v>
   <v type="int" >      244 </v>
   <v type="int" >      245 </v>
   <v type="int" >      246 </v>
   <v type="int" >      247 </v>
   <v type="int" >      248 </v>
   <v type="int" >      249 </v>
   <v type="int" >      250 </v>
   <v type="int" >      251 </v>
   <v type="int" >      252 </v>
   <v type="int" >      253 </v>
   <v type="int" >      254 </v>
   <v type="int" >      255 </v>
   <v type="int" >      256 </v>
   <v type="int" >      257 </v>
   <v type="int" >      258 </v>
   <v type="int" >      259 </v>
   <v type="int" >      260 </v>
   <v type="int" >      261 </v>
   <v type="int" >      262 </v>
   <v type="int" >      263 </v>
   <v type="int" >      264 </v>
  </varray>
 </primitive_cell>
 <kpoints>
  <generation param="Gamma">
   <v type="int" name="divisions">       2        2        2 </v>
   <v name="usershift">      0.00000000       0.00000000       0.00000000 </v>
   <v name="genvec1">      0.50000000       0.00000000       0.00000000 </v>
   <v name="genvec2">      0.00000000       0.50000000       0.00000000 </v>
   <v name="genvec3">      0.00000000       0.00000000       0.50000000 </v>
   <v name="shift">      0.00000000       0.00000000       0.00000000 </v>
  </generation>
  <varray name="kpointlist" >
   <v>       0.00000000       0.00000000       0.00000000 </v>
   <v>       0.50000000       0.00000000       0.00000000 </v>
   <v>       0.00000000       0.50000000       0.00000000 </v>
   <v>       0.50000000       0.50000000       0.00000000 </v>
   <v>       0.00000000       0.00000000       0.50000000 </v>
   <v>       0.50000000       0.00000000       0.50000000 </v>
   <v>       0.00000000       0.50000000       0.50000000 </v>
   <v>       0.50000000       0.50000000       0.50000000 </v>
  </varray>
  <varray name="weights" >
   <v>       0.12500000 </v>
   <v>       0.12500000 </v>
   <v>       0.12500000 </v>
   <v>       0.12500000 </v>
   <v>       0.12500000 </v>
   <v>       0.12500000 </v>
   <v>       0.12500000 </v>
   <v>       0.12500000 </v>
  </varray>
 </kpoints>
 <parameters>
  <separator name="general" >
   <i type="string" name="SYSTEM">Si and Ge interface calculation</i>
   <i type="logical" name="LCOMPAT"> F  </i>
  </separator>
  <separator name="electronic" >
   <i type="string" name="PREC">normal</i>
   <i name="ENMAX">    700.00000000</i>
   <i name="ENAUG">    900.00000000</i>
   <i name="EDIFF">      0.00000010</i>
   <i type="int" name="IALGO">    38</i>
   <i type="int" name="IWAVPR">    10</i>
   <i type="int" name="NBANDS">   636</i>
   <i type="int" name="NBANDSLOW">    -1</i>
   <i type="int" name="NBANDSHIGH">    -1</i>
   <i name="NELECT">   1056.00000000</i>
   <i type="int" name="TURBO">     0</i>
   <i type="int" name="IRESTART">     0</i>
   <i type="int" name="NREBOOT">     0</i>
   <i type="int" name="NMIN">     0</i>
   <i name="EREF">      0.00000000</i>
   <separator name="electronic smearing" >
    <i type="int" name="ISMEAR">     0</i>
    <i name="SIGMA">      0.01000000</i>
    <i name="KSPACING">      0.50000000</i>
    <i type="logical" name="KGAMMA"> T  </i>
    <i type="logical" name="KBLOWUP"> T  </i>
   </separator>
   <separator name="electronic projectors" >
    <i type="logical" name="LREAL"> T  </i>
    <v name="ROPT">     -0.00050000     -0.00050000</v>
    <i type="int" name="LMAXPAW">  -100</i>
    <i type="int" name="LMAXMIX">     6</i>
    <i type="logical" name="NLSPLINE"> F  </i>
   </separator>
   <separator name="electronic startup" >
    <i type="int" name="ISTART">     0</i>
    <i type="int" name="ICHARG">     2</i>
    <i type="int" name="INIWAV">     1</i>
   </separator>
   <separator name="electronic spin" >
    <i type="int" name="ISPIN">     2</i>
    <i type="logical" name="LNONCOLLINEAR"> F  </i>
    <v name="MAGMOM">      0.00378788      0.00378788      0.00378788      0.00378788      0.00378788      0.00378788      0.00378788      0.00378788      0.00378788      0.00378788      0.00378788      0.00378788      0.00378788      0.00378788      0.00378788      0.00378788      0.00378788      0.00378788      0.00378788      0.00378788
      0.00378788      0.00378788      0.00378788      0.00378788      0.00378788      0.00378788      0.00378788      0.00378788      0.00378788      0.00378788      0.00378788      0.00378788      0.00378788      0.00378788      0.00378788      0.00378788      0.00378788      0.00378788      0.00378788      0.00378788
      0.00378788      0.00378788      0.00378788      0.00378788      0.00378788      0.00378788      0.00378788      0.00378788      0.00378788      0.00378788      0.00378788      0.00378788      0.00378788      0.00378788      0.00378788      0.00378788      0.00378788      0.00378788      0.00378788      0.00378788
      0.00378788      0.00378788      0.00378788      0.00378788      0.00378788      0.00378788      0.00378788      0.00378788      0.00378788      0.00378788      0.00378788      0.00378788      0.00378788      0.00378788      0.00378788      0.00378788      0.00378788      0.00378788      0.00378788      0.00378788
      0.00378788      0.00378788      0.00378788      0.00378788      0.00378788      0.00378788      0.00378788      0.00378788      0.00378788      0.00378788      0.00378788      0.00378788      0.00378788      0.00378788      0.00378788      0.00378788      0.00378788      0.00378788      0.00378788      0.00378788
      0.00378788      0.00378788      0.00378788      0.00378788      0.00378788      0.00378788      0.00378788      0.00378788      0.00378788      0.00378788      0.00378788      0.00378788      0.00378788      0.00378788      0.00378788      0.00378788      0.00378788      0.00378788      0.00378788      0.00378788
      0.00378788      0.00378788      0.00378788      0.00378788      0.00378788      0.00378788      0.00378788      0.00378788      0.00378788      0.00378788      0.00378788      0.00378788      0.00378788      0.00378788      0.00378788      0.00378788      0.00378788      0.00378788      0.00378788      0.00378788
      0.00378788      0.00378788      0.00378788      0.00378788      0.00378788      0.00378788      0.00378788      0.00378788      0.00378788      0.00378788      0.00378788      0.00378788      0.00378788      0.00378788      0.00378788      0.00378788      0.00378788      0.00378788      0.00378788      0.00378788
      0.00378788      0.00378788      0.00378788      0.00378788      0.00378788      0.00378788      0.00378788      0.00378788      0.00378788      0.00378788      0.00378788      0.00378788      0.00378788      0.00378788      0.00378788      0.00378788      0.00378788      0.00378788      0.00378788      0.00378788
      0.00378788      0.00378788      0.00378788      0.00378788      0.00378788      0.00378788      0.00378788      0.00378788      0.00378788      0.00378788      0.00378788      0.00378788      0.00378788      0.00378788      0.00378788      0.00378788      0.00378788      0.00378788      0.00378788      0.00378788
      0.00378788      0.00378788      0.00378788      0.00378788      0.00378788      0.00378788      0.00378788      0.00378788      0.00378788      0.00378788      0.00378788      0.00378788      0.00378788      0.00378788      0.00378788      0.00378788      0.00378788      0.00378788      0.00378788      0.00378788
      0.00378788      0.00378788      0.00378788      0.00378788      0.00378788      0.00378788      0.00378788      0.00378788      0.00378788      0.00378788      0.00378788      0.00378788      0.00378788      0.00378788      0.00378788      0.00378788      0.00378788      0.00378788      0.00378788      0.00378788
      0.00378788      0.00378788      0.00378788      0.00378788      0.00378788      0.00378788      0.00378788      0.00378788      0.00378788      0.00378788      0.00378788      0.00378788      0.00378788      0.00378788      0.00378788      0.00378788      0.00378788      0.00378788      0.00378788      0.00378788
      0.00378788      0.00378788      0.00378788      0.00378788</v>
    <i name="NUPDOWN">      1.00000000</i>
    <i type="logical" name="LSORBIT"> F  </i>
    <v name="SAXIS">      0.00000000      0.00000000      1.00000000</v>
    <i type="logical" name="LSPIRAL"> F  </i>
    <v name="QSPIRAL">      0.00000000      0.00000000      0.00000000</v>
    <i type="logical" name="LZEROZ"> F  </i>
   </separator>
   <separator name="electronic exchange-correlation" >
    <i type="logical" name="LASPH"> T  </i>
   </separator>
   <separator name="electronic convergence" >
    <i type="int" name="NELM">   100</i>
    <i type="int" name="NELMDL">    -5</i>
    <i type="int" name="NELMIN">     2</i>
    <i name="ENINI">    700.00000000</i>
    <separator name="electronic convergence detail" >
     <i type="logical" name="LDIAG"> T  </i>
     <i type="logical" name="LSUBROT"> F  </i>
     <i name="WEIMIN">      0.00000000</i>
     <i name="EBREAK">      0.00000000</i>
     <i name="DEPER">      0.30000000</i>
     <i type="int" name="NRMM">     4</i>
     <i name="TIME">      0.40000000</i>
    </separator>
   </separator>
   <separator name="electronic mixer" >
    <i name="AMIX">      0.60000000</i>
    <i name="BMIX">      1.00000000</i>
    <i name="AMIN">      0.10000000</i>
    <i name="AMIX_MAG">      2.40000000</i>
    <i name="BMIX_MAG">      1.00000000</i>
    <separator name="electronic mixer details" >
     <i type="int" name="IMIX">     4</i>
     <i type="logical" name="MIXFIRST"> F  </i>
     <i type="int" name="MAXMIX">   -45</i>
     <i name="WC">    100.00000000</i>
     <i type="int" name="INIMIX">     1</i>
     <i type="int" name="MIXPRE">     1</i>
     <i type="int" name="MREMOVE">     5</i>
    </separator>
   </separator>
   <separator name="electronic dipolcorrection" >
    <i type="logical" name="LDIPOL"> F  </i>
    <i type="logical" name="LMONO"> F  </i>
    <i type="int" name="IDIPOL">     0</i>
    <i name="EPSILON">      1.00000000</i>
    <v name="DIPOL">   -100.00000000   -100.00000000   -100.00000000</v>
    <i name="EFIELD">      0.00000000</i>
    <i type="logical" name="LVACPOTAV"> F  </i>
   </separator>
  </separator>
  <separator name="grids" >
   <i type="int" name="NGX">   128</i>
   <i type="int" name="NGY">   128</i>
   <i type="int" name="NGZ">   126</i>
   <i type="int" name="NGXF">   256</i>
   <i type="int" name="NGYF">   256</i>
   <i type="int" name="NGZF">   252</i>
   <i type="logical" name="ADDGRID"> T  </i>
  </separator>
  <separator name="ionic" >
   <i type="int" name="NSW">     0</i>
   <i type="int" name="IBRION">    -1</i>
   <i type="int" name="MDALGO">     0</i>
   <i type="int" name="ISIF">     2</i>
   <i name="PSTRESS">      0.00000000</i>
   <i name="EDIFFG">      0.00000100</i>
   <i type="int" name="NFREE">     0</i>
   <i name="POTIM">      0.50000000</i>
   <i name="SMASS">     -3.00000000</i>
   <i name="SCALEE">      1.00000000</i>
  </separator>
  <separator name="ionic md" >
   <i name="TEBEG">      0.00010000</i>
   <i name="TEEND">      0.00010000</i>
   <i type="int" name="NBLOCK">     1</i>
   <i type="int" name="KBLOCK">     1</i>
   <i type="int" name="NPACO">   256</i>
   <i name="APACO">     10.00000000</i>
  </separator>
  <separator name="symmetry" >
   <i type="int" name="ISYM">     2</i>
   <i name="SYMPREC">      0.00001000</i>
  </separator>
  <separator name="dos" >
   <i type="int" name="LORBIT">     0</i>
   <v name="RWIGS">     -1.00000000     -1.00000000</v>
   <i type="int" name="NEDOS">   301</i>
   <i name="EMIN">     10.00000000</i>
   <i name="EMAX">    -10.00000000</i>
   <i name="EFERMI">      0.00000000</i>
  </separator>
  <separator name="writing" >
   <i type="int" name="NWRITE">     2</i>
   <i type="logical" name="LWAVE"> F  </i>
   <i type="logical" name="LDOWNSAMPLE"> F  </i>
   <i type="logical" name="LCHARG"> T  </i>
   <i type="logical" name="LPARD"> F  </i>
   <i type="logical" name="LVTOT"> F  </i>
   <i type="logical" name="LVHAR"> T  </i>
   <i type="logical" name="LELF"> F  </i>
   <i type="logical" name="LOPTICS"> F  </i>
   <v name="STM">      0.00000000      0.00000000      0.00000000      0.00000000      0.00000000      0.00000000      0.00000000</v>
  </separator>
  <separator name="performance" >
   <i type="int" name="NPAR">     4</i>
   <i type="int" name="NSIM">     4</i>
   <i type="int" name="NBLK">    -1</i>
   <i type="logical" name="LPLANE"> T  </i>
   <i type="logical" name="LSCALAPACK"> T  </i>
   <i type="logical" name="LSCAAWARE"> F  </i>
   <i type="logical" name="LSCALU"> F  </i>
   <i type="logical" name="LASYNC"> F  </i>
   <i type="logical" name="LORBITALREAL"> F  </i>
  </separator>
  <separator name="miscellaneous" >
   <i type="int" name="IDIOT">     3</i>
   <i type="int" name="PHON_NSTRUCT">    -1</i>
   <i type="logical" name="LMUSIC"> F  </i>
   <v name="POMASS">     28.08500000    118.71000000</v>
   <v name="DARWINR">      0.00000000      0.00000000</v>
   <v name="DARWINV">      1.00000000      1.00000000</v>
   <i type="logical" name="LCORR"> T  </i>
  </separator>
  <i type="logical" name="GGA_COMPAT"> T  </i>
  <i type="logical" name="LBERRY"> F  </i>
  <i type="int" name="ICORELEVEL">     0</i>
  <i type="logical" name="LDAU"> F  </i>
  <i type="int" name="I_CONSTRAINED_M">     0</i>
  <separator name="electronic exchange-correlation" >
   <i type="string" name="GGA    ">PE</i>
   <i type="string" name="XC_C">1</i>
   <i type="int" name="VOSKOWN">     0</i>
   <i type="logical" name="LHFCALC"> F  </i>
   <i type="string" name="PRECFOCK"></i>
   <i type="logical" name="LSYMGRAD"> F  </i>
   <i type="logical" name="LHFONE"> F  </i>
   <i type="logical" name="LRHFCALC"> F  </i>
   <i type="logical" name="LTHOMAS"> F  </i>
   <i type="logical" name="LMODELHF"> F  </i>
   <i type="logical" name="LFOCKACE"> F  </i>
   <i name="ENCUT4O">     -1.00000000</i>
   <i type="int" name="EXXOEP">     0</i>
   <i type="int" name="FOURORBIT">     0</i>
   <i name="AEXX">      0.00000000</i>
   <i name="HFALPHA">      0.00000000</i>
   <i name="MCALPHA">      0.00000000</i>
   <i name="ALDAX">      1.00000000</i>
   <i name="AGGAX">      1.00000000</i>
   <i name="AMGGAX">      1.00000000</i>
   <i name="ALDAC">      1.00000000</i>
   <i name="AGGAC">      1.00000000</i>
   <i name="AMGGAC">      1.00000000</i>
   <i type="int" name="NKREDX">     1</i>
   <i type="int" name="NKREDY">     1</i>
   <i type="int" name="NKREDZ">     1</i>
   <i type="logical" name="SHIFTRED"> F  </i>
   <i type="logical" name="ODDONLY"> F  </i>
   <i type="logical" name="EVENONLY"> F  </i>
   <i type="int" name="LMAXFOCK">     0</i>
   <i type="int" name="NMAXFOCKAE">     0</i>
   <i type="logical" name="LFOCKAEDFT"> F  </i>
   <i name="HFSCREEN">      0.00000000</i>
   <i name="HFSCREENC">      0.00000000</i>
   <i type="int" name="NBANDSGWLOW">     0</i>
  </separator>
  <separator name="vdW DFT" >
   <i type="logical" name="LUSE_VDW"> F  </i>
   <i type="int" name="IVDW_NL">    -1</i>
   <i type="logical" name="LSPIN_VDW"> F  </i>
   <i name="ZAB_VDW">     -0.84910000</i>
   <i name="GAMMA_VDW">      1.39626340</i>
   <i name="ALPHA_VDW">      0.00000000</i>
   <i name="PARAM1">      0.12340000</i>
   <i name="PARAM2">      1.00000000</i>
   <i name="BPARAM">      6.30000000</i>
   <i name="CPARAM">      0.00930000</i>
  </separator>
  <separator name="model GW" >
   <i type="int" name="MODEL_GW">     0</i>
   <i name="MODEL_EPS0">     16.64521389</i>
   <i name="MODEL_ALPHA">      1.00000000</i>
  </separator>
  <separator name="linear response parameters" >
   <i type="logical" name="LEPSILON"> F  </i>
   <i type="logical" name="LRPA"> F  </i>
   <i type="logical" name="LNABLA"> F  </i>
   <i type="logical" name="LVEL"> F  </i>
   <i name="CSHIFT">      0.10000000</i>
   <i name="OMEGAMAX">     -1.00000000</i>
   <i name="DEG_THRESHOLD">      0.00200000</i>
   <i name="RTIME">     -0.10000000</i>
   <i name="WPLASMAI">      0.00000000</i>
   <v name="DFIELD">      0.00000000      0.00000000      0.00000000</v>
   <v name="WPLASMA">      0.00000000      0.00000000      0.00000000      0.00000000      0.00000000      0.00000000      0.00000000      0.00000000      0.00000000</v>
  </separator>
  <separator name="orbital magnetization" >
   <i type="logical" name="NUCIND"> F  </i>
   <v name="MAGPOS">      0.00000000      0.00000000      0.00000000</v>
   <i type="logical" name="LNICSALL"> T  </i>
   <i type="logical" name="ORBITALMAG"> F  </i>
   <i type="logical" name="LMAGBLOCH"> F  </i>
   <i type="logical" name="LCHIMAG"> F  </i>
   <i type="logical" name="LGAUGE"> T  </i>
   <i type="int" name="MAGATOM">     0</i>
   <v name="MAGDIPOL">      0.00000000      0.00000000      0.00000000</v>
   <v name="AVECCONST">      0.00000000      0.00000000      0.00000000</v>
  </separator>
  <separator name="response functions" >
   <i type="logical" name="LALL_IN_ONE"> F  </i>
   <i type="int" name="IALL_IN_ONE">    -1</i>
   <i type="int" name="NBANDS_WAVE">    -1</i>
   <i type="logical" name="LFINITE_TEMPERATURE"> F  </i>
   <i type="logical" name="LADDER"> F  </i>
   <i type="logical" name="LRPAFORCE"> F  </i>
   <i type="logical" name="LFXC"> F  </i>
   <i type="logical" name="LHARTREE"> T  </i>
   <i type="int" name="IBSE">     0</i>
   <v type="int" name="KPOINT">    -1     0     0     0</v>
   <i type="logical" name="LTCTC"> F  </i>
   <i type="logical" name="LTCTE"> F  </i>
   <i type="logical" name="LTETE"> F  </i>
   <i type="logical" name="LTRIPLET"> F  </i>
   <i type="logical" name="LFXCEPS"> F  </i>
   <i type="logical" name="LFXHEG"> F  </i>
   <i type="int" name="NATURALO">     2</i>
   <i type="logical" name="LHOLEGF"> F  </i>
   <i type="logical" name="L2ORDER"> F  </i>
   <i type="logical" name="LDMP1"> F  </i>
   <i type="logical" name="LMP2LT"> F  </i>
   <i type="logical" name="LSMP2LT"> F  </i>
   <i type="logical" name="LGWLF"> F  </i>
   <i name="ENCUTGW">     -1.60000002</i>
   <i name="ENCUTGWSOFT">     -1.60000002</i>
   <i name="ENCUTLF">     -1.00000000</i>
   <i type="logical" name="ESF_SPLINES"> F  </i>
   <i name="ESF_CONV">      0.01000000</i>
   <i type="int" name="ESF_NINTER">    15</i>
   <i type="int" name="LMAXMP2">    -1</i>
   <i name="SCISSOR">      0.00000000</i>
   <i type="int" name="NOMEGA">     0</i>
   <i type="int" name="NOMEGAR">     0</i>
   <i type="int" name="NBANDSGW">    -1</i>
   <i type="int" name="NBANDSO">    -1</i>
   <i type="int" name="NBANDSV">    -1</i>
   <i type="int" name="NELMGW">     1</i>
   <i type="int" name="NELMHF">     1</i>
   <i type="int" name="DIM">     3</i>
   <i type="int" name="IESPILON">     4</i>
   <i type="int" name="ANTIRES">     0</i>
   <i name="OMEGAMAX">    -30.00000000</i>
   <i name="OMEGAMIN">    -30.00000000</i>
   <i name="OMEGATL">   -200.00000000</i>
   <i type="int" name="OMEGAGRID">     0</i>
   <i name="CSHIFT">     -0.10000000</i>
   <i type="logical" name="LSELFENERGY"> F  </i>
   <i type="logical" name="LSPECTRAL"> F  </i>
   <i type="logical" name="LSPECTRALGW"> F  </i>
   <i type="logical" name="LSINGLES"> F  </i>
   <i type="logical" name="LFERMIGW"> F  </i>
   <i type="logical" name="ODDONLYGW"> F  </i>
   <i type="logical" name="EVENONLYGW"> F  </i>
   <i type="int" name="NKREDLFX">     1</i>
   <i type="int" name="NKREDLFY">     1</i>
   <i type="int" name="NKREDLFZ">     1</i>
   <i type="int" name="MAXMEM">  2800</i>
   <i type="int" name="TELESCOPE">     0</i>
   <i type="int" name="NTAUPAR">    -1</i>
   <i type="int" name="NOMEGAPAR">    -1</i>
   <i name="DAMP_NEWTON">      0.80000001</i>
   <i name="LAMBDA">      1.00000000</i>
  </separator>
  <separator name="External order field" >
   <i name="OFIELD_KAPPA">      0.00000000</i>
   <v name="OFIELD_K">      0.00000000      0.00000000      0.00000000</v>
   <i name="OFIELD_Q6_NEAR">      0.00000000</i>
   <i name="OFIELD_Q6_FAR">      0.00000000</i>
   <i name="OFIELD_A">      0.00000000</i>
  </separator>
  <separator name="optional k-points parameters" >
   <i type="int" name="KPOINTS_OPT_MODE">     1</i>
   <i type="logical" name="LKPOINTS_OPT"> F  </i>
  </separator>
 </parameters>
 <atominfo>
  <atoms>     264 </atoms>
  <types>       2 </types>
  <array name="atoms" >
   <dimension dim="1">ion</dimension>
   <field type="string">element</field>
   <field type="int">atomtype</field>
   <set>
    <rc><c>Si</c><c>   1</c></rc>
    <rc><c>Si</c><c>   1</c></rc>
    <rc><c>Si</c><c>   1</c></rc>
    <rc><c>Si</c><c>   1</c></rc>
    <rc><c>Si</c><c>   1</c></rc>
    <rc><c>Si</c><c>   1</c></rc>
    <rc><c>Si</c><c>   1</c></rc>
    <rc><c>Si</c><c>   1</c></rc>
    <rc><c>Si</c><c>   1</c></rc>
    <rc><c>Si</c><c>   1</c></rc>
    <rc><c>Si</c><c>   1</c></rc>
    <rc><c>Si</c><c>   1</c></rc>
    <rc><c>Si</c><c>   1</c></rc>
    <rc><c>Si</c><c>   1</c></rc>
    <rc><c>Si</c><c>   1</c></rc>
    <rc><c>Si</c><c>   1</c></rc>
    <rc><c>Si</c><c>   1</c></rc>
    <rc><c>Si</c><c>   1</c></rc>
    <rc><c>Si</c><c>   1</c></rc>
    <rc><c>Si</c><c>   1</c></rc>
    <rc><c>Si</c><c>   1</c></rc>
    <rc><c>Si</c><c>   1</c></rc>
    <rc><c>Si</c><c>   1</c></rc>
    <rc><c>Si</c><c>   1</c></rc>
    <rc><c>Si</c><c>   1</c></rc>
    <rc><c>Si</c><c>   1</c></rc>
    <rc><c>Si</c><c>   1</c></rc>
    <rc><c>Si</c><c>   1</c></rc>
    <rc><c>Si</c><c>   1</c></rc>
    <rc><c>Si</c><c>   1</c></rc>
    <rc><c>Si</c><c>   1</c></rc>
    <rc><c>Si</c><c>   1</c></rc>
    <rc><c>Si</c><c>   1</c></rc>
    <rc><c>Si</c><c>   1</c></rc>
    <rc><c>Si</c><c>   1</c></rc>
    <rc><c>Si</c><c>   1</c></rc>
    <rc><c>Si</c><c>   1</c></rc>
    <rc><c>Si</c><c>   1</c></rc>
    <rc><c>Si</c><c>   1</c></rc>
    <rc><c>Si</c><c>   1</c></rc>
    <rc><c>Si</c><c>   1</c></rc>
    <rc><c>Si</c><c>   1</c></rc>
    <rc><c>Si</c><c>   1</c></rc>
    <rc><c>Si</c><c>   1</c></rc>
    <rc><c>Si</c><c>   1</c></rc>
    <rc><c>Si</c><c>   1</c></rc>
    <rc><c>Si</c><c>   1</c></rc>
    <rc><c>Si</c><c>   1</c></rc>
    <rc><c>Si</c><c>   1</c></rc>
    <rc><c>Si</c><c>   1</c></rc>
    <rc><c>Si</c><c>   1</c></rc>
    <rc><c>Si</c><c>   1</c></rc>
    <rc><c>Si</c><c>   1</c></rc>
    <rc><c>Si</c><c>   1</c></rc>
    <rc><c>Si</c><c>   1</c></rc>
    <rc><c>Si</c><c>   1</c></rc>
    <rc><c>Si</c><c>   1</c></rc>
    <rc><c>Si</c><c>   1</c></rc>
    <rc><c>Si</c><c>   1</c></rc>
    <rc><c>Si</c><c>   1</c></rc>
    <rc><c>Si</c><c>   1</c></rc>
    <rc><c>Si</c><c>   1</c></rc>
    <rc><c>Si</c><c>   1</c></rc>
    <rc><c>Si</c><c>   1</c></rc>
    <rc><c>Si</c><c>   1</c></rc>
    <rc><c>Si</c><c>   1</c></rc>
    <rc><c>Si</c><c>   1</c></rc>
    <rc><c>Si</c><c>   1</c></rc>
    <rc><c>Si</c><c>   1</c></rc>
    <rc><c>Si</c><c>   1</c></rc>
    <rc><c>Si</c><c>   1</c></rc>
    <rc><c>Si</c><c>   1</c></rc>
    <rc><c>Si</c><c>   1</c></rc>
    <rc><c>Si</c><c>   1</c></rc>
    <rc><c>Si</c><c>   1</c></rc>
    <rc><c>Si</c><c>   1</c></rc>
    <rc><c>Si</c><c>   1</c></rc>
    <rc><c>Si</c><c>   1</c></rc>
    <rc><c>Si</c><c>   1</c></rc>
    <rc><c>Si</c><c>   1</c></rc>
    <rc><c>Si</c><c>   1</c></rc>
    <rc><c>Si</c><c>   1</c></rc>
    <rc><c>Si</c><c>   1</c></rc>
    <rc><c>Si</c><c>   1</c></rc>
    <rc><c>Si</c><c>   1</c></rc>
    <rc><c>Si</c><c>   1</c></rc>
    <rc><c>Si</c><c>   1</c></rc>
    <rc><c>Si</c><c>   1</c></rc>
    <rc><c>Si</c><c>   1</c></rc>
    <rc><c>Si</c><c>   1</c></rc>
    <rc><c>Si</c><c>   1</c></rc>
    <rc><c>Si</c><c>   1</c></rc>
    <rc><c>Si</c><c>   1</c></rc>
    <rc><c>Si</c><c>   1</c></rc>
    <rc><c>Si</c><c>   1</c></rc>
    <rc><c>Si</c><c>   1</c></rc>
    <rc><c>Si</c><c>   1</c></rc>
    <rc><c>Si</c><c>   1</c></rc>
    <rc><c>Si</c><c>   1</c></rc>
    <rc><c>Si</c><c>   1</c></rc>
    <rc><c>Si</c><c>   1</c></rc>
    <rc><c>Si</c><c>   1</c></rc>
    <rc><c>Si</c><c>   1</c></rc>
    <rc><c>Si</c><c>   1</c></rc>
    <rc><c>Si</c><c>   1</c></rc>
    <rc><c>Si</c><c>   1</c></rc>
    <rc><c>Si</c><c>   1</c></rc>
    <rc><c>Si</c><c>   1</c></rc>
    <rc><c>Si</c><c>   1</c></rc>
    <rc><c>Si</c><c>   1</c></rc>
    <rc><c>Si</c><c>   1</c></rc>
    <rc><c>Si</c><c>   1</c></rc>
    <rc><c>Si</c><c>   1</c></rc>
    <rc><c>Si</c><c>   1</c></rc>
    <rc><c>Si</c><c>   1</c></rc>
    <rc><c>Si</c><c>   1</c></rc>
    <rc><c>Si</c><c>   1</c></rc>
    <rc><c>Si</c><c>   1</c></rc>
    <rc><c>Si</c><c>   1</c></rc>
    <rc><c>Si</c><c>   1</c></rc>
    <rc><c>Si</c><c>   1</c></rc>
    <rc><c>Si</c><c>   1</c></rc>
    <rc><c>Si</c><c>   1</c></rc>
    <rc><c>Si</c><c>   1</c></rc>
    <rc><c>Si</c><c>   1</c></rc>
    <rc><c>Si</c><c>   1</c></rc>
    <rc><c>Si</c><c>   1</c></rc>
    <rc><c>Si</c><c>   1</c></rc>
    <rc><c>Si</c><c>   1</c></rc>
    <rc><c>Si</c><c>   1</c></rc>
    <rc><c>Si</c><c>   1</c></rc>
    <rc><c>Si</c><c>   1</c></rc>
    <rc><c>Si</c><c>   1</c></rc>
    <rc><c>Si</c><c>   1</c></rc>
    <rc><c>Si</c><c>   1</c></rc>
    <rc><c>Si</c><c>   1</c></rc>
    <rc><c>Si</c><c>   1</c></rc>
    <rc><c>Si</c><c>   1</c></rc>
    <rc><c>Si</c><c>   1</c></rc>
    <rc><c>Si</c><c>   1</c></rc>
    <rc><c>Si</c><c>   1</c></rc>
    <rc><c>Si</c><c>   1</c></rc>
    <rc><c>Si</c><c>   1</c></rc>
    <rc><c>Si</c><c>   1</c></rc>
    <rc><c>Si</c><c>   1</c></rc>
    <rc><c>Si</c><c>   1</c></rc>
    <rc><c>Si</c><c>   1</c></rc>
    <rc><c>Si</c><c>   1</c></rc>
    <rc><c>Si</c><c>   1</c></rc>
    <rc><c>Si</c><c>   1</c></rc>
    <rc><c>Si</c><c>   1</c></rc>
    <rc><c>Si</c><c>   1</c></rc>
    <rc><c>Si</c><c>   1</c></rc>
    <rc><c>Si</c><c>   1</c></rc>
    <rc><c>Si</c><c>   1</c></rc>
    <rc><c>Si</c><c>   1</c></rc>
    <rc><c>Sn</c><c>   2</c></rc>
    <rc><c>Sn</c><c>   2</c></rc>
    <rc><c>Sn</c><c>   2</c></rc>
    <rc><c>Sn</c><c>   2</c></rc>
    <rc><c>Sn</c><c>   2</c></rc>
    <rc><c>Sn</c><c>   2</c></rc>
    <rc><c>Sn</c><c>   2</c></rc>
    <rc><c>Sn</c><c>   2</c></rc>
    <rc><c>Sn</c><c>   2</c></rc>
    <rc><c>Sn</c><c>   2</c></rc>
    <rc><c>Sn</c><c>   2</c></rc>
    <rc><c>Sn</c><c>   2</c></rc>
    <rc><c>Sn</c><c>   2</c></rc>
    <rc><c>Sn</c><c>   2</c></rc>
    <rc><c>Sn</c><c>   2</c></rc>
    <rc><c>Sn</c><c>   2</c></rc>
    <rc><c>Sn</c><c>   2</c></rc>
    <rc><c>Sn</c><c>   2</c></rc>
    <rc><c>Sn</c><c>   2</c></rc>
    <rc><c>Sn</c><c>   2</c></rc>
    <rc><c>Sn</c><c>   2</c></rc>
    <rc><c>Sn</c><c>   2</c></rc>
    <rc><c>Sn</c><c>   2</c></rc>
    <rc><c>Sn</c><c>   2</c></rc>
    <rc><c>Sn</c><c>   2</c></rc>
    <rc><c>Sn</c><c>   2</c></rc>
    <rc><c>Sn</c><c>   2</c></rc>
    <rc><c>Sn</c><c>   2</c></rc>
    <rc><c>Sn</c><c>   2</c></rc>
    <rc><c>Sn</c><c>   2</c></rc>
    <rc><c>Sn</c><c>   2</c></rc>
    <rc><c>Sn</c><c>   2</c></rc>
    <rc><c>Sn</c><c>   2</c></rc>
    <rc><c>Sn</c><c>   2</c></rc>
    <rc><c>Sn</c><c>   2</c></rc>
    <rc><c>Sn</c><c>   2</c></rc>
    <rc><c>Sn</c><c>   2</c></rc>
    <rc><c>Sn</c><c>   2</c></rc>
    <rc><c>Sn</c><c>   2</c></rc>
    <rc><c>Sn</c><c>   2</c></rc>
    <rc><c>Sn</c><c>   2</c></rc>
    <rc><c>Sn</c><c>   2</c></rc>
    <rc><c>Sn</c><c>   2</c></rc>
    <rc><c>Sn</c><c>   2</c></rc>
    <rc><c>Sn</c><c>   2</c></rc>
    <rc><c>Sn</c><c>   2</c></rc>
    <rc><c>Sn</c><c>   2</c></rc>
    <rc><c>Sn</c><c>   2</c></rc>
    <rc><c>Sn</c><c>   2</c></rc>
    <rc><c>Sn</c><c>   2</c></rc>
    <rc><c>Sn</c><c>   2</c></rc>
    <rc><c>Sn</c><c>   2</c></rc>
    <rc><c>Sn</c><c>   2</c></rc>
    <rc><c>Sn</c><c>   2</c></rc>
    <rc><c>Sn</c><c>   2</c></rc>
    <rc><c>Sn</c><c>   2</c></rc>
    <rc><c>Sn</c><c>   2</c></rc>
    <rc><c>Sn</c><c>   2</c></rc>
    <rc><c>Sn</c><c>   2</c></rc>
    <rc><c>Sn</c><c>   2</c></rc>
    <rc><c>Sn</c><c>   2</c></rc>
    <rc><c>Sn</c><c>   2</c></rc>
    <rc><c>Sn</c><c>   2</c></rc>
    <rc><c>Sn</c><c>   2</c></rc>
    <rc><c>Sn</c><c>   2</c></rc>
    <rc><c>Sn</c><c>   2</c></rc>
    <rc><c>Sn</c><c>   2</c></rc>
    <rc><c>Sn</c><c>   2</c></rc>
    <rc><c>Sn</c><c>   2</c></rc>
    <rc><c>Sn</c><c>   2</c></rc>
    <rc><c>Sn</c><c>   2</c></rc>
    <rc><c>Sn</c><c>   2</c></rc>
    <rc><c>Sn</c><c>   2</c></rc>
    <rc><c>Sn</c><c>   2</c></rc>
    <rc><c>Sn</c><c>   2</c></rc>
    <rc><c>Sn</c><c>   2</c></rc>
    <rc><c>Sn</c><c>   2</c></rc>
    <rc><c>Sn</c><c>   2</c></rc>
    <rc><c>Sn</c><c>   2</c></rc>
    <rc><c>Sn</c><c>   2</c></rc>
    <rc><c>Sn</c><c>   2</c></rc>
    <rc><c>Sn</c><c>   2</c></rc>
    <rc><c>Sn</c><c>   2</c></rc>
    <rc><c>Sn</c><c>   2</c></rc>
    <rc><c>Sn</c><c>   2</c></rc>
    <rc><c>Sn</c><c>   2</c></rc>
    <rc><c>Sn</c><c>   2</c></rc>
    <rc><c>Sn</c><c>   2</c></rc>
    <rc><c>Sn</c><c>   2</c></rc>
    <rc><c>Sn</c><c>   2</c></rc>
    <rc><c>Sn</c><c>   2</c></rc>
    <rc><c>Sn</c><c>   2</c></rc>
    <rc><c>Sn</c><c>   2</c></rc>
    <rc><c>Sn</c><c>   2</c></rc>
    <rc><c>Sn</c><c>   2</c></rc>
    <rc><c>Sn</c><c>   2</c></rc>
    <rc><c>Sn</c><c>   2</c></rc>
    <rc><c>Sn</c><c>   2</c></rc>
    <rc><c>Sn</c><c>   2</c></rc>
    <rc><c>Sn</c><c>   2</c></rc>
    <rc><c>Sn</c><c>   2</c></rc>
    <rc><c>Sn</c><c>   2</c></rc>
    <rc><c>Sn</c><c>   2</c></rc>
    <rc><c>Sn</c><c>   2</c></rc>
    <rc><c>Sn</c><c>   2</c></rc>
    <rc><c>Sn</c><c>   2</c></rc>
    <rc><c>Sn</c><c>   2</c></rc>
    <rc><c>Sn</c><c>   2</c></rc>
   </set>
  </array>
  <array name="atomtypes" >
   <dimension dim="1">type</dimension>
   <field type="int">atomspertype</field>
   <field type="string">element</field>
   <field>mass</field>
   <field>valence</field>
   <field type="string">pseudopotential</field>
   <set>
    <rc><c> 156</c><c>Si</c><c>     28.08500000</c><c>      4.00000000</c><c>  PAW_PBE Si 05Jan2001                  </c></rc>
    <rc><c> 108</c><c>Sn</c><c>    118.71000000</c><c>      4.00000000</c><c>  PAW_PBE Sn 08Apr2002                  </c></rc>
   </set>
  </array>
 </atominfo>
 <structure name="initialpos" >
  <crystal>
   <varray name="basis" >
    <v>      19.58175087       0.00000000       0.00000000 </v>
    <v>       0.00000000      19.58174896       0.00000000 </v>
    <v>       0.00000000       0.00000000      19.10025024 </v>
   </varray>
   <i name="volume">   7323.89411345 </i>
   <varray name="rec_basis" >
    <v>       0.05106796       0.00000000       0.00000000 </v>
    <v>       0.00000000       0.05106796       0.00000000 </v>
    <v>       0.00000000       0.00000000       0.05235533 </v>
   </varray>
  </crystal>
  <varray name="positions" >
   <v>       0.99589300       0.99726200       0.00000000 </v>
   <v>       0.88050836       0.92033887       0.14217091 </v>
   <v>       0.76512373       0.84341574       0.28434190 </v>
   <v>       0.07281613       0.38187745       0.00000000 </v>
   <v>       0.95743144       0.30495429       0.14217091 </v>
   <v>       0.84204680       0.22803116       0.28434190 </v>
   <v>       0.77195829       0.87948716       0.80511779 </v>
   <v>       0.11127762       0.07418505       0.14217091 </v>
   <v>       0.99589294       0.99726194       0.28434190 </v>
   <v>       0.85529149       0.46282056       0.89005387 </v>
   <v>       0.03435453       0.68956971       0.14217091 </v>
   <v>       0.91896987       0.61264658       0.28434190 </v>
   <v>       0.30358541       0.53572357       0.00000000 </v>
   <v>       0.18820073       0.45880044       0.14217091 </v>
   <v>       0.07281607       0.38187730       0.28434190 </v>
   <v>       0.45743155       0.30495435       0.00000000 </v>
   <v>       0.34204686       0.22803120       0.14217091 </v>
   <v>       0.22666220       0.15110807       0.28434190 </v>
   <v>       0.35529149       0.96282059       0.89005387 </v>
   <v>       0.49589300       0.99726194       0.14217091 </v>
   <v>       0.38050836       0.92033881       0.28434190 </v>
   <v>       0.38050851       0.92033905       0.00000000 </v>
   <v>       0.26512384       0.84341592       0.14217091 </v>
   <v>       0.14973918       0.76649272       0.28434190 </v>
   <v>       0.53435463       0.68956971       0.00000000 </v>
   <v>       0.41896993       0.61264658       0.14217091 </v>
   <v>       0.30358526       0.53572345       0.28434190 </v>
   <v>       0.52195823       0.12948719       0.89005387 </v>
   <v>       0.57281607       0.38187736       0.14217091 </v>
   <v>       0.45743138       0.30495423       0.28434190 </v>
   <v>       0.84204692       0.22803119       0.00000000 </v>
   <v>       0.72666228       0.15110804       0.14217091 </v>
   <v>       0.61127758       0.07418491       0.28434190 </v>
   <v>       0.76512390       0.84341586       0.00000000 </v>
   <v>       0.64973927       0.76649272       0.14217091 </v>
   <v>       0.53435457       0.68956959       0.28434190 </v>
   <v>       0.91897005       0.61264664       0.00000000 </v>
   <v>       0.80358541       0.53572351       0.14217091 </v>
   <v>       0.68820071       0.45880038       0.28434190 </v>
   <v>       0.01512384       0.59341586       0.07108547 </v>
   <v>       0.02195823       0.96282059       0.55030960 </v>
   <v>       0.60529155       0.04615385       0.46537358 </v>
   <v>       0.16896996       0.36264667       0.07108547 </v>
   <v>       0.68862486       0.62948728       0.55030960 </v>
   <v>       0.93820059       0.20880038       0.35542738 </v>
   <v>       0.32281613       0.13187741       0.07108547 </v>
   <v>       0.20743145       0.05495427       0.21325642 </v>
   <v>       0.77195823       0.21282051       0.46537358 </v>
   <v>       0.09204689       0.97803128       0.07108547 </v>
   <v>       0.97666222       0.90110815       0.21325642 </v>
   <v>       0.43862486       0.21282051       0.46537358 </v>
   <v>       0.24589306       0.74726206       0.07108547 </v>
   <v>       0.13050841       0.67033893       0.21325642 </v>
   <v>       0.27195823       0.71282053       0.46537358 </v>
   <v>       0.39973927       0.51649284       0.07108547 </v>
   <v>       0.28435460       0.43956968       0.21325642 </v>
   <v>       0.16896993       0.36264655       0.35542738 </v>
   <v>       0.55358541       0.28572354       0.07108547 </v>
   <v>       0.43820071       0.20880039       0.21325642 </v>
   <v>       0.43862486       0.54615384       0.46537358 </v>
   <v>       0.70743155       0.05495430       0.07108547 </v>
   <v>       0.59204686       0.97803116       0.21325642 </v>
   <v>       0.47666219       0.90110803       0.35542738 </v>
   <v>       0.47666240       0.90110820       0.07108547 </v>
   <v>       0.36127770       0.82418507       0.21325642 </v>
   <v>       0.24589300       0.74726194       0.35542738 </v>
   <v>       0.63050854       0.67033899       0.07108547 </v>
   <v>       0.51512384       0.59341580       0.21325642 </v>
   <v>       0.39973915       0.51649267       0.35542738 </v>
   <v>       0.78435469       0.43956971       0.07108547 </v>
   <v>       0.66896999       0.36264655       0.21325642 </v>
   <v>       0.43862486       0.87948716       0.46537358 </v>
   <v>       0.93820083       0.20880049       0.07108547 </v>
   <v>       0.82281613       0.13187735       0.21325642 </v>
   <v>       0.70743144       0.05495421       0.35542738 </v>
   <v>       0.86127788       0.82418513       0.07108547 </v>
   <v>       0.74589318       0.74726200       0.21325642 </v>
   <v>       0.63050842       0.67033881       0.35542738 </v>
   <v>       0.85529149       0.79615390       0.89005387 </v>
   <v>       0.91896993       0.11264660       0.14217091 </v>
   <v>       0.68862486       0.29615384       0.55030960 </v>
   <v>       0.68862486       0.96282059       0.89005387 </v>
   <v>       0.99589300       0.49726200       0.14217091 </v>
   <v>       0.77195823       0.87948716       0.46537358 </v>
   <v>       0.52195823       0.46282056       0.89005387 </v>
   <v>       0.27195823       0.71282053       0.80511779 </v>
   <v>       0.77195823       0.54615384       0.46537358 </v>
   <v>       0.41896999       0.11264660       0.00000000 </v>
   <v>       0.93862486       0.37948719       0.80511779 </v>
   <v>       0.93862486       0.04615385       0.46537358 </v>
   <v>       0.18820076       0.95880044       0.00000000 </v>
   <v>       0.07281606       0.88187730       0.14217091 </v>
   <v>       0.95743138       0.80495423       0.28434190 </v>
   <v>       0.02195811       0.96282059       0.89005387 </v>
   <v>       0.22666223       0.65110815       0.14217091 </v>
   <v>       0.11127757       0.57418501       0.28434190 </v>
   <v>       0.49589309       0.49726200       0.00000000 </v>
   <v>       0.38050842       0.42033887       0.14217091 </v>
   <v>       0.10529160       0.87948716       0.46537358 </v>
   <v>       0.64973927       0.26649278       0.00000000 </v>
   <v>       0.53435463       0.18956965       0.14217091 </v>
   <v>       0.41896993       0.11264652       0.28434190 </v>
   <v>       0.68862486       0.62948728       0.89005387 </v>
   <v>       0.68820071       0.95880044       0.14217091 </v>
   <v>       0.57281607       0.88187730       0.28434190 </v>
   <v>       0.68862486       0.29615384       0.89005387 </v>
   <v>       0.45743144       0.80495429       0.14217091 </v>
   <v>       0.10529160       0.54615384       0.46537358 </v>
   <v>       0.72666234       0.65110815       0.00000000 </v>
   <v>       0.61127764       0.57418501       0.14217091 </v>
   <v>       0.49589294       0.49726185       0.28434190 </v>
   <v>       0.88050848       0.42033899       0.00000000 </v>
   <v>       0.76512384       0.34341586       0.14217091 </v>
   <v>       0.35529152       0.29615384       0.55030960 </v>
   <v>       0.95743161       0.80495429       0.00000000 </v>
   <v>       0.84204692       0.72803116       0.14217091 </v>
   <v>       0.72666228       0.65110803       0.28434190 </v>
   <v>       0.02195811       0.62948728       0.89005387 </v>
   <v>       0.01512377       0.09341583       0.21325642 </v>
   <v>       0.60529155       0.71282053       0.46537358 </v>
   <v>       0.93862486       0.04615385       0.80511779 </v>
   <v>       0.93820071       0.70880044       0.21325642 </v>
   <v>       0.82281601       0.63187730       0.35542738 </v>
   <v>       0.20743152       0.55495441       0.07108547 </v>
   <v>       0.09204687       0.47803125       0.21325642 </v>
   <v>       0.52195817       0.12948719       0.55030960 </v>
   <v>       0.36127770       0.32418513       0.07108547 </v>
   <v>       0.24589303       0.24726200       0.21325642 </v>
   <v>       0.13050833       0.17033885       0.35542738 </v>
   <v>       0.35529149       0.62948728       0.89005387 </v>
   <v>       0.39973921       0.01649272       0.21325642 </v>
   <v>       0.28435451       0.93956953       0.35542738 </v>
   <v>       0.02195811       0.29615384       0.89005387 </v>
   <v>       0.16896999       0.86264664       0.21325642 </v>
   <v>       0.05358529       0.78572351       0.35542738 </v>
   <v>       0.18862486       0.79615390       0.89005387 </v>
   <v>       0.32281607       0.63187742       0.21325642 </v>
   <v>       0.20743141       0.55495429       0.35542738 </v>
   <v>       0.35529149       0.29615384       0.89005387 </v>
   <v>       0.47666228       0.40110815       0.21325642 </v>
   <v>       0.10529160       0.21282051       0.46537358 </v>
   <v>       0.74589312       0.24726200       0.07108547 </v>
   <v>       0.63050842       0.17033887       0.21325642 </v>
   <v>       0.51512379       0.09341572       0.35542738 </v>
   <v>       0.60529155       0.04615385       0.80511779 </v>
   <v>       0.78435457       0.93956965       0.21325642 </v>
   <v>       0.66896993       0.86264652       0.35542738 </v>
   <v>       0.66897011       0.86264676       0.07108547 </v>
   <v>       0.55358541       0.78572363       0.21325642 </v>
   <v>       0.27195823       0.37948719       0.46537358 </v>
   <v>       0.82281625       0.63187742       0.07108547 </v>
   <v>       0.70743155       0.55495429       0.21325642 </v>
   <v>       0.59204680       0.47803113       0.35542738 </v>
   <v>       0.97666228       0.40110824       0.07108547 </v>
   <v>       0.86127758       0.32418507       0.21325642 </v>
   <v>       0.74589288       0.24726193       0.35542738 </v>
   <v>       0.01512372       0.59341580       0.35542738 </v>
   <v>       0.10529149       0.71282053       0.63524568 </v>
   <v>       0.93862486       0.71282053       0.80511779 </v>
   <v>       0.43820071       0.70880049       0.35542738 </v>
   <v>       0.10529149       0.37948719       0.63524568 </v>
   <v>       0.30358532       0.03572347       0.14217091 </v>
   <v>       0.27195823       0.04615385       0.46537358 </v>
   <v>       0.10529149       0.04615385       0.63524568 </v>
   <v>       0.05358534       0.78572363       0.07108547 </v>
   <v>       0.89973909       0.01649269       0.35542738 </v>
   <v>       0.43862483       0.71282053       0.63524568 </v>
   <v>       0.14973919       0.26649278       0.14217091 </v>
   <v>       0.60529155       0.37948719       0.46537358 </v>
   <v>       0.43862483       0.37948719       0.63524568 </v>
   <v>       0.27195823       0.37948719       0.80511779 </v>
   <v>       0.78435451       0.43956962       0.35542738 </v>
   <v>       0.43862483       0.04615385       0.63524568 </v>
   <v>       0.27195823       0.04615385       0.80511779 </v>
   <v>       0.93862486       0.71282053       0.46537358 </v>
   <v>       0.77195823       0.71282053       0.63524568 </v>
   <v>       0.60529155       0.71282053       0.80511779 </v>
   <v>       0.93862486       0.37948719       0.46537358 </v>
   <v>       0.77195823       0.37948719       0.63524568 </v>
   <v>       0.60529155       0.37948719       0.80511779 </v>
   <v>       0.18820064       0.95880032       0.28434190 </v>
   <v>       0.77195823       0.04615385       0.63524568 </v>
   <v>       0.89973927       0.01649279       0.07108547 </v>
   <v>       0.35529152       0.96282059       0.55030960 </v>
   <v>       0.18862486       0.96282059       0.72018170 </v>
   <v>       0.34204692       0.72803128       0.00000000 </v>
   <v>       0.35529152       0.62948728       0.55030960 </v>
   <v>       0.18862486       0.62948728       0.72018170 </v>
   <v>       0.13050844       0.17033896       0.07108547 </v>
   <v>       0.64973915       0.26649272       0.28434190 </v>
   <v>       0.18862486       0.29615384       0.72018170 </v>
   <v>       0.28435466       0.93956983       0.07108547 </v>
   <v>       0.68862486       0.96282059       0.55030960 </v>
   <v>       0.52195817       0.96282059       0.72018170 </v>
   <v>       0.61127770       0.07418510       0.00000000 </v>
   <v>       0.05358529       0.28572354       0.21325642 </v>
   <v>       0.52195817       0.62948728       0.72018170 </v>
   <v>       0.51512384       0.09341585       0.07108547 </v>
   <v>       0.80358523       0.03572347       0.28434190 </v>
   <v>       0.52195817       0.29615384       0.72018170 </v>
   <v>       0.59204698       0.47803128       0.07108547 </v>
   <v>       0.89973921       0.51649272       0.21325642 </v>
   <v>       0.85529160       0.96282059       0.72018170 </v>
   <v>       0.11127766       0.57418507       0.00000000 </v>
   <v>       0.02195823       0.62948728       0.55030960 </v>
   <v>       0.85529160       0.62948728       0.72018170 </v>
   <v>       0.80358541       0.03572357       0.00000000 </v>
   <v>       0.02195823       0.29615384       0.55030960 </v>
   <v>       0.85529160       0.29615384       0.72018170 </v>
   <v>       0.57281613       0.88187736       0.00000000 </v>
   <v>       0.55358529       0.28572342       0.35542738 </v>
   <v>       0.27195811       0.87948716       0.63524568 </v>
   <v>       0.10529149       0.87948716       0.80511779 </v>
   <v>       0.32281604       0.13187726       0.35542738 </v>
   <v>       0.27195811       0.54615384       0.63524568 </v>
   <v>       0.10529149       0.54615384       0.80511779 </v>
   <v>       0.86127752       0.82418501       0.35542738 </v>
   <v>       0.27195811       0.21282051       0.63524568 </v>
   <v>       0.10529149       0.21282051       0.80511779 </v>
   <v>       0.88050830       0.42033884       0.28434190 </v>
   <v>       0.60529149       0.87948716       0.63524568 </v>
   <v>       0.43862486       0.87948716       0.80511779 </v>
   <v>       0.03435449       0.18956965       0.28434190 </v>
   <v>       0.60529149       0.54615384       0.63524568 </v>
   <v>       0.43862486       0.54615384       0.80511779 </v>
   <v>       0.09204677       0.97803116       0.35542738 </v>
   <v>       0.60529149       0.21282051       0.63524568 </v>
   <v>       0.43862486       0.21282051       0.80511779 </v>
   <v>       0.26512373       0.34341574       0.28434190 </v>
   <v>       0.93862498       0.87948716       0.63524568 </v>
   <v>       0.22666228       0.15110818       0.00000000 </v>
   <v>       0.34204680       0.72803110       0.28434190 </v>
   <v>       0.93862498       0.54615384       0.63524568 </v>
   <v>       0.77195829       0.54615384       0.80511779 </v>
   <v>       0.36127761       0.32418501       0.35542738 </v>
   <v>       0.93862498       0.21282051       0.63524568 </v>
   <v>       0.77195829       0.21282051       0.80511779 </v>
   <v>       0.52195817       0.79615390       0.55030960 </v>
   <v>       0.35529152       0.79615390       0.72018170 </v>
   <v>       0.43820077       0.70880061       0.07108547 </v>
   <v>       0.52195817       0.46282056       0.55030960 </v>
   <v>       0.35529152       0.46282056       0.72018170 </v>
   <v>       0.18862486       0.46282056       0.89005387 </v>
   <v>       0.97666216       0.40110809       0.35542738 </v>
   <v>       0.35529152       0.12948719       0.72018170 </v>
   <v>       0.18862486       0.12948719       0.89005387 </v>
   <v>       0.85529160       0.79615390       0.55030960 </v>
   <v>       0.68862498       0.79615390       0.72018170 </v>
   <v>       0.52195823       0.79615390       0.89005387 </v>
   <v>       0.85529160       0.46282056       0.55030960 </v>
   <v>       0.68862498       0.46282056       0.72018170 </v>
   <v>       0.26512384       0.34341592       0.00000000 </v>
   <v>       0.85529160       0.12948719       0.55030960 </v>
   <v>       0.68862498       0.12948719       0.72018170 </v>
   <v>       0.68820071       0.45880049       0.00000000 </v>
   <v>       0.18862486       0.79615390       0.55030960 </v>
   <v>       0.02195811       0.79615390       0.72018170 </v>
   <v>       0.03435459       0.18956974       0.00000000 </v>
   <v>       0.18862486       0.46282056       0.55030960 </v>
   <v>       0.02195811       0.46282056       0.72018170 </v>
   <v>       0.14973922       0.76649284       0.00000000 </v>
   <v>       0.18862486       0.12948719       0.55030960 </v>
   <v>       0.02195811       0.12948719       0.72018170 </v>
   <v>       0.85529149       0.12948719       0.89005387 </v>
  </varray>
 </structure>
 <calculation>
  <scstep>
   <time name="dav">  208.59  210.36</time>
   <time name="total">  211.85  213.66</time>
   <energy>
    <i name="alphaZ">    676.28060414 </i>
    <i name="ewald"> -19008.84030037 </i>
    <i name="hartreedc">  -9473.30006552 </i>
    <i name="XCdc"> -14263.10072717 </i>
    <i name="pawpsdc">  34204.16796134 </i>
    <i name="pawaedc"> -18083.40668920 </i>
    <i name="eentropy">     -0.00430978 </i>
    <i name="bandstr">   4378.81113118 </i>
    <i name="atom">  26239.67945397 </i>
    <i name="e_fr_energy">   4670.28705860 </i>
    <i name="e_wo_entrp">   4670.29136838 </i>
    <i name="e_0_energy">   4670.28921349 </i>
   </energy>
  </scstep>
  <scstep>
   <time name="dav">  238.18  240.16</time>
   <time name="total">  238.18  240.16</time>
   <energy>
    <i name="e_fr_energy">   -578.18381067 </i>
    <i name="e_wo_entrp">   -578.17964434 </i>
    <i name="e_0_energy">   -578.18172751 </i>
   </energy>
  </scstep>
  <scstep>
   <time name="dav">  253.96  256.08</time>
   <time name="total">  253.97  256.09</time>
   <energy>
    <i name="e_fr_energy">  -1109.49016368 </i>
    <i name="e_wo_entrp">  -1109.48714219 </i>
    <i name="e_0_energy">  -1109.48865294 </i>
   </energy>
  </scstep>
  <scstep>
   <time name="dav">  243.01  245.07</time>
   <time name="total">  243.02  245.08</time>
   <energy>
    <i name="e_fr_energy">  -1131.89985007 </i>
    <i name="e_wo_entrp">  -1131.89617394 </i>
    <i name="e_0_energy">  -1131.89801200 </i>
   </energy>
  </scstep>
  <scstep>
   <time name="dav">  275.66  278.00</time>
   <time name="total">  285.58  288.00</time>
   <energy>
    <i name="e_fr_energy">  -1132.92992033 </i>
    <i name="e_wo_entrp">  -1132.92605550 </i>
    <i name="e_0_energy">  -1132.92798791 </i>
   </energy>
  </scstep>
  <scstep>
   <time name="dav">  292.14  294.60</time>
   <time name="total">  305.44  308.00</time>
   <energy>
    <i name="e_fr_energy">  -1103.52921654 </i>
    <i name="e_wo_entrp">  -1103.52587026 </i>
    <i name="e_0_energy">  -1103.52754340 </i>
   </energy>
  </scstep>
  <scstep>
   <time name="dav">  254.84  257.19</time>
   <time name="total">  268.13  270.58</time>
   <energy>
    <i name="e_fr_energy">  -1101.69440930 </i>
    <i name="e_wo_entrp">  -1101.68987888 </i>
    <i name="e_0_energy">  -1101.69214409 </i>
   </energy>
  </scstep>
  <scstep>
   <time name="dav">  241.46  243.52</time>
   <time name="total">  254.77  256.93</time>
   <energy>
    <i name="e_fr_energy">  -1098.24665777 </i>
    <i name="e_wo_entrp">  -1098.24020792 </i>
    <i name="e_0_energy">  -1098.24343285 </i>
   </energy>
  </scstep>
  <scstep>
   <time name="dav">  246.18  248.33</time>
   <time name="total">  259.22  261.49</time>
   <energy>
    <i name="e_fr_energy">  -1098.28893041 </i>
    <i name="e_wo_entrp">  -1098.28318176 </i>
    <i name="e_0_energy">  -1098.28605609 </i>
   </energy>
  </scstep>
  <scstep>
   <time name="dav">  242.76  245.03</time>
   <time name="total">  255.81  258.19</time>
   <energy>
    <i name="e_fr_energy">  -1098.18650536 </i>
    <i name="e_wo_entrp">  -1098.18071595 </i>
    <i name="e_0_energy">  -1098.18361066 </i>
   </energy>
  </scstep>
  <scstep>
   <time name="dav">  237.70  239.90</time>
   <time name="total">  250.75  253.07</time>
   <energy>
    <i name="e_fr_energy">  -1098.16640911 </i>
    <i name="e_wo_entrp">  -1098.16108112 </i>
    <i name="e_0_energy">  -1098.16374511 </i>
   </energy>
  </scstep>
  <scstep>
   <time name="dav">  238.12  240.33</time>
   <time name="total">  251.15  253.48</time>
   <energy>
    <i name="e_fr_energy">  -1098.16810671 </i>
    <i name="e_wo_entrp">  -1098.16290561 </i>
    <i name="e_0_energy">  -1098.16550616 </i>
   </energy>
  </scstep>
  <scstep>
   <time name="dav">  251.40  253.54</time>
   <time name="total">  264.39  266.64</time>
   <energy>
    <i name="e_fr_energy">  -1098.16704469 </i>
    <i name="e_wo_entrp">  -1098.16167497 </i>
    <i name="e_0_energy">  -1098.16435983 </i>
   </energy>
  </scstep>
  <scstep>
   <time name="dav">  251.74  254.16</time>
   <time name="total">  264.76  267.28</time>
   <energy>
    <i name="e_fr_energy">  -1098.16523953 </i>
    <i name="e_wo_entrp">  -1098.16012958 </i>
    <i name="e_0_energy">  -1098.16268455 </i>
   </energy>
  </scstep>
  <scstep>
   <time name="dav">  240.14  242.47</time>
   <time name="total">  253.15  255.65</time>
   <energy>
    <i name="e_fr_energy">  -1098.16496786 </i>
    <i name="e_wo_entrp">  -1098.15981465 </i>
    <i name="e_0_energy">  -1098.16239125 </i>
   </energy>
  </scstep>
  <scstep>
   <time name="dav">  237.35  239.51</time>
   <time name="total">  250.34  252.62</time>
   <energy>
    <i name="e_fr_energy">  -1098.16491809 </i>
    <i name="e_wo_entrp">  -1098.15980254 </i>
    <i name="e_0_energy">  -1098.16236031 </i>
   </energy>
  </scstep>
  <scstep>
   <time name="dav">  237.58  239.63</time>
   <time name="total">  250.58  252.74</time>
   <energy>
    <i name="e_fr_energy">  -1098.16491107 </i>
    <i name="e_wo_entrp">  -1098.15978605 </i>
    <i name="e_0_energy">  -1098.16234856 </i>
   </energy>
  </scstep>
  <scstep>
   <time name="dav">  236.64  238.77</time>
   <time name="total">  249.64  251.89</time>
   <energy>
    <i name="e_fr_energy">  -1098.16492063 </i>
    <i name="e_wo_entrp">  -1098.15980956 </i>
    <i name="e_0_energy">  -1098.16236509 </i>
   </energy>
  </scstep>
  <scstep>
   <time name="dav">  238.03  240.15</time>
   <time name="total">  251.03  253.25</time>
   <energy>
    <i name="e_fr_energy">  -1098.16491574 </i>
    <i name="e_wo_entrp">  -1098.15980517 </i>
    <i name="e_0_energy">  -1098.16236046 </i>
   </energy>
  </scstep>
  <scstep>
   <time name="dav">  236.41  238.46</time>
   <time name="total">  249.41  251.57</time>
[...]
       <r>     3.8481    50.7025  1042.6375 </r>
       <r>     3.9009    34.9270  1044.4812 </r>
       <r>     3.9537    67.7443  1048.0573 </r>
       <r>     4.0065    66.0229  1051.5424 </r>
       <r>     4.0592    97.1703  1056.6718 </r>
       <r>     4.1120   124.7076  1063.2547 </r>
       <r>     4.1648    70.8940  1066.9970 </r>
       <r>     4.2176    98.3139  1072.1868 </r>
       <r>     4.2704   109.9040  1077.9883 </r>
       <r>     4.3232   106.9974  1083.6364 </r>
       <r>     4.3760   124.1836  1090.1917 </r>
       <r>     4.4288   129.0586  1097.0043 </r>
       <r>     4.4815   118.6136  1103.2656 </r>
       <r>     4.5343   100.8554  1108.5894 </r>
       <r>     4.5871   103.0413  1114.0287 </r>
       <r>     4.6399   121.5980  1120.4475 </r>
       <r>     4.6927   131.7646  1127.4030 </r>
       <r>     4.7455   110.9719  1133.2609 </r>
       <r>     4.7983   139.7413  1140.6374 </r>
       <r>     4.8511   113.6949  1146.6391 </r>
       <r>     4.9038   109.5846  1152.4237 </r>
       <r>     4.9566   111.7649  1158.3235 </r>
       <r>     5.0094   130.1386  1165.1931 </r>
       <r>     5.0622   134.8191  1172.3099 </r>
       <r>     5.1150    84.4499  1176.7677 </r>
       <r>     5.1678   110.2846  1182.5894 </r>
       <r>     5.2206    77.5884  1186.6850 </r>
       <r>     5.2734    92.8686  1191.5873 </r>
       <r>     5.3261   122.2698  1198.0416 </r>
       <r>     5.3789   119.0735  1204.3272 </r>
       <r>     5.4317   133.5472  1211.3767 </r>
       <r>     5.4845   147.6622  1219.1714 </r>
       <r>     5.5373   159.1355  1227.5717 </r>
       <r>     5.5901   155.1136  1235.7597 </r>
       <r>     5.6429   127.5132  1242.4908 </r>
       <r>     5.6956   113.4212  1248.4780 </r>
       <r>     5.7484   104.6645  1254.0029 </r>
       <r>     5.8012   117.7139  1260.2167 </r>
       <r>     5.8540   123.2675  1266.7237 </r>
       <r>     5.9068    93.9975  1271.6856 </r>
       <r>     5.9596     5.9561  1272.0000 </r>
       <r>     6.0124     0.0000  1272.0000 </r>
       <r>     6.0652     0.0000  1272.0000 </r>
       <r>     6.1179     0.0000  1272.0000 </r>
       <r>     6.1707     0.0000  1272.0000 </r>
       <r>     6.2235     0.0000  1272.0000 </r>
       <r>     6.2763     0.0000  1272.0000 </r>
       <r>     6.3291     0.0000  1272.0000 </r>
       <r>     6.3819     0.0000  1272.0000 </r>
       <r>     6.4347     0.0000  1272.0000 </r>
       <r>     6.4875     0.0000  1272.0000 </r>
       <r>     6.5402     0.0000  1272.0000 </r>
       <r>     6.5930     0.0000  1272.0000 </r>
       <r>     6.6458     0.0000  1272.0000 </r>
      </set>
     </set>
    </array>
   </total>
  </dos>
 </calculation>
 <structure name="finalpos" >
  <crystal>
   <varray name="basis" >
    <v>      19.58175087       0.00000000       0.00000000 </v>
    <v>       0.00000000      19.58174896       0.00000000 </v>
    <v>       0.00000000       0.00000000      19.10025024 </v>
   </varray>
   <i name="volume">   7323.89411345 </i>
   <varray name="rec_basis" >
    <v>       0.05106796       0.00000000       0.00000000 </v>
    <v>       0.00000000       0.05106796       0.00000000 </v>
    <v>       0.00000000       0.00000000       0.05235533 </v>
   </varray>
  </crystal>
  <varray name="positions" >
   <v>       0.99589300       0.99726200       0.00000000 </v>
   <v>       0.88050836       0.92033887       0.14217091 </v>
   <v>       0.76512373       0.84341574       0.28434190 </v>
   <v>       0.07281613       0.38187745       0.00000000 </v>
   <v>       0.95743144       0.30495429       0.14217091 </v>
   <v>       0.84204680       0.22803116       0.28434190 </v>
   <v>       0.77195829       0.87948716       0.80511779 </v>
   <v>       0.11127762       0.07418505       0.14217091 </v>
   <v>       0.99589294       0.99726194       0.28434190 </v>
   <v>       0.85529149       0.46282056       0.89005387 </v>
   <v>       0.03435453       0.68956971       0.14217091 </v>
   <v>       0.91896987       0.61264658       0.28434190 </v>
   <v>       0.30358541       0.53572357       0.00000000 </v>
   <v>       0.18820073       0.45880044       0.14217091 </v>
   <v>       0.07281607       0.38187730       0.28434190 </v>
   <v>       0.45743155       0.30495435       0.00000000 </v>
   <v>       0.34204686       0.22803120       0.14217091 </v>
   <v>       0.22666220       0.15110807       0.28434190 </v>
   <v>       0.35529149       0.96282059       0.89005387 </v>
   <v>       0.49589300       0.99726194       0.14217091 </v>
   <v>       0.38050836       0.92033881       0.28434190 </v>
   <v>       0.38050851       0.92033905       0.00000000 </v>
   <v>       0.26512384       0.84341592       0.14217091 </v>
   <v>       0.14973918       0.76649272       0.28434190 </v>
   <v>       0.53435463       0.68956971       0.00000000 </v>
   <v>       0.41896993       0.61264658       0.14217091 </v>
   <v>       0.30358526       0.53572345       0.28434190 </v>
   <v>       0.52195823       0.12948719       0.89005387 </v>
   <v>       0.57281607       0.38187736       0.14217091 </v>
   <v>       0.45743138       0.30495423       0.28434190 </v>
   <v>       0.84204692       0.22803119       0.00000000 </v>
   <v>       0.72666228       0.15110804       0.14217091 </v>
   <v>       0.61127758       0.07418491       0.28434190 </v>
   <v>       0.76512390       0.84341586       0.00000000 </v>
   <v>       0.64973927       0.76649272       0.14217091 </v>
   <v>       0.53435457       0.68956959       0.28434190 </v>
   <v>       0.91897005       0.61264664       0.00000000 </v>
   <v>       0.80358541       0.53572351       0.14217091 </v>
   <v>       0.68820071       0.45880038       0.28434190 </v>
   <v>       0.01512384       0.59341586       0.07108547 </v>
   <v>       0.02195823       0.96282059       0.55030960 </v>
   <v>       0.60529155       0.04615385       0.46537358 </v>
   <v>       0.16896996       0.36264667       0.07108547 </v>
   <v>       0.68862486       0.62948728       0.55030960 </v>
   <v>       0.93820059       0.20880038       0.35542738 </v>
   <v>       0.32281613       0.13187741       0.07108547 </v>
   <v>       0.20743145       0.05495427       0.21325642 </v>
   <v>       0.77195823       0.21282051       0.46537358 </v>
   <v>       0.09204689       0.97803128       0.07108547 </v>
   <v>       0.97666222       0.90110815       0.21325642 </v>
   <v>       0.43862486       0.21282051       0.46537358 </v>
   <v>       0.24589306       0.74726206       0.07108547 </v>
   <v>       0.13050841       0.67033893       0.21325642 </v>
   <v>       0.27195823       0.71282053       0.46537358 </v>
   <v>       0.39973927       0.51649284       0.07108547 </v>
   <v>       0.28435460       0.43956968       0.21325642 </v>
   <v>       0.16896993       0.36264655       0.35542738 </v>
   <v>       0.55358541       0.28572354       0.07108547 </v>
   <v>       0.43820071       0.20880039       0.21325642 </v>
   <v>       0.43862486       0.54615384       0.46537358 </v>
   <v>       0.70743155       0.05495430       0.07108547 </v>
   <v>       0.59204686       0.97803116       0.21325642 </v>
   <v>       0.47666219       0.90110803       0.35542738 </v>
   <v>       0.47666240       0.90110820       0.07108547 </v>
   <v>       0.36127770       0.82418507       0.21325642 </v>
   <v>       0.24589300       0.74726194       0.35542738 </v>
   <v>       0.63050854       0.67033899       0.07108547 </v>
   <v>       0.51512384       0.59341580       0.21325642 </v>
   <v>       0.39973915       0.51649267       0.35542738 </v>
   <v>       0.78435469       0.43956971       0.07108547 </v>
   <v>       0.66896999       0.36264655       0.21325642 </v>
   <v>       0.43862486       0.87948716       0.46537358 </v>
   <v>       0.93820083       0.20880049       0.07108547 </v>
   <v>       0.82281613       0.13187735       0.21325642 </v>
   <v>       0.70743144       0.05495421       0.35542738 </v>
   <v>       0.86127788       0.82418513       0.07108547 </v>
   <v>       0.74589318       0.74726200       0.21325642 </v>
   <v>       0.63050842       0.67033881       0.35542738 </v>
   <v>       0.85529149       0.79615390       0.89005387 </v>
   <v>       0.91896993       0.11264660       0.14217091 </v>
   <v>       0.68862486       0.29615384       0.55030960 </v>
   <v>       0.68862486       0.96282059       0.89005387 </v>
   <v>       0.99589300       0.49726200       0.14217091 </v>
   <v>       0.77195823       0.87948716       0.46537358 </v>
   <v>       0.52195823       0.46282056       0.89005387 </v>
   <v>       0.27195823       0.71282053       0.80511779 </v>
   <v>       0.77195823       0.54615384       0.46537358 </v>
   <v>       0.41896999       0.11264660       0.00000000 </v>
   <v>       0.93862486       0.37948719       0.80511779 </v>
   <v>       0.93862486       0.04615385       0.46537358 </v>
   <v>       0.18820076       0.95880044       0.00000000 </v>
   <v>       0.07281606       0.88187730       0.14217091 </v>
   <v>       0.95743138       0.80495423       0.28434190 </v>
   <v>       0.02195811       0.96282059       0.89005387 </v>
   <v>       0.22666223       0.65110815       0.14217091 </v>
   <v>       0.11127757       0.57418501       0.28434190 </v>
   <v>       0.49589309       0.49726200       0.00000000 </v>
   <v>       0.38050842       0.42033887       0.14217091 </v>
   <v>       0.10529160       0.87948716       0.46537358 </v>
   <v>       0.64973927       0.26649278       0.00000000 </v>
   <v>       0.53435463       0.18956965       0.14217091 </v>
   <v>       0.41896993       0.11264652       0.28434190 </v>
   <v>       0.68862486       0.62948728       0.89005387 </v>
   <v>       0.68820071       0.95880044       0.14217091 </v>
   <v>       0.57281607       0.88187730       0.28434190 </v>
   <v>       0.68862486       0.29615384       0.89005387 </v>
   <v>       0.45743144       0.80495429       0.14217091 </v>
   <v>       0.10529160       0.54615384       0.46537358 </v>
   <v>       0.72666234       0.65110815       0.00000000 </v>
   <v>       0.61127764       0.57418501       0.14217091 </v>
   <v>       0.49589294       0.49726185       0.28434190 </v>
   <v>       0.88050848       0.42033899       0.00000000 </v>
   <v>       0.76512384       0.34341586       0.14217091 </v>
   <v>       0.35529152       0.29615384       0.55030960 </v>
   <v>       0.95743161       0.80495429       0.00000000 </v>
   <v>       0.84204692       0.72803116       0.14217091 </v>
   <v>       0.72666228       0.65110803       0.28434190 </v>
   <v>       0.02195811       0.62948728       0.89005387 </v>
   <v>       0.01512377       0.09341583       0.21325642 </v>
   <v>       0.60529155       0.71282053       0.46537358 </v>
   <v>       0.93862486       0.04615385       0.80511779 </v>
   <v>       0.93820071       0.70880044       0.21325642 </v>
   <v>       0.82281601       0.63187730       0.35542738 </v>
   <v>       0.20743152       0.55495441       0.07108547 </v>
   <v>       0.09204687       0.47803125       0.21325642 </v>
   <v>       0.52195817       0.12948719       0.55030960 </v>
   <v>       0.36127770       0.32418513       0.07108547 </v>
   <v>       0.24589303       0.24726200       0.21325642 </v>
   <v>       0.13050833       0.17033885       0.35542738 </v>
   <v>       0.35529149       0.62948728       0.89005387 </v>
   <v>       0.39973921       0.01649272       0.21325642 </v>
   <v>       0.28435451       0.93956953       0.35542738 </v>
   <v>       0.02195811       0.29615384       0.89005387 </v>
   <v>       0.16896999       0.86264664       0.21325642 </v>
   <v>       0.05358529       0.78572351       0.35542738 </v>
   <v>       0.18862486       0.79615390       0.89005387 </v>
   <v>       0.32281607       0.63187742       0.21325642 </v>
   <v>       0.20743141       0.55495429       0.35542738 </v>
   <v>       0.35529149       0.29615384       0.89005387 </v>
   <v>       0.47666228       0.40110815       0.21325642 </v>
   <v>       0.10529160       0.21282051       0.46537358 </v>
   <v>       0.74589312       0.24726200       0.07108547 </v>
   <v>       0.63050842       0.17033887       0.21325642 </v>
   <v>       0.51512379       0.09341572       0.35542738 </v>
   <v>       0.60529155       0.04615385       0.80511779 </v>
   <v>       0.78435457       0.93956965       0.21325642 </v>
   <v>       0.66896993       0.86264652       0.35542738 </v>
   <v>       0.66897011       0.86264676       0.07108547 </v>
   <v>       0.55358541       0.78572363       0.21325642 </v>
   <v>       0.27195823       0.37948719       0.46537358 </v>
   <v>       0.82281625       0.63187742       0.07108547 </v>
   <v>       0.70743155       0.55495429       0.21325642 </v>
   <v>       0.59204680       0.47803113       0.35542738 </v>
   <v>       0.97666228       0.40110824       0.07108547 </v>
   <v>       0.86127758       0.32418507       0.21325642 </v>
   <v>       0.74589288       0.24726193       0.35542738 </v>
   <v>       0.01512372       0.59341580       0.35542738 </v>
   <v>       0.10529149       0.71282053       0.63524568 </v>
   <v>       0.93862486       0.71282053       0.80511779 </v>
   <v>       0.43820071       0.70880049       0.35542738 </v>
   <v>       0.10529149       0.37948719       0.63524568 </v>
   <v>       0.30358532       0.03572347       0.14217091 </v>
   <v>       0.27195823       0.04615385       0.46537358 </v>
   <v>       0.10529149       0.04615385       0.63524568 </v>
   <v>       0.05358534       0.78572363       0.07108547 </v>
   <v>       0.89973909       0.01649269       0.35542738 </v>
   <v>       0.43862483       0.71282053       0.63524568 </v>
   <v>       0.14973919       0.26649278       0.14217091 </v>
   <v>       0.60529155       0.37948719       0.46537358 </v>
   <v>       0.43862483       0.37948719       0.63524568 </v>
   <v>       0.27195823       0.37948719       0.80511779 </v>
   <v>       0.78435451       0.43956962       0.35542738 </v>
   <v>       0.43862483       0.04615385       0.63524568 </v>
   <v>       0.27195823       0.04615385       0.80511779 </v>
   <v>       0.93862486       0.71282053       0.46537358 </v>
   <v>       0.77195823       0.71282053       0.63524568 </v>
   <v>       0.60529155       0.71282053       0.80511779 </v>
   <v>       0.93862486       0.37948719       0.46537358 </v>
   <v>       0.77195823       0.37948719       0.63524568 </v>
   <v>       0.60529155       0.37948719       0.80511779 </v>
   <v>       0.18820064       0.95880032       0.28434190 </v>
   <v>       0.77195823       0.04615385       0.63524568 </v>
   <v>       0.89973927       0.01649279       0.07108547 </v>
   <v>       0.35529152       0.96282059       0.55030960 </v>
   <v>       0.18862486       0.96282059       0.72018170 </v>
   <v>       0.34204692       0.72803128       0.00000000 </v>
   <v>       0.35529152       0.62948728       0.55030960 </v>
   <v>       0.18862486       0.62948728       0.72018170 </v>
   <v>       0.13050844       0.17033896       0.07108547 </v>
   <v>       0.64973915       0.26649272       0.28434190 </v>
   <v>       0.18862486       0.29615384       0.72018170 </v>
   <v>       0.28435466       0.93956983       0.07108547 </v>
   <v>       0.68862486       0.96282059       0.55030960 </v>
   <v>       0.52195817       0.96282059       0.72018170 </v>
   <v>       0.61127770       0.07418510       0.00000000 </v>
   <v>       0.05358529       0.28572354       0.21325642 </v>
   <v>       0.52195817       0.62948728       0.72018170 </v>
   <v>       0.51512384       0.09341585       0.07108547 </v>
   <v>       0.80358523       0.03572347       0.28434190 </v>
   <v>       0.52195817       0.29615384       0.72018170 </v>
   <v>       0.59204698       0.47803128       0.07108547 </v>
   <v>       0.89973921       0.51649272       0.21325642 </v>
   <v>       0.85529160       0.96282059       0.72018170 </v>
   <v>       0.11127766       0.57418507       0.00000000 </v>
   <v>       0.02195823       0.62948728       0.55030960 </v>
   <v>       0.85529160       0.62948728       0.72018170 </v>
   <v>       0.80358541       0.03572357       0.00000000 </v>
   <v>       0.02195823       0.29615384       0.55030960 </v>
   <v>       0.85529160       0.29615384       0.72018170 </v>
   <v>       0.57281613       0.88187736       0.00000000 </v>
   <v>       0.55358529       0.28572342       0.35542738 </v>
   <v>       0.27195811       0.87948716       0.63524568 </v>
   <v>       0.10529149       0.87948716       0.80511779 </v>
   <v>       0.32281604       0.13187726       0.35542738 </v>
   <v>       0.27195811       0.54615384       0.63524568 </v>
   <v>       0.10529149       0.54615384       0.80511779 </v>
   <v>       0.86127752       0.82418501       0.35542738 </v>
   <v>       0.27195811       0.21282051       0.63524568 </v>
   <v>       0.10529149       0.21282051       0.80511779 </v>
   <v>       0.88050830       0.42033884       0.28434190 </v>
   <v>       0.60529149       0.87948716       0.63524568 </v>
   <v>       0.43862486       0.87948716       0.80511779 </v>
   <v>       0.03435449       0.18956965       0.28434190 </v>
   <v>       0.60529149       0.54615384       0.63524568 </v>
   <v>       0.43862486       0.54615384       0.80511779 </v>
   <v>       0.09204677       0.97803116       0.35542738 </v>
   <v>       0.60529149       0.21282051       0.63524568 </v>
   <v>       0.43862486       0.21282051       0.80511779 </v>
   <v>       0.26512373       0.34341574       0.28434190 </v>
   <v>       0.93862498       0.87948716       0.63524568 </v>
   <v>       0.22666228       0.15110818       0.00000000 </v>
   <v>       0.34204680       0.72803110       0.28434190 </v>
   <v>       0.93862498       0.54615384       0.63524568 </v>
   <v>       0.77195829       0.54615384       0.80511779 </v>
   <v>       0.36127761       0.32418501       0.35542738 </v>
   <v>       0.93862498       0.21282051       0.63524568 </v>
   <v>       0.77195829       0.21282051       0.80511779 </v>
   <v>       0.52195817       0.79615390       0.55030960 </v>
   <v>       0.35529152       0.79615390       0.72018170 </v>
   <v>       0.43820077       0.70880061       0.07108547 </v>
   <v>       0.52195817       0.46282056       0.55030960 </v>
   <v>       0.35529152       0.46282056       0.72018170 </v>
   <v>       0.18862486       0.46282056       0.89005387 </v>
   <v>       0.97666216       0.40110809       0.35542738 </v>
   <v>       0.35529152       0.12948719       0.72018170 </v>
   <v>       0.18862486       0.12948719       0.89005387 </v>
   <v>       0.85529160       0.79615390       0.55030960 </v>
   <v>       0.68862498       0.79615390       0.72018170 </v>
   <v>       0.52195823       0.79615390       0.89005387 </v>
   <v>       0.85529160       0.46282056       0.55030960 </v>
   <v>       0.68862498       0.46282056       0.72018170 </v>
   <v>       0.26512384       0.34341592       0.00000000 </v>
   <v>       0.85529160       0.12948719       0.55030960 </v>
   <v>       0.68862498       0.12948719       0.72018170 </v>
   <v>       0.68820071       0.45880049       0.00000000 </v>
   <v>       0.18862486       0.79615390       0.55030960 </v>
   <v>       0.02195811       0.79615390       0.72018170 </v>
   <v>       0.03435459       0.18956974       0.00000000 </v>
   <v>       0.18862486       0.46282056       0.55030960 </v>
   <v>       0.02195811       0.46282056       0.72018170 </v>
   <v>       0.14973922       0.76649284       0.00000000 </v>
   <v>       0.18862486       0.12948719       0.55030960 </v>
   <v>       0.02195811       0.12948719       0.72018170 </v>
   <v>       0.85529149       0.12948719       0.89005387 </v>
  </varray>
 </structure>
</modeling>
