 168 168   0   0
  0.2680331E+02  0.1600268E-08  0.1600268E-08  0.2030401E-08  0.5000000E-15
  1.000000000000000E-004
  CAR 
 Si and Ge interface calculation         
      6.60406310     -9.48738063  301      3.63435716      1.00000000
     -9.487  0.0000E+00  0.0000E+00  0.0000E+00  0.0000E+00
     -9.434  0.0000E+00  0.0000E+00  0.0000E+00  0.0000E+00
     -9.380  0.0000E+00  0.0000E+00  0.0000E+00  0.0000E+00
     -9.326  0.0000E+00  0.0000E+00  0.0000E+00  0.0000E+00
     -9.273  0.0000E+00  0.0000E+00  0.0000E+00  0.0000E+00
     -9.219  0.0000E+00  0.0000E+00  0.0000E+00  0.0000E+00
     -9.166  0.0000E+00  0.0000E+00  0.0000E+00  0.0000E+00
     -9.112  0.0000E+00  0.0000E+00  0.0000E+00  0.0000E+00
     -9.058  0.0000E+00  0.0000E+00  0.0000E+00  0.0000E+00
     -9.005  0.0000E+00  0.0000E+00  0.0000E+00  0.0000E+00
     -8.951  0.0000E+00  0.0000E+00  0.0000E+00  0.0000E+00
     -8.897  0.0000E+00  0.0000E+00  0.0000E+00  0.0000E+00
     -8.844  0.0000E+00  0.0000E+00  0.0000E+00  0.0000E+00
     -8.790  0.5887E-05  0.1372E-06  0.3158E-06  0.7360E-08
     -8.736  0.9293E+01  0.9129E+01  0.4985E+00  0.4896E+00
     -8.683  0.2875E-01  0.1930E+00  0.5000E+00  0.5000E+00
     -8.629  0.2367E-07  0.2350E-09  0.5000E+00  0.5000E+00
     -8.576  0.5180E+02  0.4330E+02  0.3279E+01  0.2823E+01
     -8.522  0.4126E+01  0.1263E+02  0.3500E+01  0.3500E+01
     -8.468  0.0000E+00  0.0000E+00  0.3500E+01  0.3500E+01
     -8.415  0.0000E+00  0.0000E+00  0.3500E+01  0.3500E+01
     -8.361  0.8098E-02  0.3512E-03  0.3500E+01  0.3500E+01
     -8.307  0.9314E+01  0.9320E+01  0.4000E+01  0.4000E+01
     -8.254  0.2102E+02  0.8866E+01  0.5127E+01  0.4475E+01
     -8.200  0.3491E+02  0.4707E+02  0.7000E+01  0.7000E+01
     -8.146  0.5584E+02  0.5501E+02  0.9995E+01  0.9951E+01
     -8.093  0.2523E+02  0.2179E+02  0.1135E+02  0.1112E+02
     -8.039  0.3079E+02  0.3505E+02  0.1300E+02  0.1300E+02
     -7.986  0.0000E+00  0.0000E+00  0.1300E+02  0.1300E+02
     -7.932  0.0000E+00  0.0000E+00  0.1300E+02  0.1300E+02
     -7.878  0.1071E-07  0.5531E-10  0.1300E+02  0.1300E+02
     -7.825  0.5049E+02  0.3911E+02  0.1571E+02  0.1510E+02
     -7.771  0.5438E+01  0.1682E+02  0.1600E+02  0.1600E+02
     -7.717  0.1309E-03  0.1262E-04  0.1600E+02  0.1600E+02
     -7.664  0.2826E+02  0.2746E+02  0.1752E+02  0.1747E+02
     -7.610  0.8258E+02  0.7766E+02  0.2195E+02  0.2164E+02
     -7.556  0.5694E+02  0.6267E+02  0.2500E+02  0.2500E+02
     -7.503  0.8093E+01  0.6756E+01  0.2543E+02  0.2536E+02
     -7.449  0.1229E+01  0.2566E+01  0.2550E+02  0.2550E+02
     -7.395  0.7997E-09  0.3026E-10  0.2550E+02  0.2550E+02
     -7.342  0.3796E+02  0.2870E+02  0.2754E+02  0.2704E+02
     -7.288  0.7390E+02  0.8315E+02  0.3150E+02  0.3150E+02
     -7.235  0.3926E-01  0.1718E-01  0.3150E+02  0.3150E+02
     -7.181  0.6284E+02  0.5693E+02  0.3487E+02  0.3455E+02
     -7.127  0.4898E+02  0.5492E+02  0.3750E+02  0.3750E+02
     -7.074  0.0000E+00  0.0000E+00  0.3750E+02  0.3750E+02
     -7.020  0.6720E-01  0.7135E-02  0.3750E+02  0.3750E+02
     -6.966  0.5586E+02  0.5590E+02  0.4050E+02  0.4050E+02
     -6.913  0.8178E+02  0.7643E+02  0.4489E+02  0.4460E+02
     -6.859  0.2435E+02  0.2102E+02  0.4619E+02  0.4573E+02
     -6.805  0.9323E+02  0.9875E+02  0.5119E+02  0.5102E+02
     -6.752  0.3184E+02  0.3105E+02  0.5290E+02  0.5269E+02
     -6.698  0.6710E+02  0.7107E+02  0.5650E+02  0.5650E+02
     -6.645  0.7651E+01  0.4409E+01  0.5691E+02  0.5674E+02
     -6.591  0.1304E+02  0.1128E+02  0.5761E+02  0.5734E+02
     -6.537  0.3104E+02  0.3053E+02  0.5927E+02  0.5898E+02
     -6.484  0.4865E+02  0.5280E+02  0.6188E+02  0.6181E+02
     -6.430  0.2074E+02  0.2168E+02  0.6300E+02  0.6297E+02
     -6.376  0.9068E+02  0.8267E+02  0.6786E+02  0.6741E+02
     -6.323  0.1135E+03  0.1016E+03  0.7395E+02  0.7286E+02
     -6.269  0.4759E+02  0.6791E+02  0.7650E+02  0.7650E+02
     -6.215  0.1787E+02  0.1206E+02  0.7746E+02  0.7715E+02
     -6.162  0.4743E+02  0.5320E+02  0.8000E+02  0.8000E+02
     -6.108  0.4614E+01  0.4651E+01  0.8025E+02  0.8025E+02
     -6.055  0.7415E+02  0.6779E+02  0.8423E+02  0.8389E+02
     -6.001  0.1005E+02  0.1619E+02  0.8477E+02  0.8475E+02
     -5.947  0.9909E+02  0.7838E+02  0.9008E+02  0.8896E+02
     -5.894  0.3116E+02  0.5206E+02  0.9175E+02  0.9175E+02
     -5.840  0.3009E+02  0.2726E+02  0.9337E+02  0.9321E+02
     -5.786  0.7638E+02  0.6896E+02  0.9746E+02  0.9691E+02
     -5.733  0.6592E+02  0.7623E+02  0.1010E+03  0.1010E+03
     -5.679  0.1881E+02  0.1196E+02  0.1020E+03  0.1016E+03
     -5.625  0.9157E+01  0.1601E+02  0.1025E+03  0.1025E+03
     -5.572  0.5128E+01  0.1354E+01  0.1028E+03  0.1026E+03
     -5.518  0.8601E+02  0.7267E+02  0.1074E+03  0.1065E+03
     -5.465  0.6749E+02  0.7463E+02  0.1110E+03  0.1105E+03
     -5.411  0.6691E+02  0.7083E+02  0.1146E+03  0.1143E+03
     -5.357  0.2266E+02  0.2508E+02  0.1158E+03  0.1156E+03
     -5.304  0.7844E+02  0.7267E+02  0.1200E+03  0.1195E+03
     -5.250  0.5792E+02  0.6585E+02  0.1231E+03  0.1230E+03
     -5.196  0.2562E+02  0.2709E+02  0.1245E+03  0.1245E+03
     -5.143  0.5573E+02  0.5391E+02  0.1275E+03  0.1274E+03
     -5.089  0.5587E+02  0.5337E+02  0.1305E+03  0.1303E+03
     -5.035  0.3737E+02  0.3846E+02  0.1325E+03  0.1323E+03
     -4.982  0.7659E+02  0.6587E+02  0.1366E+03  0.1359E+03
     -4.928  0.6306E+02  0.7057E+02  0.1400E+03  0.1396E+03
     -4.875  0.6348E+02  0.6076E+02  0.1434E+03  0.1429E+03
     -4.821  0.7443E+02  0.7868E+02  0.1474E+03  0.1471E+03
     -4.767  0.9102E+02  0.9263E+02  0.1523E+03  0.1521E+03
     -4.714  0.3900E+02  0.3565E+02  0.1544E+03  0.1540E+03
     -4.660  0.3094E+02  0.3740E+02  0.1560E+03  0.1560E+03
     -4.606  0.4169E+02  0.4177E+02  0.1582E+03  0.1582E+03
     -4.553  0.3445E+02  0.3011E+02  0.1601E+03  0.1599E+03
     -4.499  0.2498E+02  0.2769E+02  0.1614E+03  0.1613E+03
     -4.445  0.2766E+02  0.2510E+02  0.1629E+03  0.1627E+03
     -4.392  0.4532E+02  0.4342E+02  0.1654E+03  0.1650E+03
     -4.338  0.9943E+02  0.1008E+03  0.1707E+03  0.1704E+03
     -4.284  0.3384E+02  0.3075E+02  0.1725E+03  0.1721E+03
     -4.231  0.4887E+02  0.5204E+02  0.1751E+03  0.1749E+03
     -4.177  0.3503E+02  0.3980E+02  0.1770E+03  0.1770E+03
     -4.124  0.2676E+02  0.2095E+02  0.1784E+03  0.1781E+03
     -4.070  0.6208E+02  0.5723E+02  0.1818E+03  0.1812E+03
     -4.016  0.2302E+02  0.3368E+02  0.1830E+03  0.1830E+03
     -3.963  0.1387E+02  0.1359E+02  0.1837E+03  0.1837E+03
     -3.909  0.2825E+02  0.2786E+02  0.1853E+03  0.1852E+03
     -3.855  0.5826E+02  0.5644E+02  0.1884E+03  0.1883E+03
     -3.802  0.6178E+02  0.6055E+02  0.1917E+03  0.1915E+03
     -3.748  0.5205E+02  0.4567E+02  0.1945E+03  0.1939E+03
     -3.694  0.6188E+02  0.6306E+02  0.1978E+03  0.1973E+03
     -3.641  0.6645E+02  0.6001E+02  0.2014E+03  0.2005E+03
     -3.587  0.1634E+02  0.3171E+02  0.2023E+03  0.2023E+03
     -3.534  0.5451E+02  0.4559E+02  0.2052E+03  0.2047E+03
     -3.480  0.6741E+02  0.6970E+02  0.2088E+03  0.2084E+03
     -3.426  0.5959E+02  0.6531E+02  0.2120E+03  0.2119E+03
     -3.373  0.3738E+01  0.2393E+01  0.2122E+03  0.2121E+03
     -3.319  0.5245E+02  0.5468E+02  0.2150E+03  0.2150E+03
     -3.265  0.1612E+02  0.1332E+02  0.2159E+03  0.2157E+03
     -3.212  0.9177E+02  0.9413E+02  0.2208E+03  0.2208E+03
     -3.158  0.1037E+03  0.8973E+02  0.2263E+03  0.2256E+03
     -3.104  0.3534E+02  0.4954E+02  0.2282E+03  0.2282E+03
     -3.051  0.3349E+02  0.2068E+02  0.2300E+03  0.2293E+03
     -2.997  0.8308E+02  0.9413E+02  0.2345E+03  0.2344E+03
     -2.944  0.7510E+02  0.7663E+02  0.2385E+03  0.2385E+03
     -2.890  0.9251E+02  0.9243E+02  0.2435E+03  0.2435E+03
     -2.836  0.2778E+02  0.2697E+02  0.2450E+03  0.2449E+03
     -2.783  0.3934E+02  0.3568E+02  0.2471E+03  0.2468E+03
     -2.729  0.8743E+02  0.8158E+02  0.2518E+03  0.2512E+03
     -2.675  0.3977E+02  0.4741E+02  0.2539E+03  0.2537E+03
     -2.622  0.4358E+02  0.4683E+02  0.2562E+03  0.2562E+03
     -2.568  0.4213E-03  0.2907E-04  0.2563E+03  0.2563E+03
     -2.514  0.8070E+02  0.7595E+02  0.2606E+03  0.2603E+03
     -2.461  0.3040E+02  0.3344E+02  0.2622E+03  0.2621E+03
     -2.407  0.6524E+02  0.5968E+02  0.2657E+03  0.2653E+03
     -2.354  0.5374E+02  0.5162E+02  0.2686E+03  0.2681E+03
     -2.300  0.1110E+03  0.1084E+03  0.2745E+03  0.2739E+03
     -2.246  0.1321E+02  0.2511E+02  0.2753E+03  0.2753E+03
     -2.193  0.5578E+02  0.5552E+02  0.2782E+03  0.2782E+03
     -2.139  0.2802E+02  0.2808E+02  0.2797E+03  0.2797E+03
     -2.085  0.9947E+01  0.8598E+01  0.2803E+03  0.2802E+03
     -2.032  0.3206E+02  0.3365E+02  0.2820E+03  0.2820E+03
     -1.978  0.1039E+01  0.3001E+00  0.2821E+03  0.2820E+03
     -1.924  0.5511E+02  0.5564E+02  0.2850E+03  0.2850E+03
     -1.871  0.4399E+02  0.4110E+02  0.2874E+03  0.2872E+03
     -1.817  0.5367E+02  0.5676E+02  0.2902E+03  0.2902E+03
     -1.763  0.5412E+02  0.5053E+02  0.2932E+03  0.2930E+03
     -1.710  0.2074E+01  0.5455E+01  0.2933E+03  0.2933E+03
     -1.656  0.6470E+02  0.4928E+02  0.2967E+03  0.2959E+03
     -1.603  0.8182E+02  0.9575E+02  0.3011E+03  0.3010E+03
     -1.549  0.6674E+02  0.6724E+02  0.3047E+03  0.3046E+03
     -1.495  0.5536E+01  0.6740E+01  0.3050E+03  0.3050E+03
     -1.442  0.9880E+01  0.6435E+01  0.3055E+03  0.3053E+03
     -1.388  0.3196E+02  0.3509E+02  0.3072E+03  0.3072E+03
     -1.334  0.1091E+00  0.4387E+00  0.3072E+03  0.3072E+03
     -1.281  0.5914E-01  0.1638E-02  0.3073E+03  0.3073E+03
     -1.227  0.2801E+02  0.2798E+02  0.3088E+03  0.3088E+03
     -1.173  0.2786E+02  0.2795E+02  0.3102E+03  0.3102E+03
     -1.120  0.1035E-14  0.0000E+00  0.3102E+03  0.3102E+03
     -1.066  0.6045E+01  0.1655E+01  0.3106E+03  0.3103E+03
     -1.013  0.2192E+02  0.2631E+02  0.3117E+03  0.3117E+03
     -0.959  0.0000E+00  0.0000E+00  0.3118E+03  0.3118E+03
     -0.905  0.5561E-06  0.2210E-07  0.3118E+03  0.3118E+03
     -0.852  0.1848E+02  0.1445E+02  0.3127E+03  0.3125E+03
     -0.798  0.4356E+02  0.3927E+02  0.3151E+03  0.3146E+03
     -0.744  0.3318E+02  0.3921E+02  0.3169E+03  0.3167E+03
     -0.691  0.2575E+02  0.2307E+02  0.3182E+03  0.3180E+03
     -0.637  0.6098E+02  0.5967E+02  0.3215E+03  0.3212E+03
     -0.583  0.3346E+02  0.3051E+02  0.3233E+03  0.3228E+03
     -0.530  0.8310E+01  0.1754E+02  0.3238E+03  0.3237E+03
     -0.476  0.0000E+00  0.0000E+00  0.3238E+03  0.3238E+03
     -0.423  0.4149E-01  0.8894E-02  0.3238E+03  0.3238E+03
     -0.369  0.7849E+01  0.5568E+01  0.3242E+03  0.3240E+03
     -0.315  0.5734E+02  0.5951E+02  0.3272E+03  0.3272E+03
     -0.262  0.1178E+03  0.9471E+02  0.3336E+03  0.3323E+03
     -0.208  0.1163E+03  0.1300E+03  0.3398E+03  0.3393E+03
     -0.154  0.3474E+02  0.3412E+02  0.3417E+03  0.3411E+03
     -0.101  0.1098E+03  0.1140E+03  0.3476E+03  0.3472E+03
     -0.047  0.9125E+02  0.8724E+02  0.3524E+03  0.3519E+03
      0.007  0.1083E+03  0.1050E+03  0.3583E+03  0.3575E+03
      0.060  0.4494E+02  0.5537E+02  0.3607E+03  0.3605E+03
      0.114  0.3113E+02  0.2763E+02  0.3623E+03  0.3620E+03
      0.167  0.5222E+02  0.5656E+02  0.3651E+03  0.3650E+03
      0.221  0.1340E+03  0.1175E+03  0.3723E+03  0.3713E+03
      0.275  0.1241E+03  0.1323E+03  0.3790E+03  0.3784E+03
      0.328  0.1203E+03  0.1087E+03  0.3854E+03  0.3843E+03
      0.382  0.7024E+02  0.8191E+02  0.3892E+03  0.3887E+03
      0.436  0.1048E+03  0.9591E+02  0.3948E+03  0.3938E+03
      0.489  0.1094E+03  0.1244E+03  0.4007E+03  0.4005E+03
      0.543  0.4331E+02  0.4698E+02  0.4030E+03  0.4030E+03
      0.597  0.7533E+02  0.6423E+02  0.4071E+03  0.4064E+03
      0.650  0.3519E+02  0.3607E+02  0.4089E+03  0.4084E+03
      0.704  0.5026E+02  0.5488E+02  0.4116E+03  0.4113E+03
      0.758  0.1150E+03  0.1122E+03  0.4178E+03  0.4173E+03
      0.811  0.1151E+03  0.1065E+03  0.4240E+03  0.4231E+03
      0.865  0.1169E+03  0.1252E+03  0.4303E+03  0.4298E+03
      0.918  0.1722E+03  0.1707E+03  0.4395E+03  0.4389E+03
      0.972  0.1214E+03  0.1200E+03  0.4460E+03  0.4454E+03
      1.026  0.1169E+03  0.1190E+03  0.4523E+03  0.4517E+03
      1.079  0.8515E+02  0.8726E+02  0.4568E+03  0.4564E+03
      1.133  0.1459E+03  0.1446E+03  0.4647E+03  0.4642E+03
      1.187  0.8182E+02  0.6964E+02  0.4691E+03  0.4679E+03
      1.240  0.1251E+03  0.1343E+03  0.4758E+03  0.4751E+03
      1.294  0.1068E+03  0.1067E+03  0.4815E+03  0.4808E+03
      1.348  0.9953E+02  0.1007E+03  0.4868E+03  0.4862E+03
      1.401  0.1156E+03  0.1112E+03  0.4930E+03  0.4922E+03
      1.455  0.7367E+02  0.8305E+02  0.4970E+03  0.4967E+03
      1.508  0.1600E+03  0.1476E+03  0.5056E+03  0.5046E+03
      1.562  0.1461E+03  0.1583E+03  0.5134E+03  0.5131E+03
      1.616  0.1149E+03  0.1072E+03  0.5196E+03  0.5188E+03
      1.669  0.9647E+02  0.1102E+03  0.5247E+03  0.5247E+03
      1.723  0.1348E+03  0.1180E+03  0.5320E+03  0.5311E+03
      1.777  0.1051E+03  0.1084E+03  0.5376E+03  0.5369E+03
      1.830  0.8669E+02  0.8887E+02  0.5423E+03  0.5416E+03
      1.884  0.9057E+02  0.9676E+02  0.5471E+03  0.5468E+03
      1.938  0.8698E+02  0.8429E+02  0.5518E+03  0.5513E+03
      1.991  0.8031E+02  0.8146E+02  0.5561E+03  0.5557E+03
      2.045  0.6525E+02  0.6718E+02  0.5596E+03  0.5593E+03
      2.098  0.8675E+02  0.8272E+02  0.5642E+03  0.5638E+03
      2.152  0.1588E+03  0.1583E+03  0.5728E+03  0.5722E+03
      2.206  0.9056E+02  0.8211E+02  0.5776E+03  0.5767E+03
      2.259  0.8897E+02  0.9734E+02  0.5824E+03  0.5819E+03
      2.313  0.9146E+02  0.9715E+02  0.5873E+03  0.5871E+03
      2.367  0.4958E+02  0.4881E+02  0.5900E+03  0.5897E+03
      2.420  0.1066E+03  0.1004E+03  0.5957E+03  0.5951E+03
      2.474  0.5623E+02  0.6395E+02  0.5987E+03  0.5985E+03
      2.528  0.7955E+02  0.7423E+02  0.6030E+03  0.6025E+03
      2.581  0.4388E+02  0.4933E+02  0.6053E+03  0.6051E+03
      2.635  0.9055E+02  0.8877E+02  0.6102E+03  0.6099E+03
      2.688  0.1251E+03  0.1226E+03  0.6169E+03  0.6165E+03
      2.742  0.5131E+02  0.5330E+02  0.6196E+03  0.6193E+03
      2.796  0.9965E+02  0.9380E+02  0.6250E+03  0.6244E+03
      2.849  0.6277E+02  0.6827E+02  0.6284E+03  0.6280E+03
      2.903  0.6604E+02  0.7014E+02  0.6319E+03  0.6318E+03
      2.957  0.1600E+02  0.1769E+02  0.6328E+03  0.6327E+03
      3.010  0.6453E+02  0.4750E+02  0.6362E+03  0.6353E+03
      3.064  0.6128E+02  0.7757E+02  0.6395E+03  0.6395E+03
      3.118  0.2376E+02  0.2143E+02  0.6408E+03  0.6406E+03
      3.171  0.1081E+03  0.1012E+03  0.6466E+03  0.6460E+03
      3.225  0.5893E+02  0.6553E+02  0.6497E+03  0.6496E+03
      3.278  0.3745E+02  0.2920E+02  0.6517E+03  0.6511E+03
      3.332  0.7943E+02  0.6017E+02  0.6560E+03  0.6543E+03
      3.386  0.5975E+02  0.8660E+02  0.6592E+03  0.6590E+03
      3.439  0.4568E+02  0.4150E+02  0.6617E+03  0.6612E+03
      3.493  0.4315E+02  0.4789E+02  0.6640E+03  0.6638E+03
      3.547  0.3736E+02  0.2736E+02  0.6660E+03  0.6653E+03
      3.600  0.6630E+02  0.6126E+02  0.6695E+03  0.6685E+03
      3.654  0.5501E+02  0.6926E+02  0.6725E+03  0.6723E+03
      3.708  0.4192E+02  0.3116E+02  0.6747E+03  0.6739E+03
      3.761  0.1168E+02  0.1550E+02  0.6754E+03  0.6748E+03
      3.815  0.3513E+02  0.4536E+02  0.6772E+03  0.6772E+03
      3.869  0.2586E+02  0.9490E+01  0.6786E+03  0.6777E+03
      3.922  0.6945E+01  0.2428E+02  0.6790E+03  0.6790E+03
      3.976  0.1145E+02  0.9652E+01  0.6796E+03  0.6795E+03
      4.029  0.5841E+02  0.5871E+02  0.6827E+03  0.6827E+03
      4.083  0.8867E+01  0.5513E+01  0.6832E+03  0.6830E+03
      4.137  0.6145E+02  0.5911E+02  0.6865E+03  0.6861E+03
      4.190  0.6487E+02  0.7191E+02  0.6900E+03  0.6900E+03
      4.244  0.1295E+02  0.9109E+01  0.6907E+03  0.6905E+03
      4.298  0.6852E+02  0.6577E+02  0.6944E+03  0.6940E+03
      4.351  0.2256E+02  0.2657E+02  0.6956E+03  0.6954E+03
      4.405  0.4449E+02  0.4379E+02  0.6980E+03  0.6978E+03
      4.459  0.1218E+02  0.1379E+02  0.6986E+03  0.6985E+03
      4.512  0.7587E+02  0.6496E+02  0.7027E+03  0.7020E+03
      4.566  0.7516E+02  0.8645E+02  0.7067E+03  0.7066E+03
      4.619  0.8100E+01  0.4852E+01  0.7072E+03  0.7069E+03
      4.673  0.6712E+02  0.6560E+02  0.7108E+03  0.7104E+03
      4.727  0.9482E+02  0.9301E+02  0.7158E+03  0.7154E+03
      4.780  0.9418E+02  0.9998E+02  0.7209E+03  0.7208E+03
      4.834  0.7223E+02  0.6929E+02  0.7248E+03  0.7245E+03
      4.888  0.4737E+02  0.5073E+02  0.7273E+03  0.7272E+03
      4.941  0.3480E+02  0.3263E+02  0.7292E+03  0.7290E+03
      4.995  0.6211E+02  0.5901E+02  0.7325E+03  0.7321E+03
      5.049  0.6046E+02  0.6720E+02  0.7357E+03  0.7357E+03
      5.102  0.6621E+02  0.6324E+02  0.7393E+03  0.7391E+03
      5.156  0.1240E+03  0.1125E+03  0.7459E+03  0.7452E+03
      5.209  0.1006E+03  0.1141E+03  0.7513E+03  0.7513E+03
      5.263  0.1006E+03  0.8382E+02  0.7567E+03  0.7558E+03
      5.317  0.6945E+02  0.7789E+02  0.7605E+03  0.7600E+03
      5.370  0.7381E+02  0.7844E+02  0.7644E+03  0.7642E+03
      5.424  0.7321E+02  0.7701E+02  0.7684E+03  0.7683E+03
      5.478  0.9956E+02  0.9595E+02  0.7737E+03  0.7734E+03
      5.531  0.1058E+03  0.9317E+02  0.7794E+03  0.7784E+03
      5.585  0.7821E+02  0.8741E+02  0.7836E+03  0.7831E+03
      5.639  0.9992E+02  0.1003E+03  0.7889E+03  0.7885E+03
      5.692  0.9579E+02  0.9050E+02  0.7941E+03  0.7934E+03
      5.746  0.1191E+03  0.1231E+03  0.8004E+03  0.8000E+03
      5.799  0.7704E+02  0.7769E+02  0.8046E+03  0.8041E+03
      5.853  0.5740E+02  0.5316E+02  0.8077E+03  0.8070E+03
      5.907  0.6387E+01  0.1905E+02  0.8080E+03  0.8080E+03
      5.960  0.0000E+00  0.0000E+00  0.8080E+03  0.8080E+03
      6.014  0.0000E+00  0.0000E+00  0.8080E+03  0.8080E+03
      6.068  0.0000E+00  0.0000E+00  0.8080E+03  0.8080E+03
      6.121  0.0000E+00  0.0000E+00  0.8080E+03  0.8080E+03
      6.175  0.0000E+00  0.0000E+00  0.8080E+03  0.8080E+03
      6.229  0.0000E+00  0.0000E+00  0.8080E+03  0.8080E+03
      6.282  0.0000E+00  0.0000E+00  0.8080E+03  0.8080E+03
      6.336  0.0000E+00  0.0000E+00  0.8080E+03  0.8080E+03
      6.390  0.0000E+00  0.0000E+00  0.8080E+03  0.8080E+03
      6.443  0.0000E+00  0.0000E+00  0.8080E+03  0.8080E+03
      6.497  0.0000E+00  0.0000E+00  0.8080E+03  0.8080E+03
      6.550  0.0000E+00  0.0000E+00  0.8080E+03  0.8080E+03
      6.604  0.0000E+00  0.0000E+00  0.8080E+03  0.8080E+03
