  96  96   0   0
  0.2243693E+02  0.1265123E-08  0.1265123E-08  0.1373516E-08  0.5000000E-15
  1.000000000000000E-004
  CAR 
 Si and Ge interface calculation         
      6.57864312    -11.13044944  301      3.72404385      1.00000000
    -11.130  0.0000E+00  0.0000E+00  0.0000E+00  0.0000E+00
    -11.071  0.0000E+00  0.0000E+00  0.0000E+00  0.0000E+00
    -11.012  0.0000E+00  0.0000E+00  0.0000E+00  0.0000E+00
    -10.953  0.0000E+00  0.0000E+00  0.0000E+00  0.0000E+00
    -10.894  0.0000E+00  0.0000E+00  0.0000E+00  0.0000E+00
    -10.835  0.0000E+00  0.0000E+00  0.0000E+00  0.0000E+00
    -10.776  0.0000E+00  0.0000E+00  0.0000E+00  0.0000E+00
    -10.717  0.0000E+00  0.0000E+00  0.0000E+00  0.0000E+00
    -10.658  0.0000E+00  0.0000E+00  0.0000E+00  0.0000E+00
    -10.599  0.0000E+00  0.0000E+00  0.0000E+00  0.0000E+00
    -10.540  0.0000E+00  0.0000E+00  0.0000E+00  0.0000E+00
    -10.481  0.0000E+00  0.0000E+00  0.0000E+00  0.0000E+00
    -10.422  0.0000E+00  0.0000E+00  0.0000E+00  0.0000E+00
    -10.363  0.1049E-06  0.1503E-10  0.6194E-08  0.8871E-12
    -10.304  0.1070E+02  0.7150E+01  0.6319E+00  0.4221E+00
    -10.245  0.2306E+02  0.2475E+02  0.1994E+01  0.1883E+01
    -10.186  0.1049E+00  0.1985E+01  0.2000E+01  0.2000E+01
    -10.127  0.4024E+01  0.5029E+00  0.2238E+01  0.2030E+01
    -10.068  0.1856E+02  0.2208E+02  0.3333E+01  0.3333E+01
    -10.009  0.1639E-01  0.1592E-03  0.3334E+01  0.3333E+01
     -9.950  0.3386E+02  0.3376E+02  0.5333E+01  0.5326E+01
     -9.891  0.4668E+01  0.5145E+00  0.5609E+01  0.5357E+01
     -9.832  0.1792E+02  0.2219E+02  0.6667E+01  0.6667E+01
     -9.773  0.0000E+00  0.0000E+00  0.6667E+01  0.6667E+01
     -9.714  0.0000E+00  0.0000E+00  0.6667E+01  0.6667E+01
     -9.655  0.7322E-11  0.2090E-15  0.6667E+01  0.6667E+01
     -9.596  0.1731E+02  0.6620E+01  0.7688E+01  0.7057E+01
     -9.537  0.5277E+01  0.1597E+02  0.8000E+01  0.8000E+01
     -9.478  0.0000E+00  0.0000E+00  0.8000E+01  0.8000E+01
     -9.419  0.0000E+00  0.0000E+00  0.8000E+01  0.8000E+01
     -9.360  0.1195E+00  0.1742E-02  0.8007E+01  0.8000E+01
     -9.301  0.4505E+02  0.4512E+02  0.1067E+02  0.1066E+02
     -9.241  0.3255E+00  0.4961E-01  0.1069E+02  0.1067E+02
     -9.182  0.3345E+02  0.3265E+02  0.1266E+02  0.1259E+02
     -9.123  0.1012E+00  0.1226E+01  0.1267E+02  0.1267E+02
     -9.064  0.1806E+02  0.1046E+02  0.1373E+02  0.1328E+02
     -9.005  0.4524E+01  0.1213E+02  0.1400E+02  0.1400E+02
     -8.946  0.0000E+00  0.0000E+00  0.1400E+02  0.1400E+02
     -8.887  0.0000E+00  0.0000E+00  0.1400E+02  0.1400E+02
     -8.828  0.0000E+00  0.0000E+00  0.1400E+02  0.1400E+02
     -8.769  0.0000E+00  0.0000E+00  0.1400E+02  0.1400E+02
     -8.710  0.1219E-03  0.4042E-06  0.1400E+02  0.1400E+02
     -8.651  0.6693E+01  0.5721E+01  0.1440E+02  0.1434E+02
     -8.592  0.1208E+02  0.1006E+02  0.1511E+02  0.1493E+02
     -8.533  0.1499E+02  0.1690E+02  0.1599E+02  0.1593E+02
     -8.474  0.1213E+00  0.1188E+01  0.1600E+02  0.1600E+02
     -8.415  0.7641E+01  0.6366E+01  0.1645E+02  0.1638E+02
     -8.356  0.2288E+02  0.2041E+02  0.1780E+02  0.1758E+02
     -8.297  0.1295E+02  0.1583E+02  0.1857E+02  0.1851E+02
     -8.238  0.1884E+02  0.1659E+02  0.1968E+02  0.1949E+02
     -8.179  0.2959E+02  0.2656E+02  0.2142E+02  0.2106E+02
     -8.120  0.3325E+02  0.3373E+02  0.2339E+02  0.2305E+02
     -8.061  0.1446E+02  0.1870E+02  0.2424E+02  0.2416E+02
     -8.002  0.2972E+02  0.3038E+02  0.2600E+02  0.2595E+02
     -7.943  0.1645E+02  0.1538E+02  0.2697E+02  0.2686E+02
     -7.884  0.4714E+01  0.4698E+01  0.2725E+02  0.2714E+02
     -7.825  0.3128E+02  0.2995E+02  0.2909E+02  0.2890E+02
     -7.766  0.2644E+02  0.2759E+02  0.3065E+02  0.3053E+02
     -7.707  0.1096E+02  0.1095E+02  0.3130E+02  0.3118E+02
     -7.648  0.1392E+02  0.1550E+02  0.3212E+02  0.3209E+02
     -7.589  0.2359E+02  0.2186E+02  0.3351E+02  0.3338E+02
     -7.530  0.2182E+02  0.2206E+02  0.3480E+02  0.3469E+02
     -7.471  0.2944E+02  0.2801E+02  0.3654E+02  0.3634E+02
     -7.412  0.2144E+02  0.1946E+02  0.3781E+02  0.3749E+02
     -7.353  0.1645E+02  0.2154E+02  0.3878E+02  0.3876E+02
     -7.293  0.2464E+02  0.1941E+02  0.4023E+02  0.3991E+02
     -7.234  0.2346E+02  0.2552E+02  0.4162E+02  0.4141E+02
     -7.175  0.3748E+02  0.3533E+02  0.4383E+02  0.4350E+02
     -7.116  0.3274E+02  0.3310E+02  0.4576E+02  0.4545E+02
     -7.057  0.3103E+02  0.3134E+02  0.4759E+02  0.4730E+02
     -6.998  0.1854E+02  0.2044E+02  0.4869E+02  0.4851E+02
     -6.939  0.2314E+02  0.2363E+02  0.5005E+02  0.4990E+02
     -6.880  0.2404E+02  0.2263E+02  0.5147E+02  0.5124E+02
     -6.821  0.3284E+02  0.3459E+02  0.5341E+02  0.5328E+02
     -6.762  0.3204E+02  0.2931E+02  0.5530E+02  0.5501E+02
     -6.703  0.2818E+02  0.3084E+02  0.5697E+02  0.5683E+02
     -6.644  0.2427E+02  0.2060E+02  0.5840E+02  0.5805E+02
     -6.585  0.2953E+02  0.3189E+02  0.6014E+02  0.5993E+02
     -6.526  0.1620E+02  0.1765E+02  0.6110E+02  0.6097E+02
     -6.467  0.2830E+02  0.2410E+02  0.6277E+02  0.6240E+02
     -6.408  0.2516E+02  0.2608E+02  0.6426E+02  0.6393E+02
     -6.349  0.3975E+02  0.3899E+02  0.6660E+02  0.6624E+02
     -6.290  0.2290E+02  0.2283E+02  0.6795E+02  0.6758E+02
     -6.231  0.3197E+02  0.3529E+02  0.6984E+02  0.6967E+02
     -6.172  0.2512E+02  0.2020E+02  0.7132E+02  0.7086E+02
     -6.113  0.2278E+02  0.2727E+02  0.7267E+02  0.7247E+02
     -6.054  0.2971E+02  0.2771E+02  0.7442E+02  0.7411E+02
     -5.995  0.2814E+02  0.2936E+02  0.7608E+02  0.7584E+02
     -5.936  0.1966E+02  0.2318E+02  0.7724E+02  0.7721E+02
     -5.877  0.3188E+02  0.2172E+02  0.7913E+02  0.7849E+02
     -5.818  0.2008E+02  0.2836E+02  0.8031E+02  0.8016E+02
     -5.759  0.2363E+02  0.2248E+02  0.8171E+02  0.8149E+02
     -5.700  0.2621E+02  0.2553E+02  0.8325E+02  0.8300E+02
     -5.641  0.1679E+02  0.1957E+02  0.8424E+02  0.8415E+02
     -5.582  0.1943E+02  0.1523E+02  0.8539E+02  0.8505E+02
     -5.523  0.2670E+02  0.3056E+02  0.8697E+02  0.8686E+02
     -5.464  0.2524E+02  0.2309E+02  0.8846E+02  0.8822E+02
     -5.405  0.2553E+02  0.2380E+02  0.8996E+02  0.8962E+02
     -5.345  0.3352E+02  0.3485E+02  0.9194E+02  0.9168E+02
     -5.286  0.2429E+02  0.2516E+02  0.9338E+02  0.9317E+02
     -5.227  0.2201E+02  0.1826E+02  0.9468E+02  0.9425E+02
     -5.168  0.2360E+02  0.2000E+02  0.9607E+02  0.9543E+02
     -5.109  0.2798E+02  0.3483E+02  0.9772E+02  0.9748E+02
     -5.050  0.1737E+02  0.1821E+02  0.9875E+02  0.9856E+02
     -4.991  0.3395E+02  0.3085E+02  0.1008E+03  0.1004E+03
     -4.932  0.2292E+02  0.2836E+02  0.1021E+03  0.1021E+03
     -4.873  0.2681E+02  0.2267E+02  0.1037E+03  0.1034E+03
     -4.814  0.2643E+02  0.2956E+02  0.1052E+03  0.1051E+03
     -4.755  0.1818E+02  0.1829E+02  0.1063E+03  0.1062E+03
     -4.696  0.3142E+02  0.3035E+02  0.1082E+03  0.1080E+03
     -4.637  0.2818E+02  0.2400E+02  0.1098E+03  0.1094E+03
     -4.578  0.2001E+02  0.2170E+02  0.1110E+03  0.1107E+03
     -4.519  0.2129E+02  0.2348E+02  0.1123E+03  0.1121E+03
     -4.460  0.1908E+02  0.2110E+02  0.1134E+03  0.1133E+03
     -4.401  0.1302E+02  0.9846E+01  0.1142E+03  0.1139E+03
     -4.342  0.3807E+02  0.3908E+02  0.1164E+03  0.1162E+03
     -4.283  0.1513E+02  0.1475E+02  0.1173E+03  0.1171E+03
     -4.224  0.2729E+02  0.2618E+02  0.1189E+03  0.1186E+03
     -4.165  0.1268E+02  0.1418E+02  0.1197E+03  0.1195E+03
     -4.106  0.1848E+02  0.1841E+02  0.1208E+03  0.1206E+03
     -4.047  0.1916E+02  0.2017E+02  0.1219E+03  0.1218E+03
     -3.988  0.2374E+02  0.2265E+02  0.1233E+03  0.1231E+03
     -3.929  0.2681E+02  0.2753E+02  0.1249E+03  0.1247E+03
     -3.870  0.2764E+02  0.2314E+02  0.1265E+03  0.1261E+03
     -3.811  0.2318E+02  0.2911E+02  0.1279E+03  0.1278E+03
     -3.752  0.1396E+02  0.1123E+02  0.1287E+03  0.1285E+03
     -3.693  0.1921E+02  0.1671E+02  0.1298E+03  0.1295E+03
     -3.634  0.2595E+02  0.3049E+02  0.1314E+03  0.1313E+03
     -3.575  0.2867E+02  0.2449E+02  0.1331E+03  0.1327E+03
     -3.516  0.2382E+02  0.2688E+02  0.1345E+03  0.1343E+03
     -3.457  0.2128E+02  0.2213E+02  0.1357E+03  0.1356E+03
     -3.397  0.2087E+02  0.1977E+02  0.1370E+03  0.1368E+03
     -3.338  0.3045E+02  0.2735E+02  0.1388E+03  0.1384E+03
     -3.279  0.1896E+02  0.2050E+02  0.1399E+03  0.1396E+03
     -3.220  0.3724E+02  0.3395E+02  0.1421E+03  0.1416E+03
     -3.161  0.2314E+02  0.2972E+02  0.1434E+03  0.1433E+03
     -3.102  0.2451E+02  0.2062E+02  0.1449E+03  0.1446E+03
     -3.043  0.2648E+02  0.3076E+02  0.1465E+03  0.1464E+03
     -2.984  0.2649E+02  0.2268E+02  0.1480E+03  0.1477E+03
     -2.925  0.2745E+02  0.2897E+02  0.1496E+03  0.1494E+03
     -2.866  0.3021E+02  0.2974E+02  0.1514E+03  0.1512E+03
     -2.807  0.3651E+02  0.3549E+02  0.1536E+03  0.1533E+03
     -2.748  0.2940E+02  0.2868E+02  0.1553E+03  0.1550E+03
     -2.689  0.2953E+02  0.3113E+02  0.1571E+03  0.1568E+03
     -2.630  0.3481E+02  0.2956E+02  0.1591E+03  0.1586E+03
     -2.571  0.4114E+02  0.4131E+02  0.1615E+03  0.1610E+03
     -2.512  0.2568E+02  0.3035E+02  0.1631E+03  0.1628E+03
     -2.453  0.2872E+02  0.3043E+02  0.1647E+03  0.1646E+03
     -2.394  0.1530E+02  0.1388E+02  0.1657E+03  0.1654E+03
     -2.335  0.3042E+02  0.3316E+02  0.1674E+03  0.1674E+03
     -2.276  0.2368E+02  0.2184E+02  0.1688E+03  0.1686E+03
     -2.217  0.1694E+02  0.1874E+02  0.1698E+03  0.1697E+03
     -2.158  0.3001E+02  0.2830E+02  0.1716E+03  0.1714E+03
     -2.099  0.2538E+02  0.2498E+02  0.1731E+03  0.1729E+03
     -2.040  0.2473E+02  0.2150E+02  0.1746E+03  0.1742E+03
     -1.981  0.2841E+02  0.3172E+02  0.1763E+03  0.1760E+03
     -1.922  0.2108E+02  0.2083E+02  0.1775E+03  0.1773E+03
     -1.863  0.1148E+02  0.1203E+02  0.1782E+03  0.1780E+03
     -1.804  0.6888E+01  0.8543E+01  0.1786E+03  0.1785E+03
     -1.745  0.1359E+02  0.1435E+02  0.1794E+03  0.1793E+03
     -1.686  0.2253E+02  0.2137E+02  0.1807E+03  0.1806E+03
     -1.627  0.1202E+02  0.1284E+02  0.1814E+03  0.1813E+03
     -1.568  0.1372E+02  0.1229E+02  0.1822E+03  0.1821E+03
     -1.509  0.2830E+02  0.2881E+02  0.1839E+03  0.1838E+03
     -1.449  0.2366E+02  0.2231E+02  0.1853E+03  0.1851E+03
     -1.390  0.6700E+01  0.6668E+01  0.1857E+03  0.1855E+03
     -1.331  0.2650E+02  0.2489E+02  0.1873E+03  0.1870E+03
     -1.272  0.2539E+02  0.2550E+02  0.1888E+03  0.1885E+03
     -1.213  0.1880E+02  0.2191E+02  0.1899E+03  0.1898E+03
     -1.154  0.9765E+01  0.1164E+02  0.1904E+03  0.1904E+03
     -1.095  0.2033E+02  0.1764E+02  0.1916E+03  0.1915E+03
     -1.036  0.1061E+02  0.1119E+02  0.1923E+03  0.1921E+03
     -0.977  0.1414E+02  0.1259E+02  0.1931E+03  0.1929E+03
     -0.918  0.2559E+02  0.2404E+02  0.1946E+03  0.1943E+03
     -0.859  0.2156E+02  0.2203E+02  0.1959E+03  0.1956E+03
     -0.800  0.3233E+02  0.2814E+02  0.1978E+03  0.1973E+03
     -0.741  0.4292E+02  0.4734E+02  0.2003E+03  0.2001E+03
     -0.682  0.4239E+02  0.4179E+02  0.2028E+03  0.2025E+03
     -0.623  0.4040E+02  0.3936E+02  0.2052E+03  0.2049E+03
     -0.564  0.4741E+02  0.4503E+02  0.2080E+03  0.2075E+03
     -0.505  0.4233E+02  0.4176E+02  0.2105E+03  0.2100E+03
     -0.446  0.3739E+02  0.4155E+02  0.2127E+03  0.2124E+03
     -0.387  0.3149E+02  0.3113E+02  0.2146E+03  0.2143E+03
     -0.328  0.4385E+02  0.4576E+02  0.2172E+03  0.2170E+03
     -0.269  0.4311E+02  0.4074E+02  0.2197E+03  0.2194E+03
     -0.210  0.3964E+02  0.3634E+02  0.2221E+03  0.2215E+03
     -0.151  0.3206E+02  0.3678E+02  0.2239E+03  0.2237E+03
     -0.092  0.4614E+02  0.4528E+02  0.2267E+03  0.2264E+03
     -0.033  0.3671E+02  0.3575E+02  0.2288E+03  0.2285E+03
      0.026  0.3288E+02  0.3480E+02  0.2308E+03  0.2305E+03
      0.085  0.4207E+02  0.3934E+02  0.2333E+03  0.2328E+03
      0.144  0.4698E+02  0.4260E+02  0.2360E+03  0.2354E+03
      0.203  0.4688E+02  0.5142E+02  0.2388E+03  0.2384E+03
      0.262  0.4356E+02  0.4235E+02  0.2414E+03  0.2409E+03
      0.321  0.4686E+02  0.4926E+02  0.2441E+03  0.2438E+03
      0.380  0.4319E+02  0.4310E+02  0.2467E+03  0.2464E+03
      0.439  0.4035E+02  0.4077E+02  0.2491E+03  0.2488E+03
      0.499  0.5902E+02  0.5748E+02  0.2526E+03  0.2522E+03
      0.558  0.3909E+02  0.4007E+02  0.2549E+03  0.2545E+03
      0.617  0.5074E+02  0.4681E+02  0.2579E+03  0.2573E+03
      0.676  0.5583E+02  0.5910E+02  0.2612E+03  0.2608E+03
      0.735  0.3913E+02  0.3784E+02  0.2635E+03  0.2630E+03
      0.794  0.5525E+02  0.5813E+02  0.2667E+03  0.2664E+03
      0.853  0.4547E+02  0.4226E+02  0.2694E+03  0.2689E+03
      0.912  0.5166E+02  0.5148E+02  0.2725E+03  0.2720E+03
      0.971  0.5471E+02  0.5617E+02  0.2757E+03  0.2753E+03
      1.030  0.4191E+02  0.4370E+02  0.2782E+03  0.2779E+03
      1.089  0.4865E+02  0.4772E+02  0.2810E+03  0.2807E+03
      1.148  0.5353E+02  0.5679E+02  0.2842E+03  0.2840E+03
      1.207  0.4445E+02  0.4138E+02  0.2868E+03  0.2865E+03
      1.266  0.5362E+02  0.5307E+02  0.2900E+03  0.2896E+03
      1.325  0.4035E+02  0.4023E+02  0.2924E+03  0.2920E+03
      1.384  0.4747E+02  0.4423E+02  0.2952E+03  0.2946E+03
      1.443  0.2596E+02  0.3038E+02  0.2967E+03  0.2964E+03
      1.502  0.5310E+02  0.4881E+02  0.2998E+03  0.2993E+03
      1.561  0.4953E+02  0.4621E+02  0.3028E+03  0.3020E+03
      1.620  0.3108E+02  0.4008E+02  0.3046E+03  0.3044E+03
      1.679  0.3538E+02  0.3066E+02  0.3067E+03  0.3062E+03
      1.738  0.5672E+02  0.5803E+02  0.3100E+03  0.3096E+03
      1.797  0.4564E+02  0.4517E+02  0.3127E+03  0.3123E+03
      1.856  0.3159E+02  0.3170E+02  0.3146E+03  0.3141E+03
      1.915  0.4130E+02  0.4421E+02  0.3170E+03  0.3167E+03
      1.974  0.3161E+02  0.2879E+02  0.3189E+03  0.3184E+03
      2.033  0.4531E+02  0.4926E+02  0.3216E+03  0.3214E+03
      2.092  0.4700E+02  0.4213E+02  0.3243E+03  0.3238E+03
      2.151  0.2972E+02  0.3333E+02  0.3261E+03  0.3258E+03
      2.210  0.4603E+02  0.4617E+02  0.3288E+03  0.3285E+03
      2.269  0.3402E+02  0.3622E+02  0.3308E+03  0.3307E+03
      2.328  0.3765E+02  0.3488E+02  0.3331E+03  0.3327E+03
      2.387  0.4423E+02  0.3609E+02  0.3357E+03  0.3349E+03
      2.447  0.3813E+02  0.4655E+02  0.3379E+03  0.3376E+03
      2.506  0.4048E+02  0.3847E+02  0.3403E+03  0.3399E+03
      2.565  0.3256E+02  0.3454E+02  0.3422E+03  0.3419E+03
      2.624  0.3477E+02  0.2903E+02  0.3443E+03  0.3436E+03
      2.683  0.3237E+02  0.3246E+02  0.3462E+03  0.3456E+03
      2.742  0.3681E+02  0.4576E+02  0.3484E+03  0.3483E+03
      2.801  0.3420E+02  0.2882E+02  0.3504E+03  0.3500E+03
      2.860  0.3607E+02  0.3770E+02  0.3525E+03  0.3522E+03
      2.919  0.3354E+02  0.3220E+02  0.3545E+03  0.3541E+03
      2.978  0.5043E+02  0.4706E+02  0.3575E+03  0.3569E+03
      3.037  0.2746E+02  0.2666E+02  0.3591E+03  0.3584E+03
      3.096  0.3146E+02  0.3481E+02  0.3609E+03  0.3605E+03
      3.155  0.4605E+02  0.4420E+02  0.3637E+03  0.3631E+03
      3.214  0.3309E+02  0.3684E+02  0.3656E+03  0.3653E+03
      3.273  0.3971E+02  0.3634E+02  0.3680E+03  0.3674E+03
      3.332  0.3016E+02  0.3625E+02  0.3697E+03  0.3696E+03
      3.391  0.3337E+02  0.2367E+02  0.3717E+03  0.3710E+03
      3.450  0.4191E+02  0.4597E+02  0.3742E+03  0.3737E+03
      3.509  0.3482E+02  0.3640E+02  0.3762E+03  0.3758E+03
      3.568  0.3774E+02  0.4199E+02  0.3785E+03  0.3783E+03
      3.627  0.3781E+02  0.2886E+02  0.3807E+03  0.3800E+03
      3.686  0.2918E+02  0.3570E+02  0.3824E+03  0.3821E+03
      3.745  0.4092E+02  0.3401E+02  0.3848E+03  0.3841E+03
      3.804  0.3208E+02  0.3675E+02  0.3867E+03  0.3863E+03
      3.863  0.4002E+02  0.2966E+02  0.3891E+03  0.3880E+03
      3.922  0.3976E+02  0.4678E+02  0.3914E+03  0.3908E+03
      3.981  0.2961E+02  0.3587E+02  0.3932E+03  0.3929E+03
      4.040  0.2080E+02  0.2077E+02  0.3944E+03  0.3941E+03
      4.099  0.4459E+02  0.4239E+02  0.3971E+03  0.3966E+03
      4.158  0.3145E+02  0.3078E+02  0.3989E+03  0.3985E+03
      4.217  0.4095E+02  0.4012E+02  0.4013E+03  0.4008E+03
      4.276  0.3660E+02  0.3686E+02  0.4035E+03  0.4030E+03
      4.335  0.2983E+02  0.3421E+02  0.4052E+03  0.4050E+03
      4.395  0.5622E+02  0.5339E+02  0.4086E+03  0.4082E+03
      4.454  0.4459E+02  0.4033E+02  0.4112E+03  0.4106E+03
      4.513  0.3571E+02  0.4107E+02  0.4133E+03  0.4130E+03
      4.572  0.3510E+02  0.3411E+02  0.4154E+03  0.4150E+03
      4.631  0.3826E+02  0.3816E+02  0.4176E+03  0.4172E+03
      4.690  0.4352E+02  0.4092E+02  0.4202E+03  0.4197E+03
      4.749  0.3290E+02  0.3593E+02  0.4221E+03  0.4218E+03
      4.808  0.4224E+02  0.3364E+02  0.4246E+03  0.4238E+03
      4.867  0.2025E+02  0.3232E+02  0.4258E+03  0.4257E+03
      4.926  0.4885E+02  0.3991E+02  0.4287E+03  0.4280E+03
      4.985  0.4297E+02  0.4667E+02  0.4313E+03  0.4308E+03
      5.044  0.3453E+02  0.3523E+02  0.4333E+03  0.4329E+03
      5.103  0.3975E+02  0.3947E+02  0.4356E+03  0.4352E+03
      5.162  0.4485E+02  0.4519E+02  0.4383E+03  0.4379E+03
      5.221  0.4431E+02  0.3803E+02  0.4409E+03  0.4401E+03
      5.280  0.3356E+02  0.4050E+02  0.4429E+03  0.4425E+03
      5.339  0.4348E+02  0.4237E+02  0.4455E+03  0.4450E+03
      5.398  0.4421E+02  0.4822E+02  0.4481E+03  0.4479E+03
      5.457  0.4391E+02  0.3758E+02  0.4507E+03  0.4501E+03
      5.516  0.4365E+02  0.4614E+02  0.4532E+03  0.4528E+03
      5.575  0.5328E+02  0.5307E+02  0.4564E+03  0.4559E+03
      5.634  0.4768E+02  0.4669E+02  0.4592E+03  0.4587E+03
      5.693  0.4918E+02  0.4898E+02  0.4621E+03  0.4616E+03
      5.752  0.2495E+02  0.3117E+02  0.4636E+03  0.4634E+03
      5.811  0.7307E+01  0.9909E+01  0.4640E+03  0.4640E+03
      5.870  0.0000E+00  0.0000E+00  0.4640E+03  0.4640E+03
      5.929  0.0000E+00  0.0000E+00  0.4640E+03  0.4640E+03
      5.988  0.0000E+00  0.0000E+00  0.4640E+03  0.4640E+03
      6.047  0.0000E+00  0.0000E+00  0.4640E+03  0.4640E+03
      6.106  0.0000E+00  0.0000E+00  0.4640E+03  0.4640E+03
      6.165  0.0000E+00  0.0000E+00  0.4640E+03  0.4640E+03
      6.224  0.0000E+00  0.0000E+00  0.4640E+03  0.4640E+03
      6.283  0.0000E+00  0.0000E+00  0.4640E+03  0.4640E+03
      6.343  0.0000E+00  0.0000E+00  0.4640E+03  0.4640E+03
      6.402  0.0000E+00  0.0000E+00  0.4640E+03  0.4640E+03
      6.461  0.0000E+00  0.0000E+00  0.4640E+03  0.4640E+03
      6.520  0.0000E+00  0.0000E+00  0.4640E+03  0.4640E+03
      6.579  0.0000E+00  0.0000E+00  0.4640E+03  0.4640E+03
