 264 264   0   0
  0.2770664E+02  0.1946760E-08  0.1946760E-08  0.1930025E-08  0.5000000E-15
  1.000000000000000E-004
  CAR 
 Si and Ge interface calculation         
      6.65300994     -8.89947147  301      4.05176122      1.00000000
     -8.899  0.0000E+00  0.0000E+00  0.0000E+00  0.0000E+00
     -8.848  0.0000E+00  0.0000E+00  0.0000E+00  0.0000E+00
     -8.796  0.0000E+00  0.0000E+00  0.0000E+00  0.0000E+00
     -8.744  0.0000E+00  0.0000E+00  0.0000E+00  0.0000E+00
     -8.692  0.0000E+00  0.0000E+00  0.0000E+00  0.0000E+00
     -8.640  0.0000E+00  0.0000E+00  0.0000E+00  0.0000E+00
     -8.588  0.0000E+00  0.0000E+00  0.0000E+00  0.0000E+00
     -8.537  0.0000E+00  0.0000E+00  0.0000E+00  0.0000E+00
     -8.485  0.0000E+00  0.0000E+00  0.0000E+00  0.0000E+00
     -8.433  0.0000E+00  0.0000E+00  0.0000E+00  0.0000E+00
     -8.381  0.0000E+00  0.0000E+00  0.0000E+00  0.0000E+00
     -8.329  0.0000E+00  0.0000E+00  0.0000E+00  0.0000E+00
     -8.277  0.0000E+00  0.0000E+00  0.0000E+00  0.0000E+00
     -8.226  0.1457E-04  0.4640E-05  0.7555E-06  0.2406E-06
     -8.174  0.9778E+01  0.9667E+01  0.5069E+00  0.5012E+00
     -8.122  0.1917E+02  0.1912E+02  0.1500E+01  0.1492E+01
     -8.070  0.1422E+02  0.1349E+02  0.2238E+01  0.2192E+01
     -8.018  0.2404E+02  0.2470E+02  0.3484E+01  0.3472E+01
     -7.966  0.8275E+01  0.7924E+01  0.3913E+01  0.3883E+01
     -7.914  0.5012E+01  0.4751E+01  0.4173E+01  0.4129E+01
     -7.863  0.2061E+02  0.2035E+02  0.5241E+01  0.5184E+01
     -7.811  0.4699E+02  0.4681E+02  0.7677E+01  0.7611E+01
     -7.759  0.1144E+02  0.1195E+02  0.8270E+01  0.8230E+01
     -7.707  0.2182E+02  0.2095E+02  0.9402E+01  0.9316E+01
     -7.655  0.1312E+02  0.1428E+02  0.1008E+02  0.1006E+02
     -7.603  0.8102E+01  0.8571E+01  0.1050E+02  0.1050E+02
     -7.552  0.1076E+02  0.1043E+02  0.1106E+02  0.1104E+02
     -7.500  0.3452E+02  0.3330E+02  0.1285E+02  0.1277E+02
     -7.448  0.2302E+02  0.2429E+02  0.1404E+02  0.1403E+02
     -7.396  0.1817E+02  0.1791E+02  0.1498E+02  0.1496E+02
     -7.344  0.1959E+02  0.2014E+02  0.1600E+02  0.1600E+02
     -7.292  0.2085E+02  0.1907E+02  0.1708E+02  0.1699E+02
     -7.241  0.4204E+02  0.4280E+02  0.1926E+02  0.1921E+02
     -7.189  0.2856E+02  0.2857E+02  0.2074E+02  0.2069E+02
     -7.137  0.1590E+02  0.1637E+02  0.2156E+02  0.2154E+02
     -7.085  0.4938E+02  0.4795E+02  0.2412E+02  0.2402E+02
     -7.033  0.4462E+02  0.4496E+02  0.2644E+02  0.2635E+02
     -6.981  0.3238E+02  0.3284E+02  0.2812E+02  0.2806E+02
     -6.929  0.3836E+02  0.3886E+02  0.3011E+02  0.3007E+02
     -6.878  0.3658E+02  0.3608E+02  0.3200E+02  0.3194E+02
     -6.826  0.3033E+02  0.3096E+02  0.3357E+02  0.3355E+02
     -6.774  0.4407E+02  0.4295E+02  0.3586E+02  0.3577E+02
     -6.722  0.4330E+02  0.4421E+02  0.3810E+02  0.3807E+02
     -6.670  0.5489E+02  0.5299E+02  0.4095E+02  0.4081E+02
     -6.618  0.6373E+02  0.6428E+02  0.4425E+02  0.4414E+02
     -6.567  0.4333E+02  0.4513E+02  0.4650E+02  0.4648E+02
     -6.515  0.2081E+02  0.2025E+02  0.4758E+02  0.4753E+02
     -6.463  0.3386E+02  0.3292E+02  0.4933E+02  0.4924E+02
     -6.411  0.4225E+02  0.4366E+02  0.5152E+02  0.5150E+02
     -6.359  0.4022E+02  0.3901E+02  0.5361E+02  0.5353E+02
     -6.307  0.4661E+02  0.4512E+02  0.5603E+02  0.5587E+02
     -6.256  0.4780E+02  0.4991E+02  0.5850E+02  0.5845E+02
     -6.204  0.4674E+02  0.4553E+02  0.6093E+02  0.6081E+02
     -6.152  0.5202E+02  0.5153E+02  0.6362E+02  0.6348E+02
     -6.100  0.1021E+03  0.1023E+03  0.6891E+02  0.6879E+02
     -6.048  0.5778E+02  0.5723E+02  0.7191E+02  0.7175E+02
     -5.996  0.6598E+02  0.6697E+02  0.7533E+02  0.7523E+02
     -5.944  0.5983E+02  0.6021E+02  0.7843E+02  0.7835E+02
     -5.893  0.5681E+02  0.5616E+02  0.8138E+02  0.8126E+02
     -5.841  0.7250E+02  0.7024E+02  0.8514E+02  0.8490E+02
     -5.789  0.8214E+02  0.8459E+02  0.8939E+02  0.8928E+02
     -5.737  0.6638E+02  0.6488E+02  0.9284E+02  0.9265E+02
     -5.685  0.6962E+02  0.6873E+02  0.9644E+02  0.9621E+02
     -5.633  0.9551E+02  0.9588E+02  0.1014E+03  0.1012E+03
     -5.582  0.8680E+02  0.8669E+02  0.1059E+03  0.1057E+03
     -5.530  0.6680E+02  0.6711E+02  0.1094E+03  0.1092E+03
     -5.478  0.6948E+02  0.7014E+02  0.1130E+03  0.1128E+03
     -5.426  0.7598E+02  0.7253E+02  0.1169E+03  0.1166E+03
     -5.374  0.6225E+02  0.6518E+02  0.1201E+03  0.1199E+03
     -5.322  0.8223E+02  0.8161E+02  0.1244E+03  0.1242E+03
     -5.271  0.8291E+02  0.8320E+02  0.1287E+03  0.1285E+03
     -5.219  0.6846E+02  0.6902E+02  0.1322E+03  0.1321E+03
     -5.167  0.7571E+02  0.7725E+02  0.1362E+03  0.1361E+03
     -5.115  0.5755E+02  0.5643E+02  0.1391E+03  0.1390E+03
     -5.063  0.8362E+02  0.8258E+02  0.1435E+03  0.1433E+03
     -5.011  0.6480E+02  0.6652E+02  0.1468E+03  0.1467E+03
     -4.960  0.6688E+02  0.6557E+02  0.1503E+03  0.1501E+03
     -4.908  0.6811E+02  0.6729E+02  0.1538E+03  0.1536E+03
     -4.856  0.9948E+02  0.9995E+02  0.1590E+03  0.1588E+03
     -4.804  0.9615E+02  0.9367E+02  0.1640E+03  0.1636E+03
     -4.752  0.1007E+03  0.1018E+03  0.1692E+03  0.1689E+03
     -4.700  0.1115E+03  0.1114E+03  0.1750E+03  0.1747E+03
     -4.648  0.1040E+03  0.1033E+03  0.1804E+03  0.1800E+03
     -4.597  0.1099E+03  0.1111E+03  0.1861E+03  0.1858E+03
     -4.545  0.1241E+03  0.1234E+03  0.1925E+03  0.1922E+03
     -4.493  0.1039E+03  0.1026E+03  0.1979E+03  0.1975E+03
     -4.441  0.8708E+02  0.8787E+02  0.2024E+03  0.2021E+03
     -4.389  0.9083E+02  0.9052E+02  0.2071E+03  0.2068E+03
     -4.337  0.9348E+02  0.9441E+02  0.2120E+03  0.2117E+03
     -4.286  0.7255E+02  0.7331E+02  0.2157E+03  0.2155E+03
     -4.234  0.7234E+02  0.7310E+02  0.2195E+03  0.2193E+03
     -4.182  0.7334E+02  0.7329E+02  0.2233E+03  0.2231E+03
     -4.130  0.7786E+02  0.7907E+02  0.2273E+03  0.2272E+03
     -4.078  0.5124E+02  0.5239E+02  0.2300E+03  0.2299E+03
     -4.026  0.6682E+02  0.6444E+02  0.2334E+03  0.2332E+03
     -3.975  0.6797E+02  0.6881E+02  0.2369E+03  0.2368E+03
     -3.923  0.6695E+02  0.6564E+02  0.2404E+03  0.2402E+03
     -3.871  0.7679E+02  0.7595E+02  0.2444E+03  0.2441E+03
     -3.819  0.7616E+02  0.7749E+02  0.2483E+03  0.2481E+03
     -3.767  0.6827E+02  0.6848E+02  0.2519E+03  0.2517E+03
     -3.715  0.6700E+02  0.6677E+02  0.2554E+03  0.2552E+03
     -3.663  0.7305E+02  0.7097E+02  0.2591E+03  0.2588E+03
     -3.612  0.6803E+02  0.6741E+02  0.2627E+03  0.2623E+03
     -3.560  0.4914E+02  0.5428E+02  0.2652E+03  0.2651E+03
     -3.508  0.5411E+02  0.4922E+02  0.2680E+03  0.2677E+03
     -3.456  0.8346E+02  0.8616E+02  0.2724E+03  0.2722E+03
     -3.404  0.7382E+02  0.7357E+02  0.2762E+03  0.2760E+03
     -3.352  0.7888E+02  0.7643E+02  0.2803E+03  0.2799E+03
     -3.301  0.6381E+02  0.6381E+02  0.2836E+03  0.2832E+03
     -3.249  0.8666E+02  0.8577E+02  0.2881E+03  0.2877E+03
     -3.197  0.6867E+02  0.7029E+02  0.2916E+03  0.2913E+03
     -3.145  0.8509E+02  0.8376E+02  0.2960E+03  0.2957E+03
     -3.093  0.8246E+02  0.8591E+02  0.3003E+03  0.3001E+03
     -3.041  0.6602E+02  0.6415E+02  0.3037E+03  0.3035E+03
     -2.990  0.6636E+02  0.6837E+02  0.3072E+03  0.3070E+03
     -2.938  0.9685E+02  0.9172E+02  0.3122E+03  0.3118E+03
     -2.886  0.8062E+02  0.8330E+02  0.3164E+03  0.3161E+03
     -2.834  0.8906E+02  0.9160E+02  0.3210E+03  0.3208E+03
     -2.782  0.8254E+02  0.7943E+02  0.3253E+03  0.3249E+03
     -2.730  0.1002E+03  0.1028E+03  0.3305E+03  0.3303E+03
     -2.678  0.1058E+03  0.1043E+03  0.3360E+03  0.3357E+03
     -2.627  0.7767E+02  0.7981E+02  0.3400E+03  0.3398E+03
     -2.575  0.1186E+03  0.1141E+03  0.3461E+03  0.3457E+03
     -2.523  0.1219E+03  0.1231E+03  0.3524E+03  0.3521E+03
     -2.471  0.1153E+03  0.1163E+03  0.3584E+03  0.3581E+03
     -2.419  0.8371E+02  0.8353E+02  0.3628E+03  0.3625E+03
     -2.367  0.1077E+03  0.1076E+03  0.3684E+03  0.3680E+03
     -2.316  0.7889E+02  0.7908E+02  0.3724E+03  0.3721E+03
     -2.264  0.1018E+03  0.1026E+03  0.3777E+03  0.3775E+03
     -2.212  0.6719E+02  0.6951E+02  0.3812E+03  0.3811E+03
     -2.160  0.5592E+02  0.5440E+02  0.3841E+03  0.3839E+03
     -2.108  0.5903E+02  0.6102E+02  0.3872E+03  0.3870E+03
     -2.056  0.5933E+02  0.5440E+02  0.3902E+03  0.3899E+03
     -2.005  0.7977E+02  0.8167E+02  0.3944E+03  0.3941E+03
     -1.953  0.8605E+02  0.8401E+02  0.3988E+03  0.3985E+03
     -1.901  0.9845E+02  0.1011E+03  0.4039E+03  0.4037E+03
     -1.849  0.8292E+02  0.8280E+02  0.4082E+03  0.4080E+03
     -1.797  0.9056E+02  0.9021E+02  0.4129E+03  0.4127E+03
     -1.745  0.9591E+02  0.9416E+02  0.4179E+03  0.4175E+03
     -1.693  0.7697E+02  0.7829E+02  0.4219E+03  0.4216E+03
     -1.642  0.7304E+02  0.7436E+02  0.4257E+03  0.4255E+03
     -1.590  0.7740E+02  0.7608E+02  0.4297E+03  0.4294E+03
     -1.538  0.1026E+03  0.1034E+03  0.4350E+03  0.4348E+03
     -1.486  0.6765E+02  0.6940E+02  0.4385E+03  0.4384E+03
     -1.434  0.4771E+02  0.4899E+02  0.4410E+03  0.4409E+03
     -1.382  0.4084E+02  0.3920E+02  0.4431E+03  0.4429E+03
     -1.331  0.8015E+02  0.7839E+02  0.4473E+03  0.4470E+03
     -1.279  0.5025E+02  0.5059E+02  0.4499E+03  0.4496E+03
     -1.227  0.5536E+02  0.5860E+02  0.4527E+03  0.4527E+03
     -1.175  0.4506E+02  0.4249E+02  0.4551E+03  0.4549E+03
     -1.123  0.6145E+02  0.6031E+02  0.4583E+03  0.4580E+03
     -1.071  0.5219E+02  0.5289E+02  0.4610E+03  0.4607E+03
     -1.020  0.6867E+02  0.6983E+02  0.4645E+03  0.4644E+03
     -0.968  0.3497E+02  0.3505E+02  0.4663E+03  0.4662E+03
     -0.916  0.4332E+02  0.4279E+02  0.4686E+03  0.4684E+03
     -0.864  0.6356E+02  0.6530E+02  0.4719E+03  0.4718E+03
     -0.812  0.6549E+02  0.6218E+02  0.4753E+03  0.4750E+03
     -0.760  0.6465E+02  0.6552E+02  0.4786E+03  0.4784E+03
     -0.708  0.4646E+02  0.4634E+02  0.4810E+03  0.4808E+03
     -0.657  0.7553E+02  0.7718E+02  0.4849E+03  0.4848E+03
     -0.605  0.3054E+02  0.3214E+02  0.4865E+03  0.4865E+03
     -0.553  0.3037E+02  0.2943E+02  0.4881E+03  0.4880E+03
     -0.501  0.2254E+02  0.2453E+02  0.4893E+03  0.4893E+03
     -0.449  0.3832E+02  0.3649E+02  0.4913E+03  0.4911E+03
     -0.397  0.4746E+02  0.4608E+02  0.4937E+03  0.4935E+03
     -0.346  0.5857E+02  0.5834E+02  0.4968E+03  0.4966E+03
     -0.294  0.8597E+02  0.8727E+02  0.5012E+03  0.5011E+03
     -0.242  0.7827E+02  0.7865E+02  0.5053E+03  0.5052E+03
     -0.190  0.5921E+02  0.5724E+02  0.5083E+03  0.5081E+03
     -0.138  0.1208E+03  0.1190E+03  0.5146E+03  0.5143E+03
     -0.086  0.1080E+03  0.1095E+03  0.5202E+03  0.5200E+03
     -0.035  0.1153E+03  0.1116E+03  0.5262E+03  0.5258E+03
      0.017  0.1106E+03  0.1144E+03  0.5319E+03  0.5317E+03
      0.069  0.1489E+03  0.1442E+03  0.5396E+03  0.5392E+03
      0.121  0.1399E+03  0.1422E+03  0.5469E+03  0.5465E+03
      0.173  0.8478E+02  0.8737E+02  0.5513E+03  0.5511E+03
      0.225  0.7667E+02  0.7646E+02  0.5552E+03  0.5550E+03
      0.276  0.1023E+03  0.1008E+03  0.5606E+03  0.5603E+03
      0.328  0.7510E+02  0.7723E+02  0.5644E+03  0.5643E+03
      0.380  0.9044E+02  0.9029E+02  0.5691E+03  0.5689E+03
      0.432  0.1023E+03  0.1022E+03  0.5744E+03  0.5742E+03
      0.484  0.6894E+02  0.7095E+02  0.5780E+03  0.5779E+03
      0.536  0.1133E+03  0.1109E+03  0.5839E+03  0.5837E+03
      0.588  0.1525E+03  0.1510E+03  0.5918E+03  0.5915E+03
      0.639  0.1300E+03  0.1284E+03  0.5985E+03  0.5982E+03
      0.691  0.1365E+03  0.1387E+03  0.6056E+03  0.6053E+03
      0.743  0.1220E+03  0.1217E+03  0.6119E+03  0.6116E+03
      0.795  0.1269E+03  0.1266E+03  0.6185E+03  0.6182E+03
      0.847  0.1011E+03  0.1028E+03  0.6237E+03  0.6235E+03
      0.899  0.8990E+02  0.9075E+02  0.6284E+03  0.6282E+03
      0.950  0.9845E+02  0.9411E+02  0.6335E+03  0.6331E+03
      1.002  0.1035E+03  0.1052E+03  0.6389E+03  0.6386E+03
      1.054  0.1627E+03  0.1595E+03  0.6473E+03  0.6468E+03
      1.106  0.1359E+03  0.1397E+03  0.6544E+03  0.6541E+03
      1.158  0.1215E+03  0.1170E+03  0.6607E+03  0.6602E+03
      1.210  0.1789E+03  0.1779E+03  0.6699E+03  0.6694E+03
      1.261  0.1706E+03  0.1725E+03  0.6788E+03  0.6783E+03
      1.313  0.1702E+03  0.1668E+03  0.6876E+03  0.6870E+03
      1.365  0.2029E+03  0.2065E+03  0.6981E+03  0.6977E+03
      1.417  0.1849E+03  0.1873E+03  0.7077E+03  0.7074E+03
      1.469  0.1254E+03  0.1265E+03  0.7142E+03  0.7139E+03
      1.521  0.2185E+03  0.2094E+03  0.7255E+03  0.7248E+03
      1.573  0.1894E+03  0.1902E+03  0.7353E+03  0.7347E+03
      1.624  0.1985E+03  0.2034E+03  0.7456E+03  0.7452E+03
      1.676  0.1729E+03  0.1707E+03  0.7546E+03  0.7541E+03
      1.728  0.1896E+03  0.1896E+03  0.7644E+03  0.7639E+03
      1.780  0.1749E+03  0.1767E+03  0.7735E+03  0.7731E+03
      1.832  0.1782E+03  0.1757E+03  0.7827E+03  0.7822E+03
      1.884  0.1636E+03  0.1655E+03  0.7912E+03  0.7907E+03
      1.935  0.1922E+03  0.1889E+03  0.8012E+03  0.8005E+03
      1.987  0.1997E+03  0.2030E+03  0.8115E+03  0.8111E+03
      2.039  0.1604E+03  0.1571E+03  0.8199E+03  0.8192E+03
      2.091  0.1915E+03  0.1945E+03  0.8298E+03  0.8293E+03
      2.143  0.1626E+03  0.1622E+03  0.8382E+03  0.8377E+03
      2.195  0.2098E+03  0.2073E+03  0.8491E+03  0.8484E+03
      2.246  0.1599E+03  0.1612E+03  0.8574E+03  0.8568E+03
      2.298  0.1677E+03  0.1668E+03  0.8661E+03  0.8654E+03
      2.350  0.1558E+03  0.1552E+03  0.8741E+03  0.8735E+03
      2.402  0.2034E+03  0.2075E+03  0.8847E+03  0.8842E+03
      2.454  0.1537E+03  0.1550E+03  0.8927E+03  0.8923E+03
      2.506  0.1565E+03  0.1535E+03  0.9008E+03  0.9002E+03
      2.558  0.1751E+03  0.1736E+03  0.9099E+03  0.9092E+03
      2.609  0.1314E+03  0.1330E+03  0.9167E+03  0.9161E+03
      2.661  0.1204E+03  0.1227E+03  0.9229E+03  0.9225E+03
      2.713  0.1454E+03  0.1443E+03  0.9304E+03  0.9300E+03
      2.765  0.1369E+03  0.1361E+03  0.9375E+03  0.9370E+03
      2.817  0.1395E+03  0.1342E+03  0.9448E+03  0.9440E+03
      2.869  0.1506E+03  0.1547E+03  0.9526E+03  0.9520E+03
      2.920  0.1324E+03  0.1338E+03  0.9594E+03  0.9590E+03
      2.972  0.8884E+02  0.9126E+02  0.9641E+03  0.9637E+03
      3.024  0.1521E+03  0.1447E+03  0.9719E+03  0.9712E+03
      3.076  0.1196E+03  0.1253E+03  0.9781E+03  0.9777E+03
      3.128  0.1295E+03  0.1272E+03  0.9849E+03  0.9843E+03
      3.180  0.8998E+02  0.9172E+02  0.9895E+03  0.9890E+03
      3.231  0.1218E+03  0.1170E+03  0.9958E+03  0.9951E+03
      3.283  0.1075E+03  0.1118E+03  0.1001E+04  0.1001E+04
      3.335  0.1176E+03  0.1192E+03  0.1007E+04  0.1007E+04
      3.387  0.5823E+02  0.6067E+02  0.1011E+04  0.1010E+04
      3.439  0.1007E+03  0.9830E+02  0.1016E+04  0.1015E+04
      3.491  0.8189E+02  0.8209E+02  0.1020E+04  0.1020E+04
      3.543  0.7914E+02  0.7600E+02  0.1024E+04  0.1024E+04
      3.594  0.9577E+02  0.9249E+02  0.1029E+04  0.1028E+04
      3.646  0.6068E+02  0.7046E+02  0.1032E+04  0.1032E+04
      3.698  0.4400E+02  0.3998E+02  0.1034E+04  0.1034E+04
      3.750  0.6870E+02  0.7155E+02  0.1038E+04  0.1038E+04
      3.802  0.4947E+02  0.4411E+02  0.1041E+04  0.1040E+04
      3.854  0.4174E+02  0.5061E+02  0.1043E+04  0.1043E+04
      3.905  0.4252E+02  0.4054E+02  0.1045E+04  0.1045E+04
      3.957  0.7164E+02  0.6008E+02  0.1049E+04  0.1048E+04
      4.009  0.7051E+02  0.7018E+02  0.1052E+04  0.1052E+04
      4.061  0.8715E+02  0.8037E+02  0.1057E+04  0.1056E+04
      4.113  0.9072E+02  0.9532E+02  0.1062E+04  0.1061E+04
      4.165  0.1194E+03  0.1173E+03  0.1068E+04  0.1067E+04
      4.216  0.7299E+02  0.8542E+02  0.1072E+04  0.1071E+04
      4.268  0.1064E+03  0.9916E+02  0.1077E+04  0.1076E+04
      4.320  0.7455E+02  0.7328E+02  0.1081E+04  0.1080E+04
      4.372  0.1113E+03  0.1097E+03  0.1087E+04  0.1086E+04
      4.424  0.1314E+03  0.1273E+03  0.1093E+04  0.1092E+04
      4.476  0.1018E+03  0.1140E+03  0.1099E+04  0.1098E+04
      4.528  0.1178E+03  0.1106E+03  0.1105E+04  0.1104E+04
      4.579  0.9133E+02  0.1012E+03  0.1110E+04  0.1109E+04
      4.631  0.8171E+02  0.8076E+02  0.1114E+04  0.1113E+04
      4.683  0.1338E+03  0.1195E+03  0.1121E+04  0.1120E+04
      4.735  0.1233E+03  0.1308E+03  0.1127E+04  0.1126E+04
      4.787  0.1167E+03  0.1174E+03  0.1133E+04  0.1132E+04
      4.839  0.1382E+03  0.1423E+03  0.1140E+04  0.1140E+04
      4.890  0.1078E+03  0.1044E+03  0.1146E+04  0.1145E+04
      4.942  0.1322E+03  0.1318E+03  0.1153E+04  0.1152E+04
      4.994  0.1261E+03  0.1319E+03  0.1159E+04  0.1159E+04
      5.046  0.1205E+03  0.1134E+03  0.1166E+04  0.1165E+04
      5.098  0.1225E+03  0.1235E+03  0.1172E+04  0.1171E+04
      5.150  0.9946E+02  0.9908E+02  0.1177E+04  0.1176E+04
      5.201  0.1006E+03  0.1051E+03  0.1182E+04  0.1182E+04
      5.253  0.9512E+02  0.1002E+03  0.1187E+04  0.1187E+04
      5.305  0.1127E+03  0.1059E+03  0.1193E+04  0.1192E+04
      5.357  0.1360E+03  0.1380E+03  0.1200E+04  0.1200E+04
      5.409  0.1485E+03  0.1450E+03  0.1208E+04  0.1207E+04
      5.461  0.1397E+03  0.1446E+03  0.1215E+04  0.1215E+04
      5.512  0.1358E+03  0.1299E+03  0.1222E+04  0.1221E+04
      5.564  0.1350E+03  0.1374E+03  0.1229E+04  0.1229E+04
      5.616  0.1460E+03  0.1461E+03  0.1237E+04  0.1236E+04
      5.668  0.1270E+03  0.1296E+03  0.1243E+04  0.1243E+04
      5.720  0.1297E+03  0.1254E+03  0.1250E+04  0.1249E+04
      5.772  0.1045E+03  0.1058E+03  0.1255E+04  0.1255E+04
      5.824  0.1356E+03  0.1409E+03  0.1262E+04  0.1262E+04
      5.875  0.1274E+03  0.1295E+03  0.1269E+04  0.1269E+04
      5.927  0.4415E+02  0.4736E+02  0.1271E+04  0.1271E+04
      5.979  0.1239E+02  0.1386E+02  0.1272E+04  0.1272E+04
      6.031  0.0000E+00  0.0000E+00  0.1272E+04  0.1272E+04
      6.083  0.0000E+00  0.0000E+00  0.1272E+04  0.1272E+04
      6.135  0.0000E+00  0.0000E+00  0.1272E+04  0.1272E+04
      6.186  0.0000E+00  0.0000E+00  0.1272E+04  0.1272E+04
      6.238  0.0000E+00  0.0000E+00  0.1272E+04  0.1272E+04
      6.290  0.0000E+00  0.0000E+00  0.1272E+04  0.1272E+04
      6.342  0.0000E+00  0.0000E+00  0.1272E+04  0.1272E+04
      6.394  0.0000E+00  0.0000E+00  0.1272E+04  0.1272E+04
      6.446  0.0000E+00  0.0000E+00  0.1272E+04  0.1272E+04
      6.497  0.0000E+00  0.0000E+00  0.1272E+04  0.1272E+04
      6.549  0.0000E+00  0.0000E+00  0.1272E+04  0.1272E+04
      6.601  0.0000E+00  0.0000E+00  0.1272E+04  0.1272E+04
      6.653  0.0000E+00  0.0000E+00  0.1272E+04  0.1272E+04
