<?xml version="1.0" encoding="ISO-8859-1"?>
<modeling>
 <generator>
  <i name="program" type="string">vasp </i>
  <i name="version" type="string">6.4.3  </i>
  <i name="subversion" type="string">19Mar24 (build Oct 22 2024 11:23:12) complex                          parallel </i>
  <i name="platform" type="string">LinuxIFC </i>
  <i name="date" type="string">2025 06 13 </i>
  <i name="time" type="string">13:54:37 </i>
 </generator>
 <incar>
  <i type="string" name="SYSTEM">Si and Ge interface calculation</i>
  <i type="int" name="ISTART">     0</i>
  <i type="logical" name="ADDGRID"> T  </i>
  <i type="int" name="ISPIN">     2</i>
  <i name="AMIX">      0.60000000</i>
  <i type="int" name="ICHARG">     2</i>
  <i type="int" name="NELM">   100</i>
  <i name="EDIFF">      0.00000010</i>
  <i name="ENCUT">    700.00000000</i>
  <i name="ENAUG">    900.00000000</i>
  <i type="int" name="NBANDS">   634</i>
  <i name="NUPDOWN">      1.00000000</i>
  <i name="NELECT">   1056.00000000</i>
  <i type="string" name="LREAL">AUTO</i>
  <i type="int" name="ISMEAR">     0</i>
  <i name="SIGMA">      0.01000000</i>
  <i type="int" name="LMAXMIX">     6</i>
  <i type="logical" name="LWAVE"> F  </i>
  <i type="logical" name="LVTOT"> F  </i>
  <i type="logical" name="LVHAR"> T  </i>
  <i type="logical" name="LASPH"> T  </i>
  <i type="logical" name="LMIXTAU"> T  </i>
 </incar>
 <primitive_cell>
  <structure name="primitive_cell" >
   <crystal>
    <varray name="basis" >
     <v>      19.46759987       0.00000000       0.00000000 </v>
     <v>       0.00000000      19.46759987       0.00000000 </v>
     <v>       0.00000000       0.00000000      19.30025291 </v>
    </varray>
    <i name="volume">   7314.55353316 </i>
    <varray name="rec_basis" >
     <v>       0.05136740       0.00000000       0.00000000 </v>
     <v>       0.00000000       0.05136740       0.00000000 </v>
     <v>       0.00000000       0.00000000       0.05181279 </v>
    </varray>
   </crystal>
   <varray name="positions" >
    <v>       0.53534579       0.52442288       0.88601178 </v>
    <v>       0.82836843       0.66666669       0.16811179 </v>
    <v>       0.66170174       0.66666669       0.33622354 </v>
    <v>       0.45842278       0.13980748       0.88601178 </v>
    <v>       0.95842272       0.63980752       0.88601178 </v>
    <v>       0.66170174       0.33333334       0.33622354 </v>
    <v>       0.99503511       0.00000000       0.00000000 </v>
    <v>       0.26611507       0.17826901       0.88601178 </v>
    <v>       0.43919206       0.54365373       0.53426754 </v>
    <v>       0.32836846       0.66666669       0.00000000 </v>
    <v>       0.16170174       0.66666669       0.16811179 </v>
    <v>       0.99503511       0.66666669       0.33622354 </v>
    <v>       0.32836846       0.33333334       0.00000000 </v>
    <v>       0.38149977       0.75519222       0.88601178 </v>
    <v>       0.99503511       0.33333334       0.33622354 </v>
    <v>       0.32836846       0.00000000       0.00000000 </v>
    <v>       0.22765350       0.98596126       0.88601178 </v>
    <v>       0.99503511       0.00000000       0.33622354 </v>
    <v>       0.66170180       0.66666669       0.00000000 </v>
    <v>       0.41996121       0.94749975       0.88601178 </v>
    <v>       0.32836846       0.66666669       0.33622354 </v>
    <v>       0.65073037       0.10134596       0.88601178 </v>
    <v>       0.03534579       0.02442288       0.88601178 </v>
    <v>       0.32836846       0.33333334       0.33622354 </v>
    <v>       0.66170180       0.00000000       0.00000000 </v>
    <v>       0.76611495       0.67826903       0.88601178 </v>
    <v>       0.32836846       0.00000000       0.33622354 </v>
    <v>       0.07836843       0.91666675       0.08405589 </v>
    <v>       0.91170180       0.91666675       0.25216761 </v>
    <v>       0.28534591       0.77442300       0.53426754 </v>
    <v>       0.07836843       0.58333343       0.08405589 </v>
    <v>       0.13149977       0.00519216       0.53426754 </v>
    <v>       0.20842290       0.38980767       0.53426754 </v>
    <v>       0.07836843       0.25000000       0.08405589 </v>
    <v>       0.97765356       0.23596150       0.53426754 </v>
    <v>       0.74503505       0.25000000       0.42027944 </v>
    <v>       0.41170177       0.91666675       0.08405589 </v>
    <v>       0.16996121       0.19749993       0.53426754 </v>
    <v>       0.07836838       0.91666675       0.42027944 </v>
    <v>       0.41170177       0.58333343       0.08405589 </v>
    <v>       0.78534591       0.27442294       0.53426754 </v>
    <v>       0.07836838       0.58333343       0.42027944 </v>
    <v>       0.41170177       0.25000000       0.08405589 </v>
    <v>       0.51611519       0.92826909       0.53426754 </v>
    <v>       0.07836838       0.25000000       0.42027944 </v>
    <v>       0.74503517       0.91666675       0.08405589 </v>
    <v>       0.57836855       0.91666675       0.25216761 </v>
    <v>       0.41170180       0.91666675       0.42027944 </v>
    <v>       0.74503517       0.58333343       0.08405589 </v>
    <v>       0.70842290       0.88980758       0.53426754 </v>
    <v>       0.40073061       0.35134610       0.53426754 </v>
    <v>       0.74503517       0.25000000       0.08405589 </v>
    <v>       0.01611507       0.42826921       0.53426754 </v>
    <v>       0.41170180       0.25000000       0.42027944 </v>
    <v>       0.16170177       0.83333331       0.00000000 </v>
    <v>       0.57380748       0.71673053       0.88601178 </v>
    <v>       0.82836843       0.83333331       0.33622354 </v>
    <v>       0.88149953       0.25519213       0.88601178 </v>
    <v>       0.15073037       0.60134602       0.88601178 </v>
    <v>       0.82836843       0.50000000       0.33622354 </v>
    <v>       0.07380736       0.21673061       0.88601178 </v>
    <v>       0.93919194       0.04365373       0.81566292 </v>
    <v>       0.82836843       0.16666667       0.33622354 </v>
    <v>       0.49503511       0.83333331       0.00000000 </v>
    <v>       0.32836843       0.83333331       0.16811179 </v>
    <v>       0.16170175       0.83333331       0.33622354 </v>
    <v>       0.49503511       0.50000000       0.00000000 </v>
    <v>       0.32836843       0.50000000       0.16811179 </v>
    <v>       0.16170175       0.50000000       0.33622354 </v>
    <v>       0.18919206       0.79365367       0.88601178 </v>
    <v>       0.32836843       0.16666667       0.16811179 </v>
    <v>       0.16170175       0.16666667       0.33622354 </v>
    <v>       0.82836855       0.83333331       0.00000000 </v>
    <v>       0.99688429       0.83211523       0.88601178 </v>
    <v>       0.49503520       0.83333331       0.33622354 </v>
    <v>       0.82836855       0.50000000       0.00000000 </v>
    <v>       0.66170186       0.50000000       0.16811179 </v>
    <v>       0.49503520       0.50000000       0.33622354 </v>
    <v>       0.82836855       0.16666667       0.00000000 </v>
    <v>       0.36226893       0.15903828       0.81566292 </v>
    <v>       0.49503520       0.16666667       0.33622354 </v>
    <v>       0.24503510       0.75000006       0.08405589 </v>
    <v>       0.07836843       0.75000006       0.25216761 </v>
    <v>       0.63149977       0.50519222       0.53426754 </v>
    <v>       0.24503510       0.41666672       0.08405589 </v>
    <v>       0.07836843       0.41666672       0.25216761 </v>
    <v>       0.82380748       0.46673074       0.53426754 </v>
    <v>       0.24503510       0.08333334       0.08405589 </v>
    <v>       0.07836843       0.08333334       0.25216761 </v>
    <v>       0.91170174       0.08333334       0.42027944 </v>
    <v>       0.57836848       0.75000006       0.08405589 </v>
    <v>       0.41170186       0.75000006       0.25216761 </v>
    <v>       0.24503513       0.75000006       0.42027944 </v>
    <v>       0.57836848       0.41666672       0.08405589 </v>
    <v>       0.11226893       0.40903842       0.60461640 </v>
    <v>       0.93919206       0.04365373       0.53426754 </v>
    <v>       0.57836848       0.08333334       0.08405589 </v>
    <v>       0.74688435       0.08211532       0.53426754 </v>
    <v>       0.24503513       0.08333334       0.42027944 </v>
    <v>       0.68919182       0.29365367       0.88601178 </v>
    <v>       0.90073061       0.85134602       0.53426754 </v>
    <v>       0.57836837       0.75000006       0.42027944 </v>
    <v>       0.91170174       0.41666672       0.08405589 </v>
    <v>       0.68919206       0.29365376       0.60461640 </v>
    <v>       0.57836837       0.41666672       0.42027944 </v>
    <v>       0.91170174       0.08333334       0.08405589 </v>
    <v>       0.32380748       0.96673077       0.53426754 </v>
    <v>       0.57836837       0.08333334       0.42027944 </v>
    <v>       0.24503513       0.41666672       0.42027944 </v>
    <v>       0.82380736       0.96673060       0.67496520 </v>
    <v>       0.70842266       0.88980746       0.81566292 </v>
    <v>       0.57836855       0.25000000       0.25216761 </v>
    <v>       0.90073037       0.35134605       0.67496520 </v>
    <v>       0.78534579       0.27442291       0.81566292 </v>
    <v>       0.24503510       0.91666675       0.25216761 </v>
    <v>       0.05457663       0.12057680       0.67496520 </v>
    <v>       0.99503505       0.16666667       0.16811179 </v>
    <v>       0.09303820       0.81288457       0.53426754 </v>
    <v>       0.97765350       0.73596144       0.67496520 </v>
    <v>       0.86226893       0.65903831       0.81566292 </v>
    <v>       0.24688435       0.58211529       0.53426754 </v>
    <v>       0.13149977       0.50519216       0.67496520 </v>
    <v>       0.01611507       0.42826906       0.81566292 </v>
    <v>       0.41170180       0.58333343       0.42027944 </v>
    <v>       0.28534579       0.27442294       0.67496520 </v>
    <v>       0.16996121       0.19749983       0.81566292 </v>
    <v>       0.55457663       0.12057686       0.53426754 </v>
    <v>       0.43919206       0.04365373       0.67496520 </v>
    <v>       0.32380736       0.96673053       0.81566292 </v>
    <v>       0.74503505       0.08333334       0.25216761 </v>
    <v>       0.20842290       0.88980764       0.67496520 </v>
    <v>       0.09303820       0.81288445       0.81566292 </v>
    <v>       0.47765362       0.73596144       0.53426754 </v>
    <v>       0.36226893       0.65903831       0.67496520 </v>
    <v>       0.24688423       0.58211517       0.81566292 </v>
    <v>       0.91170174       0.75000006       0.42027944 </v>
    <v>       0.51611507       0.42826912       0.67496520 </v>
    <v>       0.40073037       0.35134599       0.81566292 </v>
    <v>       0.24503510       0.58333343       0.25216761 </v>
    <v>       0.66996121       0.19749980       0.67496520 </v>
    <v>       0.55457663       0.12057667       0.81566292 </v>
    <v>       0.57836855       0.58333343       0.25216761 </v>
    <v>       0.59303832       0.81288445       0.67496520 </v>
    <v>       0.47765350       0.73596132       0.81566292 </v>
    <v>       0.86226904       0.65903837       0.53426754 </v>
    <v>       0.74688435       0.58211523       0.67496520 </v>
    <v>       0.63149977       0.50519210       0.81566292 </v>
    <v>       0.95842284       0.63980758       0.60461640 </v>
    <v>       0.84303820       0.56288445       0.74531406 </v>
    <v>       0.72765350       0.48596138       0.88601178 </v>
    <v>       0.41170186       0.41666672       0.25216761 </v>
    <v>       0.99688429       0.33211529       0.74531406 </v>
    <v>       0.16170177       0.50000000       0.00000000 </v>
    <v>       0.26611519       0.17826916       0.60461640 </v>
    <v>       0.15073049       0.10134602       0.74531406 </v>
    <v>       0.49503511       0.33333334       0.16811179 </v>
    <v>       0.03534591       0.02442300       0.60461640 </v>
    <v>       0.91996121       0.94749987       0.74531406 </v>
    <v>       0.80457652       0.87057674       0.88601178 </v>
    <v>       0.18919206       0.79365379       0.60461640 </v>
    <v>       0.07380736       0.71673065       0.74531406 </v>
    <v>       0.82836843       0.33333334       0.16811179 </v>
    <v>       0.34303832       0.56288457       0.60461640 </v>
    <v>       0.22765362       0.48596144       0.74531406 </v>
    <v>       0.11226893       0.40903831       0.88601178 </v>
    <v>       0.49688435       0.33211529       0.60461640 </v>
    <v>       0.38149977       0.25519213       0.74531406 </v>
    <v>       0.82836843       0.00000000       0.16811179 </v>
    <v>       0.65073061       0.10134605       0.60461640 </v>
    <v>       0.53534579       0.02442288       0.74531406 </v>
    <v>       0.49503511       0.66666669       0.16811179 </v>
    <v>       0.41996145       0.94749993       0.60461640 </v>
    <v>       0.30457663       0.87057680       0.74531406 </v>
    <v>       0.49503511       0.16666667       0.00000000 </v>
    <v>       0.57380748       0.71673071       0.60461640 </v>
    <v>       0.45842290       0.63980752       0.74531406 </v>
    <v>       0.34303808       0.56288439       0.88601178 </v>
    <v>       0.72765374       0.48596147       0.60461640 </v>
    <v>       0.61226893       0.40903831       0.74531406 </v>
    <v>       0.49688435       0.33211517       0.88601178 </v>
    <v>       0.88149977       0.25519225       0.60461640 </v>
    <v>       0.76611519       0.17826910       0.74531406 </v>
    <v>       0.66170180       0.33333334       0.00000000 </v>
    <v>       0.80457687       0.87057686       0.60461640 </v>
    <v>       0.68919218       0.79365373       0.74531406 </v>
    <v>       0.99503505       0.83333331       0.16811179 </v>
    <v>       0.91170180       0.25000000       0.25216761 </v>
    <v>       0.86226893       0.15903835       0.67496520 </v>
    <v>       0.74688423       0.08211522       0.81566292 </v>
    <v>       0.05457663       0.62057680       0.53426754 </v>
    <v>       0.93919206       0.54365373       0.67496520 </v>
    <v>       0.82380724       0.46673060       0.81566292 </v>
    <v>       0.74503505       0.58333343       0.42027944 </v>
    <v>       0.09303820       0.31288454       0.67496520 </v>
    <v>       0.97765350       0.23596141       0.81566292 </v>
    <v>       0.36226893       0.15903835       0.53426754 </v>
    <v>       0.24688435       0.08211523       0.67496520 </v>
    <v>       0.13149965       0.00519204       0.81566292 </v>
    <v>       0.91170180       0.58333343       0.25216761 </v>
    <v>       0.01611507       0.92826903       0.67496520 </v>
    <v>       0.90073037       0.85134596       0.81566292 </v>
    <v>       0.74503505       0.91666675       0.42027944 </v>
    <v>       0.16996121       0.69749987       0.67496520 </v>
    <v>       0.05457652       0.62057674       0.81566292 </v>
    <v>       0.66170174       0.00000000       0.33622354 </v>
    <v>       0.32380748       0.46673062       0.67496520 </v>
    <v>       0.20842266       0.38980749       0.81566292 </v>
    <v>       0.59303832       0.31288454       0.53426754 </v>
    <v>       0.47765362       0.23596141       0.67496520 </v>
    <v>       0.66170186       0.16666667       0.16811179 </v>
    <v>       0.41170186       0.08333334       0.25216761 </v>
    <v>       0.63149977       0.00519216       0.67496520 </v>
    <v>       0.51611507       0.92826903       0.81566292 </v>
    <v>       0.24503510       0.25000000       0.25216761 </v>
    <v>       0.40073037       0.85134602       0.67496520 </v>
    <v>       0.28534579       0.77442282       0.81566292 </v>
    <v>       0.66996133       0.69749987       0.53426754 </v>
    <v>       0.55457663       0.62057674       0.67496520 </v>
    <v>       0.43919194       0.54365361       0.81566292 </v>
    <v>       0.91170174       0.41666672       0.42027944 </v>
    <v>       0.70842290       0.38980761       0.67496520 </v>
    <v>       0.59303808       0.31288448       0.81566292 </v>
    <v>       0.74503505       0.75000006       0.25216761 </v>
    <v>       0.78534591       0.77442288       0.67496520 </v>
    <v>       0.66996121       0.69749975       0.81566292 </v>
    <v>       0.07380748       0.21673071       0.60461640 </v>
    <v>       0.95842278       0.13980758       0.74531406 </v>
    <v>       0.84303808       0.06288444       0.88601178 </v>
    <v>       0.99688435       0.83211535       0.60461640 </v>
    <v>       0.88149977       0.75519216       0.74531406 </v>
    <v>       0.49503511       0.00000000       0.16811179 </v>
    <v>       0.15073049       0.60134613       0.60461640 </v>
    <v>       0.03534591       0.52442300       0.74531406 </v>
    <v>       0.91996121       0.44749984       0.88601178 </v>
    <v>       0.30457663       0.37057689       0.60461640 </v>
    <v>       0.18919206       0.29365376       0.74531406 </v>
    <v>       0.16170177       0.16666667       0.00000000 </v>
    <v>       0.45842290       0.13980760       0.60461640 </v>
    <v>       0.34303820       0.06288448       0.74531406 </v>
    <v>       0.16170174       0.00000000       0.16811179 </v>
    <v>       0.22765362       0.98596156       0.60461640 </v>
    <v>       0.11226893       0.90903837       0.74531406 </v>
    <v>       0.66170186       0.83333331       0.16811179 </v>
    <v>       0.38149977       0.75519234       0.60461640 </v>
    <v>       0.26611507       0.67826915       0.74531406 </v>
    <v>       0.99503505       0.50000000       0.16811179 </v>
    <v>       0.53534603       0.52442300       0.60461640 </v>
    <v>       0.41996121       0.44749990       0.74531406 </v>
    <v>       0.30457663       0.37057677       0.88601178 </v>
    <v>       0.74503505       0.41666672       0.25216761 </v>
    <v>       0.57380748       0.21673062       0.74531406 </v>
    <v>       0.99503511       0.33333334       0.00000000 </v>
    <v>       0.84303832       0.06288454       0.60461640 </v>
    <v>       0.72765350       0.98596138       0.74531406 </v>
    <v>       0.61226893       0.90903825       0.88601178 </v>
    <v>       0.61226916       0.90903848       0.60461640 </v>
    <v>       0.49688435       0.83211535       0.74531406 </v>
    <v>       0.16170174       0.33333334       0.16811179 </v>
    <v>       0.76611519       0.67826915       0.60461640 </v>
    <v>       0.65073061       0.60134602       0.74531406 </v>
    <v>       0.99503511       0.66666669       0.00000000 </v>
    <v>       0.91996121       0.44749999       0.60461640 </v>
    <v>       0.80457663       0.37057683       0.74531406 </v>
    <v>       0.91170174       0.75000006       0.08405589 </v>
   </varray>
  </structure>
  <varray name="primitive_index" >
   <v type="int" >        1 </v>
   <v type="int" >        2 </v>
   <v type="int" >        3 </v>
   <v type="int" >        4 </v>
   <v type="int" >        5 </v>
   <v type="int" >        6 </v>
   <v type="int" >        7 </v>
   <v type="int" >        8 </v>
   <v type="int" >        9 </v>
   <v type="int" >       10 </v>
   <v type="int" >       11 </v>
   <v type="int" >       12 </v>
   <v type="int" >       13 </v>
   <v type="int" >       14 </v>
   <v type="int" >       15 </v>
   <v type="int" >       16 </v>
   <v type="int" >       17 </v>
   <v type="int" >       18 </v>
   <v type="int" >       19 </v>
   <v type="int" >       20 </v>
   <v type="int" >       21 </v>
   <v type="int" >       22 </v>
   <v type="int" >       23 </v>
   <v type="int" >       24 </v>
   <v type="int" >       25 </v>
   <v type="int" >       26 </v>
   <v type="int" >       27 </v>
   <v type="int" >       28 </v>
   <v type="int" >       29 </v>
   <v type="int" >       30 </v>
   <v type="int" >       31 </v>
   <v type="int" >       32 </v>
   <v type="int" >       33 </v>
   <v type="int" >       34 </v>
   <v type="int" >       35 </v>
   <v type="int" >       36 </v>
   <v type="int" >       37 </v>
   <v type="int" >       38 </v>
   <v type="int" >       39 </v>
   <v type="int" >       40 </v>
   <v type="int" >       41 </v>
   <v type="int" >       42 </v>
   <v type="int" >       43 </v>
   <v type="int" >       44 </v>
   <v type="int" >       45 </v>
   <v type="int" >       46 </v>
   <v type="int" >       47 </v>
   <v type="int" >       48 </v>
   <v type="int" >       49 </v>
   <v type="int" >       50 </v>
   <v type="int" >       51 </v>
   <v type="int" >       52 </v>
   <v type="int" >       53 </v>
   <v type="int" >       54 </v>
   <v type="int" >       55 </v>
   <v type="int" >       56 </v>
   <v type="int" >       57 </v>
   <v type="int" >       58 </v>
   <v type="int" >       59 </v>
   <v type="int" >       60 </v>
   <v type="int" >       61 </v>
   <v type="int" >       62 </v>
   <v type="int" >       63 </v>
   <v type="int" >       64 </v>
   <v type="int" >       65 </v>
   <v type="int" >       66 </v>
   <v type="int" >       67 </v>
   <v type="int" >       68 </v>
   <v type="int" >       69 </v>
   <v type="int" >       70 </v>
   <v type="int" >       71 </v>
   <v type="int" >       72 </v>
   <v type="int" >       73 </v>
   <v type="int" >       74 </v>
   <v type="int" >       75 </v>
   <v type="int" >       76 </v>
   <v type="int" >       77 </v>
   <v type="int" >       78 </v>
   <v type="int" >       79 </v>
   <v type="int" >       80 </v>
   <v type="int" >       81 </v>
   <v type="int" >       82 </v>
   <v type="int" >       83 </v>
   <v type="int" >       84 </v>
   <v type="int" >       85 </v>
   <v type="int" >       86 </v>
   <v type="int" >       87 </v>
   <v type="int" >       88 </v>
   <v type="int" >       89 </v>
   <v type="int" >       90 </v>
   <v type="int" >       91 </v>
   <v type="int" >       92 </v>
   <v type="int" >       93 </v>
   <v type="int" >       94 </v>
   <v type="int" >       95 </v>
   <v type="int" >       96 </v>
   <v type="int" >       97 </v>
   <v type="int" >       98 </v>
   <v type="int" >       99 </v>
   <v type="int" >      100 </v>
   <v type="int" >      101 </v>
   <v type="int" >      102 </v>
   <v type="int" >      103 </v>
   <v type="int" >      104 </v>
   <v type="int" >      105 </v>
   <v type="int" >      106 </v>
   <v type="int" >      107 </v>
   <v type="int" >      108 </v>
   <v type="int" >      109 </v>
   <v type="int" >      110 </v>
   <v type="int" >      111 </v>
   <v type="int" >      112 </v>
   <v type="int" >      113 </v>
   <v type="int" >      114 </v>
   <v type="int" >      115 </v>
   <v type="int" >      116 </v>
   <v type="int" >      117 </v>
   <v type="int" >      118 </v>
   <v type="int" >      119 </v>
   <v type="int" >      120 </v>
   <v type="int" >      121 </v>
   <v type="int" >      122 </v>
   <v type="int" >      123 </v>
   <v type="int" >      124 </v>
   <v type="int" >      125 </v>
   <v type="int" >      126 </v>
   <v type="int" >      127 </v>
   <v type="int" >      128 </v>
   <v type="int" >      129 </v>
   <v type="int" >      130 </v>
   <v type="int" >      131 </v>
   <v type="int" >      132 </v>
   <v type="int" >      133 </v>
   <v type="int" >      134 </v>
   <v type="int" >      135 </v>
   <v type="int" >      136 </v>
   <v type="int" >      137 </v>
   <v type="int" >      138 </v>
   <v type="int" >      139 </v>
   <v type="int" >      140 </v>
   <v type="int" >      141 </v>
   <v type="int" >      142 </v>
   <v type="int" >      143 </v>
   <v type="int" >      144 </v>
   <v type="int" >      145 </v>
   <v type="int" >      146 </v>
   <v type="int" >      147 </v>
   <v type="int" >      148 </v>
   <v type="int" >      149 </v>
   <v type="int" >      150 </v>
   <v type="int" >      151 </v>
   <v type="int" >      152 </v>
   <v type="int" >      153 </v>
   <v type="int" >      154 </v>
   <v type="int" >      155 </v>
   <v type="int" >      156 </v>
   <v type="int" >      157 </v>
   <v type="int" >      158 </v>
   <v type="int" >      159 </v>
   <v type="int" >      160 </v>
   <v type="int" >      161 </v>
   <v type="int" >      162 </v>
   <v type="int" >      163 </v>
   <v type="int" >      164 </v>
   <v type="int" >      165 </v>
   <v type="int" >      166 </v>
   <v type="int" >      167 </v>
   <v type="int" >      168 </v>
   <v type="int" >      169 </v>
   <v type="int" >      170 </v>
   <v type="int" >      171 </v>
   <v type="int" >      172 </v>
   <v type="int" >      173 </v>
   <v type="int" >      174 </v>
   <v type="int" >      175 </v>
   <v type="int" >      176 </v>
   <v type="int" >      177 </v>
   <v type="int" >      178 </v>
   <v type="int" >      179 </v>
   <v type="int" >      180 </v>
   <v type="int" >      181 </v>
   <v type="int" >      182 </v>
   <v type="int" >      183 </v>
   <v type="int" >      184 </v>
   <v type="int" >      185 </v>
   <v type="int" >      186 </v>
   <v type="int" >      187 </v>
   <v type="int" >      188 </v>
   <v type="int" >      189 </v>
   <v type="int" >      190 </v>
   <v type="int" >      191 </v>
   <v type="int" >      192 </v>
   <v type="int" >      193 </v>
   <v type="int" >      194 </v>
   <v type="int" >      195 </v>
   <v type="int" >      196 </v>
   <v type="int" >      197 </v>
   <v type="int" >      198 </v>
   <v type="int" >      199 </v>
   <v type="int" >      200 </v>
   <v type="int" >      201 </v>
   <v type="int" >      202 </v>
   <v type="int" >      203 </v>
   <v type="int" >      204 </v>
   <v type="int" >      205 </v>
   <v type="int" >      206 </v>
   <v type="int" >      207 </v>
   <v type="int" >      208 </v>
   <v type="int" >      209 </v>
   <v type="int" >      210 </v>
   <v type="int" >      211 </v>
   <v type="int" >      212 </v>
   <v type="int" >      213 </v>
   <v type="int" >      214 </v>
   <v type="int" >      215 </v>
   <v type="int" >      216 </v>
   <v type="int" >      217 </v>
   <v type="int" >      218 </v>
   <v type="int" >      219 </v>
   <v type="int" >      220 </v>
   <v type="int" >      221 </v>
   <v type="int" >      222 </v>
   <v type="int" >      223 </v>
   <v type="int" >      224 </v>
   <v type="int" >      225 </v>
   <v type="int" >      226 </v>
   <v type="int" >      227 </v>
   <v type="int" >      228 </v>
   <v type="int" >      229 </v>
   <v type="int" >      230 </v>
   <v type="int" >      231 </v>
   <v type="int" >      232 </v>
   <v type="int" >      233 </v>
   <v type="int" >      234 </v>
   <v type="int" >      235 </v>
   <v type="int" >      236 </v>
   <v type="int" >      237 </v>
   <v type="int" >      238 </v>
   <v type="int" >      239 </v>
   <v type="int" >      240 </v>
   <v type="int" >      241 </v>
   <v type="int" >      242 </v>
   <v type="int" >      243 </v>
   <v type="int" >      244 </v>
   <v type="int" >      245 </v>
   <v type="int" >      246 </v>
   <v type="int" >      247 </v>
   <v type="int" >      248 </v>
   <v type="int" >      249 </v>
   <v type="int" >      250 </v>
   <v type="int" >      251 </v>
   <v type="int" >      252 </v>
   <v type="int" >      253 </v>
   <v type="int" >      254 </v>
   <v type="int" >      255 </v>
   <v type="int" >      256 </v>
   <v type="int" >      257 </v>
   <v type="int" >      258 </v>
   <v type="int" >      259 </v>
   <v type="int" >      260 </v>
   <v type="int" >      261 </v>
   <v type="int" >      262 </v>
   <v type="int" >      263 </v>
   <v type="int" >      264 </v>
  </varray>
 </primitive_cell>
 <kpoints>
  <generation param="Gamma">
   <v type="int" name="divisions">       2        2        2 </v>
   <v name="usershift">      0.00000000       0.00000000       0.00000000 </v>
   <v name="genvec1">      0.50000000       0.00000000       0.00000000 </v>
   <v name="genvec2">      0.00000000       0.50000000       0.00000000 </v>
   <v name="genvec3">      0.00000000       0.00000000       0.50000000 </v>
   <v name="shift">      0.00000000       0.00000000       0.00000000 </v>
  </generation>
  <varray name="kpointlist" >
   <v>       0.00000000       0.00000000       0.00000000 </v>
   <v>       0.50000000       0.00000000       0.00000000 </v>
   <v>       0.00000000       0.50000000       0.00000000 </v>
   <v>       0.50000000       0.50000000       0.00000000 </v>
   <v>       0.00000000       0.00000000       0.50000000 </v>
   <v>       0.50000000       0.00000000       0.50000000 </v>
   <v>       0.00000000       0.50000000       0.50000000 </v>
   <v>       0.50000000       0.50000000       0.50000000 </v>
  </varray>
  <varray name="weights" >
   <v>       0.12500000 </v>
   <v>       0.12500000 </v>
   <v>       0.12500000 </v>
   <v>       0.12500000 </v>
   <v>       0.12500000 </v>
   <v>       0.12500000 </v>
   <v>       0.12500000 </v>
   <v>       0.12500000 </v>
  </varray>
 </kpoints>
 <parameters>
  <separator name="general" >
   <i type="string" name="SYSTEM">Si and Ge interface calculation</i>
   <i type="logical" name="LCOMPAT"> F  </i>
  </separator>
  <separator name="electronic" >
   <i type="string" name="PREC">normal</i>
   <i name="ENMAX">    700.00000000</i>
   <i name="ENAUG">    900.00000000</i>
   <i name="EDIFF">      0.00000010</i>
   <i type="int" name="IALGO">    38</i>
   <i type="int" name="IWAVPR">    10</i>
   <i type="int" name="NBANDS">   636</i>
   <i type="int" name="NBANDSLOW">    -1</i>
   <i type="int" name="NBANDSHIGH">    -1</i>
   <i name="NELECT">   1056.00000000</i>
   <i type="int" name="TURBO">     0</i>
   <i type="int" name="IRESTART">     0</i>
   <i type="int" name="NREBOOT">     0</i>
   <i type="int" name="NMIN">     0</i>
   <i name="EREF">      0.00000000</i>
   <separator name="electronic smearing" >
    <i type="int" name="ISMEAR">     0</i>
    <i name="SIGMA">      0.01000000</i>
    <i name="KSPACING">      0.50000000</i>
    <i type="logical" name="KGAMMA"> T  </i>
    <i type="logical" name="KBLOWUP"> T  </i>
   </separator>
   <separator name="electronic projectors" >
    <i type="logical" name="LREAL"> T  </i>
    <v name="ROPT">     -0.00050000     -0.00050000</v>
    <i type="int" name="LMAXPAW">  -100</i>
    <i type="int" name="LMAXMIX">     6</i>
    <i type="logical" name="NLSPLINE"> F  </i>
   </separator>
   <separator name="electronic startup" >
    <i type="int" name="ISTART">     0</i>
    <i type="int" name="ICHARG">     2</i>
    <i type="int" name="INIWAV">     1</i>
   </separator>
   <separator name="electronic spin" >
    <i type="int" name="ISPIN">     2</i>
    <i type="logical" name="LNONCOLLINEAR"> F  </i>
    <v name="MAGMOM">      0.00378788      0.00378788      0.00378788      0.00378788      0.00378788      0.00378788      0.00378788      0.00378788      0.00378788      0.00378788      0.00378788      0.00378788      0.00378788      0.00378788      0.00378788      0.00378788      0.00378788      0.00378788      0.00378788      0.00378788
      0.00378788      0.00378788      0.00378788      0.00378788      0.00378788      0.00378788      0.00378788      0.00378788      0.00378788      0.00378788      0.00378788      0.00378788      0.00378788      0.00378788      0.00378788      0.00378788      0.00378788      0.00378788      0.00378788      0.00378788
      0.00378788      0.00378788      0.00378788      0.00378788      0.00378788      0.00378788      0.00378788      0.00378788      0.00378788      0.00378788      0.00378788      0.00378788      0.00378788      0.00378788      0.00378788      0.00378788      0.00378788      0.00378788      0.00378788      0.00378788
      0.00378788      0.00378788      0.00378788      0.00378788      0.00378788      0.00378788      0.00378788      0.00378788      0.00378788      0.00378788      0.00378788      0.00378788      0.00378788      0.00378788      0.00378788      0.00378788      0.00378788      0.00378788      0.00378788      0.00378788
      0.00378788      0.00378788      0.00378788      0.00378788      0.00378788      0.00378788      0.00378788      0.00378788      0.00378788      0.00378788      0.00378788      0.00378788      0.00378788      0.00378788      0.00378788      0.00378788      0.00378788      0.00378788      0.00378788      0.00378788
      0.00378788      0.00378788      0.00378788      0.00378788      0.00378788      0.00378788      0.00378788      0.00378788      0.00378788      0.00378788      0.00378788      0.00378788      0.00378788      0.00378788      0.00378788      0.00378788      0.00378788      0.00378788      0.00378788      0.00378788
      0.00378788      0.00378788      0.00378788      0.00378788      0.00378788      0.00378788      0.00378788      0.00378788      0.00378788      0.00378788      0.00378788      0.00378788      0.00378788      0.00378788      0.00378788      0.00378788      0.00378788      0.00378788      0.00378788      0.00378788
      0.00378788      0.00378788      0.00378788      0.00378788      0.00378788      0.00378788      0.00378788      0.00378788      0.00378788      0.00378788      0.00378788      0.00378788      0.00378788      0.00378788      0.00378788      0.00378788      0.00378788      0.00378788      0.00378788      0.00378788
      0.00378788      0.00378788      0.00378788      0.00378788      0.00378788      0.00378788      0.00378788      0.00378788      0.00378788      0.00378788      0.00378788      0.00378788      0.00378788      0.00378788      0.00378788      0.00378788      0.00378788      0.00378788      0.00378788      0.00378788
      0.00378788      0.00378788      0.00378788      0.00378788      0.00378788      0.00378788      0.00378788      0.00378788      0.00378788      0.00378788      0.00378788      0.00378788      0.00378788      0.00378788      0.00378788      0.00378788      0.00378788      0.00378788      0.00378788      0.00378788
      0.00378788      0.00378788      0.00378788      0.00378788      0.00378788      0.00378788      0.00378788      0.00378788      0.00378788      0.00378788      0.00378788      0.00378788      0.00378788      0.00378788      0.00378788      0.00378788      0.00378788      0.00378788      0.00378788      0.00378788
      0.00378788      0.00378788      0.00378788      0.00378788      0.00378788      0.00378788      0.00378788      0.00378788      0.00378788      0.00378788      0.00378788      0.00378788      0.00378788      0.00378788      0.00378788      0.00378788      0.00378788      0.00378788      0.00378788      0.00378788
      0.00378788      0.00378788      0.00378788      0.00378788      0.00378788      0.00378788      0.00378788      0.00378788      0.00378788      0.00378788      0.00378788      0.00378788      0.00378788      0.00378788      0.00378788      0.00378788      0.00378788      0.00378788      0.00378788      0.00378788
      0.00378788      0.00378788      0.00378788      0.00378788</v>
    <i name="NUPDOWN">      1.00000000</i>
    <i type="logical" name="LSORBIT"> F  </i>
    <v name="SAXIS">      0.00000000      0.00000000      1.00000000</v>
    <i type="logical" name="LSPIRAL"> F  </i>
    <v name="QSPIRAL">      0.00000000      0.00000000      0.00000000</v>
    <i type="logical" name="LZEROZ"> F  </i>
   </separator>
   <separator name="electronic exchange-correlation" >
    <i type="logical" name="LASPH"> T  </i>
   </separator>
   <separator name="electronic convergence" >
    <i type="int" name="NELM">   100</i>
    <i type="int" name="NELMDL">    -5</i>
    <i type="int" name="NELMIN">     2</i>
    <i name="ENINI">    700.00000000</i>
    <separator name="electronic convergence detail" >
     <i type="logical" name="LDIAG"> T  </i>
     <i type="logical" name="LSUBROT"> F  </i>
     <i name="WEIMIN">      0.00000000</i>
     <i name="EBREAK">      0.00000000</i>
     <i name="DEPER">      0.30000000</i>
     <i type="int" name="NRMM">     4</i>
     <i name="TIME">      0.40000000</i>
    </separator>
   </separator>
   <separator name="electronic mixer" >
    <i name="AMIX">      0.60000000</i>
    <i name="BMIX">      1.00000000</i>
    <i name="AMIN">      0.10000000</i>
    <i name="AMIX_MAG">      2.40000000</i>
    <i name="BMIX_MAG">      1.00000000</i>
    <separator name="electronic mixer details" >
     <i type="int" name="IMIX">     4</i>
     <i type="logical" name="MIXFIRST"> F  </i>
     <i type="int" name="MAXMIX">   -45</i>
     <i name="WC">    100.00000000</i>
     <i type="int" name="INIMIX">     1</i>
     <i type="int" name="MIXPRE">     1</i>
     <i type="int" name="MREMOVE">     5</i>
    </separator>
   </separator>
   <separator name="electronic dipolcorrection" >
    <i type="logical" name="LDIPOL"> F  </i>
    <i type="logical" name="LMONO"> F  </i>
    <i type="int" name="IDIPOL">     0</i>
    <i name="EPSILON">      1.00000000</i>
    <v name="DIPOL">   -100.00000000   -100.00000000   -100.00000000</v>
    <i name="EFIELD">      0.00000000</i>
    <i type="logical" name="LVACPOTAV"> F  </i>
   </separator>
  </separator>
  <separator name="grids" >
   <i type="int" name="NGX">   126</i>
   <i type="int" name="NGY">   126</i>
   <i type="int" name="NGZ">   126</i>
   <i type="int" name="NGXF">   252</i>
   <i type="int" name="NGYF">   252</i>
   <i type="int" name="NGZF">   252</i>
   <i type="logical" name="ADDGRID"> T  </i>
  </separator>
  <separator name="ionic" >
   <i type="int" name="NSW">     0</i>
   <i type="int" name="IBRION">    -1</i>
   <i type="int" name="MDALGO">     0</i>
   <i type="int" name="ISIF">     2</i>
   <i name="PSTRESS">      0.00000000</i>
   <i name="EDIFFG">      0.00000100</i>
   <i type="int" name="NFREE">     0</i>
   <i name="POTIM">      0.50000000</i>
   <i name="SMASS">     -3.00000000</i>
   <i name="SCALEE">      1.00000000</i>
  </separator>
  <separator name="ionic md" >
   <i name="TEBEG">      0.00010000</i>
   <i name="TEEND">      0.00010000</i>
   <i type="int" name="NBLOCK">     1</i>
   <i type="int" name="KBLOCK">     1</i>
   <i type="int" name="NPACO">   256</i>
   <i name="APACO">     10.00000000</i>
  </separator>
  <separator name="symmetry" >
   <i type="int" name="ISYM">     2</i>
   <i name="SYMPREC">      0.00001000</i>
  </separator>
  <separator name="dos" >
   <i type="int" name="LORBIT">     0</i>
   <v name="RWIGS">     -1.00000000     -1.00000000</v>
   <i type="int" name="NEDOS">   301</i>
   <i name="EMIN">     10.00000000</i>
   <i name="EMAX">    -10.00000000</i>
   <i name="EFERMI">      0.00000000</i>
  </separator>
  <separator name="writing" >
   <i type="int" name="NWRITE">     2</i>
   <i type="logical" name="LWAVE"> F  </i>
   <i type="logical" name="LDOWNSAMPLE"> F  </i>
   <i type="logical" name="LCHARG"> T  </i>
   <i type="logical" name="LPARD"> F  </i>
   <i type="logical" name="LVTOT"> F  </i>
   <i type="logical" name="LVHAR"> T  </i>
   <i type="logical" name="LELF"> F  </i>
   <i type="logical" name="LOPTICS"> F  </i>
   <v name="STM">      0.00000000      0.00000000      0.00000000      0.00000000      0.00000000      0.00000000      0.00000000</v>
  </separator>
  <separator name="performance" >
   <i type="int" name="NPAR">     4</i>
   <i type="int" name="NSIM">     4</i>
   <i type="int" name="NBLK">    -1</i>
   <i type="logical" name="LPLANE"> T  </i>
   <i type="logical" name="LSCALAPACK"> T  </i>
   <i type="logical" name="LSCAAWARE"> F  </i>
   <i type="logical" name="LSCALU"> F  </i>
   <i type="logical" name="LASYNC"> F  </i>
   <i type="logical" name="LORBITALREAL"> F  </i>
  </separator>
  <separator name="miscellaneous" >
   <i type="int" name="IDIOT">     3</i>
   <i type="int" name="PHON_NSTRUCT">    -1</i>
   <i type="logical" name="LMUSIC"> F  </i>
   <v name="POMASS">    118.71000000     28.08500000</v>
   <v name="DARWINR">      0.00000000      0.00000000</v>
   <v name="DARWINV">      1.00000000      1.00000000</v>
   <i type="logical" name="LCORR"> T  </i>
  </separator>
  <i type="logical" name="GGA_COMPAT"> T  </i>
  <i type="logical" name="LBERRY"> F  </i>
  <i type="int" name="ICORELEVEL">     0</i>
  <i type="logical" name="LDAU"> F  </i>
  <i type="int" name="I_CONSTRAINED_M">     0</i>
  <separator name="electronic exchange-correlation" >
   <i type="string" name="GGA    ">PE</i>
   <i type="string" name="XC_C">1</i>
   <i type="int" name="VOSKOWN">     0</i>
   <i type="logical" name="LHFCALC"> F  </i>
   <i type="string" name="PRECFOCK"></i>
   <i type="logical" name="LSYMGRAD"> F  </i>
   <i type="logical" name="LHFONE"> F  </i>
   <i type="logical" name="LRHFCALC"> F  </i>
   <i type="logical" name="LTHOMAS"> F  </i>
   <i type="logical" name="LMODELHF"> F  </i>
   <i type="logical" name="LFOCKACE"> F  </i>
   <i name="ENCUT4O">     -1.00000000</i>
   <i type="int" name="EXXOEP">     0</i>
   <i type="int" name="FOURORBIT">     0</i>
   <i name="AEXX">      0.00000000</i>
   <i name="HFALPHA">      0.00000000</i>
   <i name="MCALPHA">      0.00000000</i>
   <i name="ALDAX">      1.00000000</i>
   <i name="AGGAX">      1.00000000</i>
   <i name="AMGGAX">      1.00000000</i>
   <i name="ALDAC">      1.00000000</i>
   <i name="AGGAC">      1.00000000</i>
   <i name="AMGGAC">      1.00000000</i>
   <i type="int" name="NKREDX">     1</i>
   <i type="int" name="NKREDY">     1</i>
   <i type="int" name="NKREDZ">     1</i>
   <i type="logical" name="SHIFTRED"> F  </i>
   <i type="logical" name="ODDONLY"> F  </i>
   <i type="logical" name="EVENONLY"> F  </i>
   <i type="int" name="LMAXFOCK">     0</i>
   <i type="int" name="NMAXFOCKAE">     0</i>
   <i type="logical" name="LFOCKAEDFT"> F  </i>
   <i name="HFSCREEN">      0.00000000</i>
   <i name="HFSCREENC">      0.00000000</i>
   <i type="int" name="NBANDSGWLOW">     0</i>
  </separator>
  <separator name="vdW DFT" >
   <i type="logical" name="LUSE_VDW"> F  </i>
   <i type="int" name="IVDW_NL">    -1</i>
   <i type="logical" name="LSPIN_VDW"> F  </i>
   <i name="ZAB_VDW">     -0.84910000</i>
   <i name="GAMMA_VDW">      1.39626340</i>
   <i name="ALPHA_VDW">      0.00000000</i>
   <i name="PARAM1">      0.12340000</i>
   <i name="PARAM2">      1.00000000</i>
   <i name="BPARAM">      6.30000000</i>
   <i name="CPARAM">      0.00930000</i>
  </separator>
  <separator name="model GW" >
   <i type="int" name="MODEL_GW">     0</i>
   <i name="MODEL_EPS0">     16.62398530</i>
   <i name="MODEL_ALPHA">      1.00000000</i>
  </separator>
  <separator name="linear response parameters" >
   <i type="logical" name="LEPSILON"> F  </i>
   <i type="logical" name="LRPA"> F  </i>
   <i type="logical" name="LNABLA"> F  </i>
   <i type="logical" name="LVEL"> F  </i>
   <i name="CSHIFT">      0.10000000</i>
   <i name="OMEGAMAX">     -1.00000000</i>
   <i name="DEG_THRESHOLD">      0.00200000</i>
   <i name="RTIME">     -0.10000000</i>
   <i name="WPLASMAI">      0.00000000</i>
   <v name="DFIELD">      0.00000000      0.00000000      0.00000000</v>
   <v name="WPLASMA">      0.00000000      0.00000000      0.00000000      0.00000000      0.00000000      0.00000000      0.00000000      0.00000000      0.00000000</v>
  </separator>
  <separator name="orbital magnetization" >
   <i type="logical" name="NUCIND"> F  </i>
   <v name="MAGPOS">      0.00000000      0.00000000      0.00000000</v>
   <i type="logical" name="LNICSALL"> T  </i>
   <i type="logical" name="ORBITALMAG"> F  </i>
   <i type="logical" name="LMAGBLOCH"> F  </i>
   <i type="logical" name="LCHIMAG"> F  </i>
   <i type="logical" name="LGAUGE"> T  </i>
   <i type="int" name="MAGATOM">     0</i>
   <v name="MAGDIPOL">      0.00000000      0.00000000      0.00000000</v>
   <v name="AVECCONST">      0.00000000      0.00000000      0.00000000</v>
  </separator>
  <separator name="response functions" >
   <i type="logical" name="LALL_IN_ONE"> F  </i>
   <i type="int" name="IALL_IN_ONE">    -1</i>
   <i type="int" name="NBANDS_WAVE">    -1</i>
   <i type="logical" name="LFINITE_TEMPERATURE"> F  </i>
   <i type="logical" name="LADDER"> F  </i>
   <i type="logical" name="LRPAFORCE"> F  </i>
   <i type="logical" name="LFXC"> F  </i>
   <i type="logical" name="LHARTREE"> T  </i>
   <i type="int" name="IBSE">     0</i>
   <v type="int" name="KPOINT">    -1     0     0     0</v>
   <i type="logical" name="LTCTC"> F  </i>
   <i type="logical" name="LTCTE"> F  </i>
   <i type="logical" name="LTETE"> F  </i>
   <i type="logical" name="LTRIPLET"> F  </i>
   <i type="logical" name="LFXCEPS"> F  </i>
   <i type="logical" name="LFXHEG"> F  </i>
   <i type="int" name="NATURALO">     2</i>
   <i type="logical" name="LHOLEGF"> F  </i>
   <i type="logical" name="L2ORDER"> F  </i>
   <i type="logical" name="LDMP1"> F  </i>
   <i type="logical" name="LMP2LT"> F  </i>
   <i type="logical" name="LSMP2LT"> F  </i>
   <i type="logical" name="LGWLF"> F  </i>
   <i name="ENCUTGW">     -1.60000002</i>
   <i name="ENCUTGWSOFT">     -1.60000002</i>
   <i name="ENCUTLF">     -1.00000000</i>
   <i type="logical" name="ESF_SPLINES"> F  </i>
   <i name="ESF_CONV">      0.01000000</i>
   <i type="int" name="ESF_NINTER">    15</i>
   <i type="int" name="LMAXMP2">    -1</i>
   <i name="SCISSOR">      0.00000000</i>
   <i type="int" name="NOMEGA">     0</i>
   <i type="int" name="NOMEGAR">     0</i>
   <i type="int" name="NBANDSGW">    -1</i>
   <i type="int" name="NBANDSO">    -1</i>
   <i type="int" name="NBANDSV">    -1</i>
   <i type="int" name="NELMGW">     1</i>
   <i type="int" name="NELMHF">     1</i>
   <i type="int" name="DIM">     3</i>
   <i type="int" name="IESPILON">     4</i>
   <i type="int" name="ANTIRES">     0</i>
   <i name="OMEGAMAX">    -30.00000000</i>
   <i name="OMEGAMIN">    -30.00000000</i>
   <i name="OMEGATL">   -200.00000000</i>
   <i type="int" name="OMEGAGRID">     0</i>
   <i name="CSHIFT">     -0.10000000</i>
   <i type="logical" name="LSELFENERGY"> F  </i>
   <i type="logical" name="LSPECTRAL"> F  </i>
   <i type="logical" name="LSPECTRALGW"> F  </i>
   <i type="logical" name="LSINGLES"> F  </i>
   <i type="logical" name="LFERMIGW"> F  </i>
   <i type="logical" name="ODDONLYGW"> F  </i>
   <i type="logical" name="EVENONLYGW"> F  </i>
   <i type="int" name="NKREDLFX">     1</i>
   <i type="int" name="NKREDLFY">     1</i>
   <i type="int" name="NKREDLFZ">     1</i>
   <i type="int" name="MAXMEM">  2800</i>
   <i type="int" name="TELESCOPE">     0</i>
   <i type="int" name="NTAUPAR">    -1</i>
   <i type="int" name="NOMEGAPAR">    -1</i>
   <i name="DAMP_NEWTON">      0.80000001</i>
   <i name="LAMBDA">      1.00000000</i>
  </separator>
  <separator name="External order field" >
   <i name="OFIELD_KAPPA">      0.00000000</i>
   <v name="OFIELD_K">      0.00000000      0.00000000      0.00000000</v>
   <i name="OFIELD_Q6_NEAR">      0.00000000</i>
   <i name="OFIELD_Q6_FAR">      0.00000000</i>
   <i name="OFIELD_A">      0.00000000</i>
  </separator>
  <separator name="optional k-points parameters" >
   <i type="int" name="KPOINTS_OPT_MODE">     1</i>
   <i type="logical" name="LKPOINTS_OPT"> F  </i>
  </separator>
 </parameters>
 <atominfo>
  <atoms>     264 </atoms>
  <types>       2 </types>
  <array name="atoms" >
   <dimension dim="1">ion</dimension>
   <field type="string">element</field>
   <field type="int">atomtype</field>
   <set>
    <rc><c>Sn</c><c>   1</c></rc>
    <rc><c>Sn</c><c>   1</c></rc>
    <rc><c>Sn</c><c>   1</c></rc>
    <rc><c>Sn</c><c>   1</c></rc>
    <rc><c>Sn</c><c>   1</c></rc>
    <rc><c>Sn</c><c>   1</c></rc>
    <rc><c>Sn</c><c>   1</c></rc>
    <rc><c>Sn</c><c>   1</c></rc>
    <rc><c>Sn</c><c>   1</c></rc>
    <rc><c>Sn</c><c>   1</c></rc>
    <rc><c>Sn</c><c>   1</c></rc>
    <rc><c>Sn</c><c>   1</c></rc>
    <rc><c>Sn</c><c>   1</c></rc>
    <rc><c>Sn</c><c>   1</c></rc>
    <rc><c>Sn</c><c>   1</c></rc>
    <rc><c>Sn</c><c>   1</c></rc>
    <rc><c>Sn</c><c>   1</c></rc>
    <rc><c>Sn</c><c>   1</c></rc>
    <rc><c>Sn</c><c>   1</c></rc>
    <rc><c>Sn</c><c>   1</c></rc>
    <rc><c>Sn</c><c>   1</c></rc>
    <rc><c>Sn</c><c>   1</c></rc>
    <rc><c>Sn</c><c>   1</c></rc>
    <rc><c>Sn</c><c>   1</c></rc>
    <rc><c>Sn</c><c>   1</c></rc>
    <rc><c>Sn</c><c>   1</c></rc>
    <rc><c>Sn</c><c>   1</c></rc>
    <rc><c>Sn</c><c>   1</c></rc>
    <rc><c>Sn</c><c>   1</c></rc>
    <rc><c>Sn</c><c>   1</c></rc>
    <rc><c>Sn</c><c>   1</c></rc>
    <rc><c>Sn</c><c>   1</c></rc>
    <rc><c>Sn</c><c>   1</c></rc>
    <rc><c>Sn</c><c>   1</c></rc>
    <rc><c>Sn</c><c>   1</c></rc>
    <rc><c>Sn</c><c>   1</c></rc>
    <rc><c>Sn</c><c>   1</c></rc>
    <rc><c>Sn</c><c>   1</c></rc>
    <rc><c>Sn</c><c>   1</c></rc>
    <rc><c>Sn</c><c>   1</c></rc>
    <rc><c>Sn</c><c>   1</c></rc>
    <rc><c>Sn</c><c>   1</c></rc>
    <rc><c>Sn</c><c>   1</c></rc>
    <rc><c>Sn</c><c>   1</c></rc>
    <rc><c>Sn</c><c>   1</c></rc>
    <rc><c>Sn</c><c>   1</c></rc>
    <rc><c>Sn</c><c>   1</c></rc>
    <rc><c>Sn</c><c>   1</c></rc>
    <rc><c>Sn</c><c>   1</c></rc>
    <rc><c>Sn</c><c>   1</c></rc>
    <rc><c>Sn</c><c>   1</c></rc>
    <rc><c>Sn</c><c>   1</c></rc>
    <rc><c>Sn</c><c>   1</c></rc>
    <rc><c>Sn</c><c>   1</c></rc>
    <rc><c>Sn</c><c>   1</c></rc>
    <rc><c>Sn</c><c>   1</c></rc>
    <rc><c>Sn</c><c>   1</c></rc>
    <rc><c>Sn</c><c>   1</c></rc>
    <rc><c>Sn</c><c>   1</c></rc>
    <rc><c>Sn</c><c>   1</c></rc>
    <rc><c>Sn</c><c>   1</c></rc>
    <rc><c>Sn</c><c>   1</c></rc>
    <rc><c>Sn</c><c>   1</c></rc>
    <rc><c>Sn</c><c>   1</c></rc>
    <rc><c>Sn</c><c>   1</c></rc>
    <rc><c>Sn</c><c>   1</c></rc>
    <rc><c>Sn</c><c>   1</c></rc>
    <rc><c>Sn</c><c>   1</c></rc>
    <rc><c>Sn</c><c>   1</c></rc>
    <rc><c>Sn</c><c>   1</c></rc>
    <rc><c>Sn</c><c>   1</c></rc>
    <rc><c>Sn</c><c>   1</c></rc>
    <rc><c>Sn</c><c>   1</c></rc>
    <rc><c>Sn</c><c>   1</c></rc>
    <rc><c>Sn</c><c>   1</c></rc>
    <rc><c>Sn</c><c>   1</c></rc>
    <rc><c>Sn</c><c>   1</c></rc>
    <rc><c>Sn</c><c>   1</c></rc>
    <rc><c>Sn</c><c>   1</c></rc>
    <rc><c>Sn</c><c>   1</c></rc>
    <rc><c>Sn</c><c>   1</c></rc>
    <rc><c>Sn</c><c>   1</c></rc>
    <rc><c>Sn</c><c>   1</c></rc>
    <rc><c>Sn</c><c>   1</c></rc>
    <rc><c>Sn</c><c>   1</c></rc>
    <rc><c>Sn</c><c>   1</c></rc>
    <rc><c>Sn</c><c>   1</c></rc>
    <rc><c>Sn</c><c>   1</c></rc>
    <rc><c>Sn</c><c>   1</c></rc>
    <rc><c>Sn</c><c>   1</c></rc>
    <rc><c>Sn</c><c>   1</c></rc>
    <rc><c>Sn</c><c>   1</c></rc>
    <rc><c>Sn</c><c>   1</c></rc>
    <rc><c>Sn</c><c>   1</c></rc>
    <rc><c>Sn</c><c>   1</c></rc>
    <rc><c>Sn</c><c>   1</c></rc>
    <rc><c>Sn</c><c>   1</c></rc>
    <rc><c>Sn</c><c>   1</c></rc>
    <rc><c>Sn</c><c>   1</c></rc>
    <rc><c>Sn</c><c>   1</c></rc>
    <rc><c>Sn</c><c>   1</c></rc>
    <rc><c>Sn</c><c>   1</c></rc>
    <rc><c>Sn</c><c>   1</c></rc>
    <rc><c>Sn</c><c>   1</c></rc>
    <rc><c>Sn</c><c>   1</c></rc>
    <rc><c>Sn</c><c>   1</c></rc>
    <rc><c>Sn</c><c>   1</c></rc>
    <rc><c>Sn</c><c>   1</c></rc>
    <rc><c>Si</c><c>   2</c></rc>
    <rc><c>Si</c><c>   2</c></rc>
    <rc><c>Si</c><c>   2</c></rc>
    <rc><c>Si</c><c>   2</c></rc>
    <rc><c>Si</c><c>   2</c></rc>
    <rc><c>Si</c><c>   2</c></rc>
    <rc><c>Si</c><c>   2</c></rc>
    <rc><c>Si</c><c>   2</c></rc>
    <rc><c>Si</c><c>   2</c></rc>
    <rc><c>Si</c><c>   2</c></rc>
    <rc><c>Si</c><c>   2</c></rc>
    <rc><c>Si</c><c>   2</c></rc>
    <rc><c>Si</c><c>   2</c></rc>
    <rc><c>Si</c><c>   2</c></rc>
    <rc><c>Si</c><c>   2</c></rc>
    <rc><c>Si</c><c>   2</c></rc>
    <rc><c>Si</c><c>   2</c></rc>
    <rc><c>Si</c><c>   2</c></rc>
    <rc><c>Si</c><c>   2</c></rc>
    <rc><c>Si</c><c>   2</c></rc>
    <rc><c>Si</c><c>   2</c></rc>
    <rc><c>Si</c><c>   2</c></rc>
    <rc><c>Si</c><c>   2</c></rc>
    <rc><c>Si</c><c>   2</c></rc>
    <rc><c>Si</c><c>   2</c></rc>
    <rc><c>Si</c><c>   2</c></rc>
    <rc><c>Si</c><c>   2</c></rc>
    <rc><c>Si</c><c>   2</c></rc>
    <rc><c>Si</c><c>   2</c></rc>
    <rc><c>Si</c><c>   2</c></rc>
    <rc><c>Si</c><c>   2</c></rc>
    <rc><c>Si</c><c>   2</c></rc>
    <rc><c>Si</c><c>   2</c></rc>
    <rc><c>Si</c><c>   2</c></rc>
    <rc><c>Si</c><c>   2</c></rc>
    <rc><c>Si</c><c>   2</c></rc>
    <rc><c>Si</c><c>   2</c></rc>
    <rc><c>Si</c><c>   2</c></rc>
    <rc><c>Si</c><c>   2</c></rc>
    <rc><c>Si</c><c>   2</c></rc>
    <rc><c>Si</c><c>   2</c></rc>
    <rc><c>Si</c><c>   2</c></rc>
    <rc><c>Si</c><c>   2</c></rc>
    <rc><c>Si</c><c>   2</c></rc>
    <rc><c>Si</c><c>   2</c></rc>
    <rc><c>Si</c><c>   2</c></rc>
    <rc><c>Si</c><c>   2</c></rc>
    <rc><c>Si</c><c>   2</c></rc>
    <rc><c>Si</c><c>   2</c></rc>
    <rc><c>Si</c><c>   2</c></rc>
    <rc><c>Si</c><c>   2</c></rc>
    <rc><c>Si</c><c>   2</c></rc>
    <rc><c>Si</c><c>   2</c></rc>
    <rc><c>Si</c><c>   2</c></rc>
    <rc><c>Si</c><c>   2</c></rc>
    <rc><c>Si</c><c>   2</c></rc>
    <rc><c>Si</c><c>   2</c></rc>
    <rc><c>Si</c><c>   2</c></rc>
    <rc><c>Si</c><c>   2</c></rc>
    <rc><c>Si</c><c>   2</c></rc>
    <rc><c>Si</c><c>   2</c></rc>
    <rc><c>Si</c><c>   2</c></rc>
    <rc><c>Si</c><c>   2</c></rc>
    <rc><c>Si</c><c>   2</c></rc>
    <rc><c>Si</c><c>   2</c></rc>
    <rc><c>Si</c><c>   2</c></rc>
    <rc><c>Si</c><c>   2</c></rc>
    <rc><c>Si</c><c>   2</c></rc>
    <rc><c>Si</c><c>   2</c></rc>
    <rc><c>Si</c><c>   2</c></rc>
    <rc><c>Si</c><c>   2</c></rc>
    <rc><c>Si</c><c>   2</c></rc>
    <rc><c>Si</c><c>   2</c></rc>
    <rc><c>Si</c><c>   2</c></rc>
    <rc><c>Si</c><c>   2</c></rc>
    <rc><c>Si</c><c>   2</c></rc>
    <rc><c>Si</c><c>   2</c></rc>
    <rc><c>Si</c><c>   2</c></rc>
    <rc><c>Si</c><c>   2</c></rc>
    <rc><c>Si</c><c>   2</c></rc>
    <rc><c>Si</c><c>   2</c></rc>
    <rc><c>Si</c><c>   2</c></rc>
    <rc><c>Si</c><c>   2</c></rc>
    <rc><c>Si</c><c>   2</c></rc>
    <rc><c>Si</c><c>   2</c></rc>
    <rc><c>Si</c><c>   2</c></rc>
    <rc><c>Si</c><c>   2</c></rc>
    <rc><c>Si</c><c>   2</c></rc>
    <rc><c>Si</c><c>   2</c></rc>
    <rc><c>Si</c><c>   2</c></rc>
    <rc><c>Si</c><c>   2</c></rc>
    <rc><c>Si</c><c>   2</c></rc>
    <rc><c>Si</c><c>   2</c></rc>
    <rc><c>Si</c><c>   2</c></rc>
    <rc><c>Si</c><c>   2</c></rc>
    <rc><c>Si</c><c>   2</c></rc>
    <rc><c>Si</c><c>   2</c></rc>
    <rc><c>Si</c><c>   2</c></rc>
    <rc><c>Si</c><c>   2</c></rc>
    <rc><c>Si</c><c>   2</c></rc>
    <rc><c>Si</c><c>   2</c></rc>
    <rc><c>Si</c><c>   2</c></rc>
    <rc><c>Si</c><c>   2</c></rc>
    <rc><c>Si</c><c>   2</c></rc>
    <rc><c>Si</c><c>   2</c></rc>
    <rc><c>Si</c><c>   2</c></rc>
    <rc><c>Si</c><c>   2</c></rc>
    <rc><c>Si</c><c>   2</c></rc>
    <rc><c>Si</c><c>   2</c></rc>
    <rc><c>Si</c><c>   2</c></rc>
    <rc><c>Si</c><c>   2</c></rc>
    <rc><c>Si</c><c>   2</c></rc>
    <rc><c>Si</c><c>   2</c></rc>
    <rc><c>Si</c><c>   2</c></rc>
    <rc><c>Si</c><c>   2</c></rc>
    <rc><c>Si</c><c>   2</c></rc>
    <rc><c>Si</c><c>   2</c></rc>
    <rc><c>Si</c><c>   2</c></rc>
    <rc><c>Si</c><c>   2</c></rc>
    <rc><c>Si</c><c>   2</c></rc>
    <rc><c>Si</c><c>   2</c></rc>
    <rc><c>Si</c><c>   2</c></rc>
    <rc><c>Si</c><c>   2</c></rc>
    <rc><c>Si</c><c>   2</c></rc>
    <rc><c>Si</c><c>   2</c></rc>
    <rc><c>Si</c><c>   2</c></rc>
    <rc><c>Si</c><c>   2</c></rc>
    <rc><c>Si</c><c>   2</c></rc>
    <rc><c>Si</c><c>   2</c></rc>
    <rc><c>Si</c><c>   2</c></rc>
    <rc><c>Si</c><c>   2</c></rc>
    <rc><c>Si</c><c>   2</c></rc>
    <rc><c>Si</c><c>   2</c></rc>
    <rc><c>Si</c><c>   2</c></rc>
    <rc><c>Si</c><c>   2</c></rc>
    <rc><c>Si</c><c>   2</c></rc>
    <rc><c>Si</c><c>   2</c></rc>
    <rc><c>Si</c><c>   2</c></rc>
    <rc><c>Si</c><c>   2</c></rc>
    <rc><c>Si</c><c>   2</c></rc>
    <rc><c>Si</c><c>   2</c></rc>
    <rc><c>Si</c><c>   2</c></rc>
    <rc><c>Si</c><c>   2</c></rc>
    <rc><c>Si</c><c>   2</c></rc>
    <rc><c>Si</c><c>   2</c></rc>
    <rc><c>Si</c><c>   2</c></rc>
    <rc><c>Si</c><c>   2</c></rc>
    <rc><c>Si</c><c>   2</c></rc>
    <rc><c>Si</c><c>   2</c></rc>
    <rc><c>Si</c><c>   2</c></rc>
    <rc><c>Si</c><c>   2</c></rc>
    <rc><c>Si</c><c>   2</c></rc>
    <rc><c>Si</c><c>   2</c></rc>
    <rc><c>Si</c><c>   2</c></rc>
    <rc><c>Si</c><c>   2</c></rc>
    <rc><c>Si</c><c>   2</c></rc>
   </set>
  </array>
  <array name="atomtypes" >
   <dimension dim="1">type</dimension>
   <field type="int">atomspertype</field>
   <field type="string">element</field>
   <field>mass</field>
   <field>valence</field>
   <field type="string">pseudopotential</field>
   <set>
    <rc><c> 108</c><c>Sn</c><c>    118.71000000</c><c>      4.00000000</c><c>  PAW_PBE Sn 08Apr2002                  </c></rc>
    <rc><c> 156</c><c>Si</c><c>     28.08500000</c><c>      4.00000000</c><c>  PAW_PBE Si 05Jan2001                  </c></rc>
   </set>
  </array>
 </atominfo>
 <structure name="initialpos" >
  <crystal>
   <varray name="basis" >
    <v>      19.46759987       0.00000000       0.00000000 </v>
    <v>       0.00000000      19.46759987       0.00000000 </v>
    <v>       0.00000000       0.00000000      19.30025291 </v>
   </varray>
   <i name="volume">   7314.55353316 </i>
   <varray name="rec_basis" >
    <v>       0.05136740       0.00000000       0.00000000 </v>
    <v>       0.00000000       0.05136740       0.00000000 </v>
    <v>       0.00000000       0.00000000       0.05181279 </v>
   </varray>
  </crystal>
  <varray name="positions" >
   <v>       0.53534579       0.52442288       0.88601178 </v>
   <v>       0.82836843       0.66666669       0.16811179 </v>
   <v>       0.66170174       0.66666669       0.33622354 </v>
   <v>       0.45842278       0.13980748       0.88601178 </v>
   <v>       0.95842272       0.63980752       0.88601178 </v>
   <v>       0.66170174       0.33333334       0.33622354 </v>
   <v>       0.99503511       0.00000000       0.00000000 </v>
   <v>       0.26611507       0.17826901       0.88601178 </v>
   <v>       0.43919206       0.54365373       0.53426754 </v>
   <v>       0.32836846       0.66666669       0.00000000 </v>
   <v>       0.16170174       0.66666669       0.16811179 </v>
   <v>       0.99503511       0.66666669       0.33622354 </v>
   <v>       0.32836846       0.33333334       0.00000000 </v>
   <v>       0.38149977       0.75519222       0.88601178 </v>
   <v>       0.99503511       0.33333334       0.33622354 </v>
   <v>       0.32836846       0.00000000       0.00000000 </v>
   <v>       0.22765350       0.98596126       0.88601178 </v>
   <v>       0.99503511       0.00000000       0.33622354 </v>
   <v>       0.66170180       0.66666669       0.00000000 </v>
   <v>       0.41996121       0.94749975       0.88601178 </v>
   <v>       0.32836846       0.66666669       0.33622354 </v>
   <v>       0.65073037       0.10134596       0.88601178 </v>
   <v>       0.03534579       0.02442288       0.88601178 </v>
   <v>       0.32836846       0.33333334       0.33622354 </v>
   <v>       0.66170180       0.00000000       0.00000000 </v>
   <v>       0.76611495       0.67826903       0.88601178 </v>
   <v>       0.32836846       0.00000000       0.33622354 </v>
   <v>       0.07836843       0.91666675       0.08405589 </v>
   <v>       0.91170180       0.91666675       0.25216761 </v>
   <v>       0.28534591       0.77442300       0.53426754 </v>
   <v>       0.07836843       0.58333343       0.08405589 </v>
   <v>       0.13149977       0.00519216       0.53426754 </v>
   <v>       0.20842290       0.38980767       0.53426754 </v>
   <v>       0.07836843       0.25000000       0.08405589 </v>
   <v>       0.97765356       0.23596150       0.53426754 </v>
   <v>       0.74503505       0.25000000       0.42027944 </v>
   <v>       0.41170177       0.91666675       0.08405589 </v>
   <v>       0.16996121       0.19749993       0.53426754 </v>
   <v>       0.07836838       0.91666675       0.42027944 </v>
   <v>       0.41170177       0.58333343       0.08405589 </v>
   <v>       0.78534591       0.27442294       0.53426754 </v>
   <v>       0.07836838       0.58333343       0.42027944 </v>
   <v>       0.41170177       0.25000000       0.08405589 </v>
   <v>       0.51611519       0.92826909       0.53426754 </v>
   <v>       0.07836838       0.25000000       0.42027944 </v>
   <v>       0.74503517       0.91666675       0.08405589 </v>
   <v>       0.57836855       0.91666675       0.25216761 </v>
   <v>       0.41170180       0.91666675       0.42027944 </v>
   <v>       0.74503517       0.58333343       0.08405589 </v>
   <v>       0.70842290       0.88980758       0.53426754 </v>
   <v>       0.40073061       0.35134610       0.53426754 </v>
   <v>       0.74503517       0.25000000       0.08405589 </v>
   <v>       0.01611507       0.42826921       0.53426754 </v>
   <v>       0.41170180       0.25000000       0.42027944 </v>
   <v>       0.16170177       0.83333331       0.00000000 </v>
   <v>       0.57380748       0.71673053       0.88601178 </v>
   <v>       0.82836843       0.83333331       0.33622354 </v>
   <v>       0.88149953       0.25519213       0.88601178 </v>
   <v>       0.15073037       0.60134602       0.88601178 </v>
   <v>       0.82836843       0.50000000       0.33622354 </v>
   <v>       0.07380736       0.21673061       0.88601178 </v>
   <v>       0.93919194       0.04365373       0.81566292 </v>
   <v>       0.82836843       0.16666667       0.33622354 </v>
   <v>       0.49503511       0.83333331       0.00000000 </v>
   <v>       0.32836843       0.83333331       0.16811179 </v>
   <v>       0.16170175       0.83333331       0.33622354 </v>
   <v>       0.49503511       0.50000000       0.00000000 </v>
   <v>       0.32836843       0.50000000       0.16811179 </v>
   <v>       0.16170175       0.50000000       0.33622354 </v>
   <v>       0.18919206       0.79365367       0.88601178 </v>
   <v>       0.32836843       0.16666667       0.16811179 </v>
   <v>       0.16170175       0.16666667       0.33622354 </v>
   <v>       0.82836855       0.83333331       0.00000000 </v>
   <v>       0.99688429       0.83211523       0.88601178 </v>
   <v>       0.49503520       0.83333331       0.33622354 </v>
   <v>       0.82836855       0.50000000       0.00000000 </v>
   <v>       0.66170186       0.50000000       0.16811179 </v>
   <v>       0.49503520       0.50000000       0.33622354 </v>
   <v>       0.82836855       0.16666667       0.00000000 </v>
   <v>       0.36226893       0.15903828       0.81566292 </v>
   <v>       0.49503520       0.16666667       0.33622354 </v>
   <v>       0.24503510       0.75000006       0.08405589 </v>
   <v>       0.07836843       0.75000006       0.25216761 </v>
   <v>       0.63149977       0.50519222       0.53426754 </v>
   <v>       0.24503510       0.41666672       0.08405589 </v>
   <v>       0.07836843       0.41666672       0.25216761 </v>
   <v>       0.82380748       0.46673074       0.53426754 </v>
   <v>       0.24503510       0.08333334       0.08405589 </v>
   <v>       0.07836843       0.08333334       0.25216761 </v>
   <v>       0.91170174       0.08333334       0.42027944 </v>
   <v>       0.57836848       0.75000006       0.08405589 </v>
   <v>       0.41170186       0.75000006       0.25216761 </v>
   <v>       0.24503513       0.75000006       0.42027944 </v>
   <v>       0.57836848       0.41666672       0.08405589 </v>
   <v>       0.11226893       0.40903842       0.60461640 </v>
   <v>       0.93919206       0.04365373       0.53426754 </v>
   <v>       0.57836848       0.08333334       0.08405589 </v>
   <v>       0.74688435       0.08211532       0.53426754 </v>
   <v>       0.24503513       0.08333334       0.42027944 </v>
   <v>       0.68919182       0.29365367       0.88601178 </v>
   <v>       0.90073061       0.85134602       0.53426754 </v>
   <v>       0.57836837       0.75000006       0.42027944 </v>
   <v>       0.91170174       0.41666672       0.08405589 </v>
   <v>       0.68919206       0.29365376       0.60461640 </v>
   <v>       0.57836837       0.41666672       0.42027944 </v>
   <v>       0.91170174       0.08333334       0.08405589 </v>
   <v>       0.32380748       0.96673077       0.53426754 </v>
   <v>       0.57836837       0.08333334       0.42027944 </v>
   <v>       0.24503513       0.41666672       0.42027944 </v>
   <v>       0.82380736       0.96673060       0.67496520 </v>
   <v>       0.70842266       0.88980746       0.81566292 </v>
   <v>       0.57836855       0.25000000       0.25216761 </v>
   <v>       0.90073037       0.35134605       0.67496520 </v>
   <v>       0.78534579       0.27442291       0.81566292 </v>
   <v>       0.24503510       0.91666675       0.25216761 </v>
   <v>       0.05457663       0.12057680       0.67496520 </v>
   <v>       0.99503505       0.16666667       0.16811179 </v>
   <v>       0.09303820       0.81288457       0.53426754 </v>
   <v>       0.97765350       0.73596144       0.67496520 </v>
   <v>       0.86226893       0.65903831       0.81566292 </v>
   <v>       0.24688435       0.58211529       0.53426754 </v>
   <v>       0.13149977       0.50519216       0.67496520 </v>
   <v>       0.01611507       0.42826906       0.81566292 </v>
   <v>       0.41170180       0.58333343       0.42027944 </v>
   <v>       0.28534579       0.27442294       0.67496520 </v>
   <v>       0.16996121       0.19749983       0.81566292 </v>
   <v>       0.55457663       0.12057686       0.53426754 </v>
   <v>       0.43919206       0.04365373       0.67496520 </v>
   <v>       0.32380736       0.96673053       0.81566292 </v>
   <v>       0.74503505       0.08333334       0.25216761 </v>
   <v>       0.20842290       0.88980764       0.67496520 </v>
   <v>       0.09303820       0.81288445       0.81566292 </v>
   <v>       0.47765362       0.73596144       0.53426754 </v>
   <v>       0.36226893       0.65903831       0.67496520 </v>
   <v>       0.24688423       0.58211517       0.81566292 </v>
   <v>       0.91170174       0.75000006       0.42027944 </v>
   <v>       0.51611507       0.42826912       0.67496520 </v>
   <v>       0.40073037       0.35134599       0.81566292 </v>
   <v>       0.24503510       0.58333343       0.25216761 </v>
   <v>       0.66996121       0.19749980       0.67496520 </v>
   <v>       0.55457663       0.12057667       0.81566292 </v>
   <v>       0.57836855       0.58333343       0.25216761 </v>
   <v>       0.59303832       0.81288445       0.67496520 </v>
   <v>       0.47765350       0.73596132       0.81566292 </v>
   <v>       0.86226904       0.65903837       0.53426754 </v>
   <v>       0.74688435       0.58211523       0.67496520 </v>
   <v>       0.63149977       0.50519210       0.81566292 </v>
   <v>       0.95842284       0.63980758       0.60461640 </v>
   <v>       0.84303820       0.56288445       0.74531406 </v>
   <v>       0.72765350       0.48596138       0.88601178 </v>
   <v>       0.41170186       0.41666672       0.25216761 </v>
   <v>       0.99688429       0.33211529       0.74531406 </v>
   <v>       0.16170177       0.50000000       0.00000000 </v>
   <v>       0.26611519       0.17826916       0.60461640 </v>
   <v>       0.15073049       0.10134602       0.74531406 </v>
   <v>       0.49503511       0.33333334       0.16811179 </v>
   <v>       0.03534591       0.02442300       0.60461640 </v>
   <v>       0.91996121       0.94749987       0.74531406 </v>
   <v>       0.80457652       0.87057674       0.88601178 </v>
   <v>       0.18919206       0.79365379       0.60461640 </v>
   <v>       0.07380736       0.71673065       0.74531406 </v>
   <v>       0.82836843       0.33333334       0.16811179 </v>
   <v>       0.34303832       0.56288457       0.60461640 </v>
   <v>       0.22765362       0.48596144       0.74531406 </v>
   <v>       0.11226893       0.40903831       0.88601178 </v>
   <v>       0.49688435       0.33211529       0.60461640 </v>
   <v>       0.38149977       0.25519213       0.74531406 </v>
   <v>       0.82836843       0.00000000       0.16811179 </v>
   <v>       0.65073061       0.10134605       0.60461640 </v>
   <v>       0.53534579       0.02442288       0.74531406 </v>
   <v>       0.49503511       0.66666669       0.16811179 </v>
   <v>       0.41996145       0.94749993       0.60461640 </v>
   <v>       0.30457663       0.87057680       0.74531406 </v>
   <v>       0.49503511       0.16666667       0.00000000 </v>
   <v>       0.57380748       0.71673071       0.60461640 </v>
   <v>       0.45842290       0.63980752       0.74531406 </v>
   <v>       0.34303808       0.56288439       0.88601178 </v>
   <v>       0.72765374       0.48596147       0.60461640 </v>
   <v>       0.61226893       0.40903831       0.74531406 </v>
   <v>       0.49688435       0.33211517       0.88601178 </v>
   <v>       0.88149977       0.25519225       0.60461640 </v>
   <v>       0.76611519       0.17826910       0.74531406 </v>
   <v>       0.66170180       0.33333334       0.00000000 </v>
   <v>       0.80457687       0.87057686       0.60461640 </v>
   <v>       0.68919218       0.79365373       0.74531406 </v>
   <v>       0.99503505       0.83333331       0.16811179 </v>
   <v>       0.91170180       0.25000000       0.25216761 </v>
   <v>       0.86226893       0.15903835       0.67496520 </v>
   <v>       0.74688423       0.08211522       0.81566292 </v>
   <v>       0.05457663       0.62057680       0.53426754 </v>
   <v>       0.93919206       0.54365373       0.67496520 </v>
   <v>       0.82380724       0.46673060       0.81566292 </v>
   <v>       0.74503505       0.58333343       0.42027944 </v>
   <v>       0.09303820       0.31288454       0.67496520 </v>
   <v>       0.97765350       0.23596141       0.81566292 </v>
   <v>       0.36226893       0.15903835       0.53426754 </v>
   <v>       0.24688435       0.08211523       0.67496520 </v>
   <v>       0.13149965       0.00519204       0.81566292 </v>
   <v>       0.91170180       0.58333343       0.25216761 </v>
   <v>       0.01611507       0.92826903       0.67496520 </v>
   <v>       0.90073037       0.85134596       0.81566292 </v>
   <v>       0.74503505       0.91666675       0.42027944 </v>
   <v>       0.16996121       0.69749987       0.67496520 </v>
   <v>       0.05457652       0.62057674       0.81566292 </v>
   <v>       0.66170174       0.00000000       0.33622354 </v>
   <v>       0.32380748       0.46673062       0.67496520 </v>
   <v>       0.20842266       0.38980749       0.81566292 </v>
   <v>       0.59303832       0.31288454       0.53426754 </v>
   <v>       0.47765362       0.23596141       0.67496520 </v>
   <v>       0.66170186       0.16666667       0.16811179 </v>
   <v>       0.41170186       0.08333334       0.25216761 </v>
   <v>       0.63149977       0.00519216       0.67496520 </v>
   <v>       0.51611507       0.92826903       0.81566292 </v>
   <v>       0.24503510       0.25000000       0.25216761 </v>
   <v>       0.40073037       0.85134602       0.67496520 </v>
   <v>       0.28534579       0.77442282       0.81566292 </v>
   <v>       0.66996133       0.69749987       0.53426754 </v>
   <v>       0.55457663       0.62057674       0.67496520 </v>
   <v>       0.43919194       0.54365361       0.81566292 </v>
   <v>       0.91170174       0.41666672       0.42027944 </v>
   <v>       0.70842290       0.38980761       0.67496520 </v>
   <v>       0.59303808       0.31288448       0.81566292 </v>
   <v>       0.74503505       0.75000006       0.25216761 </v>
   <v>       0.78534591       0.77442288       0.67496520 </v>
   <v>       0.66996121       0.69749975       0.81566292 </v>
   <v>       0.07380748       0.21673071       0.60461640 </v>
   <v>       0.95842278       0.13980758       0.74531406 </v>
   <v>       0.84303808       0.06288444       0.88601178 </v>
   <v>       0.99688435       0.83211535       0.60461640 </v>
   <v>       0.88149977       0.75519216       0.74531406 </v>
   <v>       0.49503511       0.00000000       0.16811179 </v>
   <v>       0.15073049       0.60134614       0.60461640 </v>
   <v>       0.03534591       0.52442300       0.74531406 </v>
   <v>       0.91996121       0.44749984       0.88601178 </v>
   <v>       0.30457663       0.37057689       0.60461640 </v>
   <v>       0.18919206       0.29365376       0.74531406 </v>
   <v>       0.16170177       0.16666667       0.00000000 </v>
   <v>       0.45842290       0.13980760       0.60461640 </v>
   <v>       0.34303820       0.06288448       0.74531406 </v>
   <v>       0.16170174       0.00000000       0.16811179 </v>
   <v>       0.22765362       0.98596156       0.60461640 </v>
   <v>       0.11226893       0.90903837       0.74531406 </v>
   <v>       0.66170186       0.83333331       0.16811179 </v>
   <v>       0.38149977       0.75519234       0.60461640 </v>
   <v>       0.26611507       0.67826915       0.74531406 </v>
   <v>       0.99503505       0.50000000       0.16811179 </v>
   <v>       0.53534603       0.52442300       0.60461640 </v>
   <v>       0.41996121       0.44749990       0.74531406 </v>
   <v>       0.30457663       0.37057677       0.88601178 </v>
   <v>       0.74503505       0.41666672       0.25216761 </v>
   <v>       0.57380748       0.21673062       0.74531406 </v>
   <v>       0.99503511       0.33333334       0.00000000 </v>
   <v>       0.84303832       0.06288454       0.60461640 </v>
   <v>       0.72765350       0.98596138       0.74531406 </v>
   <v>       0.61226893       0.90903825       0.88601178 </v>
   <v>       0.61226916       0.90903848       0.60461640 </v>
   <v>       0.49688435       0.83211535       0.74531406 </v>
   <v>       0.16170174       0.33333334       0.16811179 </v>
   <v>       0.76611519       0.67826915       0.60461640 </v>
   <v>       0.65073061       0.60134602       0.74531406 </v>
   <v>       0.99503511       0.66666669       0.00000000 </v>
   <v>       0.91996121       0.44749999       0.60461640 </v>
   <v>       0.80457663       0.37057683       0.74531406 </v>
   <v>       0.91170174       0.75000006       0.08405589 </v>
  </varray>
 </structure>
 <calculation>
  <scstep>
   <time name="dav">  206.26  208.44</time>
   <time name="total">  209.38  211.58</time>
   <energy>
    <i name="alphaZ">    677.14420481 </i>
    <i name="ewald"> -18716.25153521 </i>
    <i name="hartreedc">  -9792.16683165 </i>
    <i name="XCdc"> -14260.14257909 </i>
    <i name="pawpsdc">  34204.16796134 </i>
    <i name="pawaedc"> -18083.40668920 </i>
    <i name="eentropy">     -0.00223945 </i>
    <i name="bandstr">   4369.95520197 </i>
    <i name="atom">  26239.67945397 </i>
    <i name="e_fr_energy">   4638.97694749 </i>
    <i name="e_wo_entrp">   4638.97918694 </i>
    <i name="e_0_energy">   4638.97806722 </i>
   </energy>
  </scstep>
  <scstep>
   <time name="dav">  234.95  237.35</time>
   <time name="total">  234.96  237.36</time>
   <energy>
    <i name="e_fr_energy">   -602.24634976 </i>
    <i name="e_wo_entrp">   -602.24326845 </i>
    <i name="e_0_energy">   -602.24480911 </i>
   </energy>
  </scstep>
  <scstep>
   <time name="dav">  251.27  253.86</time>
   <time name="total">  251.28  253.87</time>
   <energy>
    <i name="e_fr_energy">  -1133.93795502 </i>
    <i name="e_wo_entrp">  -1133.93367356 </i>
    <i name="e_0_energy">  -1133.93581429 </i>
   </energy>
  </scstep>
  <scstep>
   <time name="dav">  241.82  244.30</time>
   <time name="total">  241.82  244.30</time>
   <energy>
    <i name="e_fr_energy">  -1156.30155357 </i>
    <i name="e_wo_entrp">  -1156.29697210 </i>
    <i name="e_0_energy">  -1156.29926283 </i>
   </energy>
  </scstep>
  <scstep>
   <time name="dav">  273.23  275.93</time>
   <time name="total">  282.66  285.50</time>
   <energy>
    <i name="e_fr_energy">  -1157.34834607 </i>
    <i name="e_wo_entrp">  -1157.34367338 </i>
    <i name="e_0_energy">  -1157.34600972 </i>
   </energy>
  </scstep>
  <scstep>
   <time name="dav">  293.12  296.06</time>
   <time name="total">  306.00  309.06</time>
   <energy>
    <i name="e_fr_energy">  -1126.20488615 </i>
    <i name="e_wo_entrp">  -1126.19992560 </i>
    <i name="e_0_energy">  -1126.20240588 </i>
   </energy>
  </scstep>
  <scstep>
   <time name="dav">  252.20  254.68</time>
   <time name="total">  265.06  267.66</time>
   <energy>
    <i name="e_fr_energy">  -1124.94829139 </i>
    <i name="e_wo_entrp">  -1124.94400761 </i>
    <i name="e_0_energy">  -1124.94614950 </i>
   </energy>
  </scstep>
  <scstep>
   <time name="dav">  238.32  240.67</time>
   <time name="total">  251.21  253.67</time>
   <energy>
    <i name="e_fr_energy">  -1121.93686602 </i>
    <i name="e_wo_entrp">  -1121.93319995 </i>
    <i name="e_0_energy">  -1121.93503299 </i>
   </energy>
  </scstep>
  <scstep>
   <time name="dav">  246.49  248.96</time>
   <time name="total">  259.13  261.73</time>
   <energy>
    <i name="e_fr_energy">  -1122.02510695 </i>
    <i name="e_wo_entrp">  -1122.02056372 </i>
    <i name="e_0_energy">  -1122.02283534 </i>
   </energy>
  </scstep>
  <scstep>
   <time name="dav">  241.96  244.44</time>
   <time name="total">  254.61  257.21</time>
   <energy>
    <i name="e_fr_energy">  -1121.87569343 </i>
    <i name="e_wo_entrp">  -1121.87137198 </i>
    <i name="e_0_energy">  -1121.87353270 </i>
   </energy>
  </scstep>
  <scstep>
   <time name="dav">  236.20  238.65</time>
   <time name="total">  248.85  251.44</time>
   <energy>
    <i name="e_fr_energy">  -1121.86476927 </i>
    <i name="e_wo_entrp">  -1121.86050718 </i>
    <i name="e_0_energy">  -1121.86263823 </i>
   </energy>
  </scstep>
  <scstep>
   <time name="dav">  237.02  239.44</time>
   <time name="total">  249.74  252.28</time>
   <energy>
    <i name="e_fr_energy">  -1121.86608783 </i>
    <i name="e_wo_entrp">  -1121.86191422 </i>
    <i name="e_0_energy">  -1121.86400103 </i>
   </energy>
  </scstep>
  <scstep>
   <time name="dav">  241.23  243.67</time>
   <time name="total">  253.92  256.48</time>
   <energy>
    <i name="e_fr_energy">  -1121.86364456 </i>
    <i name="e_wo_entrp">  -1121.85947119 </i>
    <i name="e_0_energy">  -1121.86155788 </i>
   </energy>
  </scstep>
  <scstep>
   <time name="dav">  243.45  245.86</time>
   <time name="total">  256.16  258.69</time>
   <energy>
    <i name="e_fr_energy">  -1121.86310860 </i>
    <i name="e_wo_entrp">  -1121.85912837 </i>
    <i name="e_0_energy">  -1121.86111848 </i>
   </energy>
  </scstep>
  <scstep>
   <time name="dav">  241.26  243.66</time>
   <time name="total">  254.11  256.66</time>
   <energy>
    <i name="e_fr_energy">  -1121.86262613 </i>
    <i name="e_wo_entrp">  -1121.85864133 </i>
    <i name="e_0_energy">  -1121.86063373 </i>
   </energy>
  </scstep>
  <scstep>
   <time name="dav">  233.80  236.09</time>
   <time name="total">  246.84  249.25</time>
   <energy>
    <i name="e_fr_energy">  -1121.86255912 </i>
    <i name="e_wo_entrp">  -1121.85855722 </i>
    <i name="e_0_energy">  -1121.86055817 </i>
   </energy>
  </scstep>
  <scstep>
   <time name="dav">  230.79  233.04</time>
   <time name="total">  243.65  246.03</time>
   <energy>
    <i name="e_fr_energy">  -1121.86254836 </i>
    <i name="e_wo_entrp">  -1121.85855160 </i>
    <i name="e_0_energy">  -1121.86054998 </i>
   </energy>
  </scstep>
  <scstep>
   <time name="dav">  230.64  232.90</time>
   <time name="total">  243.51  245.90</time>
   <energy>
    <i name="e_fr_energy">  -1121.86256087 </i>
    <i name="e_wo_entrp">  -1121.85857664 </i>
    <i name="e_0_energy">  -1121.86056876 </i>
   </energy>
  </scstep>
  <scstep>
   <time name="dav">  235.64  237.93</time>
   <time name="total">  248.25  250.66</time>
   <energy>
    <i name="e_fr_energy">  -1121.86255614 </i>
    <i name="e_wo_entrp">  -1121.85857066 </i>
    <i name="e_0_energy">  -1121.86056340 </i>
   </energy>
  </scstep>
  <scstep>
   <time name="dav">  235.97  238.23</time>
   <time name="total">  248.58  250.97</time>
[...]
       <r>     3.9054    40.5368  1044.7520 </r>
       <r>     3.9572    60.0781  1047.8665 </r>
       <r>     4.0091    70.1836  1051.5050 </r>
       <r>     4.0609    80.3709  1055.6715 </r>
       <r>     4.1128    95.3170  1060.6129 </r>
       <r>     4.1646   117.2851  1066.6932 </r>
       <r>     4.2165    85.4170  1071.1213 </r>
       <r>     4.2683    99.1617  1076.2620 </r>
       <r>     4.3201    73.2790  1080.0609 </r>
       <r>     4.3720   109.7170  1085.7489 </r>
       <r>     4.4238   127.3341  1092.3501 </r>
       <r>     4.4757   114.0302  1098.2616 </r>
       <r>     4.5275   110.6404  1103.9974 </r>
       <r>     4.5793   101.1951  1109.2435 </r>
       <r>     4.6312    80.7600  1113.4302 </r>
       <r>     4.6830   119.4892  1119.6247 </r>
       <r>     4.7349   130.8182  1126.4066 </r>
       <r>     4.7867   117.3570  1132.4906 </r>
       <r>     4.8386   142.3035  1139.8678 </r>
       <r>     4.8904   104.4059  1145.2804 </r>
       <r>     4.9422   131.8331  1152.1148 </r>
       <r>     4.9941   131.8661  1158.9510 </r>
       <r>     5.0459   113.4271  1164.8312 </r>
       <r>     5.0978   123.4568  1171.2314 </r>
       <r>     5.1496    99.0808  1176.3679 </r>
       <r>     5.2014   105.0608  1181.8145 </r>
       <r>     5.2533   100.2016  1187.0091 </r>
       <r>     5.3051   105.8601  1192.4971 </r>
       <r>     5.3570   138.0234  1199.6524 </r>
       <r>     5.4088   145.0259  1207.1708 </r>
       <r>     5.4607   144.6279  1214.6685 </r>
       <r>     5.5125   129.8879  1221.4022 </r>
       <r>     5.5643   137.4403  1228.5273 </r>
       <r>     5.6162   146.0704  1236.0998 </r>
       <r>     5.6680   129.6447  1242.8208 </r>
       <r>     5.7199   125.3856  1249.3210 </r>
       <r>     5.7717   105.7915  1254.8054 </r>
       <r>     5.8235   140.9208  1262.1110 </r>
       <r>     5.8754   129.5313  1268.8261 </r>
       <r>     5.9272    47.3628  1271.2814 </r>
       <r>     5.9791    13.8607  1272.0000 </r>
       <r>     6.0309     0.0000  1272.0000 </r>
       <r>     6.0828     0.0000  1272.0000 </r>
       <r>     6.1346     0.0000  1272.0000 </r>
       <r>     6.1864     0.0000  1272.0000 </r>
       <r>     6.2383     0.0000  1272.0000 </r>
       <r>     6.2901     0.0000  1272.0000 </r>
       <r>     6.3420     0.0000  1272.0000 </r>
       <r>     6.3938     0.0000  1272.0000 </r>
       <r>     6.4456     0.0000  1272.0000 </r>
       <r>     6.4975     0.0000  1272.0000 </r>
       <r>     6.5493     0.0000  1272.0000 </r>
       <r>     6.6012     0.0000  1272.0000 </r>
       <r>     6.6530     0.0000  1272.0000 </r>
      </set>
     </set>
    </array>
   </total>
  </dos>
 </calculation>
 <structure name="finalpos" >
  <crystal>
   <varray name="basis" >
    <v>      19.46759987       0.00000000       0.00000000 </v>
    <v>       0.00000000      19.46759987       0.00000000 </v>
    <v>       0.00000000       0.00000000      19.30025291 </v>
   </varray>
   <i name="volume">   7314.55353316 </i>
   <varray name="rec_basis" >
    <v>       0.05136740       0.00000000       0.00000000 </v>
    <v>       0.00000000       0.05136740       0.00000000 </v>
    <v>       0.00000000       0.00000000       0.05181279 </v>
   </varray>
  </crystal>
  <varray name="positions" >
   <v>       0.53534579       0.52442288       0.88601178 </v>
   <v>       0.82836843       0.66666669       0.16811179 </v>
   <v>       0.66170174       0.66666669       0.33622354 </v>
   <v>       0.45842278       0.13980748       0.88601178 </v>
   <v>       0.95842272       0.63980752       0.88601178 </v>
   <v>       0.66170174       0.33333334       0.33622354 </v>
   <v>       0.99503511       0.00000000       0.00000000 </v>
   <v>       0.26611507       0.17826901       0.88601178 </v>
   <v>       0.43919206       0.54365373       0.53426754 </v>
   <v>       0.32836846       0.66666669       0.00000000 </v>
   <v>       0.16170174       0.66666669       0.16811179 </v>
   <v>       0.99503511       0.66666669       0.33622354 </v>
   <v>       0.32836846       0.33333334       0.00000000 </v>
   <v>       0.38149977       0.75519222       0.88601178 </v>
   <v>       0.99503511       0.33333334       0.33622354 </v>
   <v>       0.32836846       0.00000000       0.00000000 </v>
   <v>       0.22765350       0.98596126       0.88601178 </v>
   <v>       0.99503511       0.00000000       0.33622354 </v>
   <v>       0.66170180       0.66666669       0.00000000 </v>
   <v>       0.41996121       0.94749975       0.88601178 </v>
   <v>       0.32836846       0.66666669       0.33622354 </v>
   <v>       0.65073037       0.10134596       0.88601178 </v>
   <v>       0.03534579       0.02442288       0.88601178 </v>
   <v>       0.32836846       0.33333334       0.33622354 </v>
   <v>       0.66170180       0.00000000       0.00000000 </v>
   <v>       0.76611495       0.67826903       0.88601178 </v>
   <v>       0.32836846       0.00000000       0.33622354 </v>
   <v>       0.07836843       0.91666675       0.08405589 </v>
   <v>       0.91170180       0.91666675       0.25216761 </v>
   <v>       0.28534591       0.77442300       0.53426754 </v>
   <v>       0.07836843       0.58333343       0.08405589 </v>
   <v>       0.13149977       0.00519216       0.53426754 </v>
   <v>       0.20842290       0.38980767       0.53426754 </v>
   <v>       0.07836843       0.25000000       0.08405589 </v>
   <v>       0.97765356       0.23596150       0.53426754 </v>
   <v>       0.74503505       0.25000000       0.42027944 </v>
   <v>       0.41170177       0.91666675       0.08405589 </v>
   <v>       0.16996121       0.19749993       0.53426754 </v>
   <v>       0.07836838       0.91666675       0.42027944 </v>
   <v>       0.41170177       0.58333343       0.08405589 </v>
   <v>       0.78534591       0.27442294       0.53426754 </v>
   <v>       0.07836838       0.58333343       0.42027944 </v>
   <v>       0.41170177       0.25000000       0.08405589 </v>
   <v>       0.51611519       0.92826909       0.53426754 </v>
   <v>       0.07836838       0.25000000       0.42027944 </v>
   <v>       0.74503517       0.91666675       0.08405589 </v>
   <v>       0.57836855       0.91666675       0.25216761 </v>
   <v>       0.41170180       0.91666675       0.42027944 </v>
   <v>       0.74503517       0.58333343       0.08405589 </v>
   <v>       0.70842290       0.88980758       0.53426754 </v>
   <v>       0.40073061       0.35134610       0.53426754 </v>
   <v>       0.74503517       0.25000000       0.08405589 </v>
   <v>       0.01611507       0.42826921       0.53426754 </v>
   <v>       0.41170180       0.25000000       0.42027944 </v>
   <v>       0.16170177       0.83333331       0.00000000 </v>
   <v>       0.57380748       0.71673053       0.88601178 </v>
   <v>       0.82836843       0.83333331       0.33622354 </v>
   <v>       0.88149953       0.25519213       0.88601178 </v>
   <v>       0.15073037       0.60134602       0.88601178 </v>
   <v>       0.82836843       0.50000000       0.33622354 </v>
   <v>       0.07380736       0.21673061       0.88601178 </v>
   <v>       0.93919194       0.04365373       0.81566292 </v>
   <v>       0.82836843       0.16666667       0.33622354 </v>
   <v>       0.49503511       0.83333331       0.00000000 </v>
   <v>       0.32836843       0.83333331       0.16811179 </v>
   <v>       0.16170175       0.83333331       0.33622354 </v>
   <v>       0.49503511       0.50000000       0.00000000 </v>
   <v>       0.32836843       0.50000000       0.16811179 </v>
   <v>       0.16170175       0.50000000       0.33622354 </v>
   <v>       0.18919206       0.79365367       0.88601178 </v>
   <v>       0.32836843       0.16666667       0.16811179 </v>
   <v>       0.16170175       0.16666667       0.33622354 </v>
   <v>       0.82836855       0.83333331       0.00000000 </v>
   <v>       0.99688429       0.83211523       0.88601178 </v>
   <v>       0.49503520       0.83333331       0.33622354 </v>
   <v>       0.82836855       0.50000000       0.00000000 </v>
   <v>       0.66170186       0.50000000       0.16811179 </v>
   <v>       0.49503520       0.50000000       0.33622354 </v>
   <v>       0.82836855       0.16666667       0.00000000 </v>
   <v>       0.36226893       0.15903828       0.81566292 </v>
   <v>       0.49503520       0.16666667       0.33622354 </v>
   <v>       0.24503510       0.75000006       0.08405589 </v>
   <v>       0.07836843       0.75000006       0.25216761 </v>
   <v>       0.63149977       0.50519222       0.53426754 </v>
   <v>       0.24503510       0.41666672       0.08405589 </v>
   <v>       0.07836843       0.41666672       0.25216761 </v>
   <v>       0.82380748       0.46673074       0.53426754 </v>
   <v>       0.24503510       0.08333334       0.08405589 </v>
   <v>       0.07836843       0.08333334       0.25216761 </v>
   <v>       0.91170174       0.08333334       0.42027944 </v>
   <v>       0.57836848       0.75000006       0.08405589 </v>
   <v>       0.41170186       0.75000006       0.25216761 </v>
   <v>       0.24503513       0.75000006       0.42027944 </v>
   <v>       0.57836848       0.41666672       0.08405589 </v>
   <v>       0.11226893       0.40903842       0.60461640 </v>
   <v>       0.93919206       0.04365373       0.53426754 </v>
   <v>       0.57836848       0.08333334       0.08405589 </v>
   <v>       0.74688435       0.08211532       0.53426754 </v>
   <v>       0.24503513       0.08333334       0.42027944 </v>
   <v>       0.68919182       0.29365367       0.88601178 </v>
   <v>       0.90073061       0.85134602       0.53426754 </v>
   <v>       0.57836837       0.75000006       0.42027944 </v>
   <v>       0.91170174       0.41666672       0.08405589 </v>
   <v>       0.68919206       0.29365376       0.60461640 </v>
   <v>       0.57836837       0.41666672       0.42027944 </v>
   <v>       0.91170174       0.08333334       0.08405589 </v>
   <v>       0.32380748       0.96673077       0.53426754 </v>
   <v>       0.57836837       0.08333334       0.42027944 </v>
   <v>       0.24503513       0.41666672       0.42027944 </v>
   <v>       0.82380736       0.96673060       0.67496520 </v>
   <v>       0.70842266       0.88980746       0.81566292 </v>
   <v>       0.57836855       0.25000000       0.25216761 </v>
   <v>       0.90073037       0.35134605       0.67496520 </v>
   <v>       0.78534579       0.27442291       0.81566292 </v>
   <v>       0.24503510       0.91666675       0.25216761 </v>
   <v>       0.05457663       0.12057680       0.67496520 </v>
   <v>       0.99503505       0.16666667       0.16811179 </v>
   <v>       0.09303820       0.81288457       0.53426754 </v>
   <v>       0.97765350       0.73596144       0.67496520 </v>
   <v>       0.86226893       0.65903831       0.81566292 </v>
   <v>       0.24688435       0.58211529       0.53426754 </v>
   <v>       0.13149977       0.50519216       0.67496520 </v>
   <v>       0.01611507       0.42826906       0.81566292 </v>
   <v>       0.41170180       0.58333343       0.42027944 </v>
   <v>       0.28534579       0.27442294       0.67496520 </v>
   <v>       0.16996121       0.19749983       0.81566292 </v>
   <v>       0.55457663       0.12057686       0.53426754 </v>
   <v>       0.43919206       0.04365373       0.67496520 </v>
   <v>       0.32380736       0.96673053       0.81566292 </v>
   <v>       0.74503505       0.08333334       0.25216761 </v>
   <v>       0.20842290       0.88980764       0.67496520 </v>
   <v>       0.09303820       0.81288445       0.81566292 </v>
   <v>       0.47765362       0.73596144       0.53426754 </v>
   <v>       0.36226893       0.65903831       0.67496520 </v>
   <v>       0.24688423       0.58211517       0.81566292 </v>
   <v>       0.91170174       0.75000006       0.42027944 </v>
   <v>       0.51611507       0.42826912       0.67496520 </v>
   <v>       0.40073037       0.35134599       0.81566292 </v>
   <v>       0.24503510       0.58333343       0.25216761 </v>
   <v>       0.66996121       0.19749980       0.67496520 </v>
   <v>       0.55457663       0.12057667       0.81566292 </v>
   <v>       0.57836855       0.58333343       0.25216761 </v>
   <v>       0.59303832       0.81288445       0.67496520 </v>
   <v>       0.47765350       0.73596132       0.81566292 </v>
   <v>       0.86226904       0.65903837       0.53426754 </v>
   <v>       0.74688435       0.58211523       0.67496520 </v>
   <v>       0.63149977       0.50519210       0.81566292 </v>
   <v>       0.95842284       0.63980758       0.60461640 </v>
   <v>       0.84303820       0.56288445       0.74531406 </v>
   <v>       0.72765350       0.48596138       0.88601178 </v>
   <v>       0.41170186       0.41666672       0.25216761 </v>
   <v>       0.99688429       0.33211529       0.74531406 </v>
   <v>       0.16170177       0.50000000       0.00000000 </v>
   <v>       0.26611519       0.17826916       0.60461640 </v>
   <v>       0.15073049       0.10134602       0.74531406 </v>
   <v>       0.49503511       0.33333334       0.16811179 </v>
   <v>       0.03534591       0.02442300       0.60461640 </v>
   <v>       0.91996121       0.94749987       0.74531406 </v>
   <v>       0.80457652       0.87057674       0.88601178 </v>
   <v>       0.18919206       0.79365379       0.60461640 </v>
   <v>       0.07380736       0.71673065       0.74531406 </v>
   <v>       0.82836843       0.33333334       0.16811179 </v>
   <v>       0.34303832       0.56288457       0.60461640 </v>
   <v>       0.22765362       0.48596144       0.74531406 </v>
   <v>       0.11226893       0.40903831       0.88601178 </v>
   <v>       0.49688435       0.33211529       0.60461640 </v>
   <v>       0.38149977       0.25519213       0.74531406 </v>
   <v>       0.82836843       0.00000000       0.16811179 </v>
   <v>       0.65073061       0.10134605       0.60461640 </v>
   <v>       0.53534579       0.02442288       0.74531406 </v>
   <v>       0.49503511       0.66666669       0.16811179 </v>
   <v>       0.41996145       0.94749993       0.60461640 </v>
   <v>       0.30457663       0.87057680       0.74531406 </v>
   <v>       0.49503511       0.16666667       0.00000000 </v>
   <v>       0.57380748       0.71673071       0.60461640 </v>
   <v>       0.45842290       0.63980752       0.74531406 </v>
   <v>       0.34303808       0.56288439       0.88601178 </v>
   <v>       0.72765374       0.48596147       0.60461640 </v>
   <v>       0.61226893       0.40903831       0.74531406 </v>
   <v>       0.49688435       0.33211517       0.88601178 </v>
   <v>       0.88149977       0.25519225       0.60461640 </v>
   <v>       0.76611519       0.17826910       0.74531406 </v>
   <v>       0.66170180       0.33333334       0.00000000 </v>
   <v>       0.80457687       0.87057686       0.60461640 </v>
   <v>       0.68919218       0.79365373       0.74531406 </v>
   <v>       0.99503505       0.83333331       0.16811179 </v>
   <v>       0.91170180       0.25000000       0.25216761 </v>
   <v>       0.86226893       0.15903835       0.67496520 </v>
   <v>       0.74688423       0.08211522       0.81566292 </v>
   <v>       0.05457663       0.62057680       0.53426754 </v>
   <v>       0.93919206       0.54365373       0.67496520 </v>
   <v>       0.82380724       0.46673060       0.81566292 </v>
   <v>       0.74503505       0.58333343       0.42027944 </v>
   <v>       0.09303820       0.31288454       0.67496520 </v>
   <v>       0.97765350       0.23596141       0.81566292 </v>
   <v>       0.36226893       0.15903835       0.53426754 </v>
   <v>       0.24688435       0.08211523       0.67496520 </v>
   <v>       0.13149965       0.00519204       0.81566292 </v>
   <v>       0.91170180       0.58333343       0.25216761 </v>
   <v>       0.01611507       0.92826903       0.67496520 </v>
   <v>       0.90073037       0.85134596       0.81566292 </v>
   <v>       0.74503505       0.91666675       0.42027944 </v>
   <v>       0.16996121       0.69749987       0.67496520 </v>
   <v>       0.05457652       0.62057674       0.81566292 </v>
   <v>       0.66170174       0.00000000       0.33622354 </v>
   <v>       0.32380748       0.46673062       0.67496520 </v>
   <v>       0.20842266       0.38980749       0.81566292 </v>
   <v>       0.59303832       0.31288454       0.53426754 </v>
   <v>       0.47765362       0.23596141       0.67496520 </v>
   <v>       0.66170186       0.16666667       0.16811179 </v>
   <v>       0.41170186       0.08333334       0.25216761 </v>
   <v>       0.63149977       0.00519216       0.67496520 </v>
   <v>       0.51611507       0.92826903       0.81566292 </v>
   <v>       0.24503510       0.25000000       0.25216761 </v>
   <v>       0.40073037       0.85134602       0.67496520 </v>
   <v>       0.28534579       0.77442282       0.81566292 </v>
   <v>       0.66996133       0.69749987       0.53426754 </v>
   <v>       0.55457663       0.62057674       0.67496520 </v>
   <v>       0.43919194       0.54365361       0.81566292 </v>
   <v>       0.91170174       0.41666672       0.42027944 </v>
   <v>       0.70842290       0.38980761       0.67496520 </v>
   <v>       0.59303808       0.31288448       0.81566292 </v>
   <v>       0.74503505       0.75000006       0.25216761 </v>
   <v>       0.78534591       0.77442288       0.67496520 </v>
   <v>       0.66996121       0.69749975       0.81566292 </v>
   <v>       0.07380748       0.21673071       0.60461640 </v>
   <v>       0.95842278       0.13980758       0.74531406 </v>
   <v>       0.84303808       0.06288444       0.88601178 </v>
   <v>       0.99688435       0.83211535       0.60461640 </v>
   <v>       0.88149977       0.75519216       0.74531406 </v>
   <v>       0.49503511       0.00000000       0.16811179 </v>
   <v>       0.15073049       0.60134614       0.60461640 </v>
   <v>       0.03534591       0.52442300       0.74531406 </v>
   <v>       0.91996121       0.44749984       0.88601178 </v>
   <v>       0.30457663       0.37057689       0.60461640 </v>
   <v>       0.18919206       0.29365376       0.74531406 </v>
   <v>       0.16170177       0.16666667       0.00000000 </v>
   <v>       0.45842290       0.13980760       0.60461640 </v>
   <v>       0.34303820       0.06288448       0.74531406 </v>
   <v>       0.16170174       0.00000000       0.16811179 </v>
   <v>       0.22765362       0.98596156       0.60461640 </v>
   <v>       0.11226893       0.90903837       0.74531406 </v>
   <v>       0.66170186       0.83333331       0.16811179 </v>
   <v>       0.38149977       0.75519234       0.60461640 </v>
   <v>       0.26611507       0.67826915       0.74531406 </v>
   <v>       0.99503505       0.50000000       0.16811179 </v>
   <v>       0.53534603       0.52442300       0.60461640 </v>
   <v>       0.41996121       0.44749990       0.74531406 </v>
   <v>       0.30457663       0.37057677       0.88601178 </v>
   <v>       0.74503505       0.41666672       0.25216761 </v>
   <v>       0.57380748       0.21673062       0.74531406 </v>
   <v>       0.99503511       0.33333334       0.00000000 </v>
   <v>       0.84303832       0.06288454       0.60461640 </v>
   <v>       0.72765350       0.98596138       0.74531406 </v>
   <v>       0.61226893       0.90903825       0.88601178 </v>
   <v>       0.61226916       0.90903848       0.60461640 </v>
   <v>       0.49688435       0.83211535       0.74531406 </v>
   <v>       0.16170174       0.33333334       0.16811179 </v>
   <v>       0.76611519       0.67826915       0.60461640 </v>
   <v>       0.65073061       0.60134602       0.74531406 </v>
   <v>       0.99503511       0.66666669       0.00000000 </v>
   <v>       0.91996121       0.44749999       0.60461640 </v>
   <v>       0.80457663       0.37057683       0.74531406 </v>
   <v>       0.91170174       0.75000006       0.08405589 </v>
  </varray>
 </structure>
</modeling>
