 168 168   0   0
  0.2759767E+02  0.1131560E-08  0.1600268E-08  0.2560422E-08  0.5000000E-15
  1.000000000000000E-004
  CAR 
 Si and Ge interface calculation         
      6.42531503     -9.87051961  301      3.42173398      1.00000000
     -9.871  0.0000E+00  0.0000E+00  0.0000E+00  0.0000E+00
     -9.816  0.0000E+00  0.0000E+00  0.0000E+00  0.0000E+00
     -9.762  0.0000E+00  0.0000E+00  0.0000E+00  0.0000E+00
     -9.708  0.0000E+00  0.0000E+00  0.0000E+00  0.0000E+00
     -9.653  0.0000E+00  0.0000E+00  0.0000E+00  0.0000E+00
     -9.599  0.0000E+00  0.0000E+00  0.0000E+00  0.0000E+00
     -9.545  0.0000E+00  0.0000E+00  0.0000E+00  0.0000E+00
     -9.490  0.0000E+00  0.0000E+00  0.0000E+00  0.0000E+00
     -9.436  0.0000E+00  0.0000E+00  0.0000E+00  0.0000E+00
     -9.382  0.0000E+00  0.0000E+00  0.0000E+00  0.0000E+00
     -9.327  0.0000E+00  0.0000E+00  0.0000E+00  0.0000E+00
     -9.273  0.0000E+00  0.0000E+00  0.0000E+00  0.0000E+00
     -9.219  0.0000E+00  0.0000E+00  0.0000E+00  0.0000E+00
     -9.164  0.3118E-05  0.2708E-07  0.1693E-06  0.1471E-08
     -9.110  0.6121E+01  0.5972E+01  0.3325E+00  0.3244E+00
     -9.056  0.8212E-01  0.1681E+00  0.3369E+00  0.3335E+00
     -9.001  0.2341E+02  0.2071E+02  0.1608E+01  0.1459E+01
     -8.947  0.1125E+01  0.3830E+01  0.1669E+01  0.1667E+01
     -8.893  0.3063E+02  0.3065E+02  0.3333E+01  0.3332E+01
     -8.838  0.1227E+02  0.1227E+02  0.4000E+01  0.3998E+01
     -8.784  0.1233E+02  0.1231E+02  0.4670E+01  0.4667E+01
     -8.730  0.3678E+02  0.3681E+02  0.6667E+01  0.6666E+01
     -8.675  0.3244E+02  0.2261E+02  0.8429E+01  0.7894E+01
     -8.621  0.3984E+02  0.4441E+02  0.1059E+02  0.1031E+02
     -8.567  0.3517E+02  0.3471E+02  0.1250E+02  0.1219E+02
     -8.513  0.2952E+02  0.3173E+02  0.1411E+02  0.1392E+02
     -8.458  0.1020E+02  0.1326E+02  0.1466E+02  0.1464E+02
     -8.404  0.2501E+02  0.2332E+02  0.1602E+02  0.1590E+02
     -8.350  0.1802E+02  0.2015E+02  0.1700E+02  0.1700E+02
     -8.295  0.2597E+02  0.2076E+02  0.1841E+02  0.1812E+02
     -8.241  0.2541E+02  0.2719E+02  0.1979E+02  0.1960E+02
     -8.187  0.1615E+02  0.1961E+02  0.2067E+02  0.2067E+02
     -8.132  0.3657E+02  0.3533E+02  0.2265E+02  0.2259E+02
     -8.078  0.6376E+01  0.7627E+01  0.2300E+02  0.2300E+02
     -8.024  0.1227E+02  0.1226E+02  0.2367E+02  0.2367E+02
     -7.969  0.3204E-06  0.1712E-01  0.2367E+02  0.2367E+02
     -7.915  0.2863E+02  0.2034E+02  0.2522E+02  0.2477E+02
     -7.861  0.1739E+02  0.2181E+02  0.2617E+02  0.2596E+02
     -7.806  0.3929E+02  0.3846E+02  0.2830E+02  0.2805E+02
     -7.752  0.2371E+02  0.2667E+02  0.2959E+02  0.2949E+02
     -7.698  0.1177E+02  0.1029E+02  0.3023E+02  0.3005E+02
     -7.643  0.5704E+02  0.5955E+02  0.3333E+02  0.3329E+02
     -7.589  0.2172E+02  0.1886E+02  0.3451E+02  0.3431E+02
     -7.535  0.3734E+02  0.3537E+02  0.3653E+02  0.3623E+02
     -7.480  0.3396E+02  0.3698E+02  0.3838E+02  0.3824E+02
     -7.426  0.2230E+02  0.2231E+02  0.3959E+02  0.3946E+02
     -7.372  0.1984E+02  0.2209E+02  0.4067E+02  0.4066E+02
     -7.318  0.1698E+02  0.1291E+02  0.4159E+02  0.4136E+02
     -7.263  0.4222E+02  0.4248E+02  0.4388E+02  0.4366E+02
     -7.209  0.4696E+02  0.4571E+02  0.4643E+02  0.4615E+02
     -7.155  0.3950E+02  0.3632E+02  0.4858E+02  0.4812E+02
     -7.100  0.5323E+02  0.5519E+02  0.5147E+02  0.5112E+02
     -7.046  0.2390E+02  0.2898E+02  0.5277E+02  0.5269E+02
     -6.992  0.6897E+02  0.6309E+02  0.5652E+02  0.5612E+02
     -6.937  0.3976E+02  0.4674E+02  0.5868E+02  0.5866E+02
     -6.883  0.3685E+02  0.3686E+02  0.6068E+02  0.6066E+02
     -6.829  0.4255E+02  0.3579E+02  0.6299E+02  0.6260E+02
     -6.774  0.4930E+02  0.5625E+02  0.6567E+02  0.6566E+02
     -6.720  0.5099E+02  0.4516E+02  0.6844E+02  0.6811E+02
     -6.666  0.3426E+02  0.3836E+02  0.7030E+02  0.7020E+02
     -6.611  0.6136E+02  0.5628E+02  0.7363E+02  0.7325E+02
     -6.557  0.2520E+02  0.3217E+02  0.7500E+02  0.7500E+02
     -6.503  0.4980E+01  0.2229E+01  0.7527E+02  0.7512E+02
     -6.448  0.3093E+02  0.2769E+02  0.7695E+02  0.7663E+02
     -6.394  0.4532E+02  0.4644E+02  0.7941E+02  0.7915E+02
     -6.340  0.4829E+02  0.4378E+02  0.8204E+02  0.8153E+02
     -6.285  0.6565E+02  0.6448E+02  0.8560E+02  0.8503E+02
     -6.231  0.6796E+02  0.7279E+02  0.8929E+02  0.8898E+02
     -6.177  0.7884E+02  0.7979E+02  0.9358E+02  0.9332E+02
     -6.122  0.3884E+02  0.4324E+02  0.9569E+02  0.9566E+02
     -6.068  0.4522E+02  0.4014E+02  0.9814E+02  0.9785E+02
     -6.014  0.2468E+02  0.2843E+02  0.9948E+02  0.9939E+02
     -5.960  0.3204E+02  0.3025E+02  0.1012E+03  0.1010E+03
     -5.905  0.2648E+02  0.2921E+02  0.1027E+03  0.1026E+03
     -5.851  0.3166E+02  0.2438E+02  0.1044E+03  0.1039E+03
     -5.797  0.2838E+02  0.3236E+02  0.1059E+03  0.1057E+03
     -5.742  0.3054E+02  0.3130E+02  0.1076E+03  0.1074E+03
     -5.688  0.7181E+02  0.7033E+02  0.1115E+03  0.1112E+03
     -5.634  0.3065E+02  0.3233E+02  0.1131E+03  0.1130E+03
     -5.579  0.2467E+02  0.2298E+02  0.1145E+03  0.1142E+03
     -5.525  0.3850E+02  0.4100E+02  0.1166E+03  0.1165E+03
     -5.471  0.4631E+02  0.4466E+02  0.1191E+03  0.1189E+03
     -5.416  0.6791E+02  0.6946E+02  0.1228E+03  0.1227E+03
     -5.362  0.4121E+02  0.3659E+02  0.1250E+03  0.1246E+03
     -5.308  0.6095E+02  0.6788E+02  0.1283E+03  0.1283E+03
     -5.253  0.5355E+02  0.4500E+02  0.1312E+03  0.1308E+03
     -5.199  0.7717E+02  0.7763E+02  0.1354E+03  0.1350E+03
     -5.145  0.7377E+02  0.8012E+02  0.1394E+03  0.1393E+03
     -5.090  0.3184E+02  0.2875E+02  0.1412E+03  0.1409E+03
     -5.036  0.5872E+02  0.5902E+02  0.1444E+03  0.1441E+03
     -4.982  0.4617E+02  0.4308E+02  0.1469E+03  0.1464E+03
     -4.927  0.3859E+02  0.4311E+02  0.1490E+03  0.1488E+03
     -4.873  0.5083E+02  0.4850E+02  0.1517E+03  0.1514E+03
     -4.819  0.6963E+02  0.6852E+02  0.1555E+03  0.1551E+03
     -4.764  0.6769E+02  0.6702E+02  0.1592E+03  0.1588E+03
     -4.710  0.5715E+02  0.5811E+02  0.1623E+03  0.1619E+03
     -4.656  0.1458E+02  0.1767E+02  0.1631E+03  0.1629E+03
     -4.602  0.5749E+02  0.5201E+02  0.1662E+03  0.1657E+03
     -4.547  0.6741E+02  0.7068E+02  0.1699E+03  0.1696E+03
     -4.493  0.5658E+02  0.5950E+02  0.1729E+03  0.1728E+03
     -4.439  0.5593E+02  0.5208E+02  0.1760E+03  0.1756E+03
     -4.384  0.2637E+02  0.3164E+02  0.1774E+03  0.1773E+03
     -4.330  0.7525E+02  0.6630E+02  0.1815E+03  0.1809E+03
     -4.276  0.5369E+02  0.5832E+02  0.1844E+03  0.1841E+03
     -4.221  0.3269E+02  0.3061E+02  0.1862E+03  0.1858E+03
     -4.167  0.4145E+02  0.3816E+02  0.1884E+03  0.1879E+03
     -4.113  0.3939E+02  0.4671E+02  0.1906E+03  0.1904E+03
     -4.058  0.4514E+02  0.4108E+02  0.1930E+03  0.1926E+03
     -4.004  0.6139E+02  0.6813E+02  0.1964E+03  0.1963E+03
     -3.950  0.4588E+02  0.3810E+02  0.1989E+03  0.1984E+03
     -3.895  0.6506E+02  0.6728E+02  0.2024E+03  0.2020E+03
     -3.841  0.7810E+02  0.8205E+02  0.2066E+03  0.2065E+03
     -3.787  0.1447E+02  0.1559E+02  0.2074E+03  0.2073E+03
     -3.732  0.4780E+02  0.4037E+02  0.2100E+03  0.2095E+03
     -3.678  0.7502E+02  0.7622E+02  0.2141E+03  0.2137E+03
     -3.624  0.4259E+02  0.4841E+02  0.2164E+03  0.2163E+03
     -3.569  0.7885E+02  0.7507E+02  0.2207E+03  0.2204E+03
     -3.515  0.4253E+02  0.4803E+02  0.2230E+03  0.2230E+03
     -3.461  0.1356E+02  0.1006E+02  0.2237E+03  0.2235E+03
     -3.407  0.6499E+02  0.6627E+02  0.2273E+03  0.2271E+03
     -3.352  0.4904E+02  0.4238E+02  0.2299E+03  0.2294E+03
     -3.298  0.4218E+02  0.4866E+02  0.2322E+03  0.2321E+03
     -3.244  0.2641E+02  0.2486E+02  0.2337E+03  0.2334E+03
     -3.189  0.5645E+02  0.5396E+02  0.2367E+03  0.2364E+03
     -3.135  0.4076E+02  0.4448E+02  0.2389E+03  0.2388E+03
     -3.081  0.3197E+02  0.3452E+02  0.2407E+03  0.2407E+03
     -3.026  0.3593E+02  0.3287E+02  0.2426E+03  0.2424E+03
     -2.972  0.5793E+02  0.5752E+02  0.2458E+03  0.2456E+03
     -2.918  0.8401E+02  0.7384E+02  0.2503E+03  0.2496E+03
     -2.863  0.3679E+02  0.5048E+02  0.2523E+03  0.2523E+03
     -2.809  0.2739E+02  0.2496E+02  0.2538E+03  0.2537E+03
     -2.755  0.4224E+02  0.4026E+02  0.2561E+03  0.2559E+03
     -2.700  0.4591E+02  0.4767E+02  0.2586E+03  0.2585E+03
     -2.646  0.3694E+02  0.3769E+02  0.2606E+03  0.2605E+03
     -2.592  0.6558E+02  0.5568E+02  0.2642E+03  0.2635E+03
     -2.537  0.6682E+02  0.7145E+02  0.2678E+03  0.2674E+03
     -2.483  0.5418E+02  0.5551E+02  0.2707E+03  0.2704E+03
     -2.429  0.3145E+02  0.3528E+02  0.2725E+03  0.2723E+03
     -2.374  0.6745E+02  0.6621E+02  0.2761E+03  0.2759E+03
     -2.320  0.5274E+02  0.5346E+02  0.2790E+03  0.2788E+03
     -2.266  0.2362E+02  0.2347E+02  0.2803E+03  0.2801E+03
     -2.211  0.5624E+02  0.5444E+02  0.2833E+03  0.2831E+03
     -2.157  0.4285E+02  0.4656E+02  0.2857E+03  0.2856E+03
     -2.103  0.1276E+02  0.1343E+02  0.2863E+03  0.2863E+03
     -2.049  0.4559E+02  0.4122E+02  0.2888E+03  0.2886E+03
     -1.994  0.4550E+02  0.4341E+02  0.2913E+03  0.2909E+03
     -1.940  0.1100E+02  0.1630E+02  0.2919E+03  0.2918E+03
     -1.886  0.3269E+02  0.3396E+02  0.2937E+03  0.2937E+03
     -1.831  0.4450E+02  0.3908E+02  0.2961E+03  0.2958E+03
     -1.777  0.4167E+02  0.4576E+02  0.2983E+03  0.2983E+03
     -1.723  0.4298E+02  0.4159E+02  0.3007E+03  0.3005E+03
     -1.668  0.3063E+02  0.3093E+02  0.3023E+03  0.3022E+03
     -1.614  0.3406E+02  0.3396E+02  0.3042E+03  0.3041E+03
     -1.560  0.3324E+02  0.3579E+02  0.3060E+03  0.3060E+03
     -1.505  0.3969E+02  0.3670E+02  0.3082E+03  0.3080E+03
     -1.451  0.2311E+02  0.2022E+02  0.3094E+03  0.3091E+03
     -1.397  0.4396E+02  0.4655E+02  0.3118E+03  0.3116E+03
     -1.342  0.9713E+01  0.1251E+02  0.3123E+03  0.3123E+03
     -1.288  0.1781E+02  0.1678E+02  0.3133E+03  0.3132E+03
     -1.234  0.1295E+02  0.1453E+02  0.3140E+03  0.3140E+03
     -1.179  0.5744E+01  0.2744E+01  0.3143E+03  0.3141E+03
     -1.125  0.3721E+02  0.4021E+02  0.3163E+03  0.3163E+03
     -1.071  0.6245E+01  0.6146E+01  0.3167E+03  0.3167E+03
     -1.016  0.2159E+02  0.1848E+02  0.3178E+03  0.3177E+03
     -0.962  0.1668E+02  0.1876E+02  0.3188E+03  0.3187E+03
     -0.908  0.3478E+02  0.2917E+02  0.3206E+03  0.3203E+03
     -0.853  0.1275E+02  0.1949E+02  0.3213E+03  0.3213E+03
     -0.799  0.1358E+02  0.1246E+02  0.3221E+03  0.3220E+03
     -0.745  0.3063E+02  0.3069E+02  0.3237E+03  0.3237E+03
     -0.691  0.3915E+02  0.3673E+02  0.3259E+03  0.3257E+03
     -0.636  0.4549E+02  0.4891E+02  0.3283E+03  0.3283E+03
     -0.582  0.4040E+02  0.2701E+02  0.3305E+03  0.3298E+03
     -0.528  0.6438E+02  0.7295E+02  0.3340E+03  0.3338E+03
     -0.473  0.6126E+02  0.6150E+02  0.3374E+03  0.3371E+03
     -0.419  0.9059E+02  0.9154E+02  0.3423E+03  0.3421E+03
     -0.365  0.5631E+02  0.5587E+02  0.3453E+03  0.3451E+03
     -0.310  0.8586E+02  0.7651E+02  0.3500E+03  0.3493E+03
     -0.256  0.5605E+02  0.6249E+02  0.3530E+03  0.3527E+03
     -0.202  0.9440E+02  0.9386E+02  0.3582E+03  0.3578E+03
     -0.147  0.6216E+02  0.6434E+02  0.3615E+03  0.3613E+03
     -0.093  0.6124E+02  0.6031E+02  0.3649E+03  0.3645E+03
     -0.039  0.6850E+02  0.6356E+02  0.3686E+03  0.3680E+03
      0.016  0.8489E+02  0.8676E+02  0.3732E+03  0.3727E+03
      0.070  0.7175E+02  0.7732E+02  0.3771E+03  0.3769E+03
      0.124  0.9048E+02  0.8699E+02  0.3820E+03  0.3816E+03
      0.179  0.6133E+02  0.6385E+02  0.3853E+03  0.3851E+03
      0.233  0.8697E+02  0.7861E+02  0.3901E+03  0.3894E+03
      0.287  0.8317E+02  0.8677E+02  0.3946E+03  0.3941E+03
      0.342  0.9188E+02  0.9290E+02  0.3996E+03  0.3991E+03
      0.396  0.1052E+03  0.1066E+03  0.4053E+03  0.4049E+03
      0.450  0.1066E+03  0.1029E+03  0.4111E+03  0.4105E+03
      0.504  0.8947E+02  0.9070E+02  0.4159E+03  0.4154E+03
      0.559  0.1287E+03  0.1271E+03  0.4229E+03  0.4223E+03
      0.613  0.1105E+03  0.1059E+03  0.4289E+03  0.4281E+03
      0.667  0.1240E+03  0.1303E+03  0.4357E+03  0.4352E+03
      0.722  0.1730E+03  0.1620E+03  0.4451E+03  0.4440E+03
      0.776  0.9594E+02  0.1097E+03  0.4503E+03  0.4499E+03
      0.830  0.8787E+02  0.8389E+02  0.4551E+03  0.4545E+03
      0.885  0.1082E+03  0.1081E+03  0.4609E+03  0.4604E+03
      0.939  0.1122E+03  0.1154E+03  0.4670E+03  0.4666E+03
      0.993  0.1015E+03  0.9975E+02  0.4725E+03  0.4720E+03
      1.048  0.7472E+02  0.7568E+02  0.4766E+03  0.4761E+03
      1.102  0.1175E+03  0.1106E+03  0.4830E+03  0.4822E+03
      1.156  0.1053E+03  0.1052E+03  0.4887E+03  0.4879E+03
      1.211  0.9488E+02  0.9710E+02  0.4939E+03  0.4931E+03
      1.265  0.1536E+03  0.1460E+03  0.5022E+03  0.5011E+03
      1.319  0.1220E+03  0.1288E+03  0.5088E+03  0.5081E+03
      1.374  0.1081E+03  0.1150E+03  0.5147E+03  0.5143E+03
      1.428  0.1041E+03  0.1032E+03  0.5204E+03  0.5199E+03
      1.482  0.1053E+03  0.1034E+03  0.5261E+03  0.5255E+03
      1.537  0.1225E+03  0.1194E+03  0.5327E+03  0.5320E+03
      1.591  0.1212E+03  0.1207E+03  0.5393E+03  0.5386E+03
      1.645  0.9058E+02  0.9431E+02  0.5442E+03  0.5437E+03
      1.700  0.1192E+03  0.1197E+03  0.5507E+03  0.5502E+03
      1.754  0.9763E+02  0.9824E+02  0.5560E+03  0.5556E+03
      1.808  0.1344E+03  0.1312E+03  0.5633E+03  0.5627E+03
      1.862  0.1003E+03  0.1007E+03  0.5688E+03  0.5681E+03
      1.917  0.6963E+02  0.7295E+02  0.5725E+03  0.5721E+03
      1.971  0.1083E+03  0.1021E+03  0.5784E+03  0.5777E+03
      2.025  0.8296E+02  0.9299E+02  0.5829E+03  0.5827E+03
      2.080  0.1164E+03  0.1080E+03  0.5893E+03  0.5886E+03
      2.134  0.7019E+02  0.7269E+02  0.5931E+03  0.5925E+03
      2.188  0.7654E+02  0.7833E+02  0.5972E+03  0.5968E+03
      2.243  0.1111E+03  0.1093E+03  0.6033E+03  0.6027E+03
      2.297  0.8113E+02  0.8476E+02  0.6077E+03  0.6073E+03
      2.351  0.6855E+02  0.6537E+02  0.6114E+03  0.6109E+03
      2.406  0.6764E+02  0.7147E+02  0.6151E+03  0.6148E+03
      2.460  0.6269E+02  0.5881E+02  0.6185E+03  0.6179E+03
      2.514  0.7609E+02  0.7551E+02  0.6226E+03  0.6220E+03
      2.569  0.1089E+03  0.1096E+03  0.6285E+03  0.6280E+03
      2.623  0.4090E+02  0.4471E+02  0.6307E+03  0.6304E+03
      2.677  0.6355E+02  0.6183E+02  0.6342E+03  0.6338E+03
      2.732  0.7586E+02  0.7858E+02  0.6383E+03  0.6381E+03
      2.786  0.7920E+02  0.8033E+02  0.6426E+03  0.6424E+03
      2.840  0.6006E+02  0.5415E+02  0.6459E+03  0.6454E+03
      2.895  0.4008E+02  0.4860E+02  0.6481E+03  0.6480E+03
      2.949  0.4029E+02  0.3800E+02  0.6502E+03  0.6501E+03
      3.003  0.5143E+02  0.5089E+02  0.6530E+03  0.6528E+03
      3.058  0.6037E+02  0.6030E+02  0.6563E+03  0.6561E+03
      3.112  0.3834E+02  0.4132E+02  0.6584E+03  0.6584E+03
      3.166  0.2421E+02  0.2085E+02  0.6597E+03  0.6595E+03
      3.220  0.6276E+02  0.6048E+02  0.6631E+03  0.6628E+03
      3.275  0.4495E+02  0.4854E+02  0.6656E+03  0.6654E+03
      3.329  0.4583E+02  0.4253E+02  0.6681E+03  0.6677E+03
      3.383  0.3615E+02  0.4203E+02  0.6700E+03  0.6700E+03
      3.438  0.3618E+02  0.3258E+02  0.6720E+03  0.6718E+03
      3.492  0.1892E+02  0.1857E+02  0.6730E+03  0.6728E+03
      3.546  0.2499E+02  0.2860E+02  0.6744E+03  0.6743E+03
      3.601  0.6377E+02  0.5401E+02  0.6778E+03  0.6773E+03
      3.655  0.2337E+02  0.2840E+02  0.6791E+03  0.6788E+03
      3.709  0.4774E+02  0.4518E+02  0.6817E+03  0.6813E+03
      3.764  0.2391E+02  0.3197E+02  0.6830E+03  0.6830E+03
      3.818  0.1388E+02  0.5586E+01  0.6838E+03  0.6833E+03
      3.872  0.4558E+01  0.1283E+02  0.6840E+03  0.6840E+03
      3.927  0.4152E+02  0.3909E+02  0.6863E+03  0.6861E+03
      3.981  0.1415E+01  0.3859E+01  0.6863E+03  0.6863E+03
      4.035  0.1552E+02  0.8097E+01  0.6872E+03  0.6868E+03
      4.090  0.2151E+02  0.2872E+02  0.6883E+03  0.6883E+03
      4.144  0.2229E+02  0.1826E+02  0.6896E+03  0.6893E+03
      4.198  0.6249E+02  0.5322E+02  0.6929E+03  0.6922E+03
      4.253  0.2523E+02  0.3527E+02  0.6943E+03  0.6941E+03
      4.307  0.1865E+02  0.2213E+02  0.6953E+03  0.6953E+03
      4.361  0.2360E+02  0.1742E+02  0.6966E+03  0.6963E+03
      4.415  0.5164E+02  0.5120E+02  0.6994E+03  0.6991E+03
      4.470  0.4406E+02  0.4356E+02  0.7018E+03  0.7014E+03
      4.524  0.6526E+02  0.6849E+02  0.7054E+03  0.7051E+03
      4.578  0.7624E+02  0.7524E+02  0.7095E+03  0.7092E+03
      4.633  0.9844E+02  0.9502E+02  0.7148E+03  0.7144E+03
      4.687  0.4081E+02  0.4246E+02  0.7171E+03  0.7167E+03
      4.741  0.9566E+02  0.9196E+02  0.7223E+03  0.7217E+03
      4.796  0.8820E+02  0.9216E+02  0.7271E+03  0.7267E+03
      4.850  0.6339E+02  0.6408E+02  0.7305E+03  0.7302E+03
      4.904  0.8945E+02  0.8791E+02  0.7354E+03  0.7350E+03
      4.959  0.8812E+02  0.8502E+02  0.7401E+03  0.7396E+03
      5.013  0.1144E+03  0.1204E+03  0.7464E+03  0.7461E+03
      5.067  0.9824E+02  0.9695E+02  0.7517E+03  0.7514E+03
      5.122  0.1149E+03  0.1127E+03  0.7579E+03  0.7575E+03
      5.176  0.9611E+02  0.9717E+02  0.7632E+03  0.7628E+03
      5.230  0.1106E+03  0.1058E+03  0.7692E+03  0.7685E+03
      5.285  0.9118E+02  0.9419E+02  0.7741E+03  0.7737E+03
      5.339  0.8612E+02  0.8544E+02  0.7788E+03  0.7783E+03
      5.393  0.1098E+03  0.1095E+03  0.7848E+03  0.7842E+03
      5.448  0.1163E+03  0.1215E+03  0.7911E+03  0.7908E+03
      5.502  0.1368E+03  0.1207E+03  0.7985E+03  0.7974E+03
      5.556  0.7654E+02  0.9342E+02  0.8027E+03  0.8025E+03
      5.611  0.3411E+02  0.3968E+02  0.8045E+03  0.8046E+03
      5.665  0.5163E+02  0.4962E+02  0.8073E+03  0.8073E+03
      5.719  0.1257E+02  0.1237E+02  0.8080E+03  0.8080E+03
      5.773  0.0000E+00  0.0000E+00  0.8080E+03  0.8080E+03
      5.828  0.0000E+00  0.0000E+00  0.8080E+03  0.8080E+03
      5.882  0.0000E+00  0.0000E+00  0.8080E+03  0.8080E+03
      5.936  0.0000E+00  0.0000E+00  0.8080E+03  0.8080E+03
      5.991  0.0000E+00  0.0000E+00  0.8080E+03  0.8080E+03
      6.045  0.0000E+00  0.0000E+00  0.8080E+03  0.8080E+03
      6.099  0.0000E+00  0.0000E+00  0.8080E+03  0.8080E+03
      6.154  0.0000E+00  0.0000E+00  0.8080E+03  0.8080E+03
      6.208  0.0000E+00  0.0000E+00  0.8080E+03  0.8080E+03
      6.262  0.0000E+00  0.0000E+00  0.8080E+03  0.8080E+03
      6.317  0.0000E+00  0.0000E+00  0.8080E+03  0.8080E+03
      6.371  0.0000E+00  0.0000E+00  0.8080E+03  0.8080E+03
      6.425  0.0000E+00  0.0000E+00  0.8080E+03  0.8080E+03
