<?xml version="1.0" encoding="ISO-8859-1"?>
<modeling>
 <generator>
  <i name="program" type="string">vasp </i>
  <i name="version" type="string">6.4.3  </i>
  <i name="subversion" type="string">19Mar24 (build Oct 22 2024 11:23:12) complex                          parallel </i>
  <i name="platform" type="string">LinuxIFC </i>
  <i name="date" type="string">2025 06 08 </i>
  <i name="time" type="string">20:45:46 </i>
 </generator>
 <incar>
  <i type="string" name="SYSTEM">Si and Ge interface calculation</i>
  <i type="int" name="ISTART">     0</i>
  <i type="logical" name="ADDGRID"> T  </i>
  <i type="int" name="ISPIN">     2</i>
  <i name="AMIX">      0.60000000</i>
  <i type="int" name="ICHARG">     2</i>
  <i type="int" name="NELM">   100</i>
  <i name="EDIFF">      0.00000010</i>
  <i name="ENCUT">    700.00000000</i>
  <i name="ENAUG">    900.00000000</i>
  <i type="int" name="NBANDS">   404</i>
  <i name="NUPDOWN">      1.00000000</i>
  <i name="NELECT">    672.00000000</i>
  <i type="string" name="LREAL">AUTO</i>
  <i type="int" name="ISMEAR">     0</i>
  <i name="SIGMA">      0.01000000</i>
  <i type="int" name="LMAXMIX">     6</i>
  <i type="logical" name="LWAVE"> F  </i>
  <i type="logical" name="LVTOT"> F  </i>
  <i type="logical" name="LVHAR"> T  </i>
  <i type="logical" name="LASPH"> T  </i>
  <i type="logical" name="LMIXTAU"> T  </i>
 </incar>
 <primitive_cell>
  <structure name="primitive_cell" >
   <crystal>
    <varray name="basis" >
     <v>       0.00000000      -8.00133800       0.00000000 </v>
     <v>      11.31560040       0.00000000       0.00000000 </v>
     <v>       0.00000000       0.00000000      25.60421562 </v>
    </varray>
    <i name="volume">   2318.20423552 </i>
    <varray name="rec_basis" >
     <v>       0.00000000      -0.12497910       0.00000000 </v>
     <v>       0.08837357       0.00000000       0.00000000 </v>
     <v>       0.00000000       0.00000000       0.03905607 </v>
    </varray>
   </crystal>
   <varray name="positions" >
    <v>       0.08801168       0.97066277       0.00000002 </v>
    <v>       0.83801174       0.72066271       0.07812522 </v>
    <v>       0.58801174       0.47066277       0.15625042 </v>
    <v>       0.33801150       0.22066289       0.23437557 </v>
    <v>       0.08801174       0.97066271       0.31250080 </v>
    <v>       0.83801174       0.72066271       0.39062604 </v>
    <v>       0.08801168       0.47066277       0.00000002 </v>
    <v>       0.83801174       0.22066276       0.07812522 </v>
    <v>       0.58801174       0.97066277       0.15625042 </v>
    <v>       0.33801150       0.72066283       0.23437557 </v>
    <v>       0.08801174       0.47066283       0.31250080 </v>
    <v>       0.83801174       0.22066277       0.39062604 </v>
    <v>       0.58801174       0.97066277       0.00000002 </v>
    <v>       0.33801174       0.72066271       0.07812521 </v>
    <v>       0.08801174       0.47066277       0.15625040 </v>
    <v>       0.83801150       0.22066289       0.23437560 </v>
    <v>       0.58801162       0.97066271       0.31250080 </v>
    <v>       0.33801174       0.72066271       0.39062601 </v>
    <v>       0.58801174       0.47066277       0.00000002 </v>
    <v>       0.33801174       0.22066276       0.07812521 </v>
    <v>       0.08801174       0.97066277       0.15625040 </v>
    <v>       0.83801150       0.72066283       0.23437560 </v>
    <v>       0.58801162       0.47066283       0.31250080 </v>
    <v>       0.33801174       0.22066277       0.39062601 </v>
    <v>       0.83801162       0.34566274       0.00000003 </v>
    <v>       0.58801174       0.09566276       0.07812521 </v>
    <v>       0.33801174       0.84566277       0.15625040 </v>
    <v>       0.08801150       0.59566283       0.23437557 </v>
    <v>       0.83801150       0.34566277       0.31250077 </v>
    <v>       0.58801174       0.09566271       0.39062604 </v>
    <v>       0.83801162       0.84566283       0.00000003 </v>
    <v>       0.58801174       0.59566277       0.07812521 </v>
    <v>       0.33801174       0.34566280       0.15625040 </v>
    <v>       0.08801150       0.09566288       0.23437557 </v>
    <v>       0.83801150       0.84566283       0.31250077 </v>
    <v>       0.58801174       0.59566277       0.39062604 </v>
    <v>       0.33801174       0.34566274       0.00000002 </v>
    <v>       0.08801162       0.09566276       0.07812521 </v>
    <v>       0.83801174       0.84566277       0.15625040 </v>
    <v>       0.58801150       0.59566283       0.23437560 </v>
    <v>       0.33801150       0.34566277       0.31250077 </v>
    <v>       0.08801174       0.09566271       0.39062601 </v>
    <v>       0.33801174       0.84566283       0.00000002 </v>
    <v>       0.08801162       0.59566277       0.07812521 </v>
    <v>       0.83801174       0.34566280       0.15625040 </v>
    <v>       0.58801150       0.09566288       0.23437560 </v>
    <v>       0.33801150       0.84566283       0.31250077 </v>
    <v>       0.08801174       0.59566277       0.39062601 </v>
    <v>       0.78165102       0.12500000       0.47129923 </v>
    <v>       0.28165078       0.12500000       0.56090474 </v>
    <v>       0.78165054       0.12499988       0.65051037 </v>
    <v>       0.28165007       0.12499976       0.74011582 </v>
    <v>       0.78165007       0.12499976       0.82972133 </v>
    <v>       0.28164983       0.12499976       0.91932684 </v>
    <v>       0.11498427       0.45833337       0.47129923 </v>
    <v>       0.61498404       0.45833334       0.56090474 </v>
    <v>       0.11498404       0.45833331       0.65051037 </v>
    <v>       0.61498356       0.45833322       0.74011582 </v>
    <v>       0.11498332       0.45833328       0.82972133 </v>
    <v>       0.61498284       0.45833311       0.91932684 </v>
    <v>       0.44831753       0.79166675       0.47129923 </v>
    <v>       0.94831753       0.79166669       0.56090480 </v>
    <v>       0.44831705       0.79166669       0.65051037 </v>
    <v>       0.94831705       0.79166663       0.74011582 </v>
    <v>       0.44831681       0.79166657       0.82972133 </v>
    <v>       0.94831634       0.79166657       0.91932684 </v>
    <v>       0.11498404       0.20833334       0.47129923 </v>
    <v>       0.61498404       0.20833328       0.56090480 </v>
    <v>       0.11498404       0.20833328       0.65051037 </v>
    <v>       0.61498380       0.20833313       0.74011582 </v>
    <v>       0.11498332       0.20833313       0.82972139 </v>
    <v>       0.61498284       0.20833307       0.91932684 </v>
    <v>       0.44831753       0.54166675       0.47129923 </v>
    <v>       0.94831753       0.54166663       0.56090480 </v>
    <v>       0.44831705       0.54166657       0.65051037 </v>
    <v>       0.94831705       0.54166657       0.74011582 </v>
    <v>       0.44831681       0.54166639       0.82972133 </v>
    <v>       0.94831657       0.54166651       0.91932684 </v>
    <v>       0.78165090       0.87500000       0.47129923 </v>
    <v>       0.28165078       0.87499994       0.56090480 </v>
    <v>       0.78165054       0.87500000       0.65051037 </v>
    <v>       0.28165030       0.87499982       0.74011582 </v>
    <v>       0.78165007       0.87499982       0.82972133 </v>
    <v>       0.28164983       0.87499976       0.91932684 </v>
   </varray>
  </structure>
  <varray name="primitive_index" >
   <v type="int" >        1 </v>
   <v type="int" >       14 </v>
   <v type="int" >        3 </v>
   <v type="int" >        4 </v>
   <v type="int" >       17 </v>
   <v type="int" >        6 </v>
   <v type="int" >        7 </v>
   <v type="int" >       20 </v>
   <v type="int" >        9 </v>
   <v type="int" >       10 </v>
   <v type="int" >       23 </v>
   <v type="int" >       12 </v>
   <v type="int" >       25 </v>
   <v type="int" >       26 </v>
   <v type="int" >       39 </v>
   <v type="int" >       28 </v>
   <v type="int" >       29 </v>
   <v type="int" >       42 </v>
   <v type="int" >       31 </v>
   <v type="int" >       32 </v>
   <v type="int" >       45 </v>
   <v type="int" >       34 </v>
   <v type="int" >       35 </v>
   <v type="int" >       48 </v>
   <v type="int" >       49 </v>
   <v type="int" >       62 </v>
   <v type="int" >       63 </v>
   <v type="int" >       52 </v>
   <v type="int" >       65 </v>
   <v type="int" >       54 </v>
   <v type="int" >       55 </v>
   <v type="int" >       68 </v>
   <v type="int" >       69 </v>
   <v type="int" >       58 </v>
   <v type="int" >       71 </v>
   <v type="int" >       60 </v>
   <v type="int" >       85 </v>
   <v type="int" >       74 </v>
   <v type="int" >       87 </v>
   <v type="int" >       88 </v>
   <v type="int" >       77 </v>
   <v type="int" >       90 </v>
   <v type="int" >       91 </v>
   <v type="int" >       80 </v>
   <v type="int" >       93 </v>
   <v type="int" >       94 </v>
   <v type="int" >       83 </v>
   <v type="int" >       96 </v>
   <v type="int" >       97 </v>
   <v type="int" >      116 </v>
   <v type="int" >      117 </v>
   <v type="int" >      100 </v>
   <v type="int" >      101 </v>
   <v type="int" >      120 </v>
   <v type="int" >      121 </v>
   <v type="int" >      122 </v>
   <v type="int" >      105 </v>
   <v type="int" >      106 </v>
   <v type="int" >      125 </v>
   <v type="int" >      126 </v>
   <v type="int" >      109 </v>
   <v type="int" >      110 </v>
   <v type="int" >      129 </v>
   <v type="int" >      130 </v>
   <v type="int" >      113 </v>
   <v type="int" >      114 </v>
   <v type="int" >      151 </v>
   <v type="int" >      152 </v>
   <v type="int" >      135 </v>
   <v type="int" >      136 </v>
   <v type="int" >      155 </v>
   <v type="int" >      156 </v>
   <v type="int" >      139 </v>
   <v type="int" >      140 </v>
   <v type="int" >      159 </v>
   <v type="int" >      160 </v>
   <v type="int" >      143 </v>
   <v type="int" >      144 </v>
   <v type="int" >      145 </v>
   <v type="int" >      164 </v>
   <v type="int" >      165 </v>
   <v type="int" >      148 </v>
   <v type="int" >      149 </v>
   <v type="int" >      168 </v>
  </varray>
 </primitive_cell>
 <kpoints>
  <generation param="Gamma">
   <v type="int" name="divisions">       3        2        1 </v>
   <v name="usershift">      0.00000000       0.00000000       0.00000000 </v>
   <v name="genvec1">      0.33333333       0.00000000       0.00000000 </v>
   <v name="genvec2">      0.00000000       0.50000000       0.00000000 </v>
   <v name="genvec3">      0.00000000       0.00000000       1.00000000 </v>
   <v name="shift">      0.00000000       0.00000000       0.00000000 </v>
  </generation>
  <varray name="kpointlist" >
   <v>       0.00000000       0.00000000       0.00000000 </v>
   <v>       0.33333333       0.00000000       0.00000000 </v>
   <v>       0.00000000       0.50000000       0.00000000 </v>
   <v>       0.33333333       0.50000000       0.00000000 </v>
  </varray>
  <varray name="weights" >
   <v>       0.16666667 </v>
   <v>       0.33333333 </v>
   <v>       0.16666667 </v>
   <v>       0.33333333 </v>
  </varray>
 </kpoints>
 <parameters>
  <separator name="general" >
   <i type="string" name="SYSTEM">Si and Ge interface calculation</i>
   <i type="logical" name="LCOMPAT"> F  </i>
  </separator>
  <separator name="electronic" >
   <i type="string" name="PREC">normal</i>
   <i name="ENMAX">    700.00000000</i>
   <i name="ENAUG">    900.00000000</i>
   <i name="EDIFF">      0.00000010</i>
   <i type="int" name="IALGO">    38</i>
   <i type="int" name="IWAVPR">    10</i>
   <i type="int" name="NBANDS">   404</i>
   <i type="int" name="NBANDSLOW">    -1</i>
   <i type="int" name="NBANDSHIGH">    -1</i>
   <i name="NELECT">    672.00000000</i>
   <i type="int" name="TURBO">     0</i>
   <i type="int" name="IRESTART">     0</i>
   <i type="int" name="NREBOOT">     0</i>
   <i type="int" name="NMIN">     0</i>
   <i name="EREF">      0.00000000</i>
   <separator name="electronic smearing" >
    <i type="int" name="ISMEAR">     0</i>
    <i name="SIGMA">      0.01000000</i>
    <i name="KSPACING">      0.50000000</i>
    <i type="logical" name="KGAMMA"> T  </i>
    <i type="logical" name="KBLOWUP"> T  </i>
   </separator>
   <separator name="electronic projectors" >
    <i type="logical" name="LREAL"> T  </i>
    <v name="ROPT">     -0.00050000     -0.00050000</v>
    <i type="int" name="LMAXPAW">  -100</i>
    <i type="int" name="LMAXMIX">     6</i>
    <i type="logical" name="NLSPLINE"> F  </i>
   </separator>
   <separator name="electronic startup" >
    <i type="int" name="ISTART">     0</i>
    <i type="int" name="ICHARG">     2</i>
    <i type="int" name="INIWAV">     1</i>
   </separator>
   <separator name="electronic spin" >
    <i type="int" name="ISPIN">     2</i>
    <i type="logical" name="LNONCOLLINEAR"> F  </i>
    <v name="MAGMOM">      0.00595238      0.00595238      0.00595238      0.00595238      0.00595238      0.00595238      0.00595238      0.00595238      0.00595238      0.00595238      0.00595238      0.00595238      0.00595238      0.00595238      0.00595238      0.00595238      0.00595238      0.00595238      0.00595238      0.00595238
      0.00595238      0.00595238      0.00595238      0.00595238      0.00595238      0.00595238      0.00595238      0.00595238      0.00595238      0.00595238      0.00595238      0.00595238      0.00595238      0.00595238      0.00595238      0.00595238      0.00595238      0.00595238      0.00595238      0.00595238
      0.00595238      0.00595238      0.00595238      0.00595238      0.00595238      0.00595238      0.00595238      0.00595238      0.00595238      0.00595238      0.00595238      0.00595238      0.00595238      0.00595238      0.00595238      0.00595238      0.00595238      0.00595238      0.00595238      0.00595238
      0.00595238      0.00595238      0.00595238      0.00595238      0.00595238      0.00595238      0.00595238      0.00595238      0.00595238      0.00595238      0.00595238      0.00595238      0.00595238      0.00595238      0.00595238      0.00595238      0.00595238      0.00595238      0.00595238      0.00595238
      0.00595238      0.00595238      0.00595238      0.00595238      0.00595238      0.00595238      0.00595238      0.00595238      0.00595238      0.00595238      0.00595238      0.00595238      0.00595238      0.00595238      0.00595238      0.00595238      0.00595238      0.00595238      0.00595238      0.00595238
      0.00595238      0.00595238      0.00595238      0.00595238      0.00595238      0.00595238      0.00595238      0.00595238      0.00595238      0.00595238      0.00595238      0.00595238      0.00595238      0.00595238      0.00595238      0.00595238      0.00595238      0.00595238      0.00595238      0.00595238
      0.00595238      0.00595238      0.00595238      0.00595238      0.00595238      0.00595238      0.00595238      0.00595238      0.00595238      0.00595238      0.00595238      0.00595238      0.00595238      0.00595238      0.00595238      0.00595238      0.00595238      0.00595238      0.00595238      0.00595238
      0.00595238      0.00595238      0.00595238      0.00595238      0.00595238      0.00595238      0.00595238      0.00595238      0.00595238      0.00595238      0.00595238      0.00595238      0.00595238      0.00595238      0.00595238      0.00595238      0.00595238      0.00595238      0.00595238      0.00595238
      0.00595238      0.00595238      0.00595238      0.00595238      0.00595238      0.00595238      0.00595238      0.00595238</v>
    <i name="NUPDOWN">      1.00000000</i>
    <i type="logical" name="LSORBIT"> F  </i>
    <v name="SAXIS">      0.00000000      0.00000000      1.00000000</v>
    <i type="logical" name="LSPIRAL"> F  </i>
    <v name="QSPIRAL">      0.00000000      0.00000000      0.00000000</v>
    <i type="logical" name="LZEROZ"> F  </i>
   </separator>
   <separator name="electronic exchange-correlation" >
    <i type="logical" name="LASPH"> T  </i>
   </separator>
   <separator name="electronic convergence" >
    <i type="int" name="NELM">   100</i>
    <i type="int" name="NELMDL">    -5</i>
    <i type="int" name="NELMIN">     2</i>
    <i name="ENINI">    700.00000000</i>
    <separator name="electronic convergence detail" >
     <i type="logical" name="LDIAG"> T  </i>
     <i type="logical" name="LSUBROT"> F  </i>
     <i name="WEIMIN">      0.00000000</i>
     <i name="EBREAK">      0.00000000</i>
     <i name="DEPER">      0.30000000</i>
     <i type="int" name="NRMM">     4</i>
     <i name="TIME">      0.40000000</i>
    </separator>
   </separator>
   <separator name="electronic mixer" >
    <i name="AMIX">      0.60000000</i>
    <i name="BMIX">      1.00000000</i>
    <i name="AMIN">      0.10000000</i>
    <i name="AMIX_MAG">      2.40000000</i>
    <i name="BMIX_MAG">      1.00000000</i>
    <separator name="electronic mixer details" >
     <i type="int" name="IMIX">     4</i>
     <i type="logical" name="MIXFIRST"> F  </i>
     <i type="int" name="MAXMIX">   -45</i>
     <i name="WC">    100.00000000</i>
     <i type="int" name="INIMIX">     1</i>
     <i type="int" name="MIXPRE">     1</i>
     <i type="int" name="MREMOVE">     5</i>
    </separator>
   </separator>
   <separator name="electronic dipolcorrection" >
    <i type="logical" name="LDIPOL"> F  </i>
    <i type="logical" name="LMONO"> F  </i>
    <i type="int" name="IDIPOL">     0</i>
    <i name="EPSILON">      1.00000000</i>
    <v name="DIPOL">   -100.00000000   -100.00000000   -100.00000000</v>
    <i name="EFIELD">      0.00000000</i>
    <i type="logical" name="LVACPOTAV"> F  </i>
   </separator>
  </separator>
  <separator name="grids" >
   <i type="int" name="NGX">    80</i>
   <i type="int" name="NGY">   108</i>
   <i type="int" name="NGZ">   168</i>
   <i type="int" name="NGXF">   160</i>
   <i type="int" name="NGYF">   216</i>
   <i type="int" name="NGZF">   336</i>
   <i type="logical" name="ADDGRID"> T  </i>
  </separator>
  <separator name="ionic" >
   <i type="int" name="NSW">     0</i>
   <i type="int" name="IBRION">    -1</i>
   <i type="int" name="MDALGO">     0</i>
   <i type="int" name="ISIF">     2</i>
   <i name="PSTRESS">      0.00000000</i>
   <i name="EDIFFG">      0.00000100</i>
   <i type="int" name="NFREE">     0</i>
   <i name="POTIM">      0.50000000</i>
   <i name="SMASS">     -3.00000000</i>
   <i name="SCALEE">      1.00000000</i>
  </separator>
  <separator name="ionic md" >
   <i name="TEBEG">      0.00010000</i>
   <i name="TEEND">      0.00010000</i>
   <i type="int" name="NBLOCK">     1</i>
   <i type="int" name="KBLOCK">     1</i>
   <i type="int" name="NPACO">   256</i>
   <i name="APACO">     10.00000000</i>
  </separator>
  <separator name="symmetry" >
   <i type="int" name="ISYM">     2</i>
   <i name="SYMPREC">      0.00001000</i>
  </separator>
  <separator name="dos" >
   <i type="int" name="LORBIT">     0</i>
   <v name="RWIGS">     -1.00000000     -1.00000000</v>
   <i type="int" name="NEDOS">   301</i>
   <i name="EMIN">     10.00000000</i>
   <i name="EMAX">    -10.00000000</i>
   <i name="EFERMI">      0.00000000</i>
  </separator>
  <separator name="writing" >
   <i type="int" name="NWRITE">     2</i>
   <i type="logical" name="LWAVE"> F  </i>
   <i type="logical" name="LDOWNSAMPLE"> F  </i>
   <i type="logical" name="LCHARG"> T  </i>
   <i type="logical" name="LPARD"> F  </i>
   <i type="logical" name="LVTOT"> F  </i>
   <i type="logical" name="LVHAR"> T  </i>
   <i type="logical" name="LELF"> F  </i>
   <i type="logical" name="LOPTICS"> F  </i>
   <v name="STM">      0.00000000      0.00000000      0.00000000      0.00000000      0.00000000      0.00000000      0.00000000</v>
  </separator>
  <separator name="performance" >
   <i type="int" name="NPAR">     4</i>
   <i type="int" name="NSIM">     4</i>
   <i type="int" name="NBLK">    -1</i>
   <i type="logical" name="LPLANE"> T  </i>
   <i type="logical" name="LSCALAPACK"> T  </i>
   <i type="logical" name="LSCAAWARE"> F  </i>
   <i type="logical" name="LSCALU"> F  </i>
   <i type="logical" name="LASYNC"> F  </i>
   <i type="logical" name="LORBITALREAL"> F  </i>
  </separator>
  <separator name="miscellaneous" >
   <i type="int" name="IDIOT">     3</i>
   <i type="int" name="PHON_NSTRUCT">    -1</i>
   <i type="logical" name="LMUSIC"> F  </i>
   <v name="POMASS">     72.61000000    118.71000000</v>
   <v name="DARWINR">      0.00000000      0.00000000</v>
   <v name="DARWINV">      1.00000000      1.00000000</v>
   <i type="logical" name="LCORR"> T  </i>
  </separator>
  <i type="logical" name="GGA_COMPAT"> T  </i>
  <i type="logical" name="LBERRY"> F  </i>
  <i type="int" name="ICORELEVEL">     0</i>
  <i type="logical" name="LDAU"> F  </i>
  <i type="int" name="I_CONSTRAINED_M">     0</i>
  <separator name="electronic exchange-correlation" >
   <i type="string" name="GGA    ">PE</i>
   <i type="string" name="XC_C">1</i>
   <i type="int" name="VOSKOWN">     0</i>
   <i type="logical" name="LHFCALC"> F  </i>
   <i type="string" name="PRECFOCK"></i>
   <i type="logical" name="LSYMGRAD"> F  </i>
   <i type="logical" name="LHFONE"> F  </i>
   <i type="logical" name="LRHFCALC"> F  </i>
   <i type="logical" name="LTHOMAS"> F  </i>
   <i type="logical" name="LMODELHF"> F  </i>
   <i type="logical" name="LFOCKACE"> F  </i>
   <i name="ENCUT4O">     -1.00000000</i>
   <i type="int" name="EXXOEP">     0</i>
   <i type="int" name="FOURORBIT">     0</i>
   <i name="AEXX">      0.00000000</i>
   <i name="HFALPHA">      0.00000000</i>
   <i name="MCALPHA">      0.00000000</i>
   <i name="ALDAX">      1.00000000</i>
   <i name="AGGAX">      1.00000000</i>
   <i name="AMGGAX">      1.00000000</i>
   <i name="ALDAC">      1.00000000</i>
   <i name="AGGAC">      1.00000000</i>
   <i name="AMGGAC">      1.00000000</i>
   <i type="int" name="NKREDX">     1</i>
   <i type="int" name="NKREDY">     1</i>
   <i type="int" name="NKREDZ">     1</i>
   <i type="logical" name="SHIFTRED"> F  </i>
   <i type="logical" name="ODDONLY"> F  </i>
   <i type="logical" name="EVENONLY"> F  </i>
   <i type="int" name="LMAXFOCK">     0</i>
   <i type="int" name="NMAXFOCKAE">     0</i>
   <i type="logical" name="LFOCKAEDFT"> F  </i>
   <i name="HFSCREEN">      0.00000000</i>
   <i name="HFSCREENC">      0.00000000</i>
   <i type="int" name="NBANDSGWLOW">     0</i>
  </separator>
  <separator name="vdW DFT" >
   <i type="logical" name="LUSE_VDW"> F  </i>
   <i type="int" name="IVDW_NL">    -1</i>
   <i type="logical" name="LSPIN_VDW"> F  </i>
   <i name="ZAB_VDW">     -0.84910000</i>
   <i name="GAMMA_VDW">      1.39626340</i>
   <i name="ALPHA_VDW">      0.00000000</i>
   <i name="PARAM1">      0.12340000</i>
   <i name="PARAM2">      1.00000000</i>
   <i name="BPARAM">      6.30000000</i>
   <i name="CPARAM">      0.00930000</i>
  </separator>
  <separator name="model GW" >
   <i type="int" name="MODEL_GW">     0</i>
   <i name="MODEL_EPS0">     16.55860168</i>
   <i name="MODEL_ALPHA">      1.00000000</i>
  </separator>
  <separator name="linear response parameters" >
   <i type="logical" name="LEPSILON"> F  </i>
   <i type="logical" name="LRPA"> F  </i>
   <i type="logical" name="LNABLA"> F  </i>
   <i type="logical" name="LVEL"> F  </i>
   <i name="CSHIFT">      0.10000000</i>
   <i name="OMEGAMAX">     -1.00000000</i>
   <i name="DEG_THRESHOLD">      0.00200000</i>
   <i name="RTIME">     -0.10000000</i>
   <i name="WPLASMAI">      0.00000000</i>
   <v name="DFIELD">      0.00000000      0.00000000      0.00000000</v>
   <v name="WPLASMA">      0.00000000      0.00000000      0.00000000      0.00000000      0.00000000      0.00000000      0.00000000      0.00000000      0.00000000</v>
  </separator>
  <separator name="orbital magnetization" >
   <i type="logical" name="NUCIND"> F  </i>
   <v name="MAGPOS">      0.00000000      0.00000000      0.00000000</v>
   <i type="logical" name="LNICSALL"> T  </i>
   <i type="logical" name="ORBITALMAG"> F  </i>
   <i type="logical" name="LMAGBLOCH"> F  </i>
   <i type="logical" name="LCHIMAG"> F  </i>
   <i type="logical" name="LGAUGE"> T  </i>
   <i type="int" name="MAGATOM">     0</i>
   <v name="MAGDIPOL">      0.00000000      0.00000000      0.00000000</v>
   <v name="AVECCONST">      0.00000000      0.00000000      0.00000000</v>
  </separator>
  <separator name="response functions" >
   <i type="logical" name="LALL_IN_ONE"> F  </i>
   <i type="int" name="IALL_IN_ONE">    -1</i>
   <i type="int" name="NBANDS_WAVE">    -1</i>
   <i type="logical" name="LFINITE_TEMPERATURE"> F  </i>
   <i type="logical" name="LADDER"> F  </i>
   <i type="logical" name="LRPAFORCE"> F  </i>
   <i type="logical" name="LFXC"> F  </i>
   <i type="logical" name="LHARTREE"> T  </i>
   <i type="int" name="IBSE">     0</i>
   <v type="int" name="KPOINT">    -1     0     0     0</v>
   <i type="logical" name="LTCTC"> F  </i>
   <i type="logical" name="LTCTE"> F  </i>
   <i type="logical" name="LTETE"> F  </i>
   <i type="logical" name="LTRIPLET"> F  </i>
   <i type="logical" name="LFXCEPS"> F  </i>
   <i type="logical" name="LFXHEG"> F  </i>
   <i type="int" name="NATURALO">     2</i>
   <i type="logical" name="LHOLEGF"> F  </i>
   <i type="logical" name="L2ORDER"> F  </i>
   <i type="logical" name="LDMP1"> F  </i>
   <i type="logical" name="LMP2LT"> F  </i>
   <i type="logical" name="LSMP2LT"> F  </i>
   <i type="logical" name="LGWLF"> F  </i>
   <i name="ENCUTGW">     -1.60000002</i>
   <i name="ENCUTGWSOFT">     -1.60000002</i>
   <i name="ENCUTLF">     -1.00000000</i>
   <i type="logical" name="ESF_SPLINES"> F  </i>
   <i name="ESF_CONV">      0.01000000</i>
   <i type="int" name="ESF_NINTER">    15</i>
   <i type="int" name="LMAXMP2">    -1</i>
   <i name="SCISSOR">      0.00000000</i>
   <i type="int" name="NOMEGA">     0</i>
   <i type="int" name="NOMEGAR">     0</i>
   <i type="int" name="NBANDSGW">    -1</i>
   <i type="int" name="NBANDSO">    -1</i>
   <i type="int" name="NBANDSV">    -1</i>
   <i type="int" name="NELMGW">     1</i>
   <i type="int" name="NELMHF">     1</i>
   <i type="int" name="DIM">     3</i>
   <i type="int" name="IESPILON">     4</i>
   <i type="int" name="ANTIRES">     0</i>
   <i name="OMEGAMAX">    -30.00000000</i>
   <i name="OMEGAMIN">    -30.00000000</i>
   <i name="OMEGATL">   -200.00000000</i>
   <i type="int" name="OMEGAGRID">     0</i>
   <i name="CSHIFT">     -0.10000000</i>
   <i type="logical" name="LSELFENERGY"> F  </i>
   <i type="logical" name="LSPECTRAL"> F  </i>
   <i type="logical" name="LSPECTRALGW"> F  </i>
   <i type="logical" name="LSINGLES"> F  </i>
   <i type="logical" name="LFERMIGW"> F  </i>
   <i type="logical" name="ODDONLYGW"> F  </i>
   <i type="logical" name="EVENONLYGW"> F  </i>
   <i type="int" name="NKREDLFX">     1</i>
   <i type="int" name="NKREDLFY">     1</i>
   <i type="int" name="NKREDLFZ">     1</i>
   <i type="int" name="MAXMEM">  2800</i>
   <i type="int" name="TELESCOPE">     0</i>
   <i type="int" name="NTAUPAR">    -1</i>
   <i type="int" name="NOMEGAPAR">    -1</i>
   <i name="DAMP_NEWTON">      0.80000001</i>
   <i name="LAMBDA">      1.00000000</i>
  </separator>
  <separator name="External order field" >
   <i name="OFIELD_KAPPA">      0.00000000</i>
   <v name="OFIELD_K">      0.00000000      0.00000000      0.00000000</v>
   <i name="OFIELD_Q6_NEAR">      0.00000000</i>
   <i name="OFIELD_Q6_FAR">      0.00000000</i>
   <i name="OFIELD_A">      0.00000000</i>
  </separator>
  <separator name="optional k-points parameters" >
   <i type="int" name="KPOINTS_OPT_MODE">     1</i>
   <i type="logical" name="LKPOINTS_OPT"> F  </i>
  </separator>
 </parameters>
 <atominfo>
  <atoms>     168 </atoms>
  <types>       2 </types>
  <array name="atoms" >
   <dimension dim="1">ion</dimension>
   <field type="string">element</field>
   <field type="int">atomtype</field>
   <set>
    <rc><c>Ge</c><c>   1</c></rc>
    <rc><c>Ge</c><c>   1</c></rc>
    <rc><c>Ge</c><c>   1</c></rc>
    <rc><c>Ge</c><c>   1</c></rc>
    <rc><c>Ge</c><c>   1</c></rc>
    <rc><c>Ge</c><c>   1</c></rc>
    <rc><c>Ge</c><c>   1</c></rc>
    <rc><c>Ge</c><c>   1</c></rc>
    <rc><c>Ge</c><c>   1</c></rc>
    <rc><c>Ge</c><c>   1</c></rc>
    <rc><c>Ge</c><c>   1</c></rc>
    <rc><c>Ge</c><c>   1</c></rc>
    <rc><c>Ge</c><c>   1</c></rc>
    <rc><c>Ge</c><c>   1</c></rc>
    <rc><c>Ge</c><c>   1</c></rc>
    <rc><c>Ge</c><c>   1</c></rc>
    <rc><c>Ge</c><c>   1</c></rc>
    <rc><c>Ge</c><c>   1</c></rc>
    <rc><c>Ge</c><c>   1</c></rc>
    <rc><c>Ge</c><c>   1</c></rc>
    <rc><c>Ge</c><c>   1</c></rc>
    <rc><c>Ge</c><c>   1</c></rc>
    <rc><c>Ge</c><c>   1</c></rc>
    <rc><c>Ge</c><c>   1</c></rc>
    <rc><c>Ge</c><c>   1</c></rc>
    <rc><c>Ge</c><c>   1</c></rc>
    <rc><c>Ge</c><c>   1</c></rc>
    <rc><c>Ge</c><c>   1</c></rc>
    <rc><c>Ge</c><c>   1</c></rc>
    <rc><c>Ge</c><c>   1</c></rc>
    <rc><c>Ge</c><c>   1</c></rc>
    <rc><c>Ge</c><c>   1</c></rc>
    <rc><c>Ge</c><c>   1</c></rc>
    <rc><c>Ge</c><c>   1</c></rc>
    <rc><c>Ge</c><c>   1</c></rc>
    <rc><c>Ge</c><c>   1</c></rc>
    <rc><c>Ge</c><c>   1</c></rc>
    <rc><c>Ge</c><c>   1</c></rc>
    <rc><c>Ge</c><c>   1</c></rc>
    <rc><c>Ge</c><c>   1</c></rc>
    <rc><c>Ge</c><c>   1</c></rc>
    <rc><c>Ge</c><c>   1</c></rc>
    <rc><c>Ge</c><c>   1</c></rc>
    <rc><c>Ge</c><c>   1</c></rc>
    <rc><c>Ge</c><c>   1</c></rc>
    <rc><c>Ge</c><c>   1</c></rc>
    <rc><c>Ge</c><c>   1</c></rc>
    <rc><c>Ge</c><c>   1</c></rc>
    <rc><c>Ge</c><c>   1</c></rc>
    <rc><c>Ge</c><c>   1</c></rc>
    <rc><c>Ge</c><c>   1</c></rc>
    <rc><c>Ge</c><c>   1</c></rc>
    <rc><c>Ge</c><c>   1</c></rc>
    <rc><c>Ge</c><c>   1</c></rc>
    <rc><c>Ge</c><c>   1</c></rc>
    <rc><c>Ge</c><c>   1</c></rc>
    <rc><c>Ge</c><c>   1</c></rc>
    <rc><c>Ge</c><c>   1</c></rc>
    <rc><c>Ge</c><c>   1</c></rc>
    <rc><c>Ge</c><c>   1</c></rc>
    <rc><c>Ge</c><c>   1</c></rc>
    <rc><c>Ge</c><c>   1</c></rc>
    <rc><c>Ge</c><c>   1</c></rc>
    <rc><c>Ge</c><c>   1</c></rc>
    <rc><c>Ge</c><c>   1</c></rc>
    <rc><c>Ge</c><c>   1</c></rc>
    <rc><c>Ge</c><c>   1</c></rc>
    <rc><c>Ge</c><c>   1</c></rc>
    <rc><c>Ge</c><c>   1</c></rc>
    <rc><c>Ge</c><c>   1</c></rc>
    <rc><c>Ge</c><c>   1</c></rc>
    <rc><c>Ge</c><c>   1</c></rc>
    <rc><c>Ge</c><c>   1</c></rc>
    <rc><c>Ge</c><c>   1</c></rc>
    <rc><c>Ge</c><c>   1</c></rc>
    <rc><c>Ge</c><c>   1</c></rc>
    <rc><c>Ge</c><c>   1</c></rc>
    <rc><c>Ge</c><c>   1</c></rc>
    <rc><c>Ge</c><c>   1</c></rc>
    <rc><c>Ge</c><c>   1</c></rc>
    <rc><c>Ge</c><c>   1</c></rc>
    <rc><c>Ge</c><c>   1</c></rc>
    <rc><c>Ge</c><c>   1</c></rc>
    <rc><c>Ge</c><c>   1</c></rc>
    <rc><c>Ge</c><c>   1</c></rc>
    <rc><c>Ge</c><c>   1</c></rc>
    <rc><c>Ge</c><c>   1</c></rc>
    <rc><c>Ge</c><c>   1</c></rc>
    <rc><c>Ge</c><c>   1</c></rc>
    <rc><c>Ge</c><c>   1</c></rc>
    <rc><c>Ge</c><c>   1</c></rc>
    <rc><c>Ge</c><c>   1</c></rc>
    <rc><c>Ge</c><c>   1</c></rc>
    <rc><c>Ge</c><c>   1</c></rc>
    <rc><c>Ge</c><c>   1</c></rc>
    <rc><c>Ge</c><c>   1</c></rc>
    <rc><c>Sn</c><c>   2</c></rc>
    <rc><c>Sn</c><c>   2</c></rc>
    <rc><c>Sn</c><c>   2</c></rc>
    <rc><c>Sn</c><c>   2</c></rc>
    <rc><c>Sn</c><c>   2</c></rc>
    <rc><c>Sn</c><c>   2</c></rc>
    <rc><c>Sn</c><c>   2</c></rc>
    <rc><c>Sn</c><c>   2</c></rc>
    <rc><c>Sn</c><c>   2</c></rc>
    <rc><c>Sn</c><c>   2</c></rc>
    <rc><c>Sn</c><c>   2</c></rc>
    <rc><c>Sn</c><c>   2</c></rc>
    <rc><c>Sn</c><c>   2</c></rc>
    <rc><c>Sn</c><c>   2</c></rc>
    <rc><c>Sn</c><c>   2</c></rc>
    <rc><c>Sn</c><c>   2</c></rc>
    <rc><c>Sn</c><c>   2</c></rc>
    <rc><c>Sn</c><c>   2</c></rc>
    <rc><c>Sn</c><c>   2</c></rc>
    <rc><c>Sn</c><c>   2</c></rc>
    <rc><c>Sn</c><c>   2</c></rc>
    <rc><c>Sn</c><c>   2</c></rc>
    <rc><c>Sn</c><c>   2</c></rc>
    <rc><c>Sn</c><c>   2</c></rc>
    <rc><c>Sn</c><c>   2</c></rc>
    <rc><c>Sn</c><c>   2</c></rc>
    <rc><c>Sn</c><c>   2</c></rc>
    <rc><c>Sn</c><c>   2</c></rc>
    <rc><c>Sn</c><c>   2</c></rc>
    <rc><c>Sn</c><c>   2</c></rc>
    <rc><c>Sn</c><c>   2</c></rc>
    <rc><c>Sn</c><c>   2</c></rc>
    <rc><c>Sn</c><c>   2</c></rc>
    <rc><c>Sn</c><c>   2</c></rc>
    <rc><c>Sn</c><c>   2</c></rc>
    <rc><c>Sn</c><c>   2</c></rc>
    <rc><c>Sn</c><c>   2</c></rc>
    <rc><c>Sn</c><c>   2</c></rc>
    <rc><c>Sn</c><c>   2</c></rc>
    <rc><c>Sn</c><c>   2</c></rc>
    <rc><c>Sn</c><c>   2</c></rc>
    <rc><c>Sn</c><c>   2</c></rc>
    <rc><c>Sn</c><c>   2</c></rc>
    <rc><c>Sn</c><c>   2</c></rc>
    <rc><c>Sn</c><c>   2</c></rc>
    <rc><c>Sn</c><c>   2</c></rc>
    <rc><c>Sn</c><c>   2</c></rc>
    <rc><c>Sn</c><c>   2</c></rc>
    <rc><c>Sn</c><c>   2</c></rc>
    <rc><c>Sn</c><c>   2</c></rc>
    <rc><c>Sn</c><c>   2</c></rc>
    <rc><c>Sn</c><c>   2</c></rc>
    <rc><c>Sn</c><c>   2</c></rc>
    <rc><c>Sn</c><c>   2</c></rc>
    <rc><c>Sn</c><c>   2</c></rc>
    <rc><c>Sn</c><c>   2</c></rc>
    <rc><c>Sn</c><c>   2</c></rc>
    <rc><c>Sn</c><c>   2</c></rc>
    <rc><c>Sn</c><c>   2</c></rc>
    <rc><c>Sn</c><c>   2</c></rc>
    <rc><c>Sn</c><c>   2</c></rc>
    <rc><c>Sn</c><c>   2</c></rc>
    <rc><c>Sn</c><c>   2</c></rc>
    <rc><c>Sn</c><c>   2</c></rc>
    <rc><c>Sn</c><c>   2</c></rc>
    <rc><c>Sn</c><c>   2</c></rc>
    <rc><c>Sn</c><c>   2</c></rc>
    <rc><c>Sn</c><c>   2</c></rc>
    <rc><c>Sn</c><c>   2</c></rc>
    <rc><c>Sn</c><c>   2</c></rc>
    <rc><c>Sn</c><c>   2</c></rc>
    <rc><c>Sn</c><c>   2</c></rc>
   </set>
  </array>
  <array name="atomtypes" >
   <dimension dim="1">type</dimension>
   <field type="int">atomspertype</field>
   <field type="string">element</field>
   <field>mass</field>
   <field>valence</field>
   <field type="string">pseudopotential</field>
   <set>
    <rc><c>  96</c><c>Ge</c><c>     72.61000000</c><c>      4.00000000</c><c>  PAW_PBE Ge 05Jan2001                  </c></rc>
    <rc><c>  72</c><c>Sn</c><c>    118.71000000</c><c>      4.00000000</c><c>  PAW_PBE Sn 08Apr2002                  </c></rc>
   </set>
  </array>
 </atominfo>
 <structure name="initialpos" >
  <crystal>
   <varray name="basis" >
    <v>      11.31560040       0.00000000       0.00000000 </v>
    <v>       0.00000000      16.00267601       0.00000000 </v>
    <v>       0.00000000       0.00000000      25.60421562 </v>
   </varray>
   <i name="volume">   4636.40847104 </i>
   <varray name="rec_basis" >
    <v>       0.08837357       0.00000000       0.00000000 </v>
    <v>       0.00000000       0.06248955       0.00000000 </v>
    <v>       0.00000000       0.00000000       0.03905607 </v>
   </varray>
  </crystal>
  <varray name="positions" >
   <v>       0.97066277       0.45599416       0.00000002 </v>
   <v>       0.72066271       0.08099414       0.07812521 </v>
   <v>       0.47066277       0.70599413       0.15625042 </v>
   <v>       0.22066289       0.33099425       0.23437557 </v>
   <v>       0.97066271       0.95599413       0.31250077 </v>
   <v>       0.72066271       0.58099413       0.39062604 </v>
   <v>       0.47066277       0.45599416       0.00000002 </v>
   <v>       0.22066276       0.08099414       0.07812521 </v>
   <v>       0.97066277       0.70599413       0.15625042 </v>
   <v>       0.72066283       0.33099425       0.23437557 </v>
   <v>       0.47066283       0.95599413       0.31250077 </v>
   <v>       0.22066277       0.58099413       0.39062604 </v>
   <v>       0.97066277       0.95599413       0.00000002 </v>
   <v>       0.72066271       0.58099413       0.07812522 </v>
   <v>       0.47066277       0.20599413       0.15625040 </v>
   <v>       0.22066289       0.83099437       0.23437557 </v>
   <v>       0.97066271       0.45599413       0.31250080 </v>
   <v>       0.72066271       0.08099413       0.39062601 </v>
   <v>       0.47066277       0.95599413       0.00000002 </v>
   <v>       0.22066276       0.58099413       0.07812522 </v>
   <v>       0.97066277       0.20599413       0.15625040 </v>
   <v>       0.72066283       0.83099437       0.23437557 </v>
   <v>       0.47066283       0.45599413       0.31250080 </v>
   <v>       0.22066277       0.08099413       0.39062601 </v>
   <v>       0.97066277       0.70599413       0.00000002 </v>
   <v>       0.72066271       0.33099413       0.07812521 </v>
   <v>       0.47066277       0.95599413       0.15625040 </v>
   <v>       0.22066289       0.58099425       0.23437560 </v>
   <v>       0.97066271       0.20599419       0.31250080 </v>
   <v>       0.72066271       0.83099413       0.39062604 </v>
   <v>       0.47066277       0.70599413       0.00000002 </v>
   <v>       0.22066276       0.33099413       0.07812521 </v>
   <v>       0.97066277       0.95599413       0.15625040 </v>
   <v>       0.72066283       0.58099425       0.23437560 </v>
   <v>       0.47066283       0.20599419       0.31250080 </v>
   <v>       0.22066277       0.83099413       0.39062604 </v>
   <v>       0.97066277       0.20599414       0.00000002 </v>
   <v>       0.72066271       0.83099413       0.07812521 </v>
   <v>       0.47066277       0.45599413       0.15625040 </v>
   <v>       0.22066289       0.08099425       0.23437560 </v>
   <v>       0.97066271       0.70599425       0.31250077 </v>
   <v>       0.72066271       0.33099413       0.39062601 </v>
   <v>       0.47066277       0.20599414       0.00000002 </v>
   <v>       0.22066276       0.83099413       0.07812521 </v>
   <v>       0.97066277       0.45599413       0.15625040 </v>
   <v>       0.72066283       0.08099425       0.23437560 </v>
   <v>       0.47066283       0.70599425       0.31250077 </v>
   <v>       0.22066277       0.33099413       0.39062601 </v>
   <v>       0.34566274       0.58099419       0.00000003 </v>
   <v>       0.09566276       0.20599416       0.07812521 </v>
   <v>       0.84566277       0.83099413       0.15625040 </v>
   <v>       0.59566283       0.45599425       0.23437557 </v>
   <v>       0.34566277       0.08099419       0.31250080 </v>
   <v>       0.09566271       0.70599413       0.39062604 </v>
   <v>       0.84566283       0.58099419       0.00000003 </v>
   <v>       0.59566277       0.20599416       0.07812521 </v>
   <v>       0.34566280       0.83099413       0.15625040 </v>
   <v>       0.09566288       0.45599425       0.23437557 </v>
   <v>       0.84566283       0.08099419       0.31250080 </v>
   <v>       0.59566277       0.70599413       0.39062604 </v>
   <v>       0.34566274       0.08099414       0.00000001 </v>
   <v>       0.09566276       0.70599413       0.07812521 </v>
   <v>       0.84566277       0.33099413       0.15625040 </v>
   <v>       0.59566283       0.95599425       0.23437560 </v>
   <v>       0.34566277       0.58099425       0.31250077 </v>
   <v>       0.09566271       0.20599401       0.39062601 </v>
   <v>       0.84566283       0.08099414       0.00000001 </v>
   <v>       0.59566277       0.70599413       0.07812521 </v>
   <v>       0.34566280       0.33099413       0.15625040 </v>
   <v>       0.09566288       0.95599425       0.23437560 </v>
   <v>       0.84566283       0.58099425       0.31250077 </v>
   <v>       0.59566277       0.20599401       0.39062601 </v>
   <v>       0.34566274       0.83099419       0.00000000 </v>
   <v>       0.09566276       0.45599419       0.07812521 </v>
   <v>       0.84566277       0.08099417       0.15625040 </v>
   <v>       0.59566283       0.70599431       0.23437557 </v>
   <v>       0.34566277       0.33099425       0.31250077 </v>
   <v>       0.09566271       0.95599413       0.39062598 </v>
   <v>       0.84566283       0.83099419       0.00000000 </v>
   <v>       0.59566277       0.45599419       0.07812521 </v>
   <v>       0.34566280       0.08099417       0.15625040 </v>
   <v>       0.09566288       0.70599431       0.23437557 </v>
   <v>       0.84566283       0.33099425       0.31250077 </v>
   <v>       0.59566277       0.95599413       0.39062598 </v>
   <v>       0.34566274       0.33099413       0.00000002 </v>
   <v>       0.09566276       0.95599413       0.07812522 </v>
   <v>       0.84566277       0.58099413       0.15625040 </v>
   <v>       0.59566283       0.20599425       0.23437560 </v>
   <v>       0.34566277       0.83099413       0.31250077 </v>
   <v>       0.09566271       0.45599413       0.39062601 </v>
   <v>       0.84566283       0.33099413       0.00000002 </v>
   <v>       0.59566277       0.95599413       0.07812522 </v>
   <v>       0.34566280       0.58099413       0.15625040 </v>
   <v>       0.09566288       0.20599425       0.23437560 </v>
   <v>       0.84566283       0.83099413       0.31250077 </v>
   <v>       0.59566277       0.45599413       0.39062601 </v>
   <v>       0.12500000       0.60917449       0.47129923 </v>
   <v>       0.12500000       0.85917461       0.56090480 </v>
   <v>       0.12499988       0.10917473       0.65051037 </v>
   <v>       0.12499976       0.35917497       0.74011582 </v>
   <v>       0.12499976       0.60917497       0.82972133 </v>
   <v>       0.12499976       0.85917509       0.91932684 </v>
   <v>       0.45833337       0.94250786       0.47129923 </v>
   <v>       0.45833331       0.19250786       0.56090480 </v>
   <v>       0.45833331       0.44250798       0.65051037 </v>
   <v>       0.45833322       0.69250822       0.74011582 </v>
   <v>       0.45833322       0.94250834       0.82972133 </v>
   <v>       0.45833316       0.19250846       0.91932684 </v>
   <v>       0.79166675       0.27584124       0.47129923 </v>
   <v>       0.79166669       0.52584124       0.56090480 </v>
   <v>       0.79166681       0.77584148       0.65051037 </v>
   <v>       0.79166651       0.02584148       0.74011582 </v>
   <v>       0.79166657       0.27584159       0.82972133 </v>
   <v>       0.79166657       0.52584183       0.91932684 </v>
   <v>       0.12500003       0.10917449       0.47129923 </v>
   <v>       0.12500000       0.35917461       0.56090474 </v>
   <v>       0.12499988       0.60917473       0.65051037 </v>
   <v>       0.12499988       0.85917485       0.74011582 </v>
   <v>       0.12499976       0.10917497       0.82972133 </v>
   <v>       0.12499976       0.35917509       0.91932684 </v>
   <v>       0.45833337       0.44250786       0.47129923 </v>
   <v>       0.45833334       0.69250798       0.56090474 </v>
   <v>       0.45833337       0.94250822       0.65051037 </v>
   <v>       0.45833325       0.19250822       0.74011582 </v>
   <v>       0.45833328       0.44250834       0.82972133 </v>
   <v>       0.45833311       0.69250858       0.91932684 </v>
   <v>       0.79166681       0.77584118       0.47129923 </v>
   <v>       0.79166663       0.02584124       0.56090474 </v>
   <v>       0.79166669       0.27584148       0.65051037 </v>
   <v>       0.79166663       0.52584148       0.74011582 </v>
   <v>       0.79166651       0.77584159       0.82972133 </v>
   <v>       0.79166657       0.02584171       0.91932684 </v>
   <v>       0.20833331       0.94250786       0.47129923 </v>
   <v>       0.20833325       0.19250786       0.56090474 </v>
   <v>       0.20833328       0.44250798       0.65051037 </v>
   <v>       0.20833313       0.69250810       0.74011582 </v>
   <v>       0.20833313       0.94250822       0.82972133 </v>
   <v>       0.20833313       0.19250834       0.91932684 </v>
   <v>       0.54166675       0.27584124       0.47129923 </v>
   <v>       0.54166663       0.52584124       0.56090480 </v>
   <v>       0.54166663       0.77584148       0.65051037 </v>
   <v>       0.54166663       0.02584159       0.74011582 </v>
   <v>       0.54166639       0.27584159       0.82972133 </v>
   <v>       0.54166651       0.52584171       0.91932684 </v>
   <v>       0.87500000       0.60917455       0.47129923 </v>
   <v>       0.87500000       0.85917461       0.56090480 </v>
   <v>       0.87499994       0.10917473       0.65051037 </v>
   <v>       0.87499982       0.35917485       0.74011582 </v>
   <v>       0.87499982       0.60917497       0.82972133 </v>
   <v>       0.87499982       0.85917509       0.91932684 </v>
   <v>       0.20833334       0.44250798       0.47129923 </v>
   <v>       0.20833328       0.69250798       0.56090480 </v>
   <v>       0.20833322       0.94250810       0.65051031 </v>
   <v>       0.20833325       0.19250846       0.74011582 </v>
   <v>       0.20833313       0.44250834       0.82972139 </v>
   <v>       0.20833307       0.69250858       0.91932684 </v>
   <v>       0.54166675       0.77584118       0.47129923 </v>
   <v>       0.54166663       0.02584124       0.56090480 </v>
   <v>       0.54166657       0.27584148       0.65051037 </v>
   <v>       0.54166657       0.52584148       0.74011582 </v>
   <v>       0.54166657       0.77584159       0.82972133 </v>
   <v>       0.54166645       0.02584171       0.91932684 </v>
   <v>       0.87500000       0.10917449       0.47129923 </v>
   <v>       0.87499994       0.35917461       0.56090480 </v>
   <v>       0.87500000       0.60917473       0.65051037 </v>
   <v>       0.87499988       0.85917485       0.74011582 </v>
   <v>       0.87499982       0.10917485       0.82972133 </v>
   <v>       0.87499976       0.35917509       0.91932684 </v>
  </varray>
 </structure>
 <calculation>
  <scstep>
   <time name="dav">   34.62   34.97</time>
   <time name="total">   37.41   37.78</time>
   <energy>
    <i name="alphaZ">    991.21889800 </i>
    <i name="ewald"> -11786.66352859 </i>
    <i name="hartreedc">  -6446.60286775 </i>
    <i name="XCdc">  -9238.42249605 </i>
    <i name="pawpsdc">  22099.84193803 </i>
    <i name="pawaedc"> -11791.56227843 </i>
    <i name="eentropy">     -0.00244570 </i>
    <i name="bandstr">   2778.23995946 </i>
    <i name="atom">  16853.79812076 </i>
    <i name="e_fr_energy">   3459.84529974 </i>
    <i name="e_wo_entrp">   3459.84774544 </i>
    <i name="e_0_energy">   3459.84652259 </i>
   </energy>
  </scstep>
  <scstep>
   <time name="dav">   39.25   39.63</time>
   <time name="total">   39.25   39.64</time>
   <energy>
    <i name="e_fr_energy">   -254.92639359 </i>
    <i name="e_wo_entrp">   -254.92467626 </i>
    <i name="e_0_energy">   -254.92553492 </i>
   </energy>
  </scstep>
  <scstep>
   <time name="dav">   40.66   41.05</time>
   <time name="total">   40.67   41.05</time>
   <energy>
    <i name="e_fr_energy">   -664.60176168 </i>
    <i name="e_wo_entrp">   -664.60008829 </i>
    <i name="e_0_energy">   -664.60092499 </i>
   </energy>
  </scstep>
  <scstep>
   <time name="dav">   40.44   40.85</time>
   <time name="total">   40.45   40.86</time>
   <energy>
    <i name="e_fr_energy">   -681.16174309 </i>
    <i name="e_wo_entrp">   -681.15874785 </i>
    <i name="e_0_energy">   -681.16024547 </i>
   </energy>
  </scstep>
  <scstep>
   <time name="dav">   43.29   43.70</time>
   <time name="total">   45.60   46.04</time>
   <energy>
    <i name="e_fr_energy">   -681.83763027 </i>
    <i name="e_wo_entrp">   -681.83463688 </i>
    <i name="e_0_energy">   -681.83613358 </i>
   </energy>
  </scstep>
  <scstep>
   <time name="dav">   49.46   49.96</time>
   <time name="total">   54.55   55.08</time>
   <energy>
    <i name="e_fr_energy">   -672.34573472 </i>
    <i name="e_wo_entrp">   -672.34292411 </i>
    <i name="e_0_energy">   -672.34432941 </i>
   </energy>
  </scstep>
  <scstep>
   <time name="dav">   46.87   47.32</time>
   <time name="total">   51.97   52.45</time>
   <energy>
    <i name="e_fr_energy">   -675.72410137 </i>
    <i name="e_wo_entrp">   -675.72111725 </i>
    <i name="e_0_energy">   -675.72260931 </i>
   </energy>
  </scstep>
  <scstep>
   <time name="dav">   50.76   51.29</time>
   <time name="total">   55.88   56.45</time>
   <energy>
    <i name="e_fr_energy">   -670.95097611 </i>
    <i name="e_wo_entrp">   -670.94883247 </i>
    <i name="e_0_energy">   -670.94990429 </i>
   </energy>
  </scstep>
  <scstep>
   <time name="dav">   42.52   42.97</time>
   <time name="total">   47.61   48.10</time>
   <energy>
    <i name="e_fr_energy">   -670.33440898 </i>
    <i name="e_wo_entrp">   -670.33337359 </i>
    <i name="e_0_energy">   -670.33389129 </i>
   </energy>
  </scstep>
  <scstep>
   <time name="dav">   38.28   38.69</time>
   <time name="total">   43.35   43.80</time>
   <energy>
    <i name="e_fr_energy">   -670.31875089 </i>
    <i name="e_wo_entrp">   -670.31761846 </i>
    <i name="e_0_energy">   -670.31818468 </i>
   </energy>
  </scstep>
  <scstep>
   <time name="dav">   41.88   42.32</time>
   <time name="total">   46.94   47.42</time>
   <energy>
    <i name="e_fr_energy">   -670.30720773 </i>
    <i name="e_wo_entrp">   -670.30451149 </i>
    <i name="e_0_energy">   -670.30585961 </i>
   </energy>
  </scstep>
  <scstep>
   <time name="dav">   39.44   39.85</time>
   <time name="total">   44.49   44.95</time>
   <energy>
    <i name="e_fr_energy">   -670.31022386 </i>
    <i name="e_wo_entrp">   -670.30828009 </i>
    <i name="e_0_energy">   -670.30925197 </i>
   </energy>
  </scstep>
  <scstep>
   <time name="dav">   38.46   38.87</time>
   <time name="total">   43.52   43.97</time>
   <energy>
    <i name="e_fr_energy">   -670.31163418 </i>
    <i name="e_wo_entrp">   -670.30964446 </i>
    <i name="e_0_energy">   -670.31063932 </i>
   </energy>
  </scstep>
  <scstep>
   <time name="dav">   39.86   40.25</time>
   <time name="total">   44.93   45.36</time>
   <energy>
    <i name="e_fr_energy">   -670.31195887 </i>
    <i name="e_wo_entrp">   -670.30993297 </i>
    <i name="e_0_energy">   -670.31094592 </i>
   </energy>
  </scstep>
  <scstep>
   <time name="dav">   39.36   39.76</time>
   <time name="total">   44.40   44.84</time>
   <energy>
    <i name="e_fr_energy">   -670.31201664 </i>
    <i name="e_wo_entrp">   -670.31003115 </i>
    <i name="e_0_energy">   -670.31102390 </i>
   </energy>
  </scstep>
  <scstep>
   <time name="dav">   37.62   38.03</time>
   <time name="total">   42.65   43.10</time>
   <energy>
    <i name="e_fr_energy">   -670.31208952 </i>
    <i name="e_wo_entrp">   -670.31012332 </i>
    <i name="e_0_energy">   -670.31110642 </i>
   </energy>
  </scstep>
  <scstep>
   <time name="dav">   38.90   39.29</time>
   <time name="total">   43.93   44.36</time>
   <energy>
    <i name="e_fr_energy">   -670.31210745 </i>
    <i name="e_wo_entrp">   -670.31013505 </i>
    <i name="e_0_energy">   -670.31112125 </i>
   </energy>
  </scstep>
  <scstep>
   <time name="dav">   40.32   40.72</time>
   <time name="total">   45.35   45.80</time>
   <energy>
    <i name="e_fr_energy">   -670.31211323 </i>
    <i name="e_wo_entrp">   -670.31014756 </i>
    <i name="e_0_energy">   -670.31113040 </i>
   </energy>
  </scstep>
  <scstep>
   <time name="dav">   39.09   39.49</time>
   <time name="total">   44.12   44.56</time>
   <energy>
    <i name="e_fr_energy">   -670.31212466 </i>
    <i name="e_wo_entrp">   -670.31016514 </i>
    <i name="e_0_energy">   -670.31114490 </i>
   </energy>
  </scstep>
  <scstep>
   <time name="dav">   39.32   39.71</time>
   <time name="total">   44.36   44.79</time>
   <energy>
    <i name="e_fr_energy">   -670.31213803 </i>
    <i name="e_wo_entrp">   -670.31018079 </i>
    <i name="e_0_energy">   -670.31115941 </i>
   </energy>
  </scstep>
  <scstep>
   <time name="dav">   39.82   40.25</time>
   <time name="total">   44.86   45.33</time>
   <energy>
    <i name="e_fr_energy">   -670.31214311 </i>
    <i name="e_wo_entrp">   -670.31018794 </i>
    <i name="e_0_energy">   -670.31116552 </i>
   </energy>
  </scstep>
  <scstep>
   <time name="dav">   39.48   39.89</time>
   <time name="total">   44.52   44.96</time>
   <energy>
    <i name="e_fr_energy">   -670.31214427 </i>
    <i name="e_wo_entrp">   -670.31019178 </i>
    <i name="e_0_energy">   -670.31116803 </i>
   </energy>
  </scstep>
  <scstep>
   <time name="dav">   40.11   40.51</time>
   <time name="total">   45.15   45.59</time>
   <energy>
    <i name="e_fr_energy">   -670.31214493 </i>
    <i name="e_wo_entrp">   -670.31018955 </i>
    <i name="e_0_energy">   -670.31116724 </i>
   </energy>
  </scstep>
  <scstep>
   <time name="dav">   28.70   28.98</time>
   <time name="total">   33.73   34.05</time>
   <energy>
    <i name="e_fr_energy">   -670.31214535 </i>
    <i name="e_wo_entrp">   -670.31018904 </i>
    <i name="e_0_energy">   -670.31116719 </i>
   </energy>
  </scstep>
  <scstep>
   <time name="dav">   24.28   24.54</time>
   <time name="total">   29.30   29.61</time>
   <energy>
    <i name="e_fr_energy">   -670.31214552 </i>
    <i name="e_wo_entrp">   -670.31018954 </i>
    <i name="e_0_energy">   -670.31116753 </i>
   </energy>
  </scstep>
  <scstep>
   <time name="dav">   24.07   24.34</time>
   <time name="total">   26.83   27.11</time>
   <energy>
    <i name="alphaZ">    991.21889800 </i>
    <i name="ewald"> -11786.66352859 </i>
    <i name="hartreedc">  -6705.03738148 </i>
    <i name="XCdc">  -9184.85910529 </i>
    <i name="pawpsdc">  44491.91168491 </i>
    <i name="pawaedc"> -34227.93027327 </i>
    <i name="eentropy">     -0.00195594 </i>
    <i name="bandstr">  -1102.74860466 </i>
    <i name="atom">  16853.79812076 </i>
    <i name="e_fr_energy">   -670.31214555 </i>
    <i name="e_wo_entrp">   -670.31018962 </i>
    <i name="e_0_energy">   -670.31116759 </i>
   </energy>
  </scstep>
  <structure>
   <crystal>
    <varray name="basis" >
     <v>      11.31560040       0.00000000       0.00000000 </v>
     <v>       0.00000000      16.00267601       0.00000000 </v>
     <v>       0.00000000       0.00000000      25.60421562 </v>
    </varray>
    <i name="volume">   4636.40847104 </i>
    <varray name="rec_basis" >
     <v>       0.08837357       0.00000000       0.00000000 </v>
     <v>       0.00000000       0.06248955       0.00000000 </v>
     <v>       0.00000000       0.00000000       0.03905607 </v>
    </varray>
   </crystal>
   <varray name="positions" >
    <v>       0.97066277       0.45599416       0.00000002 </v>
    <v>       0.72066271       0.08099414       0.07812521 </v>
    <v>       0.47066277       0.70599413       0.15625042 </v>
    <v>       0.22066289       0.33099425       0.23437557 </v>
    <v>       0.97066271       0.95599413       0.31250077 </v>
    <v>       0.72066271       0.58099413       0.39062604 </v>
    <v>       0.47066277       0.45599416       0.00000002 </v>
    <v>       0.22066276       0.08099414       0.07812521 </v>
    <v>       0.97066277       0.70599413       0.15625042 </v>
    <v>       0.72066283       0.33099425       0.23437557 </v>
    <v>       0.47066283       0.95599413       0.31250077 </v>
    <v>       0.22066277       0.58099413       0.39062604 </v>
    <v>       0.97066277       0.95599413       0.00000002 </v>
    <v>       0.72066271       0.58099413       0.07812522 </v>
    <v>       0.47066277       0.20599413       0.15625040 </v>
    <v>       0.22066289       0.83099437       0.23437557 </v>
    <v>       0.97066271       0.45599413       0.31250080 </v>
    <v>       0.72066271       0.08099413       0.39062601 </v>
    <v>       0.47066277       0.95599413       0.00000002 </v>
    <v>       0.22066276       0.58099413       0.07812522 </v>
    <v>       0.97066277       0.20599413       0.15625040 </v>
    <v>       0.72066283       0.83099437       0.23437557 </v>
    <v>       0.47066283       0.45599413       0.31250080 </v>
    <v>       0.22066277       0.08099413       0.39062601 </v>
    <v>       0.97066277       0.70599413       0.00000002 </v>
    <v>       0.72066271       0.33099413       0.07812521 </v>
    <v>       0.47066277       0.95599413       0.15625040 </v>
    <v>       0.22066289       0.58099425       0.23437560 </v>
    <v>       0.97066271       0.20599419       0.31250080 </v>
    <v>       0.72066271       0.83099413       0.39062604 </v>
    <v>       0.47066277       0.70599413       0.00000002 </v>
    <v>       0.22066276       0.33099413       0.07812521 </v>
    <v>       0.97066277       0.95599413       0.15625040 </v>
    <v>       0.72066283       0.58099425       0.23437560 </v>
    <v>       0.47066283       0.20599419       0.31250080 </v>
    <v>       0.22066277       0.83099413       0.39062604 </v>
    <v>       0.97066277       0.20599414       0.00000002 </v>
    <v>       0.72066271       0.83099413       0.07812521 </v>
    <v>       0.47066277       0.45599413       0.15625040 </v>
    <v>       0.22066289       0.08099425       0.23437560 </v>
    <v>       0.97066271       0.70599425       0.31250077 </v>
    <v>       0.72066271       0.33099413       0.39062601 </v>
    <v>       0.47066277       0.20599414       0.00000002 </v>
    <v>       0.22066276       0.83099413       0.07812521 </v>
    <v>       0.97066277       0.45599413       0.15625040 </v>
    <v>       0.72066283       0.08099425       0.23437560 </v>
    <v>       0.47066283       0.70599425       0.31250077 </v>
    <v>       0.22066277       0.33099413       0.39062601 </v>
    <v>       0.34566274       0.58099419       0.00000003 </v>
    <v>       0.09566276       0.20599416       0.07812521 </v>
    <v>       0.84566277       0.83099413       0.15625040 </v>
    <v>       0.59566283       0.45599425       0.23437557 </v>
    <v>       0.34566277       0.08099419       0.31250080 </v>
    <v>       0.09566271       0.70599413       0.39062604 </v>
    <v>       0.84566283       0.58099419       0.00000003 </v>
    <v>       0.59566277       0.20599416       0.07812521 </v>
    <v>       0.34566280       0.83099413       0.15625040 </v>
    <v>       0.09566288       0.45599425       0.23437557 </v>
    <v>       0.84566283       0.08099419       0.31250080 </v>
    <v>       0.59566277       0.70599413       0.39062604 </v>
    <v>       0.34566274       0.08099414       0.00000001 </v>
    <v>       0.09566276       0.70599413       0.07812521 </v>
    <v>       0.84566277       0.33099413       0.15625040 </v>
    <v>       0.59566283       0.95599425       0.23437560 </v>
    <v>       0.34566277       0.58099425       0.31250077 </v>
    <v>       0.09566271       0.20599401       0.39062601 </v>
    <v>       0.84566283       0.08099414       0.00000001 </v>
    <v>       0.59566277       0.70599413       0.07812521 </v>
    <v>       0.34566280       0.33099413       0.15625040 </v>
    <v>       0.09566288       0.95599425       0.23437560 </v>
    <v>       0.84566283       0.58099425       0.31250077 </v>
    <v>       0.59566277       0.20599401       0.39062601 </v>
    <v>       0.34566274       0.83099419       0.00000000 </v>
    <v>       0.09566276       0.45599419       0.07812521 </v>
    <v>       0.84566277       0.08099417       0.15625040 </v>
    <v>       0.59566283       0.70599431       0.23437557 </v>
    <v>       0.34566277       0.33099425       0.31250077 </v>
    <v>       0.09566271       0.95599413       0.39062598 </v>
    <v>       0.84566283       0.83099419       0.00000000 </v>
    <v>       0.59566277       0.45599419       0.07812521 </v>
    <v>       0.34566280       0.08099417       0.15625040 </v>
    <v>       0.09566288       0.70599431       0.23437557 </v>
    <v>       0.84566283       0.33099425       0.31250077 </v>
    <v>       0.59566277       0.95599413       0.39062598 </v>
    <v>       0.34566274       0.33099413       0.00000002 </v>
    <v>       0.09566276       0.95599413       0.07812522 </v>
    <v>       0.84566277       0.58099413       0.15625040 </v>
    <v>       0.59566283       0.20599425       0.23437560 </v>
    <v>       0.34566277       0.83099413       0.31250077 </v>
    <v>       0.09566271       0.45599413       0.39062601 </v>
    <v>       0.84566283       0.33099413       0.00000002 </v>
    <v>       0.59566277       0.95599413       0.07812522 </v>
    <v>       0.34566280       0.58099413       0.15625040 </v>
    <v>       0.09566288       0.20599425       0.23437560 </v>
    <v>       0.84566283       0.83099413       0.31250077 </v>
    <v>       0.59566277       0.45599413       0.39062601 </v>
    <v>       0.12500000       0.60917449       0.47129923 </v>
    <v>       0.12500000       0.85917461       0.56090480 </v>
    <v>       0.12499988       0.10917473       0.65051037 </v>
    <v>       0.12499976       0.35917497       0.74011582 </v>
    <v>       0.12499976       0.60917497       0.82972133 </v>
    <v>       0.12499976       0.85917509       0.91932684 </v>
    <v>       0.45833337       0.94250786       0.47129923 </v>
    <v>       0.45833331       0.19250786       0.56090480 </v>
    <v>       0.45833331       0.44250798       0.65051037 </v>
    <v>       0.45833322       0.69250822       0.74011582 </v>
    <v>       0.45833322       0.94250834       0.82972133 </v>
    <v>       0.45833316       0.19250846       0.91932684 </v>
    <v>       0.79166675       0.27584124       0.47129923 </v>
    <v>       0.79166669       0.52584124       0.56090480 </v>
    <v>       0.79166681       0.77584148       0.65051037 </v>
    <v>       0.79166651       0.02584148       0.74011582 </v>
    <v>       0.79166657       0.27584159       0.82972133 </v>
    <v>       0.79166657       0.52584183       0.91932684 </v>
    <v>       0.12500003       0.10917449       0.47129923 </v>
    <v>       0.12500000       0.35917461       0.56090474 </v>
    <v>       0.12499988       0.60917473       0.65051037 </v>
    <v>       0.12499988       0.85917485       0.74011582 </v>
    <v>       0.12499976       0.10917497       0.82972133 </v>
    <v>       0.12499976       0.35917509       0.91932684 </v>
    <v>       0.45833337       0.44250786       0.47129923 </v>
    <v>       0.45833334       0.69250798       0.56090474 </v>
    <v>       0.45833337       0.94250822       0.65051037 </v>
    <v>       0.45833325       0.19250822       0.74011582 </v>
    <v>       0.45833328       0.44250834       0.82972133 </v>
    <v>       0.45833311       0.69250858       0.91932684 </v>
    <v>       0.79166681       0.77584118       0.47129923 </v>
    <v>       0.79166663       0.02584124       0.56090474 </v>
    <v>       0.79166669       0.27584148       0.65051037 </v>
    <v>       0.79166663       0.52584148       0.74011582 </v>
    <v>       0.79166651       0.77584159       0.82972133 </v>
    <v>       0.79166657       0.02584171       0.91932684 </v>
    <v>       0.20833331       0.94250786       0.47129923 </v>
    <v>       0.20833325       0.19250786       0.56090474 </v>
    <v>       0.20833328       0.44250798       0.65051037 </v>
    <v>       0.20833313       0.69250810       0.74011582 </v>
    <v>       0.20833313       0.94250822       0.82972133 </v>
    <v>       0.20833313       0.19250834       0.91932684 </v>
    <v>       0.54166675       0.27584124       0.47129923 </v>
    <v>       0.54166663       0.52584124       0.56090480 </v>
    <v>       0.54166663       0.77584148       0.65051037 </v>
    <v>       0.54166663       0.02584159       0.74011582 </v>
    <v>       0.54166639       0.27584159       0.82972133 </v>
    <v>       0.54166651       0.52584171       0.91932684 </v>
    <v>       0.87500000       0.60917455       0.47129923 </v>
    <v>       0.87500000       0.85917461       0.56090480 </v>
    <v>       0.87499994       0.10917473       0.65051037 </v>
    <v>       0.87499982       0.35917485       0.74011582 </v>
    <v>       0.87499982       0.60917497       0.82972133 </v>
    <v>       0.87499982       0.85917509       0.91932684 </v>
    <v>       0.20833334       0.44250798       0.47129923 </v>
    <v>       0.20833328       0.69250798       0.56090480 </v>
    <v>       0.20833322       0.94250810       0.65051031 </v>
    <v>       0.20833325       0.19250846       0.74011582 </v>
    <v>       0.20833313       0.44250834       0.82972139 </v>
    <v>       0.20833307       0.69250858       0.91932684 </v>
    <v>       0.54166675       0.77584118       0.47129923 </v>
    <v>       0.54166663       0.02584124       0.56090480 </v>
    <v>       0.54166657       0.27584148       0.65051037 </v>
    <v>       0.54166657       0.52584148       0.74011582 </v>
    <v>       0.54166657       0.77584159       0.82972133 </v>
    <v>       0.54166645       0.02584171       0.91932684 </v>
    <v>       0.87500000       0.10917449       0.47129923 </v>
    <v>       0.87499994       0.35917461       0.56090480 </v>
    <v>       0.87500000       0.60917473       0.65051037 </v>
    <v>       0.87499988       0.85917485       0.74011582 </v>
    <v>       0.87499982       0.10917485       0.82972133 </v>
    <v>       0.87499976       0.35917509       0.91932684 </v>
   </varray>
  </structure>
  <varray name="forces" >
   <v>       1.64448903       0.35812510       1.11279212 </v>
   <v>      -0.01541576      -0.09879734       0.01004150 </v>
   <v>      -0.05112541       0.02474646       0.06342187 </v>
   <v>      -0.02707971       0.02452835       0.05607852 </v>
   <v>      -0.34494323      -0.05380611       0.10569383 </v>
   <v>       0.53205789      -0.11280409       0.36646006 </v>
   <v>      -0.37480723      -0.59366168       0.87261320 </v>
   <v>      -0.18583403       0.11491852       0.11244554 </v>
   <v>      -0.05228305       0.03556795      -0.06932230 </v>
   <v>      -0.01059500       0.04040886      -0.04997479 </v>
   <v>       0.07455271      -0.05352553      -0.16220611 </v>
   <v>       2.07665646      -0.41789452      -3.47431956 </v>
   <v>       1.64448903       0.35812510       1.11279212 </v>
   <v>      -0.01541576      -0.09879734       0.01004150 </v>
   <v>      -0.05112541       0.02474646       0.06342187 </v>
   <v>      -0.02707971       0.02452835       0.05607852 </v>
   <v>      -0.34494323      -0.05380611       0.10569383 </v>
   <v>       0.53205789      -0.11280409       0.36646006 </v>
   <v>      -0.37480723      -0.59366168       0.87261320 </v>
   <v>      -0.18583403       0.11491852       0.11244554 </v>
   <v>      -0.05228305       0.03556795      -0.06932230 </v>
   <v>      -0.01059500       0.04040886      -0.04997479 </v>
   <v>       0.07455271      -0.05352553      -0.16220611 </v>
   <v>       2.07665646      -0.41789452      -3.47431956 </v>
   <v>       0.93328755      -0.24843145      -0.16292064 </v>
   <v>      -0.11780582      -0.01975105      -0.18351372 </v>
   <v>      -0.04212646       0.00228945       0.03173877 </v>
   <v>      -0.10765791       0.02098558       0.05652995 </v>
   <v>      -0.23149392      -0.05961233       0.11199216 </v>
   <v>       0.20258707       1.04939546      -2.90250588 </v>
   <v>       1.07163161       1.52091569      10.88096579 </v>
   <v>      -0.08478219       0.18123519       0.06847847 </v>
   <v>      -0.08053218       0.05744219      -0.07547069 </v>
   <v>      -0.00537472       0.00317469      -0.03957100 </v>
   <v>      -0.01484168      -0.05083785      -0.04626589 </v>
   <v>       0.46819253      -0.57893669      -0.18178606 </v>
   <v>       0.93328755      -0.24843145      -0.16292064 </v>
   <v>      -0.11780582      -0.01975105      -0.18351372 </v>
   <v>      -0.04212646       0.00228945       0.03173877 </v>
   <v>      -0.10765791       0.02098558       0.05652995 </v>
   <v>      -0.23149392      -0.05961233       0.11199216 </v>
   <v>       0.20258707       1.04939546      -2.90250588 </v>
   <v>       1.07163161       1.52091569      10.88096579 </v>
   <v>      -0.08478219       0.18123519       0.06847847 </v>
   <v>      -0.08053218       0.05744219      -0.07547069 </v>
   <v>      -0.00537472       0.00317469      -0.03957100 </v>
   <v>      -0.01484168      -0.05083785      -0.04626589 </v>
   <v>       0.46819253      -0.57893669      -0.18178606 </v>
   <v>      -1.49456499       0.02171118       0.50522780 </v>
   <v>       0.03069485      -0.14026297       0.03608851 </v>
   <v>       0.05487121      -0.01978447       0.03269826 </v>
   <v>       0.03289413       0.01648691      -0.03096352 </v>
   <v>       0.40785250       0.12571071       0.14610433 </v>
   <v>      -0.44388711       1.14483352      -0.71558150 </v>
   <v>       1.02824848       1.50085686       2.91828204 </v>
   <v>       0.08384602       0.09445017      -0.22598027 </v>
   <v>       0.04559931      -0.03569026      -0.08406492 </v>
   <v>       0.11414149      -0.01852355       0.05322464 </v>
   <v>      -0.09307669       0.05332309      -0.15773334 </v>
   <v>      -0.26651073      -0.94934289      -2.11659341 </v>
   <v>      -1.49456499       0.02171118       0.50522780 </v>
   <v>       0.03069485      -0.14026297       0.03608851 </v>
   <v>       0.05487121      -0.01978447       0.03269826 </v>
   <v>       0.03289413       0.01648691      -0.03096352 </v>
   <v>       0.40785250       0.12571071       0.14610433 </v>
   <v>      -0.44388711       1.14483352      -0.71558150 </v>
   <v>       1.02824848       1.50085686       2.91828204 </v>
   <v>       0.08384602       0.09445017      -0.22598027 </v>
   <v>       0.04559931      -0.03569026      -0.08406492 </v>
   <v>       0.11414149      -0.01852355       0.05322464 </v>
   <v>      -0.09307669       0.05332309      -0.15773334 </v>
   <v>      -0.26651073      -0.94934289      -2.11659341 </v>
   <v>      -0.90812246       0.44687699      -0.03794511 </v>
   <v>       0.25905832      -0.12493074       0.13078252 </v>
   <v>       0.03709182      -0.02313792       0.01657675 </v>
   <v>       0.04775603      -0.05995966      -0.03904728 </v>
   <v>       0.16829221      -0.00354945       0.14788784 </v>
   <v>      -1.85708455      -0.04830106      -2.39249231 </v>
   <v>      -1.62601837      -2.19322943       8.20291296 </v>
   <v>      -0.01270656       0.07740953       0.04131713 </v>
   <v>       0.04832814      -0.07006236      -0.07187084 </v>
   <v>       0.08421771      -0.01803262       0.08539871 </v>
   <v>       0.04975104       0.13579113      -0.04808570 </v>
   <v>       0.08778274       0.36848069      -0.23623066 </v>
   <v>      -0.90812246       0.44687699      -0.03794511 </v>
   <v>       0.25905832      -0.12493074       0.13078252 </v>
   <v>       0.03709182      -0.02313792       0.01657675 </v>
   <v>       0.04775603      -0.05995966      -0.03904728 </v>
   <v>       0.16829221      -0.00354945       0.14788784 </v>
   <v>      -1.85708455      -0.04830106      -2.39249231 </v>
   <v>      -1.62601837      -2.19322943       8.20291296 </v>
   <v>      -0.01270656       0.07740953       0.04131713 </v>
   <v>       0.04832814      -0.07006236      -0.07187084 </v>
   <v>       0.08421771      -0.01803262       0.08539871 </v>
   <v>       0.04975104       0.13579113      -0.04808570 </v>
   <v>       0.08778274       0.36848069      -0.23623066 </v>
   <v>      -1.35524814       1.23259097       3.92738369 </v>
   <v>      -0.10787911      -0.14557860       0.19423988 </v>
   <v>      -0.09510508      -0.02828465      -0.01225622 </v>
   <v>      -0.05876280      -0.07865969       0.02698939 </v>
   <v>      -0.12192654      -0.11405851      -0.06177137 </v>
   <v>       0.64471786       0.49814982       0.51179624 </v>
   <v>      -0.07032325       0.02301901       0.30828327 </v>
   <v>      -0.08187718      -0.12579962      -0.14366891 </v>
   <v>      -0.03571833      -0.04322050      -0.01235589 </v>
   <v>      -0.00195444      -0.04868943       0.00420549 </v>
   <v>      -0.03574523      -0.07925766       0.03862020 </v>
   <v>       0.24587518      -0.84363096     -11.25890860 </v>
   <v>       1.44290860      -0.45379661       2.89462012 </v>
   <v>      -0.06292817      -0.06914648       0.10515953 </v>
   <v>      -0.01140329      -0.06293967      -0.00402043 </v>
   <v>      -0.05045509      -0.01625623       0.01669614 </v>
   <v>       0.00387734      -0.08641677      -0.14062186 </v>
   <v>      -1.46367854      -0.80076325      -3.80920924 </v>
   <v>      -1.35524814       1.23259097       3.92738369 </v>
   <v>      -0.10787911      -0.14557860       0.19423988 </v>
   <v>      -0.09510508      -0.02828465      -0.01225622 </v>
   <v>      -0.05876280      -0.07865969       0.02698939 </v>
   <v>      -0.12192654      -0.11405851      -0.06177137 </v>
   <v>       0.64471786       0.49814982       0.51179624 </v>
   <v>      -0.07032325       0.02301901       0.30828327 </v>
   <v>      -0.08187718      -0.12579962      -0.14366891 </v>
   <v>      -0.03571833      -0.04322050      -0.01235589 </v>
   <v>      -0.00195444      -0.04868943       0.00420549 </v>
   <v>      -0.03574523      -0.07925766       0.03862020 </v>
   <v>       0.24587518      -0.84363096     -11.25890860 </v>
   <v>       1.44290860      -0.45379661       2.89462012 </v>
   <v>      -0.06292817      -0.06914648       0.10515953 </v>
   <v>      -0.01140329      -0.06293967      -0.00402043 </v>
   <v>      -0.05045509      -0.01625623       0.01669614 </v>
   <v>       0.00387734      -0.08641677      -0.14062186 </v>
   <v>      -1.46367854      -0.80076325      -3.80920924 </v>
   <v>       1.16552609      -1.31888986       2.64115994 </v>
   <v>       0.13196138       0.15240682       0.13814323 </v>
   <v>       0.07903991       0.02716522      -0.00667605 </v>
   <v>       0.03396265       0.06356149      -0.00294033 </v>
   <v>       0.12674897       0.15271703      -0.07071755 </v>
   <v>      -0.70037280      -0.77541330       0.45390412 </v>
   <v>      -1.34333561       0.19755576       2.74731084 </v>
   <v>       0.04920935       0.05399894       0.11181860 </v>
   <v>      -0.01690505       0.03009812       0.01939700 </v>
   <v>       0.02989355       0.01603609       0.00474313 </v>
   <v>       0.03645044       0.08996046      -0.01173210 </v>
   <v>       0.82378768      -0.05933528      -1.87796540 </v>
   <v>      -0.58047621      -0.22795462      -0.28567428 </v>
   <v>       0.08247866       0.14826245      -0.16989824 </v>
   <v>       0.02490341       0.02437023       0.01655189 </v>
   <v>       0.00662534       0.03051274       0.01594044 </v>
   <v>       0.03505203       0.07773119       0.02931963 </v>
   <v>       0.09586532       1.13315709      -8.99917407 </v>
   <v>       1.16552609      -1.31888986       2.64115994 </v>
   <v>       0.13196138       0.15240682       0.13814323 </v>
   <v>       0.07903991       0.02716522      -0.00667605 </v>
   <v>       0.03396265       0.06356149      -0.00294033 </v>
   <v>       0.12674897       0.15271703      -0.07071755 </v>
   <v>      -0.70037280      -0.77541330       0.45390412 </v>
   <v>      -1.34333561       0.19755576       2.74731084 </v>
   <v>       0.04920935       0.05399894       0.11181860 </v>
   <v>      -0.01690505       0.03009812       0.01939700 </v>
   <v>       0.02989355       0.01603609       0.00474313 </v>
   <v>       0.03645044       0.08996046      -0.01173210 </v>
   <v>       0.82378768      -0.05933528      -1.87796540 </v>
   <v>      -0.58047621      -0.22795462      -0.28567428 </v>
   <v>       0.08247866       0.14826245      -0.16989824 </v>
   <v>       0.02490341       0.02437023       0.01655189 </v>
   <v>       0.00662534       0.03051274       0.01594044 </v>
   <v>       0.03505203       0.07773119       0.02931963 </v>
   <v>       0.09586532       1.13315709      -8.99917407 </v>
  </varray>
  <varray name="stress" >
   <v>      45.19230778       3.61914866      -0.81400004 </v>
   <v>       3.61914659      46.03254253       0.36963684 </v>
   <v>      -0.81400131       0.36963684      90.24294612 </v>
  </varray>
  <energy>
   <i name="e_fr_energy">   -670.31214555 </i>
   <i name="e_wo_entrp">   -670.31018962 </i>
   <i name="e_0_energy">   -670.31116759 </i>
  </energy>
  <time name="totalsc"> 1203.19 1215.62</time>
  <eigenvalues>
   <array>
    <dimension dim="1">band</dimension>
    <dimension dim="2">kpoint</dimension>
    <dimension dim="3">spin</dimension>
    <field>eigene</field>
    <field>occ</field>
    <set>
     <set comment="spin 1">
      <set comment="kpoint 1">
       <r>   -9.1298    1.0000 </r>
       <r>   -8.9200    1.0000 </r>
       <r>   -8.7093    1.0000 </r>
       <r>   -8.6919    1.0000 </r>
       <r>   -8.6228    1.0000 </r>
       <r>   -8.5856    1.0000 </r>
       <r>   -8.5168    1.0000 </r>
       <r>   -8.4712    1.0000 </r>
       <r>   -8.3695    1.0000 </r>
       <r>   -8.2403    1.0000 </r>
       <r>   -8.1165    1.0000 </r>
       <r>   -7.9317    1.0000 </r>
       <r>   -7.9280    1.0000 </r>
       <r>   -7.8223    1.0000 </r>
       <r>   -7.7572    1.0000 </r>
       <r>   -7.6841    1.0000 </r>
       <r>   -7.5999    1.0000 </r>
       <r>   -7.5696    1.0000 </r>
       <r>   -7.4887    1.0000 </r>
       <r>   -7.4453    1.0000 </r>
       <r>   -7.4287    1.0000 </r>
       <r>   -7.4182    1.0000 </r>
       <r>   -7.3542    1.0000 </r>
       <r>   -7.2767    1.0000 </r>
       <r>   -7.2086    1.0000 </r>
       <r>   -7.1582    1.0000 </r>
       <r>   -7.0308    1.0000 </r>
       <r>   -7.0094    1.0000 </r>
       <r>   -6.9926    1.0000 </r>
       <r>   -6.9737    1.0000 </r>
       <r>   -6.9239    1.0000 </r>
       <r>   -6.9030    1.0000 </r>
       <r>   -6.8468    1.0000 </r>
       <r>   -6.8189    1.0000 </r>
       <r>   -6.8087    1.0000 </r>
       <r>   -6.7542    1.0000 </r>
       <r>   -6.6963    1.0000 </r>
       <r>   -6.6436    1.0000 </r>
       <r>   -6.5860    1.0000 </r>
       <r>   -6.3954    1.0000 </r>
       <r>   -6.3152    1.0000 </r>
       <r>   -6.3070    1.0000 </r>
       <r>   -6.2957    1.0000 </r>
       <r>   -6.2064    1.0000 </r>
       <r>   -6.2015    1.0000 </r>
       <r>   -6.0567    1.0000 </r>
       <r>   -5.9791    1.0000 </r>
       <r>   -5.9527    1.0000 </r>
       <r>   -5.8636    1.0000 </r>
       <r>   -5.8538    1.0000 </r>
       <r>   -5.7402    1.0000 </r>
       <r>   -5.7338    1.0000 </r>
       <r>   -5.6923    1.0000 </r>
       <r>   -5.6668    1.0000 </r>
       <r>   -5.5802    1.0000 </r>
       <r>   -5.5693    1.0000 </r>
       <r>   -5.5665    1.0000 </r>
       <r>   -5.5084    1.0000 </r>
       <r>   -5.4548    1.0000 </r>
       <r>   -5.4337    1.0000 </r>
       <r>   -5.3923    1.0000 </r>
       <r>   -5.3765    1.0000 </r>
       <r>   -5.3571    1.0000 </r>
       <r>   -5.3425    1.0000 </r>
       <r>   -5.3272    1.0000 </r>
       <r>   -5.2753    1.0000 </r>
       <r>   -5.2304    1.0000 </r>
       <r>   -5.2086    1.0000 </r>
       <r>   -5.2071    1.0000 </r>
       <r>   -5.1620    1.0000 </r>
       <r>   -5.1059    1.0000 </r>
       <r>   -5.0933    1.0000 </r>
       <r>   -5.0761    1.0000 </r>
       <r>   -5.0734    1.0000 </r>
       <r>   -5.0636    1.0000 </r>
       <r>   -5.0319    1.0000 </r>
       <r>   -4.9745    1.0000 </r>
       <r>   -4.9114    1.0000 </r>
       <r>   -4.8662    1.0000 </r>
       <r>   -4.8614    1.0000 </r>
       <r>   -4.8206    1.0000 </r>
       <r>   -4.7792    1.0000 </r>
       <r>   -4.7457    1.0000 </r>
       <r>   -4.7272    1.0000 </r>
       <r>   -4.5862    1.0000 </r>
       <r>   -4.5854    1.0000 </r>
       <r>   -4.5364    1.0000 </r>
       <r>   -4.5251    1.0000 </r>
       <r>   -4.5024    1.0000 </r>
       <r>   -4.4643    1.0000 </r>
       <r>   -4.4564    1.0000 </r>
       <r>   -4.4113    1.0000 </r>
       <r>   -4.3752    1.0000 </r>
       <r>   -4.3427    1.0000 </r>
       <r>   -4.1609    1.0000 </r>
       <r>   -4.1338    1.0000 </r>
       <r>   -4.0831    1.0000 </r>
       <r>   -4.0813    1.0000 </r>
       <r>   -4.0550    1.0000 </r>
       <r>   -3.9607    1.0000 </r>
       <r>   -3.9255    1.0000 </r>
       <r>   -3.8974    1.0000 </r>
       <r>   -3.8794    1.0000 </r>
       <r>   -3.8725    1.0000 </r>
[...]
       <r>    -3.1349    44.4785   238.7887 </r>
       <r>    -3.0806    34.5204   240.6638 </r>
       <r>    -3.0263    32.8676   242.4491 </r>
       <r>    -2.9719    57.5158   245.5734 </r>
       <r>    -2.9176    73.8439   249.5846 </r>
       <r>    -2.8633    50.4788   252.3266 </r>
       <r>    -2.8090    24.9611   253.6825 </r>
       <r>    -2.7547    40.2570   255.8693 </r>
       <r>    -2.7004    47.6738   258.4589 </r>
       <r>    -2.6460    37.6910   260.5063 </r>
       <r>    -2.5917    55.6754   263.5305 </r>
       <r>    -2.5374    71.4516   267.4118 </r>
       <r>    -2.4831    55.5102   270.4270 </r>
       <r>    -2.4288    35.2847   272.3437 </r>
       <r>    -2.3744    66.2146   275.9404 </r>
       <r>    -2.3201    53.4634   278.8445 </r>
       <r>    -2.2658    23.4713   280.1196 </r>
       <r>    -2.2115    54.4423   283.0768 </r>
       <r>    -2.1572    46.5617   285.6061 </r>
       <r>    -2.1028    13.4273   286.3355 </r>
       <r>    -2.0485    41.2173   288.5744 </r>
       <r>    -1.9942    43.4128   290.9325 </r>
       <r>    -1.9399    16.3010   291.8180 </r>
       <r>    -1.8856    33.9610   293.6627 </r>
       <r>    -1.8312    39.0779   295.7854 </r>
       <r>    -1.7769    45.7583   298.2710 </r>
       <r>    -1.7226    41.5892   300.5301 </r>
       <r>    -1.6683    30.9302   302.2102 </r>
       <r>    -1.6140    33.9592   304.0548 </r>
       <r>    -1.5596    35.7869   305.9988 </r>
       <r>    -1.5053    36.7005   307.9924 </r>
       <r>    -1.4510    20.2224   309.0908 </r>
       <r>    -1.3967    46.5549   311.6197 </r>
       <r>    -1.3424    12.5089   312.2992 </r>
       <r>    -1.2880    16.7765   313.2105 </r>
       <r>    -1.2337    14.5338   314.0000 </r>
       <r>    -1.1794     2.7442   314.1491 </r>
       <r>    -1.1251    40.2116   316.3333 </r>
       <r>    -1.0708     6.1459   316.6672 </r>
       <r>    -1.0164    18.4765   317.6708 </r>
       <r>    -0.9621    18.7650   318.6901 </r>
       <r>    -0.9078    29.1700   320.2746 </r>
       <r>    -0.8535    19.4908   321.3334 </r>
       <r>    -0.7992    12.4602   322.0102 </r>
       <r>    -0.7449    30.6886   323.6772 </r>
       <r>    -0.6905    36.7320   325.6725 </r>
       <r>    -0.6362    48.9144   328.3296 </r>
       <r>    -0.5819    27.0108   329.7969 </r>
       <r>    -0.5276    72.9539   333.7597 </r>
       <r>    -0.4733    61.4997   337.1004 </r>
       <r>    -0.4189    91.5415   342.0729 </r>
       <r>    -0.3646    55.8712   345.1078 </r>
       <r>    -0.3103    76.5099   349.2638 </r>
       <r>    -0.2560    62.4894   352.6582 </r>
       <r>    -0.2017    93.8646   357.7568 </r>
       <r>    -0.1473    64.3419   361.2520 </r>
       <r>    -0.0930    60.3144   364.5283 </r>
       <r>    -0.0387    63.5607   367.9808 </r>
       <r>     0.0156    86.7647   372.6939 </r>
       <r>     0.0699    77.3211   376.8939 </r>
       <r>     0.1243    86.9942   381.6195 </r>
       <r>     0.1786    63.8515   385.0879 </r>
       <r>     0.2329    78.6054   389.3577 </r>
       <r>     0.2872    86.7707   394.0710 </r>
       <r>     0.3415    92.9007   399.1174 </r>
       <r>     0.3959   106.6377   404.9099 </r>
       <r>     0.4502   102.9442   410.5018 </r>
       <r>     0.5045    90.7024   415.4287 </r>
       <r>     0.5588   127.0823   422.3317 </r>
       <r>     0.6131   105.8598   428.0820 </r>
       <r>     0.6675   130.3415   435.1621 </r>
       <r>     0.7218   161.9562   443.9595 </r>
       <r>     0.7761   109.7388   449.9204 </r>
       <r>     0.8304    83.8884   454.4772 </r>
       <r>     0.8847   108.1221   460.3504 </r>
       <r>     0.9391   115.4178   466.6198 </r>
       <r>     0.9934    99.7542   472.0384 </r>
       <r>     1.0477    75.6767   476.1492 </r>
       <r>     1.1020   110.6271   482.1584 </r>
       <r>     1.1563   105.1646   487.8710 </r>
       <r>     1.2106    97.0994   493.1455 </r>
       <r>     1.2650   146.0479   501.0787 </r>
       <r>     1.3193   128.8394   508.0772 </r>
       <r>     1.3736   115.0177   514.3249 </r>
       <r>     1.4279   103.1573   519.9284 </r>
       <r>     1.4822   103.4117   525.5457 </r>
       <r>     1.5366   119.4401   532.0336 </r>
       <r>     1.5909   120.6990   538.5901 </r>
       <r>     1.6452    94.3094   543.7130 </r>
       <r>     1.6995   119.7327   550.2169 </r>
       <r>     1.7538    98.2407   555.5533 </r>
       <r>     1.8082   131.1664   562.6782 </r>
       <r>     1.8625   100.6733   568.1468 </r>
       <r>     1.9168    72.9507   572.1094 </r>
       <r>     1.9711   102.0679   577.6538 </r>
       <r>     2.0254    92.9905   582.7050 </r>
       <r>     2.0798   108.0423   588.5738 </r>
       <r>     2.1341    72.6875   592.5222 </r>
       <r>     2.1884    78.3316   596.7771 </r>
       <r>     2.2427   109.3473   602.7169 </r>
       <r>     2.2970    84.7620   607.3211 </r>
       <r>     2.3514    65.3652   610.8717 </r>
       <r>     2.4057    71.4654   614.7537 </r>
       <r>     2.4600    58.8077   617.9481 </r>
       <r>     2.5143    75.5095   622.0498 </r>
       <r>     2.5686   109.6206   628.0044 </r>
       <r>     2.6230    44.7076   630.4330 </r>
       <r>     2.6773    61.8280   633.7914 </r>
       <r>     2.7316    78.5820   638.0600 </r>
       <r>     2.7859    80.3297   642.4234 </r>
       <r>     2.8402    54.1465   645.3647 </r>
       <r>     2.8946    48.5976   648.0045 </r>
       <r>     2.9489    38.0011   650.0686 </r>
       <r>     3.0032    50.8866   652.8328 </r>
       <r>     3.0575    60.2951   656.1080 </r>
       <r>     3.1118    41.3237   658.3527 </r>
       <r>     3.1661    20.8464   659.4850 </r>
       <r>     3.2205    60.4757   662.7701 </r>
       <r>     3.2748    48.5376   665.4066 </r>
       <r>     3.3291    42.5331   667.7170 </r>
       <r>     3.3834    42.0338   670.0003 </r>
       <r>     3.4377    32.5839   671.7702 </r>
       <r>     3.4921    18.5746   672.7792 </r>
       <r>     3.5464    28.6013   674.3328 </r>
       <r>     3.6007    54.0087   677.2666 </r>
       <r>     3.6550    28.3981   678.8092 </r>
       <r>     3.7093    45.1808   681.2634 </r>
       <r>     3.7637    31.9694   683.0000 </r>
       <r>     3.8180     5.5857   683.3034 </r>
       <r>     3.8723    12.8277   684.0002 </r>
       <r>     3.9266    39.0931   686.1237 </r>
       <r>     3.9809     3.8588   686.3333 </r>
       <r>     4.0353     8.0968   686.7731 </r>
       <r>     4.0896    28.7195   688.3332 </r>
       <r>     4.1439    18.2597   689.3250 </r>
       <r>     4.1982    53.2157   692.2157 </r>
       <r>     4.2525    35.2670   694.1314 </r>
       <r>     4.3069    22.1275   695.3333 </r>
       <r>     4.3612    17.4160   696.2794 </r>
       <r>     4.4155    51.2012   699.0606 </r>
       <r>     4.4698    43.5564   701.4265 </r>
       <r>     4.5241    68.4901   705.1469 </r>
       <r>     4.5785    75.2433   709.2341 </r>
       <r>     4.6328    95.0174   714.3953 </r>
       <r>     4.6871    42.4560   716.7015 </r>
       <r>     4.7414    91.9564   721.6966 </r>
       <r>     4.7957    92.1556   726.7024 </r>
       <r>     4.8501    64.0839   730.1834 </r>
       <r>     4.9044    87.9140   734.9589 </r>
       <r>     4.9587    85.0228   739.5773 </r>
       <r>     5.0130   120.4348   746.1192 </r>
       <r>     5.0673    96.9530   751.3858 </r>
       <r>     5.1216   112.7499   757.5103 </r>
       <r>     5.1760    97.1691   762.7886 </r>
       <r>     5.2303   105.8259   768.5370 </r>
       <r>     5.2846    94.1920   773.6534 </r>
       <r>     5.3389    85.4431   778.2947 </r>
       <r>     5.3932   109.5421   784.2450 </r>
       <r>     5.4476   121.4773   790.8437 </r>
       <r>     5.5019   120.7439   797.4025 </r>
       <r>     5.5562    93.4228   802.4772 </r>
       <r>     5.6105    39.6753   804.6323 </r>
       <r>     5.6648    49.6229   807.3278 </r>
       <r>     5.7192    12.3742   808.0000 </r>
       <r>     5.7735     0.0000   808.0000 </r>
       <r>     5.8278     0.0000   808.0000 </r>
       <r>     5.8821     0.0000   808.0000 </r>
       <r>     5.9364     0.0000   808.0000 </r>
       <r>     5.9908     0.0000   808.0000 </r>
       <r>     6.0451     0.0000   808.0000 </r>
       <r>     6.0994     0.0000   808.0000 </r>
       <r>     6.1537     0.0000   808.0000 </r>
       <r>     6.2080     0.0000   808.0000 </r>
       <r>     6.2624     0.0000   808.0000 </r>
       <r>     6.3167     0.0000   808.0000 </r>
       <r>     6.3710     0.0000   808.0000 </r>
       <r>     6.4253     0.0000   808.0000 </r>
      </set>
     </set>
    </array>
   </total>
  </dos>
 </calculation>
 <structure name="finalpos" >
  <crystal>
   <varray name="basis" >
    <v>      11.31560040       0.00000000       0.00000000 </v>
    <v>       0.00000000      16.00267601       0.00000000 </v>
    <v>       0.00000000       0.00000000      25.60421562 </v>
   </varray>
   <i name="volume">   4636.40847104 </i>
   <varray name="rec_basis" >
    <v>       0.08837357       0.00000000       0.00000000 </v>
    <v>       0.00000000       0.06248955       0.00000000 </v>
    <v>       0.00000000       0.00000000       0.03905607 </v>
   </varray>
  </crystal>
  <varray name="positions" >
   <v>       0.97066277       0.45599416       0.00000002 </v>
   <v>       0.72066271       0.08099414       0.07812521 </v>
   <v>       0.47066277       0.70599413       0.15625042 </v>
   <v>       0.22066289       0.33099425       0.23437557 </v>
   <v>       0.97066271       0.95599413       0.31250077 </v>
   <v>       0.72066271       0.58099413       0.39062604 </v>
   <v>       0.47066277       0.45599416       0.00000002 </v>
   <v>       0.22066276       0.08099414       0.07812521 </v>
   <v>       0.97066277       0.70599413       0.15625042 </v>
   <v>       0.72066283       0.33099425       0.23437557 </v>
   <v>       0.47066283       0.95599413       0.31250077 </v>
   <v>       0.22066277       0.58099413       0.39062604 </v>
   <v>       0.97066277       0.95599413       0.00000002 </v>
   <v>       0.72066271       0.58099413       0.07812522 </v>
   <v>       0.47066277       0.20599413       0.15625040 </v>
   <v>       0.22066289       0.83099437       0.23437557 </v>
   <v>       0.97066271       0.45599413       0.31250080 </v>
   <v>       0.72066271       0.08099413       0.39062601 </v>
   <v>       0.47066277       0.95599413       0.00000002 </v>
   <v>       0.22066276       0.58099413       0.07812522 </v>
   <v>       0.97066277       0.20599413       0.15625040 </v>
   <v>       0.72066283       0.83099437       0.23437557 </v>
   <v>       0.47066283       0.45599413       0.31250080 </v>
   <v>       0.22066277       0.08099413       0.39062601 </v>
   <v>       0.97066277       0.70599413       0.00000002 </v>
   <v>       0.72066271       0.33099413       0.07812521 </v>
   <v>       0.47066277       0.95599413       0.15625040 </v>
   <v>       0.22066289       0.58099425       0.23437560 </v>
   <v>       0.97066271       0.20599419       0.31250080 </v>
   <v>       0.72066271       0.83099413       0.39062604 </v>
   <v>       0.47066277       0.70599413       0.00000002 </v>
   <v>       0.22066276       0.33099413       0.07812521 </v>
   <v>       0.97066277       0.95599413       0.15625040 </v>
   <v>       0.72066283       0.58099425       0.23437560 </v>
   <v>       0.47066283       0.20599419       0.31250080 </v>
   <v>       0.22066277       0.83099413       0.39062604 </v>
   <v>       0.97066277       0.20599414       0.00000002 </v>
   <v>       0.72066271       0.83099413       0.07812521 </v>
   <v>       0.47066277       0.45599413       0.15625040 </v>
   <v>       0.22066289       0.08099425       0.23437560 </v>
   <v>       0.97066271       0.70599425       0.31250077 </v>
   <v>       0.72066271       0.33099413       0.39062601 </v>
   <v>       0.47066277       0.20599414       0.00000002 </v>
   <v>       0.22066276       0.83099413       0.07812521 </v>
   <v>       0.97066277       0.45599413       0.15625040 </v>
   <v>       0.72066283       0.08099425       0.23437560 </v>
   <v>       0.47066283       0.70599425       0.31250077 </v>
   <v>       0.22066277       0.33099413       0.39062601 </v>
   <v>       0.34566274       0.58099419       0.00000003 </v>
   <v>       0.09566276       0.20599416       0.07812521 </v>
   <v>       0.84566277       0.83099413       0.15625040 </v>
   <v>       0.59566283       0.45599425       0.23437557 </v>
   <v>       0.34566277       0.08099419       0.31250080 </v>
   <v>       0.09566271       0.70599413       0.39062604 </v>
   <v>       0.84566283       0.58099419       0.00000003 </v>
   <v>       0.59566277       0.20599416       0.07812521 </v>
   <v>       0.34566280       0.83099413       0.15625040 </v>
   <v>       0.09566288       0.45599425       0.23437557 </v>
   <v>       0.84566283       0.08099419       0.31250080 </v>
   <v>       0.59566277       0.70599413       0.39062604 </v>
   <v>       0.34566274       0.08099414       0.00000001 </v>
   <v>       0.09566276       0.70599413       0.07812521 </v>
   <v>       0.84566277       0.33099413       0.15625040 </v>
   <v>       0.59566283       0.95599425       0.23437560 </v>
   <v>       0.34566277       0.58099425       0.31250077 </v>
   <v>       0.09566271       0.20599401       0.39062601 </v>
   <v>       0.84566283       0.08099414       0.00000001 </v>
   <v>       0.59566277       0.70599413       0.07812521 </v>
   <v>       0.34566280       0.33099413       0.15625040 </v>
   <v>       0.09566288       0.95599425       0.23437560 </v>
   <v>       0.84566283       0.58099425       0.31250077 </v>
   <v>       0.59566277       0.20599401       0.39062601 </v>
   <v>       0.34566274       0.83099419       0.00000000 </v>
   <v>       0.09566276       0.45599419       0.07812521 </v>
   <v>       0.84566277       0.08099417       0.15625040 </v>
   <v>       0.59566283       0.70599431       0.23437557 </v>
   <v>       0.34566277       0.33099425       0.31250077 </v>
   <v>       0.09566271       0.95599413       0.39062598 </v>
   <v>       0.84566283       0.83099419       0.00000000 </v>
   <v>       0.59566277       0.45599419       0.07812521 </v>
   <v>       0.34566280       0.08099417       0.15625040 </v>
   <v>       0.09566288       0.70599431       0.23437557 </v>
   <v>       0.84566283       0.33099425       0.31250077 </v>
   <v>       0.59566277       0.95599413       0.39062598 </v>
   <v>       0.34566274       0.33099413       0.00000002 </v>
   <v>       0.09566276       0.95599413       0.07812522 </v>
   <v>       0.84566277       0.58099413       0.15625040 </v>
   <v>       0.59566283       0.20599425       0.23437560 </v>
   <v>       0.34566277       0.83099413       0.31250077 </v>
   <v>       0.09566271       0.45599413       0.39062601 </v>
   <v>       0.84566283       0.33099413       0.00000002 </v>
   <v>       0.59566277       0.95599413       0.07812522 </v>
   <v>       0.34566280       0.58099413       0.15625040 </v>
   <v>       0.09566288       0.20599425       0.23437560 </v>
   <v>       0.84566283       0.83099413       0.31250077 </v>
   <v>       0.59566277       0.45599413       0.39062601 </v>
   <v>       0.12500000       0.60917449       0.47129923 </v>
   <v>       0.12500000       0.85917461       0.56090480 </v>
   <v>       0.12499988       0.10917473       0.65051037 </v>
   <v>       0.12499976       0.35917497       0.74011582 </v>
   <v>       0.12499976       0.60917497       0.82972133 </v>
   <v>       0.12499976       0.85917509       0.91932684 </v>
   <v>       0.45833337       0.94250786       0.47129923 </v>
   <v>       0.45833331       0.19250786       0.56090480 </v>
   <v>       0.45833331       0.44250798       0.65051037 </v>
   <v>       0.45833322       0.69250822       0.74011582 </v>
   <v>       0.45833322       0.94250834       0.82972133 </v>
   <v>       0.45833316       0.19250846       0.91932684 </v>
   <v>       0.79166675       0.27584124       0.47129923 </v>
   <v>       0.79166669       0.52584124       0.56090480 </v>
   <v>       0.79166681       0.77584148       0.65051037 </v>
   <v>       0.79166651       0.02584148       0.74011582 </v>
   <v>       0.79166657       0.27584159       0.82972133 </v>
   <v>       0.79166657       0.52584183       0.91932684 </v>
   <v>       0.12500003       0.10917449       0.47129923 </v>
   <v>       0.12500000       0.35917461       0.56090474 </v>
   <v>       0.12499988       0.60917473       0.65051037 </v>
   <v>       0.12499988       0.85917485       0.74011582 </v>
   <v>       0.12499976       0.10917497       0.82972133 </v>
   <v>       0.12499976       0.35917509       0.91932684 </v>
   <v>       0.45833337       0.44250786       0.47129923 </v>
   <v>       0.45833334       0.69250798       0.56090474 </v>
   <v>       0.45833337       0.94250822       0.65051037 </v>
   <v>       0.45833325       0.19250822       0.74011582 </v>
   <v>       0.45833328       0.44250834       0.82972133 </v>
   <v>       0.45833311       0.69250858       0.91932684 </v>
   <v>       0.79166681       0.77584118       0.47129923 </v>
   <v>       0.79166663       0.02584124       0.56090474 </v>
   <v>       0.79166669       0.27584148       0.65051037 </v>
   <v>       0.79166663       0.52584148       0.74011582 </v>
   <v>       0.79166651       0.77584159       0.82972133 </v>
   <v>       0.79166657       0.02584171       0.91932684 </v>
   <v>       0.20833331       0.94250786       0.47129923 </v>
   <v>       0.20833325       0.19250786       0.56090474 </v>
   <v>       0.20833328       0.44250798       0.65051037 </v>
   <v>       0.20833313       0.69250810       0.74011582 </v>
   <v>       0.20833313       0.94250822       0.82972133 </v>
   <v>       0.20833313       0.19250834       0.91932684 </v>
   <v>       0.54166675       0.27584124       0.47129923 </v>
   <v>       0.54166663       0.52584124       0.56090480 </v>
   <v>       0.54166663       0.77584148       0.65051037 </v>
   <v>       0.54166663       0.02584159       0.74011582 </v>
   <v>       0.54166639       0.27584159       0.82972133 </v>
   <v>       0.54166651       0.52584171       0.91932684 </v>
   <v>       0.87500000       0.60917455       0.47129923 </v>
   <v>       0.87500000       0.85917461       0.56090480 </v>
   <v>       0.87499994       0.10917473       0.65051037 </v>
   <v>       0.87499982       0.35917485       0.74011582 </v>
   <v>       0.87499982       0.60917497       0.82972133 </v>
   <v>       0.87499982       0.85917509       0.91932684 </v>
   <v>       0.20833334       0.44250798       0.47129923 </v>
   <v>       0.20833328       0.69250798       0.56090480 </v>
   <v>       0.20833322       0.94250810       0.65051031 </v>
   <v>       0.20833325       0.19250846       0.74011582 </v>
   <v>       0.20833313       0.44250834       0.82972139 </v>
   <v>       0.20833307       0.69250858       0.91932684 </v>
   <v>       0.54166675       0.77584118       0.47129923 </v>
   <v>       0.54166663       0.02584124       0.56090480 </v>
   <v>       0.54166657       0.27584148       0.65051037 </v>
   <v>       0.54166657       0.52584148       0.74011582 </v>
   <v>       0.54166657       0.77584159       0.82972133 </v>
   <v>       0.54166645       0.02584171       0.91932684 </v>
   <v>       0.87500000       0.10917449       0.47129923 </v>
   <v>       0.87499994       0.35917461       0.56090480 </v>
   <v>       0.87500000       0.60917473       0.65051037 </v>
   <v>       0.87499988       0.85917485       0.74011582 </v>
   <v>       0.87499982       0.10917485       0.82972133 </v>
   <v>       0.87499976       0.35917509       0.91932684 </v>
  </varray>
 </structure>
</modeling>
