 vasp.6.4.3 19Mar24 (build Oct 22 2024 11:23:12) complex                        
  
 executed on             LinuxIFC date 2025.04.30  05:48:58
 running   16 mpi-ranks, on    1 nodes
 distrk:  each k-point on   16 cores,    1 groups
 distr:  one band on NCORE=  16 cores,    1 groups


--------------------------------------------------------------------------------------------------------


 INCAR:
   SYSTEM = Si013 and Ge001 interface calculation
   ISTART = 0
   ICHARG = 2
   LWAVE = .FALSE.
   LREAL = AUTO
   ENCUT = 700
   ENAUG = 900
   ADDGRID = .TRUE.
   LMAXMIX = 6
   LASPH = .TRUE.
   LMIXTAU = .TRUE.
   NCORE = 16
   NELM = 100
   NBANDS = 144
   EDIFF = 1d-7
   AMIX = 0.6
   ISMEAR = 0
   SIGMA = 0.01
   NELECT = 240
   ISPIN = 2
   NUPDOWN = 1
   LVTOT = .FALSE.
   LVHAR = .TRUE.

 POTCAR:    PAW_PBE Si 05Jan2001                  
 POTCAR:    PAW_PBE Ge 05Jan2001                  
 -----------------------------------------------------------------------------
|                                                                             |
|           W    W    AA    RRRRR   N    N  II  N    N   GGGG   !!!           |
|           W    W   A  A   R    R  NN   N  II  NN   N  G    G  !!!           |
|           W    W  A    A  R    R  N N  N  II  N N  N  G       !!!           |
|           W WW W  AAAAAA  RRRRR   N  N N  II  N  N N  G  GGG   !            |
|           WW  WW  A    A  R   R   N   NN  II  N   NN  G    G                |
|           W    W  A    A  R    R  N    N  II  N    N   GGGG   !!!           |
|                                                                             |
|     You use a magnetic or noncollinear calculation, but did not specify     |
|     the initial magnetic moment with the MAGMOM tag. Note that a            |
|     default of 0.017 will be used for all atoms. This ferromagnetic         |
|     setup may break the symmetry of the crystal, in particular it may       |
|     rule out finding an antiferromagnetic solution. Thence, we              |
|     recommend setting the initial magnetic moment manually or verifying     |
|     carefully that this magnetic setup is desired.                          |
|                                                                             |
 -----------------------------------------------------------------------------

 -----------------------------------------------------------------------------
|                                                                             |
|           W    W    AA    RRRRR   N    N  II  N    N   GGGG   !!!           |
|           W    W   A  A   R    R  NN   N  II  NN   N  G    G  !!!           |
|           W    W  A    A  R    R  N N  N  II  N N  N  G       !!!           |
|           W WW W  AAAAAA  RRRRR   N  N N  II  N  N N  G  GGG   !            |
|           WW  WW  A    A  R   R   N   NN  II  N   NN  G    G                |
|           W    W  A    A  R    R  N    N  II  N    N   GGGG   !!!           |
|                                                                             |
|     For optimal performance we recommend to set                             |
|       NCORE = 2 up to number-of-cores-per-socket                            |
|     NCORE specifies how many cores store one orbital (NPAR=cpu/NCORE).      |
|     This setting can greatly improve the performance of VASP for DFT.       |
|     The default, NCORE=1 might be grossly inefficient on modern             |
|     multi-core architectures or massively parallel machines. Do your        |
|     own testing! More info at https://www.vasp.at/wiki/index.php/NCORE      |
|     Unfortunately you need to use the default for GW and RPA                |
|     calculations (for HF NCORE is supported but not extensively tested      |
|     yet).                                                                   |
|                                                                             |
 -----------------------------------------------------------------------------

 POTCAR:    PAW_PBE Si 05Jan2001                  
   VRHFIN =Si: s2p2                                                                                 
   LEXCH  = PE                                                                                      
   EATOM  =   103.0669 eV,    7.5752 Ry                                                             
                                                                                                    
   TITEL  = PAW_PBE Si 05Jan2001                                                                    
   LULTRA =        F    use ultrasoft PP ?                                                          
   IUNSCR =        1    unscreen: 0-lin 1-nonlin 2-no                                               
   RPACOR =    1.500    partial core radius                                                         
   POMASS =   28.085; ZVAL   =    4.000    mass and valenz                                          
   RCORE  =    1.900    outmost cutoff radius                                                       
   RWIGS  =    2.480; RWIGS  =    1.312    wigner-seitz radius (au A)                               
   ENMAX  =  245.345; ENMIN  =  184.009 eV                                                          
   ICORE  =        2    local potential                                                             
   LCOR   =        T    correct aug charges                                                         
   LPAW   =        T    paw PP                                                                      
   EAUG   =  322.069                                                                                
   DEXC   =    0.000                                                                                
   RMAX   =    1.950    core radius for proj-oper                                                   
   RAUG   =    1.300    factor for augmentation sphere                                              
   RDEP   =    1.993    radius for radial grids                                                     
   RDEPT  =    1.837    core radius for aug-charge                                                  
                                                                                                    
   Atomic configuration                                                                             
    6 entries                                                                                       
     n  l   j            E        occ.                                                              
     1  0  0.50     -1785.8828   2.0000                                                             
     2  0  0.50      -139.4969   2.0000                                                             
     2  1  1.50       -95.5546   6.0000                                                             
     3  0  0.50       -10.8127   2.0000                                                             
     3  1  0.50        -4.0811   2.0000                                                             
     3  2  1.50        -4.0817   0.0000                                                             
   Description                                                                                      
     l       E           TYP  RCUT    TYP  RCUT                                                     
     0    -10.8127223     23  1.900                                                                 
     0     -7.6451159     23  1.900                                                                 
     1     -4.0811372     23  1.900                                                                 
     1      2.4879257     23  1.900                                                                 
     2     -4.0817478      7  1.900                                                                 
  local pseudopotential read in
  partial core-charges read in
  partial kinetic energy density read in
  atomic valenz-charges read in
  non local Contribution for L=           0  read in
    real space projection operators read in
  non local Contribution for L=           0  read in
    real space projection operators read in
  non local Contribution for L=           1  read in
    real space projection operators read in
  non local Contribution for L=           1  read in
    real space projection operators read in
    PAW grid and wavefunctions read in
 
   number of l-projection  operators is LMAX  =           4
   number of lm-projection operators is LMMAX =           8
 
 POTCAR:    PAW_PBE Ge 05Jan2001                  
   VRHFIN =Ge: s2p2                                                                                 
   LEXCH  = PE                                                                                      
   EATOM  =   104.9960 eV,    7.7170 Ry                                                             
                                                                                                    
   TITEL  = PAW_PBE Ge 05Jan2001                                                                    
   LULTRA =        F    use ultrasoft PP ?                                                          
   IUNSCR =        1    unscreen: 0-lin 1-nonlin 2-no                                               
   RPACOR =    2.170    partial core radius                                                         
   POMASS =   72.610; ZVAL   =    4.000    mass and valenz                                          
   RCORE  =    2.300    outmost cutoff radius                                                       
   RWIGS  =    2.300; RWIGS  =    1.217    wigner-seitz radius (au A)                               
   ENMAX  =  173.807; ENMIN  =  130.355 eV                                                          
   ICORE  =        3    local potential                                                             
   LCOR   =        T    correct aug charges                                                         
   LPAW   =        T    paw PP                                                                      
   EAUG   =  385.843                                                                                
   DEXC   =    0.000                                                                                
   RMAX   =    2.342    core radius for proj-oper                                                   
   RAUG   =    1.300    factor for augmentation sphere                                              
   RDEP   =    2.318    radius for radial grids                                                     
   RDEPT  =    2.103    core radius for aug-charge                                                  
                                                                                                    
   Atomic configuration                                                                             
   10 entries                                                                                       
     n  l   j            E        occ.                                                              
     1  0  0.50    -10959.8463   2.0000                                                             
     2  0  0.50     -1371.6056   2.0000                                                             
     2  1  1.50     -1198.4791   6.0000                                                             
     3  0  0.50      -168.4733   2.0000                                                             
     3  1  1.50      -115.6019   6.0000                                                             
     3  2  2.50       -29.3106  10.0000                                                             
     4  0  0.50       -11.7309   2.0000                                                             
     4  1  0.50        -3.8952   2.0000                                                             
     4  2  1.50        -4.0817   0.0000                                                             
     4  3  2.50        -4.0817   0.0000                                                             
   Description                                                                                      
     l       E           TYP  RCUT    TYP  RCUT                                                     
     0    -11.7309493     23  2.300                                                                 
     0     -7.4578696     23  2.300                                                                 
     1     -3.8952261     23  2.300                                                                 
     1      6.1178114     23  2.300                                                                 
     2     -4.0817478     23  2.300                                                                 
     3     -1.3605826      7  2.300                                                                 
  local pseudopotential read in
  partial core-charges read in
  partial kinetic energy density read in
  atomic valenz-charges read in
  non local Contribution for L=           0  read in
    real space projection operators read in
  non local Contribution for L=           0  read in
    real space projection operators read in
  non local Contribution for L=           1  read in
    real space projection operators read in
  non local Contribution for L=           1  read in
    real space projection operators read in
  non local Contribution for L=           2  read in
    real space projection operators read in
    PAW grid and wavefunctions read in
 
   number of l-projection  operators is LMAX  =           5
   number of lm-projection operators is LMMAX =          13
 
 Optimization of the real space projectors (new method)

 maximal supplied QI-value         = 19.84
 optimisation between [QCUT,QGAM] = [ 13.49, 26.99] = [ 50.98,203.92] Ry 
 Optimized for a Real-space Cutoff    1.07 Angstroem

   l    n(q)    QCUT    max X(q) W(low)/X(q) W(high)/X(q)  e(spline) 
   0      9    13.493   159.560    0.22E-03    0.15E-03    0.72E-07
   0      9    13.493   115.863    0.21E-03    0.15E-03    0.71E-07
   1      8    13.493    88.339    0.15E-03    0.11E-03    0.13E-06
   1      8    13.493    48.592    0.15E-03    0.10E-03    0.13E-06
 Optimization of the real space projectors (new method)

 maximal supplied QI-value         = 16.25
 optimisation between [QCUT,QGAM] = [ 13.49, 26.98] = [ 50.95,203.80] Ry 
 Optimized for a Real-space Cutoff    1.25 Angstroem

   l    n(q)    QCUT    max X(q) W(low)/X(q) W(high)/X(q)  e(spline) 
   0     10    13.489    65.336    0.91E-04    0.11E-03    0.34E-06
   0     10    13.489    52.220    0.89E-04    0.11E-03    0.34E-06
   1     10    13.489    36.409    0.22E-03    0.27E-03    0.14E-06
   1     10    13.489    21.334    0.21E-03    0.27E-03    0.14E-06
   2      9    13.489     4.673    0.11E-03    0.12E-03    0.19E-06
  PAW_PBE Si 05Jan2001                  :
 energy of atom  1       EATOM= -103.0669
 kinetic energy error for atom=    0.0003 (will be added to EATOM!!)
  PAW_PBE Ge 05Jan2001                  :
 energy of atom  2       EATOM= -104.9960
 kinetic energy error for atom=    0.0001 (will be added to EATOM!!)
 
 
 POSCAR: fcc Si+fcc Ge
  positions in direct lattice
  No initial velocities read in


 exchange-correlation table for PE
   RHO(1)=    0.500       N(1)  =     2000
   RHO(2)=  100.500       N(2)  =     4000
 


--------------------------------------------------------------------------------------------------------


 ion  position               nearest neighbor table
   1  0.000  0.000  0.000-  20 2.37  21 2.37  45 2.80  54 2.84
   2  0.500  0.150  0.056-  13 2.37  21 2.37  22 2.37
   3  0.000  0.300  0.112-  23 2.37  22 2.37  14 2.37  13 2.37
   4  0.500  0.450  0.169-  24 2.37  23 2.37  15 2.37  14 2.37
   5  0.000  0.600  0.225-  15 2.37  16 2.37  24 2.37
   6  0.500  0.750  0.281-  16 2.37  17 2.37  37 2.45
   7  0.000  0.500  0.000-  14 2.37  15 2.37  57 2.80  51 2.84
   8  0.500  0.650  0.056-  15 2.37  19 2.37  16 2.37
   9  0.000  0.800  0.112-  17 2.37  16 2.37  20 2.37  19 2.37
  10  0.500  0.950  0.169-  18 2.37  17 2.37  21 2.37  20 2.37
  11  0.000  0.100  0.225-  21 2.37  22 2.37  18 2.37
  12  0.500  0.250  0.281-  22 2.37  23 2.37  34 2.49
  13  0.250  0.250  0.000-  48 2.00   2 2.37   3 2.37
  14  0.750  0.400  0.056-   3 2.37   7 2.37   4 2.37  57 2.88
  15  0.250  0.550  0.112-   5 2.37   4 2.37   8 2.37   7 2.37
  16  0.750  0.700  0.169-   6 2.37   5 2.37   9 2.37   8 2.37
  17  0.250  0.850  0.225-   9 2.37  10 2.37   6 2.37
  18  0.750  0.000  0.281-  10 2.37  11 2.37  40 2.42
  19  0.250  0.750  0.000-   8 2.37   9 2.37
  20  0.750  0.900  0.056-   1 2.37   9 2.37  10 2.37
  21  0.250  0.050  0.112-  11 2.37  10 2.37   2 2.37   1 2.37
  22  0.750  0.200  0.169-  12 2.37  11 2.37   3 2.37   2 2.37
  23  0.250  0.350  0.225-   3 2.37   4 2.37  12 2.37
  24  0.750  0.500  0.281-   4 2.37   5 2.37  28 2.42
  25  0.000  0.169  0.411-  43 2.44  58 2.44
  26  0.000  0.002  0.595-  49 2.44  59 2.44  58 2.44  44 2.44
  27  0.000  0.835  0.778-  45 2.44  59 2.44  50 2.44  60 2.44
  28  0.000  0.502  0.411-  24 2.42  52 2.44  46 2.44
  29  0.000  0.335  0.595-  47 2.44  52 2.44  43 2.44  53 2.44
  30  0.000  0.169  0.778-  48 2.44  53 2.44  44 2.44  54 2.44
  31  0.000  0.835  0.411-  49 2.44  55 2.44
  32  0.000  0.669  0.595-  50 2.44  55 2.44  46 2.44  56 2.44
  33  0.000  0.502  0.778-  47 2.44  57 2.44  56 2.44  51 2.44
  34  0.500  0.335  0.411-  52 2.44  43 2.44  12 2.49
  35  0.500  0.169  0.595-  43 2.44  53 2.44  44 2.44  58 2.44
  36  0.500  0.002  0.778-  45 2.44  59 2.44  54 2.44  44 2.44
  37  0.500  0.669  0.411-  55 2.44  46 2.44   6 2.45
  38  0.500  0.502  0.595-  47 2.44  52 2.44  46 2.44  56 2.44
  39  0.500  0.335  0.778-  47 2.44  57 2.44  53 2.44  48 2.44
  40  0.500  0.002  0.411-  18 2.42  49 2.44  58 2.44
  41  0.500  0.835  0.595-  49 2.44  59 2.44  55 2.44  50 2.44
  42  0.500  0.669  0.778-  50 2.44  60 2.44  56 2.44  51 2.44
  43  0.250  0.252  0.503-  25 2.44  35 2.44  34 2.44  29 2.44
  44  0.250  0.085  0.687-  30 2.44  35 2.44  26 2.44  36 2.44
  45  0.250  0.919  0.870-  36 2.44  27 2.44   1 2.80
  46  0.250  0.585  0.503-  32 2.44  37 2.44  28 2.44  38 2.44
  47  0.250  0.419  0.687-  33 2.44  38 2.44  29 2.44  39 2.44
  48  0.250  0.252  0.870-  13 2.00  30 2.44  39 2.44
  49  0.250  0.919  0.503-  26 2.44  40 2.44  31 2.44  41 2.44
  50  0.250  0.752  0.687-  32 2.44  42 2.44  41 2.44  27 2.44
  51  0.250  0.585  0.870-  42 2.44  33 2.44   7 2.84
  52  0.750  0.419  0.503-  28 2.44  38 2.44  34 2.44  29 2.44
  53  0.750  0.252  0.687-  30 2.44  35 2.44  29 2.44  39 2.44
  54  0.750  0.085  0.870-  30 2.44  36 2.44   1 2.84
  55  0.750  0.752  0.503-  32 2.44  37 2.44  31 2.44  41 2.44
  56  0.750  0.585  0.687-  32 2.44  42 2.44  38 2.44  33 2.44
  57  0.750  0.419  0.870-  33 2.44  39 2.44   7 2.80  14 2.88
  58  0.750  0.085  0.503-  25 2.44  35 2.44  26 2.44  40 2.44
  59  0.750  0.919  0.687-  26 2.44  36 2.44  27 2.44  41 2.44
  60  0.750  0.752  0.870-  42 2.44  27 2.44
 
  LATTYP: Found a simple orthorhombic cell.
 ALAT       =     5.4800000000
 B/A-ratio  =     2.8115548164
 C/A-ratio  =     3.1622776602
  
  Lattice vectors:
  
 A1 = (  -5.4800000000,   0.0000000000,   0.0000000000)
 A2 = (   0.0000000000,   0.0000000000,  15.4073203940)
 A3 = (   0.0000000000,  17.3292815780,   0.0000000000)


Analysis of symmetry for initial positions (statically):
=====================================================================
 Subroutine PRICEL returns:
 Original cell was already a primitive cell.
 

 Routine SETGRP: Setting up the symmetry group for a 
 simple orthorhombic supercell.


 Subroutine GETGRP returns: Found  1 space group operations
 (whereof  1 operations were pure point group operations)
 out of a pool of  8 trial point group operations.


The static configuration has the point symmetry C_1 .


Analysis of symmetry for dynamics (positions and initial velocities):
=====================================================================
 Subroutine PRICEL returns:
 Original cell was already a primitive cell.
 

 Routine SETGRP: Setting up the symmetry group for a 
 simple orthorhombic supercell.


 Subroutine GETGRP returns: Found  1 space group operations
 (whereof  1 operations were pure point group operations)
 out of a pool of  8 trial point group operations.


The dynamic configuration has the point symmetry C_1 .


Analysis of structural, dynamic, and magnetic symmetry:
=====================================================================
 Subroutine PRICEL returns:
 Original cell was already a primitive cell.
 

 Routine SETGRP: Setting up the symmetry group for a 
 simple orthorhombic supercell.


 Subroutine GETGRP returns: Found  1 space group operations
 (whereof  1 operations were pure point group operations)
 out of a pool of  8 trial point group operations.


The overall configuration has the point symmetry C_1 .


 Subroutine INISYM returns: Found  1 space group operations
 (whereof  1 operations are pure point group operations),
 and found     1 'primitive' translations


----------------------------------------------------------------------------------------

                                     Primitive cell                                     

  volume of cell :    1463.1479

  direct lattice vectors                    reciprocal lattice vectors
     5.480000000  0.000000000  0.000000000     0.182481752  0.000000000  0.000000000
     0.000000000 17.329281578  0.000000000     0.000000000  0.057705797  0.000000000
     0.000000000  0.000000000 15.407320394     0.000000000  0.000000000  0.064904213

  length of vectors
     5.480000000 17.329281578 15.407320394     0.182481752  0.057705797  0.064904213

  position of ions in fractional coordinates (direct lattice)
     0.000000000  0.000000000  0.000000000
     0.500000000  0.150000000  0.056237169
     0.000000000  0.300000000  0.112474338
     0.500000000  0.450000000  0.168711507
     0.000000000  0.600000000  0.224948675
     0.500000000  0.750000000  0.281185844
     0.000000000  0.500000000  0.000000000
     0.500000000  0.650000000  0.056237169
     0.000000000  0.800000000  0.112474338
     0.500000000  0.950000000  0.168711507
     0.000000000  0.100000000  0.224948675
     0.500000000  0.250000000  0.281185844
     0.250000000  0.250000000  0.000000000
     0.750000000  0.400000000  0.056237169
     0.250000000  0.550000000  0.112474338
     0.750000000  0.700000000  0.168711507
     0.250000000  0.850000000  0.224948675
     0.750000000  0.000000000  0.281185844
     0.250000000  0.750000000  0.000000000
     0.750000000  0.900000000  0.056237169
     0.250000000  0.050000000  0.112474338
     0.750000000  0.200000000  0.168711507
     0.250000000  0.350000000  0.224948675
     0.750000000  0.500000000  0.281185844
     0.000000000  0.168604651  0.410994270
     0.000000000  0.001937984  0.594673192
     0.000000000  0.835271318  0.778352114
     0.000000000  0.501937984  0.410994270
     0.000000000  0.335271318  0.594673192
     0.000000000  0.168604651  0.778352114
     0.000000000  0.835271318  0.410994270
     0.000000000  0.668604651  0.594673192
     0.000000000  0.501937984  0.778352114
     0.500000000  0.335271318  0.410994270
     0.500000000  0.168604651  0.594673192
     0.500000000  0.001937984  0.778352114
     0.500000000  0.668604651  0.410994270
     0.500000000  0.501937984  0.594673192
     0.500000000  0.335271318  0.778352114
     0.500000000  0.001937984  0.410994270
     0.500000000  0.835271318  0.594673192
     0.500000000  0.668604651  0.778352114
     0.250000000  0.251937984  0.502833731
     0.250000000  0.085271318  0.686512653
     0.250000000  0.918604651  0.870191575
     0.250000000  0.585271318  0.502833731
     0.250000000  0.418604651  0.686512653
     0.250000000  0.251937984  0.870191575
     0.250000000  0.918604651  0.502833731
     0.250000000  0.751937984  0.686512653
     0.250000000  0.585271318  0.870191575
     0.750000000  0.418604651  0.502833731
     0.750000000  0.251937984  0.686512653
     0.750000000  0.085271318  0.870191575
     0.750000000  0.751937984  0.502833731
     0.750000000  0.585271318  0.686512653
     0.750000000  0.418604651  0.870191575
     0.750000000  0.085271318  0.502833731
     0.750000000  0.918604651  0.686512653
     0.750000000  0.751937984  0.870191575

  ion indices of the primitive-cell ions
   primitive index   ion index
                 1           1
                 2           2
                 3           3
                 4           4
                 5           5
                 6           6
                 7           7
                 8           8
                 9           9
                10          10
                11          11
                12          12
                13          13
                14          14
                15          15
                16          16
                17          17
                18          18
                19          19
                20          20
                21          21
                22          22
                23          23
                24          24
                25          25
                26          26
                27          27
                28          28
                29          29
                30          30
                31          31
                32          32
                33          33
                34          34
                35          35
                36          36
                37          37
                38          38
                39          39
                40          40
                41          41
                42          42
                43          43
                44          44
                45          45
                46          46
                47          47
                48          48
                49          49
                50          50
                51          51
                52          52
                53          53
                54          54
                55          55
                56          56
                57          57
                58          58
                59          59
                60          60

----------------------------------------------------------------------------------------

 
 
 KPOINTS: Automatic KPOINTS generated             

Automatic generation of k-mesh.
 Grid dimensions read from file:
 generate k-points for:    6    2    2

 Generating k-lattice:

  Cartesian coordinates                     Fractional coordinates (reciprocal lattice)
     0.030413625  0.000000000  0.000000000     0.166666667  0.000000000  0.000000000
     0.000000000  0.028852898  0.000000000     0.000000000  0.500000000  0.000000000
     0.000000000  0.000000000  0.032452106     0.000000000  0.000000000  0.500000000

  Length of vectors
     0.030413625  0.028852898  0.032452106

  Shift w.r.t. Gamma in fractional coordinates (k-lattice)
     0.000000000  0.000000000  0.000000000

 
 Subroutine IBZKPT returns following result:
 ===========================================
 
 Found     16 irreducible k-points:
 
 Following reciprocal coordinates:
            Coordinates               Weight
  0.000000  0.000000  0.000000      1.000000
  0.166667  0.000000  0.000000      2.000000
  0.333333  0.000000  0.000000      2.000000
  0.500000  0.000000  0.000000      1.000000
  0.000000  0.500000  0.000000      1.000000
  0.166667  0.500000  0.000000      2.000000
  0.333333  0.500000  0.000000      2.000000
  0.500000  0.500000  0.000000      1.000000
  0.000000  0.000000  0.500000      1.000000
  0.166667  0.000000  0.500000      2.000000
  0.333333  0.000000  0.500000      2.000000
  0.500000  0.000000  0.500000      1.000000
  0.000000  0.500000  0.500000      1.000000
  0.166667  0.500000  0.500000      2.000000
  0.333333  0.500000  0.500000      2.000000
  0.500000  0.500000  0.500000      1.000000
 
 Following cartesian coordinates:
            Coordinates               Weight
  0.000000  0.000000  0.000000      1.000000
  0.030414  0.000000  0.000000      2.000000
  0.060827  0.000000  0.000000      2.000000
  0.091241  0.000000  0.000000      1.000000
  0.000000  0.028853  0.000000      1.000000
  0.030414  0.028853  0.000000      2.000000
  0.060827  0.028853  0.000000      2.000000
  0.091241  0.028853  0.000000      1.000000
  0.000000  0.000000  0.032452      1.000000
  0.030414  0.000000  0.032452      2.000000
  0.060827  0.000000  0.032452      2.000000
  0.091241  0.000000  0.032452      1.000000
  0.000000  0.028853  0.032452      1.000000
  0.030414  0.028853  0.032452      2.000000
  0.060827  0.028853  0.032452      2.000000
  0.091241  0.028853  0.032452      1.000000
 


--------------------------------------------------------------------------------------------------------




 Dimension of arrays:
   k-points           NKPTS =     16   k-points in BZ     NKDIM =     16   number of bands    NBANDS=    144
   number of dos      NEDOS =    301   number of ions     NIONS =     60
   non local maximal  LDIM  =      5   non local SUM 2l+1 LMDIM =     13
   total plane-waves  NPLWV = 403200
   max r-space proj   IRMAX =   2283   max aug-charges    IRDMAX= 120004
   dimension x,y,z NGX =    36 NGY =  112 NGZ =  100
   dimension x,y,z NGXF=    72 NGYF=  224 NGZF=  200
   support grid    NGXF=   144 NGYF=  448 NGZF=  400
   ions per type =              24  36
   NGX,Y,Z   is equivalent  to a cutoff of  10.92, 10.74, 10.79 a.u.
   NGXF,Y,Z  is equivalent  to a cutoff of  21.84, 21.49, 21.58 a.u.

 SYSTEM =  Si013 and Ge001 interface calculation   
 POSCAR =  fcc Si+fcc Ge                           

 Startparameter for this run:
   NWRITE =      2    write-flag & timer
   PREC   = normal    normal or accurate (medium, high low for compatibility)
   ISTART =      0    job   : 0-new  1-cont  2-samecut
   ICHARG =      2    charge: 1-file 2-atom 10-const
   ISPIN  =      2    spin polarized calculation?
   LNONCOLLINEAR =      F non collinear calculations
   LSORBIT =      F    spin-orbit coupling
   INIWAV =      1    electr: 0-lowe 1-rand  2-diag
   LASPH  =      T    aspherical Exc in radial PAW
 Electronic Relaxation 1
   ENCUT  =  700.0 eV  51.45 Ry    7.17 a.u.  11.82 37.38 33.24*2*pi/ulx,y,z
   ENINI  =  700.0     initial cutoff
   ENAUG  =  900.0 eV  augmentation charge cutoff
   NELM   =    100;   NELMIN=  2; NELMDL= -5     # of ELM steps 
   EDIFF  = 0.1E-06   stopping-criterion for ELM
   LREAL  =      T    real-space projection
   NLSPLINE    = F    spline interpolate recip. space projectors
   LCOMPAT=      F    compatible to vasp.4.4
   GGA_COMPAT  = T    GGA compatible to vasp.4.4-vasp.4.6
   LMAXPAW     = -100 max onsite density
   LMAXMIX     =    6 max onsite mixed and CHGCAR
   VOSKOWN=      0    Vosko Wilk Nusair interpolation
   ROPT   =   -0.00050  -0.00050
 Ionic relaxation
   EDIFFG = 0.1E-05   stopping-criterion for IOM
   NSW    =      0    number of steps for IOM
   NBLOCK =      1;   KBLOCK =      1    inner block; outer block 
   IBRION =     -1    ionic relax: 0-MD 1-quasi-New 2-CG
   NFREE  =      0    steps in history (QN), initial steepest desc. (CG)
   ISIF   =      2    stress and relaxation
   IWAVPR =     10    prediction:  0-non 1-charg 2-wave 3-comb
   ISYM   =      2    0-nonsym 1-usesym 2-fastsym
   LCORR  =      T    Harris-Foulkes like correction to forces

   POTIM  = 0.5000    time-step for ionic-motion
   TEIN   =    0.0    initial temperature
   TEBEG  =    0.0;   TEEND  =   0.0 temperature during run
   SMASS  =  -3.00    Nose mass-parameter (am)
   estimated Nose-frequenzy (Omega)   =  0.10E-29 period in steps = 0.13E+47 mass=  -0.686E-27a.u.
   SCALEE = 1.0000    scale energy and forces
   NPACO  =    256;   APACO  = 10.0  distance and # of slots for P.C.
   PSTRESS=    0.0 pullay stress

  Mass of Ions in am
   POMASS =  28.09 72.61
  Ionic Valenz
   ZVAL   =   4.00  4.00
  Atomic Wigner-Seitz radii
   RWIGS  =  -1.00 -1.00
  virtual crystal weights 
   VCA    =   1.00  1.00
   NELECT =     240.0000    total number of electrons
   NUPDOWN=       1.0000    fix difference up-down

 DOS related values:
   EMIN   =  10.00;   EMAX   =-10.00  energy-range for DOS
   EFERMI =   0.00;   METHOD = LEGACY      
   ISMEAR =     0;   SIGMA  =   0.01  broadening in eV -4-tet -1-fermi 0-gaus

 Electronic relaxation 2 (details)
   IALGO  =     38    algorithm
   LDIAG  =      T    sub-space diagonalisation (order eigenvalues)
   LSUBROT=      F    optimize rotation matrix (better conditioning)
   TURBO    =      0    0=normal 1=particle mesh
   IRESTART =      0    0=no restart 2=restart with 2 vectors
   NREBOOT  =      0    no. of reboots
   NMIN     =      0    reboot dimension
   EREF     =   0.00    reference energy to select bands
   IMIX   =      4    mixing-type and parameters
     AMIX     =   0.60;   BMIX     =  1.00
     AMIX_MAG =   2.40;   BMIX_MAG =  1.00
     AMIN     =   0.10
     WC   =   100.;   INIMIX=   1;  MIXPRE=   1;  MAXMIX= -45

 Intra band minimization:
   WEIMIN = 0.0000     energy-eigenvalue tresh-hold
   EBREAK =  0.17E-09  absolut break condition
   DEPER  =   0.30     relativ break condition  

   TIME   =   0.40     timestep for ELM

  volume/ion in A,a.u.               =      24.39       164.56
  Fermi-wavevector in a.u.,A,eV,Ry     =   0.896154  1.693485 10.926723  0.803091
  Thomas-Fermi vector in A             =   2.018576
 
 Write flags
   LWAVE        =      F    write WAVECAR
   LDOWNSAMPLE  =      F    k-point downsampling of WAVECAR
   LCHARG       =      T    write CHGCAR
   LVTOT        =      F    write LOCPOT, total local potential
   LVHAR        =      T    write LOCPOT, Hartree potential only
   WRT_POTENTIAL=  hartree ionic  ! write potential to hdf5 file
   LELF         =      F    write electronic localiz. function (ELF)
   LORBIT       =      0    0 simple, 1 ext, 2 COOP (PROOUT), +10 PAW based schemes


 Dipole corrections
   LMONO      =      F    monopole corrections only (constant potential shift)
   LDIPOL     =      F    correct potential (dipole corrections)
   IDIPOL     =      0    1-x, 2-y, 3-z, 4-all directions 
   EPSILON    =  1.0000000 bulk dielectric constant
   LVACPOTAV  =      F  vacuum potentials using an averaging scheme for the charge density
   VACPOTFLAT =  0.1000000 required flatness to determine vacuum potential
 Exchange correlation treatment:
   GGA     = PE    functional components
   XC_C    = 1    coefficients multiplying the functional components
   LIBXC   =     F    Libxc                    
   VOSKOWN =     0    Vosko Wilk Nusair interpolation
   LHFCALC =     F    Hartree Fock is set to
   LHFONE  =     F    Hartree Fock one center treatment
   AEXX    =    0.0000 exact exchange contribution

 Parameters of functionals:
   PE:
     No parameter
 
 Van der Waals corrections
   IVDW    =     0    specifies the selected vdW correction

 Linear response parameters
   LEPSILON=     F    determine dielectric tensor
   LRPA    =     F    only Hartree local field effects (RPA)
   LNABLA  =     F    use nabla operator in PAW spheres
   LVEL    =     F    velocity operator in full k-point grid
   CSHIFT  =0.1000    complex shift for real part using Kramers Kronig
   OMEGAMAX=  -1.0    maximum frequency
   DEG_THRESHOLD= 0.2000000E-02 threshold for treating states as degnerate
   RTIME   =   -0.100 relaxation time in fs
  (WPLASMAI=    0.000 imaginary part of plasma frequency in eV, 0.658/RTIME)
   DFIELD  = 0.0000000 0.0000000 0.0000000 field for delta impulse in time
 
  Optional k-point grid parameters
   LKPOINTS_OPT  =     F    use optional k-point grid
   KPOINTS_OPT_MODE=     1    mode for optional k-point grid
 
 Orbital magnetization related:
   ORBITALMAG=     F  switch on orbital magnetization
   LCHIMAG   =     F  perturbation theory with respect to B field
   DQ        =  0.001000  dq finite difference perturbation B field
   LLRAUG    =     F  two centre corrections for induced B field
   LBONE     =     F  B-component reconstruction in AE one-centre
   LVGVCALC  =     T  calculate vGv susceptibility
   LVGVAPPL  =     F  apply vGv susceptibility instead of pGv for G=0

 Random number generation:
   RANDOM_GENERATOR = DEFAULT
   PCG_SEED         = not used


--------------------------------------------------------------------------------------------------------


 Static calculation
 charge density and potential will be updated during run
 spin polarized calculation
 Variant of blocked Davidson
 Davidson routine will perform the subspace rotation
 perform sub-space diagonalisation
    after iterative eigenvector-optimisation
 modified Broyden-mixing scheme, WC =      100.0
 initial mixing is a Kerker type mixing with AMIX =  0.6000 and BMIX =      1.0000
 Hartree-type preconditioning will be used
 using additional bands           24
 real space projection scheme for non local part
 use partial core corrections
 calculate Harris-corrections to forces 
   (improved forces if not selfconsistent)
 use gradient corrections 
 use of overlap-Matrix (Vanderbilt PP)
 Gauss-broadening in eV      SIGMA  =   0.01


--------------------------------------------------------------------------------------------------------


  energy-cutoff  :      700.00
  volume of cell :     1463.15
      direct lattice vectors                 reciprocal lattice vectors
     5.480000000  0.000000000  0.000000000     0.182481752  0.000000000  0.000000000
     0.000000000 17.329281578  0.000000000     0.000000000  0.057705797  0.000000000
     0.000000000  0.000000000 15.407320394     0.000000000  0.000000000  0.064904213

  length of vectors
     5.480000000 17.329281578 15.407320394     0.182481752  0.057705797  0.064904213


 
 k-points in units of 2pi/SCALE and weight: Automatic KPOINTS generated             
   0.00000000  0.00000000  0.00000000       0.042
   0.03041363  0.00000000  0.00000000       0.083
   0.06082725  0.00000000  0.00000000       0.083
   0.09124088  0.00000000  0.00000000       0.042
   0.00000000  0.02885290  0.00000000       0.042
   0.03041363  0.02885290  0.00000000       0.083
   0.06082725  0.02885290  0.00000000       0.083
   0.09124088  0.02885290  0.00000000       0.042
   0.00000000  0.00000000  0.03245211       0.042
   0.03041363  0.00000000  0.03245211       0.083
   0.06082725  0.00000000  0.03245211       0.083
   0.09124088  0.00000000  0.03245211       0.042
   0.00000000  0.02885290  0.03245211       0.042
   0.03041363  0.02885290  0.03245211       0.083
   0.06082725  0.02885290  0.03245211       0.083
   0.09124088  0.02885290  0.03245211       0.042
 
 k-points in reciprocal lattice and weights: Automatic KPOINTS generated             
   0.00000000  0.00000000  0.00000000       0.042
   0.16666667  0.00000000  0.00000000       0.083
   0.33333333  0.00000000  0.00000000       0.083
   0.50000000  0.00000000  0.00000000       0.042
   0.00000000  0.50000000  0.00000000       0.042
   0.16666667  0.50000000  0.00000000       0.083
   0.33333333  0.50000000  0.00000000       0.083
   0.50000000  0.50000000  0.00000000       0.042
   0.00000000  0.00000000  0.50000000       0.042
   0.16666667  0.00000000  0.50000000       0.083
   0.33333333  0.00000000  0.50000000       0.083
   0.50000000  0.00000000  0.50000000       0.042
   0.00000000  0.50000000  0.50000000       0.042
   0.16666667  0.50000000  0.50000000       0.083
   0.33333333  0.50000000  0.50000000       0.083
   0.50000000  0.50000000  0.50000000       0.042
 
 position of ions in fractional coordinates (direct lattice) 
   0.00000000  0.00000000  0.00000000
   0.50000000  0.15000000  0.05623717
   0.00000000  0.30000000  0.11247434
   0.50000000  0.45000000  0.16871151
   0.00000000  0.60000000  0.22494868
   0.50000000  0.75000000  0.28118584
   0.00000000  0.50000000  0.00000000
   0.50000000  0.65000000  0.05623717
   0.00000000  0.80000000  0.11247434
   0.50000000  0.95000000  0.16871151
   0.00000000  0.10000000  0.22494868
   0.50000000  0.25000000  0.28118584
   0.25000000  0.25000000  0.00000000
   0.75000000  0.40000000  0.05623717
   0.25000000  0.55000000  0.11247434
   0.75000000  0.70000000  0.16871151
   0.25000000  0.85000000  0.22494868
   0.75000000  0.00000000  0.28118584
   0.25000000  0.75000000  0.00000000
   0.75000000  0.90000000  0.05623717
   0.25000000  0.05000000  0.11247434
   0.75000000  0.20000000  0.16871151
   0.25000000  0.35000000  0.22494868
   0.75000000  0.50000000  0.28118584
   0.00000000  0.16860465  0.41099427
   0.00000000  0.00193798  0.59467319
   0.00000000  0.83527132  0.77835211
   0.00000000  0.50193798  0.41099427
   0.00000000  0.33527132  0.59467319
   0.00000000  0.16860465  0.77835211
   0.00000000  0.83527132  0.41099427
   0.00000000  0.66860465  0.59467319
   0.00000000  0.50193798  0.77835211
   0.50000000  0.33527132  0.41099427
   0.50000000  0.16860465  0.59467319
   0.50000000  0.00193798  0.77835211
   0.50000000  0.66860465  0.41099427
   0.50000000  0.50193798  0.59467319
   0.50000000  0.33527132  0.77835211
   0.50000000  0.00193798  0.41099427
   0.50000000  0.83527132  0.59467319
   0.50000000  0.66860465  0.77835211
   0.25000000  0.25193798  0.50283373
   0.25000000  0.08527132  0.68651265
   0.25000000  0.91860465  0.87019157
   0.25000000  0.58527132  0.50283373
   0.25000000  0.41860465  0.68651265
   0.25000000  0.25193798  0.87019157
   0.25000000  0.91860465  0.50283373
   0.25000000  0.75193798  0.68651265
   0.25000000  0.58527132  0.87019157
   0.75000000  0.41860465  0.50283373
   0.75000000  0.25193798  0.68651265
   0.75000000  0.08527132  0.87019157
   0.75000000  0.75193798  0.50283373
   0.75000000  0.58527132  0.68651265
   0.75000000  0.41860465  0.87019157
   0.75000000  0.08527132  0.50283373
   0.75000000  0.91860465  0.68651265
   0.75000000  0.75193798  0.87019157
 
 position of ions in cartesian coordinates  (Angst):
   0.00000000  0.00000000  0.00000000
   2.74000000  2.59939224  0.86646408
   0.00000000  5.19878447  1.73292816
   2.74000000  7.79817671  2.59939224
   0.00000000 10.39756895  3.46585631
   2.74000000 12.99696118  4.33232039
   0.00000000  8.66464079  0.00000000
   2.74000000 11.26403303  0.86646408
   0.00000000 13.86342526  1.73292816
   2.74000000 16.46281750  2.59939224
   0.00000000  1.73292816  3.46585631
   2.74000000  4.33232039  4.33232039
   1.37000000  4.33232039  0.00000000
   4.11000000  6.93171263  0.86646408
   1.37000000  9.53110487  1.73292816
   4.11000000 12.13049710  2.59939224
   1.37000000 14.72988934  3.46585631
   4.11000000  0.00000000  4.33232039
   1.37000000 12.99696118  0.00000000
   4.11000000 15.59635342  0.86646408
   1.37000000  0.86646408  1.73292816
   4.11000000  3.46585632  2.59939224
   1.37000000  6.06524855  3.46585631
   4.11000000  8.66464079  4.33232039
   0.00000000  2.92179747  6.33232040
   0.00000000  0.03358387  9.16232040
   0.00000000 14.47465186 11.99232040
   0.00000000  8.69822466  6.33232040
   0.00000000  5.81001107  9.16232040
   0.00000000  2.92179747 11.99232040
   0.00000000 14.47465186  6.33232040
   0.00000000 11.58643826  9.16232040
   0.00000000  8.69822466 11.99232040
   2.74000000  5.81001107  6.33232040
   2.74000000  2.92179747  9.16232040
   2.74000000  0.03358387 11.99232040
   2.74000000 11.58643826  6.33232040
   2.74000000  8.69822466  9.16232040
   2.74000000  5.81001107 11.99232040
   2.74000000  0.03358387  6.33232040
   2.74000000 14.47465186  9.16232040
   2.74000000 11.58643826 11.99232040
   1.37000000  4.36590426  7.74732040
   1.37000000  1.47769068 10.57732040
   1.37000000 15.91875866 13.40732040
   1.37000000 10.14233147  7.74732040
   1.37000000  7.25411787 10.57732040
   1.37000000  4.36590426 13.40732040
   1.37000000 15.91875866  7.74732040
   1.37000000 13.03054505 10.57732040
   1.37000000 10.14233147 13.40732040
   4.11000000  7.25411787  7.74732040
   4.11000000  4.36590426 10.57732040
   4.11000000  1.47769068 13.40732040
   4.11000000 13.03054505  7.74732040
   4.11000000 10.14233147 10.57732040
   4.11000000  7.25411787 13.40732040
   4.11000000  1.47769068  7.74732040
   4.11000000 15.91875866 10.57732040
   4.11000000 13.03054505 13.40732040
 


--------------------------------------------------------------------------------------------------------


 k-point     1 :   0.0000 0.0000 0.0000  plane waves:   61559
 k-point     2 :   0.1667 0.0000 0.0000  plane waves:   61489
 k-point     3 :   0.3333 0.0000 0.0000  plane waves:   61556
 k-point     4 :   0.5000 0.0000 0.0000  plane waves:   61544
 k-point     5 :   0.0000 0.5000 0.0000  plane waves:   61534
 k-point     6 :   0.1667 0.5000 0.0000  plane waves:   61488
 k-point     7 :   0.3333 0.5000 0.0000  plane waves:   61564
 k-point     8 :   0.5000 0.5000 0.0000  plane waves:   61588
 k-point     9 :   0.0000 0.0000 0.5000  plane waves:   61526
 k-point    10 :   0.1667 0.0000 0.5000  plane waves:   61512
 k-point    11 :   0.3333 0.0000 0.5000  plane waves:   61528
 k-point    12 :   0.5000 0.0000 0.5000  plane waves:   61616
 k-point    13 :   0.0000 0.5000 0.5000  plane waves:   61536
 k-point    14 :   0.1667 0.5000 0.5000  plane waves:   61492
 k-point    15 :   0.3333 0.5000 0.5000  plane waves:   61516
 k-point    16 :   0.5000 0.5000 0.5000  plane waves:   61560

 maximum and minimum number of plane-waves per node :      3881     3822

 maximum number of plane-waves:     61616
 maximum index in each direction: 
   IXMAX=   11   IYMAX=   37   IZMAX=   33
   IXMIN=  -12   IYMIN=  -37   IZMIN=  -33


 real space projection operators:
  total allocation   :       9983.61 KBytes
  max/ min on nodes  :        826.27        480.66


 parallel 3D FFT for wavefunctions:
    minimum data exchange during FFTs selected (reduces bandwidth)
 parallel 3D FFT for charge:
    minimum data exchange during FFTs selected (reduces bandwidth)


 total amount of memory used by VASP MPI-rank0   372897. kBytes
=======================================================================

   base      :      30000. kBytes
   nonlr-proj:       3310. kBytes
   fftplans  :      30854. kBytes
   grid      :      20762. kBytes
   one-center:         64. kBytes
   wavefun   :     287907. kBytes
 
     INWAV:  cpu time      0.0001: real time      0.0004
 Broyden mixing: mesh for mixing (old mesh)
   NGX = 23   NGY = 75   NGZ = 67
  (NGX  = 72   NGY  =224   NGZ  =200)
  gives a total of 115575 points

 initial charge density was supplied:
 charge density of overlapping atoms calculated
 number of electron     240.0000000 magnetization       1.0000000
 keeping initial charge density in first step


--------------------------------------------------------------------------------------------------------


 Maximum index for non-local projection operator          360
 Maximum index for augmentation-charges         7520 (set IRDMAX)


--------------------------------------------------------------------------------------------------------


 First call to EWALD:  gamma=   0.156
 Maximum number of real-space cells 5x 2x 2
 Maximum number of reciprocal cells 2x 4x 4

    FEWALD:  cpu time      0.0022: real time      0.0022


--------------------------------------- Ionic step        1  -------------------------------------------




--------------------------------------- Iteration      1(   1)  ---------------------------------------


    POTLOK:  cpu time      0.3145: real time      0.3174
    SETDIJ:  cpu time      2.2061: real time      2.2172
     EDDAV:  cpu time     38.0717: real time     38.3789
       DOS:  cpu time      0.0021: real time      0.0022
    --------------------------------------------
      LOOP:  cpu time     40.5945: real time     40.9157

 eigenvalue-minimisations  :  9216
 total energy-change (2. order) : 0.1040425E+04  (-0.1038971E+05)
 number of electron     240.0000000 magnetization       1.0000000
 augmentation part      240.0000000 magnetization       1.0000000

 Free energy of the ion-electron system (eV)
  ---------------------------------------------------
  alpha Z        PSCENC =       315.29328533
  Ewald energy   TEWEN  =     -6242.30120820
  -Hartree energ DENC   =      -552.01149954
  -exchange      EXHF   =         0.00000000
  -V(xc)+E(xc)   XCENC  =      -504.30690577
  PAW double counting   =      5288.19681091    -4344.40529786
  entropy T*S    EENTRO =        -0.00127178
  eigenvalues    EBANDS =       826.50984676
  atomic energy  EATOM  =      6253.45172301
  Solvation  Ediel_sol  =         0.00000000
  ---------------------------------------------------
  free energy    TOTEN  =      1040.42548287 eV

  energy without entropy =     1040.42675465  energy(sigma->0) =     1040.42611876


--------------------------------------------------------------------------------------------------------




--------------------------------------- Iteration      1(   2)  ---------------------------------------


     EDDAV:  cpu time     42.6286: real time     42.9683
       DOS:  cpu time      0.0025: real time      0.0025
    --------------------------------------------
      LOOP:  cpu time     42.6311: real time     42.9707

 eigenvalue-minimisations  : 10736
 total energy-change (2. order) :-0.1189441E+04  (-0.1151090E+04)
 number of electron     240.0000000 magnetization       1.0000000
 augmentation part      240.0000000 magnetization       1.0000000

 Free energy of the ion-electron system (eV)
  ---------------------------------------------------
  alpha Z        PSCENC =       315.29328533
  Ewald energy   TEWEN  =     -6242.30120820
  -Hartree energ DENC   =      -552.01149954
  -exchange      EXHF   =         0.00000000
  -V(xc)+E(xc)   XCENC  =      -504.30690577
  PAW double counting   =      5288.19681091    -4344.40529786
  entropy T*S    EENTRO =        -0.00099444
  eigenvalues    EBANDS =      -362.93185441
  atomic energy  EATOM  =      6253.45172301
  Solvation  Ediel_sol  =         0.00000000
  ---------------------------------------------------
  free energy    TOTEN  =      -149.01594096 eV

  energy without entropy =     -149.01494652  energy(sigma->0) =     -149.01544374


--------------------------------------------------------------------------------------------------------




--------------------------------------- Iteration      1(   3)  ---------------------------------------


     EDDAV:  cpu time     45.0060: real time     45.3651
       DOS:  cpu time      0.0026: real time      0.0026
    --------------------------------------------
      LOOP:  cpu time     45.0086: real time     45.3677

 eigenvalue-minimisations  : 11440
 total energy-change (2. order) :-0.1160763E+03  (-0.1115326E+03)
 number of electron     240.0000000 magnetization       1.0000000
 augmentation part      240.0000000 magnetization       1.0000000

 Free energy of the ion-electron system (eV)
  ---------------------------------------------------
  alpha Z        PSCENC =       315.29328533
  Ewald energy   TEWEN  =     -6242.30120820
  -Hartree energ DENC   =      -552.01149954
  -exchange      EXHF   =         0.00000000
  -V(xc)+E(xc)   XCENC  =      -504.30690577
  PAW double counting   =      5288.19681091    -4344.40529786
  entropy T*S    EENTRO =        -0.00080384
  eigenvalues    EBANDS =      -479.00836253
  atomic energy  EATOM  =      6253.45172301
  Solvation  Ediel_sol  =         0.00000000
  ---------------------------------------------------
  free energy    TOTEN  =      -265.09225848 eV

  energy without entropy =     -265.09145464  energy(sigma->0) =     -265.09185656


--------------------------------------------------------------------------------------------------------




--------------------------------------- Iteration      1(   4)  ---------------------------------------


     EDDAV:  cpu time     43.2389: real time     43.5943
       DOS:  cpu time      0.0027: real time      0.0027
    --------------------------------------------
      LOOP:  cpu time     43.2416: real time     43.5970

 eigenvalue-minimisations  : 10888
 total energy-change (2. order) :-0.4467233E+01  (-0.4360813E+01)
 number of electron     240.0000000 magnetization       1.0000000
 augmentation part      240.0000000 magnetization       1.0000000

 Free energy of the ion-electron system (eV)
  ---------------------------------------------------
  alpha Z        PSCENC =       315.29328533
  Ewald energy   TEWEN  =     -6242.30120820
  -Hartree energ DENC   =      -552.01149954
  -exchange      EXHF   =         0.00000000
  -V(xc)+E(xc)   XCENC  =      -504.30690577
  PAW double counting   =      5288.19681091    -4344.40529786
  entropy T*S    EENTRO =        -0.00077991
  eigenvalues    EBANDS =      -483.47561995
  atomic energy  EATOM  =      6253.45172301
  Solvation  Ediel_sol  =         0.00000000
  ---------------------------------------------------
  free energy    TOTEN  =      -269.55949197 eV

  energy without entropy =     -269.55871206  energy(sigma->0) =     -269.55910201


--------------------------------------------------------------------------------------------------------




--------------------------------------- Iteration      1(   5)  ---------------------------------------


     EDDAV:  cpu time     47.7549: real time     48.2279
       DOS:  cpu time      0.0026: real time      0.0027
    CHARGE:  cpu time      2.4146: real time      2.4310
    MIXING:  cpu time      0.0095: real time      0.0096
    --------------------------------------------
      LOOP:  cpu time     50.1817: real time     50.6711

 eigenvalue-minimisations  : 12328
 total energy-change (2. order) :-0.1714674E+00  (-0.1704835E+00)
 number of electron     239.9999999 magnetization       1.0000000
 augmentation part      -29.5801128 magnetization      -0.0667521

 Broyden mixing:
  rms(total) = 0.18920E+01    rms(broyden)= 0.18920E+01
  rms(prec ) = 0.20733E+01
  weight for this iteration     100.00

 Free energy of the ion-electron system (eV)
  ---------------------------------------------------
  alpha Z        PSCENC =       315.29328533
  Ewald energy   TEWEN  =     -6242.30120820
  -Hartree energ DENC   =      -552.01149954
  -exchange      EXHF   =         0.00000000
  -V(xc)+E(xc)   XCENC  =      -504.30690577
  PAW double counting   =      5288.19681091    -4344.40529786
  entropy T*S    EENTRO =        -0.00077108
  eigenvalues    EBANDS =      -483.64709621
  atomic energy  EATOM  =      6253.45172301
  Solvation  Ediel_sol  =         0.00000000
  ---------------------------------------------------
  free energy    TOTEN  =      -269.73095940 eV

  energy without entropy =     -269.73018832  energy(sigma->0) =     -269.73057386


--------------------------------------------------------------------------------------------------------




--------------------------------------- Iteration      1(   6)  ---------------------------------------


    POTLOK:  cpu time      0.3118: real time      0.3152
    SETDIJ:  cpu time      2.2062: real time      2.2174
     EDDAV:  cpu time     43.4295: real time     43.7909
       DOS:  cpu time      0.0024: real time      0.0024
    CHARGE:  cpu time      2.4101: real time      2.4256
    MIXING:  cpu time      0.0092: real time      0.0093
    --------------------------------------------
      LOOP:  cpu time     48.3691: real time     48.7609

 eigenvalue-minimisations  : 11024
 total energy-change (2. order) : 0.3891435E+01  (-0.1313631E+01)
 number of electron     239.9999999 magnetization       1.0000000
 augmentation part      -29.5658773 magnetization      -0.0527335

 Broyden mixing:
  rms(total) = 0.85715E+00    rms(broyden)= 0.85715E+00
  rms(prec ) = 0.10597E+01
  weight for this iteration     100.00

 eigenvalues of (default mixing * dielectric matrix)
  average eigenvalue GAMMA=   1.4980
  1.4980

 Free energy of the ion-electron system (eV)
  ---------------------------------------------------
  alpha Z        PSCENC =       315.29328533
  Ewald energy   TEWEN  =     -6242.30120820
  -Hartree energ DENC   =      -608.81726643
  -exchange      EXHF   =         0.00000000
  -V(xc)+E(xc)   XCENC  =      -496.07154472
  PAW double counting   =      9623.22355289    -8683.42023785
  entropy T*S    EENTRO =        -0.00191418
  eigenvalues    EBANDS =      -427.19591394
  atomic energy  EATOM  =      6253.45172301
  Solvation  Ediel_sol  =         0.00000000
  ---------------------------------------------------
  free energy    TOTEN  =      -265.83952410 eV

  energy without entropy =     -265.83760991  energy(sigma->0) =     -265.83856700


--------------------------------------------------------------------------------------------------------




--------------------------------------- Iteration      1(   7)  ---------------------------------------


    POTLOK:  cpu time      0.3098: real time      0.3141
    SETDIJ:  cpu time      2.2078: real time      2.2192
     EDDAV:  cpu time     45.1195: real time     45.4865
       DOS:  cpu time      0.0024: real time      0.0024
    CHARGE:  cpu time      2.4115: real time      2.4273
    MIXING:  cpu time      0.0098: real time      0.0099
    --------------------------------------------
      LOOP:  cpu time     50.0609: real time     50.4595

 eigenvalue-minimisations  : 11552
 total energy-change (2. order) :-0.3375765E+00  (-0.9554453E+00)
 number of electron     239.9999999 magnetization       1.0000000
 augmentation part      -29.3294202 magnetization      -0.0553882

 Broyden mixing:
  rms(total) = 0.59086E+00    rms(broyden)= 0.59086E+00
  rms(prec ) = 0.10037E+01
  weight for this iteration     100.00

 eigenvalues of (default mixing * dielectric matrix)
  average eigenvalue GAMMA=   1.1168
  1.7733  0.4604

 Free energy of the ion-electron system (eV)
  ---------------------------------------------------
  alpha Z        PSCENC =       315.29328533
  Ewald energy   TEWEN  =     -6242.30120820
  -Hartree energ DENC   =      -625.72299907
  -exchange      EXHF   =         0.00000000
  -V(xc)+E(xc)   XCENC  =      -492.61003555
  PAW double counting   =     12280.03283976   -11341.88051875
  entropy T*S    EENTRO =        -0.00105932
  eigenvalues    EBANDS =      -412.43912784
  atomic energy  EATOM  =      6253.45172301
  Solvation  Ediel_sol  =         0.00000000
  ---------------------------------------------------
  free energy    TOTEN  =      -266.17710063 eV

  energy without entropy =     -266.17604130  energy(sigma->0) =     -266.17657097


--------------------------------------------------------------------------------------------------------




--------------------------------------- Iteration      1(   8)  ---------------------------------------


    POTLOK:  cpu time      0.3123: real time      0.3149
    SETDIJ:  cpu time      2.2089: real time      2.2202
     EDDAV:  cpu time     47.3981: real time     47.7751
       DOS:  cpu time      0.0026: real time      0.0027
    CHARGE:  cpu time      2.4229: real time      2.4379
    MIXING:  cpu time      0.0098: real time      0.0101
    --------------------------------------------
      LOOP:  cpu time     52.3546: real time     52.7607

 eigenvalue-minimisations  : 12248
 total energy-change (2. order) : 0.9062751E+00  (-0.3988044E+00)
 number of electron     239.9999999 magnetization       1.0000000
 augmentation part      -29.2987565 magnetization      -0.0596875

 Broyden mixing:
  rms(total) = 0.23021E+00    rms(broyden)= 0.23021E+00
  rms(prec ) = 0.42265E+00
  weight for this iteration     100.00

 eigenvalues of (default mixing * dielectric matrix)
  average eigenvalue GAMMA=   0.9495
  1.8165  0.5159  0.5159

 Free energy of the ion-electron system (eV)
  ---------------------------------------------------
  alpha Z        PSCENC =       315.29328533
  Ewald energy   TEWEN  =     -6242.30120820
  -Hartree energ DENC   =      -636.98515628
  -exchange      EXHF   =         0.00000000
  -V(xc)+E(xc)   XCENC  =      -490.34361906
  PAW double counting   =     14437.54914196   -13500.45074249
  entropy T*S    EENTRO =        -0.00163831
  eigenvalues    EBANDS =      -401.48261152
  atomic energy  EATOM  =      6253.45172301
  Solvation  Ediel_sol  =         0.00000000
  ---------------------------------------------------
  free energy    TOTEN  =      -265.27082556 eV

  energy without entropy =     -265.26918724  energy(sigma->0) =     -265.27000640


--------------------------------------------------------------------------------------------------------




--------------------------------------- Iteration      1(   9)  ---------------------------------------


    POTLOK:  cpu time      0.3123: real time      0.3153
    SETDIJ:  cpu time      2.2062: real time      2.2167
     EDDAV:  cpu time     45.8203: real time     46.1835
       DOS:  cpu time      0.0024: real time      0.0024
    CHARGE:  cpu time      2.4216: real time      2.4368
    MIXING:  cpu time      0.0105: real time      0.0106
    --------------------------------------------
      LOOP:  cpu time     50.7733: real time     51.1654

 eigenvalue-minimisations  : 11680
 total energy-change (2. order) : 0.1438140E+00  (-0.1164989E+00)
 number of electron     239.9999999 magnetization       1.0000000
 augmentation part      -29.3207191 magnetization      -0.0563749

 Broyden mixing:
  rms(total) = 0.11027E+00    rms(broyden)= 0.11027E+00
  rms(prec ) = 0.16127E+00
  weight for this iteration     100.00

 eigenvalues of (default mixing * dielectric matrix)
  average eigenvalue GAMMA=   0.9477
  1.7800  1.0834  0.5864  0.3412

 Free energy of the ion-electron system (eV)
  ---------------------------------------------------
  alpha Z        PSCENC =       315.29328533
  Ewald energy   TEWEN  =     -6242.30120820
  -Hartree energ DENC   =      -638.06873758
  -exchange      EXHF   =         0.00000000
  -V(xc)+E(xc)   XCENC  =      -489.94689846
  PAW double counting   =     15009.17978862   -14072.28921550
  entropy T*S    EENTRO =        -0.00162486
  eigenvalues    EBANDS =      -400.44412390
  atomic energy  EATOM  =      6253.45172301
  Solvation  Ediel_sol  =         0.00000000
  ---------------------------------------------------
  free energy    TOTEN  =      -265.12701154 eV

  energy without entropy =     -265.12538669  energy(sigma->0) =     -265.12619911


--------------------------------------------------------------------------------------------------------




--------------------------------------- Iteration      1(  10)  ---------------------------------------


    POTLOK:  cpu time      0.3116: real time      0.3149
    SETDIJ:  cpu time      2.2076: real time      2.2183
     EDDAV:  cpu time     42.7146: real time     43.0567
       DOS:  cpu time      0.0025: real time      0.0025
    CHARGE:  cpu time      2.4243: real time      2.4396
    MIXING:  cpu time      0.0107: real time      0.0108
    --------------------------------------------
      LOOP:  cpu time     47.6712: real time     48.0427

 eigenvalue-minimisations  : 10736
 total energy-change (2. order) : 0.8316635E-02  (-0.2644591E-01)
 number of electron     239.9999999 magnetization       1.0000000
 augmentation part      -29.3540644 magnetization      -0.0557353

 Broyden mixing:
  rms(total) = 0.68525E-01    rms(broyden)= 0.68525E-01
  rms(prec ) = 0.93724E-01
  weight for this iteration     100.00

 eigenvalues of (default mixing * dielectric matrix)
  average eigenvalue GAMMA=   0.9393
  1.6206  1.5188  0.7397  0.4650  0.3524

 Free energy of the ion-electron system (eV)
  ---------------------------------------------------
  alpha Z        PSCENC =       315.29328533
  Ewald energy   TEWEN  =     -6242.30120820
  -Hartree energ DENC   =      -636.07098300
  -exchange      EXHF   =         0.00000000
  -V(xc)+E(xc)   XCENC  =      -490.06785729
  PAW double counting   =     15195.84625476   -14258.93825346
  entropy T*S    EENTRO =        -0.00126023
  eigenvalues    EBANDS =      -402.33039583
  atomic energy  EATOM  =      6253.45172301
  Solvation  Ediel_sol  =         0.00000000
  ---------------------------------------------------
  free energy    TOTEN  =      -265.11869491 eV

  energy without entropy =     -265.11743468  energy(sigma->0) =     -265.11806479


--------------------------------------------------------------------------------------------------------




--------------------------------------- Iteration      1(  11)  ---------------------------------------


    POTLOK:  cpu time      0.3115: real time      0.3151
    SETDIJ:  cpu time      2.2065: real time      2.2179
     EDDAV:  cpu time     43.4312: real time     43.7934
       DOS:  cpu time      0.0024: real time      0.0024
    CHARGE:  cpu time      2.4164: real time      2.4324
    MIXING:  cpu time      0.0129: real time      0.0131
    --------------------------------------------
      LOOP:  cpu time     48.3810: real time     48.7744

 eigenvalue-minimisations  : 10944
 total energy-change (2. order) : 0.4847335E-02  (-0.6115202E-02)
 number of electron     239.9999999 magnetization       1.0000000
 augmentation part      -29.3619104 magnetization      -0.0556323

 Broyden mixing:
  rms(total) = 0.39101E-01    rms(broyden)= 0.39101E-01
  rms(prec ) = 0.54136E-01
  weight for this iteration     100.00

 eigenvalues of (default mixing * dielectric matrix)
  average eigenvalue GAMMA=   0.9590
  1.7003  1.7003  1.0219  0.3533  0.4891  0.4891

 Free energy of the ion-electron system (eV)
  ---------------------------------------------------
  alpha Z        PSCENC =       315.29328533
  Ewald energy   TEWEN  =     -6242.30120820
  -Hartree energ DENC   =      -634.78015513
  -exchange      EXHF   =         0.00000000
  -V(xc)+E(xc)   XCENC  =      -490.19201717
  PAW double counting   =     15261.78167228   -14324.84346369
  entropy T*S    EENTRO =        -0.00125278
  eigenvalues    EBANDS =      -403.52243123
  atomic energy  EATOM  =      6253.45172301
  Solvation  Ediel_sol  =         0.00000000
  ---------------------------------------------------
  free energy    TOTEN  =      -265.11384757 eV

  energy without entropy =     -265.11259479  energy(sigma->0) =     -265.11322118


--------------------------------------------------------------------------------------------------------




--------------------------------------- Iteration      1(  12)  ---------------------------------------


    POTLOK:  cpu time      0.3102: real time      0.3145
    SETDIJ:  cpu time      2.2029: real time      2.2143
     EDDAV:  cpu time     43.1179: real time     43.4769
       DOS:  cpu time      0.0023: real time      0.0023
    CHARGE:  cpu time      2.4135: real time      2.4294
    MIXING:  cpu time      0.0115: real time      0.0116
    --------------------------------------------
      LOOP:  cpu time     48.0582: real time     48.4490

 eigenvalue-minimisations  : 10856
 total energy-change (2. order) : 0.8112326E-03  (-0.2172527E-02)
 number of electron     239.9999999 magnetization       1.0000000
 augmentation part      -29.3626737 magnetization      -0.0554789

 Broyden mixing:
  rms(total) = 0.18519E-01    rms(broyden)= 0.18519E-01
  rms(prec ) = 0.26170E-01
  weight for this iteration     100.00

 eigenvalues of (default mixing * dielectric matrix)
  average eigenvalue GAMMA=   0.9567
  1.6799  1.5442  1.5442  0.5983  0.5983  0.3533  0.3784

 Free energy of the ion-electron system (eV)
  ---------------------------------------------------
  alpha Z        PSCENC =       315.29328533
  Ewald energy   TEWEN  =     -6242.30120820
  -Hartree energ DENC   =      -634.09160236
  -exchange      EXHF   =         0.00000000
  -V(xc)+E(xc)   XCENC  =      -490.26020033
  PAW double counting   =     15316.65265373   -14379.70384451
  entropy T*S    EENTRO =        -0.00120183
  eigenvalues    EBANDS =      -404.15264118
  atomic energy  EATOM  =      6253.45172301
  Solvation  Ediel_sol  =         0.00000000
  ---------------------------------------------------
  free energy    TOTEN  =      -265.11303634 eV

  energy without entropy =     -265.11183450  energy(sigma->0) =     -265.11243542


--------------------------------------------------------------------------------------------------------




--------------------------------------- Iteration      1(  13)  ---------------------------------------


    POTLOK:  cpu time      0.3108: real time      0.3150
    SETDIJ:  cpu time      2.2073: real time      2.2185
     EDDAV:  cpu time     43.0941: real time     43.4461
       DOS:  cpu time      0.0024: real time      0.0024
    CHARGE:  cpu time      2.4057: real time      2.4210
    MIXING:  cpu time      0.0129: real time      0.0130
    --------------------------------------------
      LOOP:  cpu time     48.0331: real time     48.4159

 eigenvalue-minimisations  : 10864
 total energy-change (2. order) : 0.2351580E-03  (-0.4994520E-03)
 number of electron     239.9999999 magnetization       1.0000000
 augmentation part      -29.3643920 magnetization      -0.0552571

 Broyden mixing:
  rms(total) = 0.11770E-01    rms(broyden)= 0.11770E-01
  rms(prec ) = 0.15005E-01
  weight for this iteration     100.00

 eigenvalues of (default mixing * dielectric matrix)
  average eigenvalue GAMMA=   0.9453
  1.6554  1.6554  1.6871  0.6438  0.6438  0.5465  0.3454  0.3852

 Free energy of the ion-electron system (eV)
  ---------------------------------------------------
  alpha Z        PSCENC =       315.29328533
  Ewald energy   TEWEN  =     -6242.30120820
  -Hartree energ DENC   =      -634.29847392
  -exchange      EXHF   =         0.00000000
  -V(xc)+E(xc)   XCENC  =      -490.23997482
  PAW double counting   =     15320.44374846   -14383.50740468
  entropy T*S    EENTRO =        -0.00121403
  eigenvalues    EBANDS =      -403.95328234
  atomic energy  EATOM  =      6253.45172301
  Solvation  Ediel_sol  =         0.00000000
  ---------------------------------------------------
  free energy    TOTEN  =      -265.11280118 eV

  energy without entropy =     -265.11158715  energy(sigma->0) =     -265.11219417


--------------------------------------------------------------------------------------------------------




--------------------------------------- Iteration      1(  14)  ---------------------------------------


    POTLOK:  cpu time      0.3103: real time      0.3146
    SETDIJ:  cpu time      2.2096: real time      2.2202
     EDDAV:  cpu time     43.0654: real time     43.4121
       DOS:  cpu time      0.0024: real time      0.0024
    CHARGE:  cpu time      2.4094: real time      2.4238
    MIXING:  cpu time      0.0126: real time      0.0127
    --------------------------------------------
      LOOP:  cpu time     48.0096: real time     48.3858

 eigenvalue-minimisations  : 10880
 total energy-change (2. order) : 0.6817351E-04  (-0.1457697E-03)
 number of electron     239.9999999 magnetization       1.0000000
 augmentation part      -29.3646903 magnetization      -0.0551528

 Broyden mixing:
  rms(total) = 0.77133E-02    rms(broyden)= 0.77133E-02
  rms(prec ) = 0.90232E-02
  weight for this iteration     100.00

 eigenvalues of (default mixing * dielectric matrix)
  average eigenvalue GAMMA=   0.9829
  1.9043  1.9043  1.6289  0.8182  0.8182  0.5780  0.4612  0.3482  0.3845

 Free energy of the ion-electron system (eV)
  ---------------------------------------------------
  alpha Z        PSCENC =       315.29328533
  Ewald energy   TEWEN  =     -6242.30120820
  -Hartree energ DENC   =      -634.45301808
  -exchange      EXHF   =         0.00000000
  -V(xc)+E(xc)   XCENC  =      -490.22949525
  PAW double counting   =     15310.04161562   -14373.11081039
  entropy T*S    EENTRO =        -0.00120813
  eigenvalues    EBANDS =      -403.80361693
  atomic energy  EATOM  =      6253.45172301
  Solvation  Ediel_sol  =         0.00000000
  ---------------------------------------------------
  free energy    TOTEN  =      -265.11273301 eV

  energy without entropy =     -265.11152488  energy(sigma->0) =     -265.11212894


--------------------------------------------------------------------------------------------------------




--------------------------------------- Iteration      1(  15)  ---------------------------------------


    POTLOK:  cpu time      0.3112: real time      0.3142
    SETDIJ:  cpu time      2.2042: real time      2.2153
     EDDAV:  cpu time     42.6475: real time     43.0000
       DOS:  cpu time      0.0024: real time      0.0024
    CHARGE:  cpu time      2.4112: real time      2.4263
    MIXING:  cpu time      0.0130: real time      0.0133
    --------------------------------------------
      LOOP:  cpu time     47.5894: real time     47.9716

 eigenvalue-minimisations  : 10712
 total energy-change (2. order) :-0.2597941E-04  (-0.4448673E-04)
 number of electron     239.9999999 magnetization       1.0000000
 augmentation part      -29.3644472 magnetization      -0.0550680

 Broyden mixing:
  rms(total) = 0.33540E-02    rms(broyden)= 0.33540E-02
  rms(prec ) = 0.39495E-02
  weight for this iteration     100.00

 eigenvalues of (default mixing * dielectric matrix)
  average eigenvalue GAMMA=   0.9929
  2.0405  2.0405  1.4983  0.9511  0.9511  0.7088  0.5669  0.3483  0.3790  0.4443

 Free energy of the ion-electron system (eV)
  ---------------------------------------------------
  alpha Z        PSCENC =       315.29328533
  Ewald energy   TEWEN  =     -6242.30120820
  -Hartree energ DENC   =      -634.54929802
  -exchange      EXHF   =         0.00000000
  -V(xc)+E(xc)   XCENC  =      -490.22443865
  PAW double counting   =     15301.79021514   -14364.86344903
  entropy T*S    EENTRO =        -0.00120487
  eigenvalues    EBANDS =      -403.70838371
  atomic energy  EATOM  =      6253.45172301
  Solvation  Ediel_sol  =         0.00000000
  ---------------------------------------------------
  free energy    TOTEN  =      -265.11275899 eV

  energy without entropy =     -265.11155412  energy(sigma->0) =     -265.11215655


--------------------------------------------------------------------------------------------------------




--------------------------------------- Iteration      1(  16)  ---------------------------------------


    POTLOK:  cpu time      0.3107: real time      0.3137
    SETDIJ:  cpu time      2.2027: real time      2.2133
     EDDAV:  cpu time     42.2534: real time     42.5840
       DOS:  cpu time      0.0031: real time      0.0031
    CHARGE:  cpu time      2.4197: real time      2.4349
    MIXING:  cpu time      0.0136: real time      0.0137
    --------------------------------------------
      LOOP:  cpu time     47.2031: real time     47.5627

 eigenvalue-minimisations  : 10592
 total energy-change (2. order) :-0.9087073E-05  (-0.1467619E-04)
 number of electron     239.9999999 magnetization       1.0000000
 augmentation part      -29.3643661 magnetization      -0.0549850

 Broyden mixing:
  rms(total) = 0.14032E-02    rms(broyden)= 0.14032E-02
  rms(prec ) = 0.16377E-02
  weight for this iteration     100.00

 eigenvalues of (default mixing * dielectric matrix)
  average eigenvalue GAMMA=   0.9838
  2.2507  1.8047  1.3638  1.3638  0.9581  0.7614  0.5723  0.5723  0.3481  0.3793
  0.4470

 Free energy of the ion-electron system (eV)
  ---------------------------------------------------
  alpha Z        PSCENC =       315.29328533
  Ewald energy   TEWEN  =     -6242.30120820
  -Hartree energ DENC   =      -634.55075783
  -exchange      EXHF   =         0.00000000
  -V(xc)+E(xc)   XCENC  =      -490.22331716
  PAW double counting   =     15302.15342863   -14365.22799839
  entropy T*S    EENTRO =        -0.00119913
  eigenvalues    EBANDS =      -403.70672433
  atomic energy  EATOM  =      6253.45172301
  Solvation  Ediel_sol  =         0.00000000
  ---------------------------------------------------
  free energy    TOTEN  =      -265.11276807 eV

  energy without entropy =     -265.11156894  energy(sigma->0) =     -265.11216851


--------------------------------------------------------------------------------------------------------




--------------------------------------- Iteration      1(  17)  ---------------------------------------


    POTLOK:  cpu time      0.3115: real time      0.3147
    SETDIJ:  cpu time      2.2031: real time      2.2137
     EDDAV:  cpu time     42.1440: real time     42.4804
       DOS:  cpu time      0.0031: real time      0.0031
    CHARGE:  cpu time      2.4279: real time      2.4432
    MIXING:  cpu time      0.0141: real time      0.0142
    --------------------------------------------
      LOOP:  cpu time     47.1037: real time     47.4693

 eigenvalue-minimisations  : 10528
 total energy-change (2. order) :-0.4599086E-05  (-0.3822713E-05)
 number of electron     239.9999999 magnetization       1.0000000
 augmentation part      -29.3642191 magnetization      -0.0549272

 Broyden mixing:
  rms(total) = 0.98634E-03    rms(broyden)= 0.98632E-03
  rms(prec ) = 0.10474E-02
  weight for this iteration     100.00

 eigenvalues of (default mixing * dielectric matrix)
  average eigenvalue GAMMA=   0.9839
  2.3233  1.6904  1.5458  1.5458  0.9328  0.7342  0.7342  0.6161  0.3479  0.5109
  0.3814  0.4443

 Free energy of the ion-electron system (eV)
  ---------------------------------------------------
  alpha Z        PSCENC =       315.29328533
  Ewald energy   TEWEN  =     -6242.30120820
  -Hartree energ DENC   =      -634.54913693
  -exchange      EXHF   =         0.00000000
  -V(xc)+E(xc)   XCENC  =      -490.22137637
  PAW double counting   =     15303.18611833   -14366.26102190
  entropy T*S    EENTRO =        -0.00119902
  eigenvalues    EBANDS =      -403.70995693
  atomic energy  EATOM  =      6253.45172301
  Solvation  Ediel_sol  =         0.00000000
  ---------------------------------------------------
  free energy    TOTEN  =      -265.11277267 eV

  energy without entropy =     -265.11157366  energy(sigma->0) =     -265.11217316


--------------------------------------------------------------------------------------------------------




--------------------------------------- Iteration      1(  18)  ---------------------------------------


    POTLOK:  cpu time      0.3108: real time      0.3134
    SETDIJ:  cpu time      2.2036: real time      2.2145
     EDDAV:  cpu time     42.5853: real time     42.9306
       DOS:  cpu time      0.0032: real time      0.0032
    CHARGE:  cpu time      2.4154: real time      2.4310
    MIXING:  cpu time      0.0145: real time      0.0146
    --------------------------------------------
      LOOP:  cpu time     47.5328: real time     47.9072

 eigenvalue-minimisations  : 10680
 total energy-change (2. order) :-0.2706210E-05  (-0.6918509E-06)
 number of electron     239.9999999 magnetization       1.0000000
 augmentation part      -29.3641657 magnetization      -0.0549018

 Broyden mixing:
  rms(total) = 0.58876E-03    rms(broyden)= 0.58873E-03
  rms(prec ) = 0.61178E-03
  weight for this iteration     100.00

 eigenvalues of (default mixing * dielectric matrix)
  average eigenvalue GAMMA=   1.0035
  2.5177  1.7842  1.5905  1.5905  0.8900  0.8900  0.8792  0.6611  0.3480  0.3814
  0.4392  0.5368  0.5368

 Free energy of the ion-electron system (eV)
  ---------------------------------------------------
  alpha Z        PSCENC =       315.29328533
  Ewald energy   TEWEN  =     -6242.30120820
  -Hartree energ DENC   =      -634.56006299
  -exchange      EXHF   =         0.00000000
  -V(xc)+E(xc)   XCENC  =      -490.21950356
  PAW double counting   =     15302.03063477   -14365.10579283
  entropy T*S    EENTRO =        -0.00119883
  eigenvalues    EBANDS =      -403.70065208
  atomic energy  EATOM  =      6253.45172301
  Solvation  Ediel_sol  =         0.00000000
[...]
 26.164  36.511   0.006   0.002   0.002   0.011   0.003   0.004
  0.004   0.006   4.218   0.000  -0.000   7.864   0.001  -0.001
  0.001   0.002   0.000   4.217  -0.000   0.001   7.862  -0.000
  0.002   0.002  -0.000  -0.000   4.219  -0.001  -0.000   7.864
  0.008   0.011   7.864   0.001  -0.001  14.670   0.001  -0.001
  0.002   0.003   0.001   7.862  -0.000   0.001  14.667  -0.001
  0.003   0.004  -0.001  -0.000   7.864  -0.001  -0.001  14.671
 pseudopotential strength for first ion, spin component:           2
 18.750  26.162   0.005   0.001   0.002   0.009   0.001   0.003
 26.162  36.509   0.007   0.001   0.003   0.013   0.002   0.005
  0.005   0.007   4.218   0.000  -0.000   7.862   0.001  -0.000
  0.001   0.001   0.000   4.217  -0.000   0.001   7.861  -0.000
  0.002   0.003  -0.000  -0.000   4.218  -0.000  -0.000   7.863
  0.009   0.013   7.862   0.001  -0.000  14.667   0.002  -0.001
  0.001   0.002   0.001   7.861  -0.000   0.002  14.665  -0.000
  0.003   0.005  -0.000  -0.000   7.863  -0.001  -0.000  14.669
 total augmentation occupancy for first ion, spin component:           1
  3.999  -1.261  -0.276   0.574   0.040   0.091  -0.181  -0.007
 -1.261   0.594   0.175  -0.310  -0.029  -0.044   0.083   0.004
 -0.276   0.175   2.024  -0.023   0.523  -0.394  -0.005  -0.135
  0.574  -0.310  -0.023   2.208   0.186  -0.005  -0.447  -0.054
  0.040  -0.029   0.523   0.186   2.012  -0.135  -0.054  -0.395
  0.091  -0.044  -0.394  -0.005  -0.135   0.085   0.002   0.034
 -0.181   0.083  -0.005  -0.447  -0.054   0.002   0.098   0.015
 -0.007   0.004  -0.135  -0.054  -0.395   0.034   0.015   0.085
 total augmentation occupancy for first ion, spin component:           2
  0.016  -0.011   0.001   0.003   0.003   0.001  -0.001  -0.000
 -0.011   0.009  -0.004   0.000  -0.003  -0.000   0.001   0.000
  0.001  -0.004   0.014  -0.005  -0.002  -0.002   0.001   0.000
  0.003   0.000  -0.005   0.005  -0.001   0.001  -0.001   0.000
  0.003  -0.003  -0.002  -0.001   0.004   0.000   0.000  -0.001
  0.001  -0.000  -0.002   0.001   0.000   0.000  -0.000   0.000
 -0.001   0.001   0.001  -0.001   0.000  -0.000   0.000   0.000
 -0.000   0.000   0.000   0.000  -0.001   0.000   0.000   0.000


------------------------ aborting loop because EDIFF is reached ----------------------------------------


    CHARGE:  cpu time      2.4222: real time      2.4371
    FORLOC:  cpu time      0.0476: real time      0.0480
    FORNL :  cpu time     11.0692: real time     11.1567
    STRESS:  cpu time     33.5465: real time     33.8121
    FORCOR:  cpu time      0.3460: real time      0.3485
    FORHAR:  cpu time      0.0752: real time      0.0757
    MIXING:  cpu time      0.0193: real time      0.0196
    OFIELD:  cpu time      0.0000: real time      0.0000

  FORCE on cell =-STRESS in cart. coord.  units (eV):
  Direction    XX          YY          ZZ          XY          YZ          ZX
  --------------------------------------------------------------------------------------
  Alpha Z   315.29329   315.29329   315.29329
  Ewald   -2173.13499 -1994.74431 -2074.46033   220.51876   -73.38489    -0.00000
  Hartree   221.57717   277.68781   135.29858    57.99781   -22.48693     0.03181
  E(xc)    -785.29594  -786.07550  -785.57887    -1.90587     0.19399     0.00051
  Local    -830.82393 -1068.70715  -830.60082  -280.78497   101.57835     0.50664
  n-local  1623.00183  1638.87818  1640.87129    20.19220    -8.51673    -0.31173
  augment  -101.44406  -102.45312  -101.19246    -1.03677     0.98739     0.05665
  Kinetic  1738.68074  1722.62821  1712.15685    -4.93471     0.65513     1.84829
  Fock        0.00000     0.00000     0.00000     0.00000     0.00000     0.00000
  -------------------------------------------------------------------------------------
  Total       7.85411     2.50742    11.78752    10.04644    -0.97369     2.13218
  in kB       8.60041     2.74568    12.90758    11.00107    -1.06621     2.33478
  external pressure =        8.08 kB  Pullay stress =        0.00 kB


 VOLUME and BASIS-vectors are now :
 -----------------------------------------------------------------------------
  energy-cutoff  :      700.00
  volume of cell :     1463.15
      direct lattice vectors                 reciprocal lattice vectors
     5.480000000  0.000000000  0.000000000     0.182481752  0.000000000  0.000000000
     0.000000000 17.329281578  0.000000000     0.000000000  0.057705797  0.000000000
     0.000000000  0.000000000 15.407320394     0.000000000  0.000000000  0.064904213

  length of vectors
     5.480000000 17.329281578 15.407320394     0.182481752  0.057705797  0.064904213


 FORCES acting on ions
    electron-ion (+dipol)            ewald-force                    non-local-force                 convergence-correction
 -----------------------------------------------------------------------------------------------
   0.531E+00 -.102E+02 0.225E+02   -.101E+01 0.887E+01 -.211E+02   0.188E+00 0.865E+00 -.310E+01   -.153E-04 -.687E-06 -.272E-04
   -.150E+02 0.808E+01 0.266E+02   0.141E+02 -.744E+01 -.256E+02   0.933E+00 -.597E+00 -.173E+01   -.460E-04 0.293E-03 -.115E-03
   0.971E+00 -.555E+00 0.460E+01   -.104E+01 0.962E+00 -.442E+01   0.874E-01 -.254E+00 -.421E+00   0.218E-04 0.207E-03 -.217E-03
   0.320E+00 -.192E+00 -.560E+01   -.798E+00 -.230E+00 0.501E+01   0.146E+00 0.560E-01 0.660E+00   0.651E-05 0.864E-04 -.180E-03
   -.159E+02 -.114E+02 -.272E+02   0.148E+02 0.101E+02 0.259E+02   0.111E+01 0.118E+01 0.985E+00   0.701E-05 -.826E-04 -.111E-03
   0.328E+01 0.603E-01 -.180E+02   -.183E+01 0.177E+01 0.166E+02   -.158E+01 -.185E+01 0.119E+01   -.438E-05 -.233E-03 -.818E-04
   -.255E+00 -.889E+01 0.193E+02   -.241E+00 0.878E+01 -.178E+02   0.551E+00 0.622E+00 -.139E+01   -.363E-05 -.584E-04 -.123E-04
   -.171E+02 0.821E+01 0.266E+02   0.161E+02 -.766E+01 -.249E+02   0.995E+00 -.631E+00 -.193E+01   -.199E-04 -.202E-03 -.626E-05
   0.596E+00 -.683E+00 0.459E+01   -.127E+00 0.658E+00 -.465E+01   -.587E+00 0.350E+00 0.151E+00   -.183E-04 -.223E-03 -.357E-04
   0.124E+01 0.150E+01 -.403E+01   -.367E+00 -.139E+01 0.393E+01   -.609E+00 -.224E+00 0.583E-01   0.175E-04 -.119E-03 -.621E-04
   -.174E+02 -.506E+01 -.260E+02   0.154E+02 0.498E+01 0.238E+02   0.170E+01 0.440E+00 0.313E+01   -.914E-05 0.119E-03 -.732E-04
   -.261E+01 0.182E+02 -.186E+02   0.572E+00 -.188E+02 0.177E+02   0.179E+01 0.642E+00 0.104E+01   0.340E-05 0.206E-03 -.126E-03
   -.632E+00 -.904E+01 -.511E+01   0.671E+00 0.806E+01 0.472E+01   0.291E+00 0.847E+00 0.717E+01   -.397E-05 0.268E-03 -.663E-04
   0.169E+02 0.104E+02 0.222E+02   -.150E+02 -.893E+01 -.205E+02   -.184E+01 -.135E+01 -.236E+01   0.249E-04 0.107E-03 -.125E-03
   -.186E+01 -.251E+00 0.314E+01   0.742E+00 0.291E+00 -.367E+01   0.123E+01 0.277E+00 0.797E+00   -.232E-04 -.389E-04 -.861E-04
   -.144E+01 0.112E+00 -.437E+01   0.119E+01 -.934E+00 0.459E+01   0.471E+00 0.634E+00 -.210E+00   0.395E-06 -.241E-03 -.498E-04
   0.132E+02 -.864E+01 -.266E+02   -.124E+02 0.760E+01 0.246E+02   -.118E+01 0.647E+00 0.258E+01   0.362E-04 -.237E-03 -.641E-04
   -.122E+02 0.101E+02 -.178E+02   0.116E+02 -.997E+01 0.163E+02   0.345E+00 -.660E+00 0.151E+01   -.470E-04 -.407E-04 0.867E-05
   -.989E+00 -.982E+01 0.272E+02   0.583E+00 0.892E+01 -.273E+02   0.463E+00 0.839E+00 -.766E+00   0.137E-04 -.264E-03 0.499E-04
   0.162E+02 0.705E+01 0.290E+02   -.152E+02 -.705E+01 -.279E+02   -.112E+01 -.598E-01 -.116E+01   0.136E-04 -.157E-03 -.103E-04
   0.622E-02 -.105E+01 0.528E+01   0.422E+00 0.116E+01 -.519E+01   -.225E+00 0.715E-02 -.359E-01   0.212E-04 0.769E-04 -.102E-03
   -.187E+00 0.901E+00 -.404E+01   -.304E-01 -.525E+00 0.442E+01   0.327E+00 -.492E+00 -.362E+00   -.444E-05 0.266E-03 -.176E-03
   0.191E+02 -.894E+01 -.261E+02   -.178E+02 0.823E+01 0.248E+02   -.113E+01 0.549E+00 0.147E+01   0.480E-05 0.168E-03 -.202E-03
   0.106E+02 0.972E+01 -.168E+02   -.103E+02 -.769E+01 0.162E+02   0.360E+00 -.112E+01 0.786E+00   0.290E-04 0.924E-04 -.171E-03
   -.349E+01 -.164E+01 0.284E+02   0.240E+01 0.239E+01 -.296E+02   0.860E+00 -.772E+00 -.336E+00   0.251E-05 0.109E-03 -.257E-04
   -.628E+00 0.195E+00 0.745E+01   0.321E+00 -.316E-01 -.744E+01   0.303E+00 -.324E-01 0.545E-01   0.123E-04 0.337E-05 0.373E-04
   0.546E+00 -.126E+00 -.185E+02   -.995E+00 0.362E-01 0.188E+02   0.225E+00 0.229E+00 -.354E+00   -.334E-05 -.164E-03 0.953E-04
   -.140E+02 0.107E+01 0.177E+02   0.138E+02 -.222E+01 -.184E+02   -.230E+00 0.410E+00 -.114E+00   -.131E-05 0.600E-04 -.121E-03
   0.337E-02 0.191E+00 0.780E+01   0.168E-01 -.160E-02 -.779E+01   -.101E+00 -.281E+00 0.949E-01   0.824E-06 0.144E-03 0.112E-03
   0.144E+01 0.322E+00 -.193E+02   -.157E+01 -.362E+00 0.194E+02   0.170E+00 0.173E+00 0.203E+00   0.129E-04 0.201E-03 0.148E-03
   0.231E+01 -.347E+00 0.310E+02   -.185E+01 0.920E-01 -.322E+02   -.251E+00 0.476E+00 -.481E+00   0.936E-05 -.145E-03 -.659E-04
   -.357E+00 0.852E-01 0.789E+01   0.840E-01 0.334E-01 -.771E+01   0.155E+00 -.165E-01 -.753E-01   0.101E-04 -.146E-03 0.474E-04
   0.387E+00 0.793E-01 -.154E+02   -.308E-01 0.327E+00 0.158E+02   -.290E+00 -.293E+00 -.544E+00   0.842E-06 -.441E-04 0.202E-03
   -.233E+01 -.998E+01 0.159E+02   0.185E+01 0.999E+01 -.172E+02   0.365E+00 -.435E-01 0.320E+00   -.241E-05 0.152E-03 -.702E-04
   0.168E+00 0.297E+00 0.744E+01   -.840E-01 -.202E+00 -.726E+01   0.508E-01 -.496E-01 -.193E+00   -.785E-05 0.126E-03 0.829E-04
   -.139E+00 -.811E-01 -.202E+02   0.308E-01 -.764E-01 0.205E+02   0.183E+00 0.603E-01 -.413E-01   -.169E-05 0.346E-04 0.756E-04
   0.345E+01 0.112E+02 0.203E+02   -.240E+01 -.115E+02 -.207E+02   -.665E+00 0.267E+00 -.427E+00   -.158E-05 -.129E-03 -.145E-03
   0.573E+00 -.184E+00 0.772E+01   -.321E+00 0.203E-01 -.728E+01   -.246E+00 0.739E-01 -.502E+00   -.361E-05 0.149E-05 0.872E-04
   -.652E+00 -.612E+00 -.199E+02   0.995E+00 0.981E+00 0.200E+02   -.459E+00 -.430E+00 0.120E+00   -.891E-05 0.156E-03 0.206E-03
   0.138E+02 -.228E+00 0.190E+02   -.138E+02 0.124E+01 -.199E+02   0.292E+00 -.477E+00 0.216E+00   -.511E-05 -.239E-04 -.367E-04
   0.125E+00 -.241E+00 0.727E+01   -.168E-01 0.181E+00 -.714E+01   -.830E-01 0.654E-01 -.633E-01   -.151E-04 -.124E-03 0.320E-04
   -.132E+01 0.999E+00 -.188E+02   0.157E+01 -.904E+00 0.190E+02   -.121E+00 -.534E-01 -.400E+00   -.135E-05 -.178E-03 0.142E-03
   0.215E+01 0.360E+00 0.180E+02   -.206E+01 -.286E+00 -.182E+02   -.250E-01 0.250E-01 0.153E+00   -.534E-05 0.157E-03 0.180E-04
   -.323E+00 -.955E-01 -.764E+01   0.180E+00 -.156E-01 0.730E+01   0.106E+00 0.502E-01 0.329E+00   -.228E-04 0.997E-04 0.922E-04
   -.850E+01 0.368E+01 -.272E+02   0.817E+01 -.345E+01 0.283E+02   0.305E-01 -.802E-01 0.682E+00   -.537E-05 -.792E-04 0.505E-04
   0.262E-02 0.296E+00 0.210E+02   -.174E-01 0.313E-01 -.208E+02   -.977E-01 -.524E-02 -.495E+00   0.241E-04 -.442E-04 -.486E-04
   -.604E+00 0.290E-01 -.734E+01   0.256E+00 -.263E-01 0.739E+01   0.225E+00 -.150E-01 -.103E+00   0.139E-04 0.543E-04 0.159E-03
   0.735E+00 -.249E+01 0.251E+01   -.402E+00 0.229E+01 -.308E+01   -.426E+00 0.637E+00 -.536E+01   -.108E-04 0.226E-03 0.193E-03
   0.716E-03 -.953E+00 0.203E+02   -.588E+00 0.263E+00 -.204E+02   0.491E+00 0.567E+00 -.132E+00   0.152E-04 -.467E-04 -.311E-04
   0.153E+00 -.793E-01 -.715E+01   -.168E-01 0.419E-01 0.698E+01   -.108E+00 -.887E-02 0.142E+00   0.756E-05 -.179E-03 0.893E-04
   -.427E+01 -.146E+01 -.235E+02   0.445E+01 0.131E+01 0.248E+02   -.381E+00 -.145E+00 0.132E+00   0.146E-04 -.161E-03 0.153E-03
   -.109E+00 0.160E+01 0.178E+02   0.588E+00 -.142E+01 -.182E+02   -.159E+00 -.218E+00 0.421E+00   0.118E-05 0.881E-04 0.166E-04
   -.795E-01 0.341E-01 -.800E+01   0.168E-01 -.115E-01 0.773E+01   0.559E-01 -.185E-02 0.244E+00   0.171E-04 0.180E-03 0.167E-03
   0.435E+01 -.548E+01 -.284E+02   -.445E+01 0.545E+01 0.290E+02   0.323E+00 -.218E+00 0.159E+01   0.142E-04 0.167E-03 0.414E-04
   -.207E+01 -.261E+00 0.179E+02   0.206E+01 0.164E+00 -.184E+02   -.918E-01 -.642E-01 0.316E+00   -.299E-04 -.190E-03 -.686E-04
   0.468E+00 -.117E+00 -.753E+01   -.180E+00 0.171E+00 0.768E+01   -.309E+00 -.563E-01 -.229E+00   -.182E-04 -.101E-03 0.124E-03
   0.824E+01 0.504E+01 -.209E+02   -.817E+01 -.504E+01 0.215E+02   -.252E-01 -.126E+00 0.691E+00   0.272E-05 0.566E-04 0.182E-03
   0.197E+00 -.134E+01 0.170E+02   0.174E-01 0.125E+01 -.176E+02   -.147E+00 -.757E-01 0.473E+00   -.715E-05 0.294E-04 -.170E-04
   0.465E+00 -.497E-02 -.760E+01   -.256E+00 -.159E+00 0.753E+01   -.493E-01 0.186E+00 0.329E-01   0.382E-05 -.578E-04 0.527E-04
   -.148E+00 0.141E+00 -.300E+02   0.402E+00 -.316E+00 0.319E+02   -.115E+00 0.515E-01 -.248E+00   -.977E-05 -.218E-03 0.884E-04
 -----------------------------------------------------------------------------------------------
   -.217E+01 -.431E+00 -.418E+01   -.349E-13 0.400E-14 -.355E-13   0.216E+01 0.521E+00 0.416E+01   0.629E-05 0.762E-05 0.262E-04
 
 
 POSITION                                       TOTAL-FORCE (eV/Angst)
 -----------------------------------------------------------------------------------
      0.00000      0.00000      0.00000        -0.293513     -0.465043     -1.677553
      2.74000      2.59939      0.86646         0.043569      0.046679     -0.696539
      0.00000      5.19878      1.73293         0.021067      0.151162     -0.240136
      2.74000      7.79818      2.59939        -0.332242     -0.367012      0.071300
      0.00000     10.39757      3.46586        -0.052105     -0.093760     -0.349650
      2.74000     12.99696      4.33232        -0.131328     -0.019851     -0.182172
      0.00000      8.66464      0.00000         0.054447      0.514630      0.140414
      2.74000     11.26403      0.86646        -0.028237     -0.086085     -0.196126
      0.00000     13.86343      1.73293        -0.117651      0.322575      0.091890
      2.74000     16.46282      2.59939         0.261274     -0.118047     -0.038606
      0.00000      1.73293      3.46586        -0.257657      0.362207      0.919506
      2.74000      4.33232      4.33232        -0.247528      0.106000      0.073426
      1.37000      4.33232      0.00000         0.329107     -0.130077      6.769862
      4.11000      6.93171      0.86646         0.141032      0.096250     -0.675872
      1.37000      9.53110      1.73293         0.118632      0.315951      0.259091
      4.11000     12.13050      2.59939         0.230098     -0.189965      0.005135
      1.37000     14.72989      3.46586        -0.376234     -0.397890      0.631226
      4.11000      0.00000      4.33232        -0.288727     -0.529269      0.043331
      1.37000     12.99696      0.00000         0.057211     -0.061702     -0.799783
      4.11000     15.59635      0.86646        -0.138201     -0.066948     -0.086647
      1.37000      0.86646      1.73293         0.203313      0.111597      0.050170
      4.11000      3.46586      2.59939         0.110148     -0.117844      0.020131
      1.37000      6.06525      3.46586         0.118483     -0.153255      0.205003
      4.11000      8.66464      4.33232         0.591544      0.903731      0.140521
      0.00000      2.92180      6.33232        -0.231776     -0.021982     -1.557213
      0.00000      0.03358      9.16232        -0.003604      0.129107      0.063838
      0.00000     14.47465     11.99232        -0.224077      0.136693      0.007479
      0.00000      8.69822      6.33232        -0.465407     -0.738662     -0.762905
      0.00000      5.81001      9.16232        -0.081052     -0.092889      0.106010
      0.00000      2.92180     11.99232         0.034953      0.132093      0.293719
      0.00000     14.47465      6.33232         0.213055      0.219174     -1.650275
      0.00000     11.58644      9.16232        -0.117830      0.100429      0.108587
      0.00000      8.69822     11.99232         0.066421      0.111854     -0.169240
      2.74000      5.81001      6.33232        -0.112955     -0.037854     -0.955927
      2.74000      2.92180      9.16232         0.135214      0.043538     -0.011159
      2.74000      0.03358     11.99232         0.075103     -0.098726      0.226091
      2.74000     11.58644      6.33232         0.383610     -0.040989     -0.843283
      2.74000      8.69822      9.16232         0.006477     -0.091787     -0.060169
      2.74000      5.81001     11.99232        -0.115345     -0.062190      0.181580
      2.74000      0.03358      6.33232         0.318847      0.531406     -0.706373
      2.74000     14.47465      9.16232         0.024926      0.004540      0.065814
      2.74000     11.58644     11.99232         0.130016      0.040647     -0.161984
      1.37000      4.36590      7.74732         0.060112      0.098445     -0.090666
      1.37000      1.47769     10.57732        -0.037280     -0.062325     -0.003851
      1.37000     15.91876     13.40732        -0.297803      0.144778      1.714651
      1.37000     10.14233      7.74732        -0.112368      0.320112     -0.285178
      1.37000      7.25412     10.57732        -0.124088     -0.013736     -0.044220
      1.37000      4.36590     13.40732        -0.092823      0.435123     -5.935054
      1.37000     15.91876      7.74732        -0.095810     -0.124135     -0.222310
      1.37000     13.03055     10.57732         0.028010     -0.047898     -0.022304
      1.37000     10.14233     13.40732        -0.200667     -0.300758      1.406595
      4.11000      7.25412      7.74732         0.319570     -0.041228      0.054856
      4.11000      4.36590     10.57732        -0.006684      0.019499     -0.018091
      4.11000      1.47769     13.40732         0.226111     -0.254054      2.160844
      4.11000     13.03055      7.74732        -0.103757     -0.162833     -0.096533
      4.11000     10.14233     10.57732        -0.021421     -0.004605     -0.078820
      4.11000      7.25412     13.40732         0.038645     -0.133231      1.312040
      4.11000      1.47769      7.74732         0.067475     -0.167367     -0.103874
      4.11000     15.91876     10.57732         0.160490      0.020352     -0.038145
      4.11000     13.03055     13.40732         0.139206     -0.124574      1.637552
 -----------------------------------------------------------------------------------
    total drift:                               -0.005404      0.090034     -0.017040


--------------------------------------------------------------------------------------------------------



  FREE ENERGIE OF THE ION-ELECTRON SYSTEM (eV)
  ---------------------------------------------------
  free  energy   TOTEN  =      -265.11277859 eV

  energy  without entropy=     -265.11158171  energy(sigma->0) =     -265.11218015
 


--------------------------------------------------------------------------------------------------------


    POTLOK:  cpu time      2.5429: real time      2.5570


--------------------------------------------------------------------------------------------------------


     LOOP+:  cpu time   1107.8138: real time   1117.0201
    4ORBIT:  cpu time      0.0000: real time      0.0000

 total amount of memory used by VASP MPI-rank0   372897. kBytes
=======================================================================

   base      :      30000. kBytes
   nonlr-proj:       3310. kBytes
   fftplans  :      30854. kBytes
   grid      :      20762. kBytes
   one-center:         64. kBytes
   wavefun   :     287907. kBytes
 
  
  
 General timing and accounting informations for this job:
 ========================================================
  
                  Total CPU time used (sec):     1143.654
                            User time (sec):     1082.035
                          System time (sec):       61.619
                         Elapsed time (sec):     1154.732
  
                   Maximum memory used (kb):      600028.
                   Average memory used (kb):          N/A
  
                          Minor page faults:       236442
                          Major page faults:           41
                 Voluntary context switches:         1410
