 264 264   0   0
  0.2774202E+02  0.1958175E-08  0.1958175E-08  0.1910025E-08  0.5000000E-15
  1.000000000000000E-004
  CAR 
 Si and Ge interface calculation         
      6.64837809     -9.18832650  301      4.05124753      1.00000000
     -9.188  0.0000E+00  0.0000E+00  0.0000E+00  0.0000E+00
     -9.136  0.0000E+00  0.0000E+00  0.0000E+00  0.0000E+00
     -9.083  0.0000E+00  0.0000E+00  0.0000E+00  0.0000E+00
     -9.030  0.0000E+00  0.0000E+00  0.0000E+00  0.0000E+00
     -8.977  0.0000E+00  0.0000E+00  0.0000E+00  0.0000E+00
     -8.924  0.0000E+00  0.0000E+00  0.0000E+00  0.0000E+00
     -8.872  0.0000E+00  0.0000E+00  0.0000E+00  0.0000E+00
     -8.819  0.0000E+00  0.0000E+00  0.0000E+00  0.0000E+00
     -8.766  0.0000E+00  0.0000E+00  0.0000E+00  0.0000E+00
     -8.713  0.0000E+00  0.0000E+00  0.0000E+00  0.0000E+00
     -8.660  0.0000E+00  0.0000E+00  0.0000E+00  0.0000E+00
     -8.608  0.0000E+00  0.0000E+00  0.0000E+00  0.0000E+00
     -8.555  0.0000E+00  0.0000E+00  0.0000E+00  0.0000E+00
     -8.502  0.9501E-05  0.3669E-05  0.5015E-06  0.1937E-06
     -8.449  0.2058E+02  0.1952E+02  0.1086E+01  0.1030E+01
     -8.396  0.1731E+02  0.1837E+02  0.2000E+01  0.2000E+01
     -8.344  0.4206E-14  0.5258E-15  0.2000E+01  0.2000E+01
     -8.291  0.2679E+01  0.1879E+01  0.2141E+01  0.2099E+01
     -8.238  0.1634E+02  0.1710E+02  0.3004E+01  0.3002E+01
     -8.185  0.1861E+02  0.1840E+02  0.3987E+01  0.3973E+01
     -8.133  0.1758E+02  0.1730E+02  0.4915E+01  0.4886E+01
     -8.080  0.1110E+02  0.1163E+02  0.5500E+01  0.5500E+01
     -8.027  0.1516E+02  0.1356E+02  0.6301E+01  0.6216E+01
     -7.974  0.3217E+02  0.3376E+02  0.7999E+01  0.7998E+01
     -7.921  0.9296E+01  0.9165E+01  0.8490E+01  0.8482E+01
     -7.869  0.1114E+02  0.9406E+01  0.9078E+01  0.8979E+01
     -7.816  0.1747E+02  0.1935E+02  0.1000E+02  0.1000E+02
     -7.763  0.1596E+02  0.1343E+02  0.1084E+02  0.1071E+02
     -7.710  0.1246E+02  0.1499E+02  0.1150E+02  0.1150E+02
     -7.657  0.3649E-01  0.1843E-01  0.1150E+02  0.1150E+02
     -7.605  0.2452E+02  0.2308E+02  0.1280E+02  0.1272E+02
     -7.552  0.1645E+02  0.1687E+02  0.1367E+02  0.1361E+02
     -7.499  0.4264E+02  0.4297E+02  0.1592E+02  0.1588E+02
     -7.446  0.1615E+01  0.2317E+01  0.1600E+02  0.1600E+02
     -7.393  0.2214E+02  0.2116E+02  0.1717E+02  0.1712E+02
     -7.341  0.1142E+02  0.1157E+02  0.1777E+02  0.1773E+02
     -7.288  0.3315E+02  0.3380E+02  0.1952E+02  0.1951E+02
     -7.235  0.3488E+02  0.3266E+02  0.2136E+02  0.2124E+02
     -7.182  0.2844E+02  0.2907E+02  0.2287E+02  0.2277E+02
     -7.130  0.4066E+02  0.4232E+02  0.2501E+02  0.2501E+02
     -7.077  0.2435E+02  0.2148E+02  0.2630E+02  0.2614E+02
     -7.024  0.4086E+02  0.4289E+02  0.2846E+02  0.2840E+02
     -6.971  0.2159E+02  0.2185E+02  0.2959E+02  0.2956E+02
     -6.918  0.4586E+02  0.4625E+02  0.3202E+02  0.3200E+02
     -6.866  0.2081E+02  0.1981E+02  0.3311E+02  0.3304E+02
     -6.813  0.3571E+02  0.3681E+02  0.3500E+02  0.3499E+02
     -6.760  0.4682E+02  0.4494E+02  0.3747E+02  0.3736E+02
     -6.707  0.5842E+02  0.5859E+02  0.4055E+02  0.4045E+02
     -6.654  0.4478E+02  0.4602E+02  0.4292E+02  0.4288E+02
     -6.602  0.2763E+02  0.2611E+02  0.4438E+02  0.4426E+02
     -6.549  0.3174E+02  0.3163E+02  0.4605E+02  0.4593E+02
     -6.496  0.4549E+02  0.4491E+02  0.4845E+02  0.4830E+02
     -6.443  0.5045E+02  0.4979E+02  0.5112E+02  0.5093E+02
     -6.391  0.4346E+02  0.4594E+02  0.5341E+02  0.5335E+02
     -6.338  0.3895E+02  0.3965E+02  0.5547E+02  0.5545E+02
     -6.285  0.4715E+02  0.4629E+02  0.5796E+02  0.5789E+02
     -6.232  0.5215E+02  0.5166E+02  0.6071E+02  0.6062E+02
     -6.179  0.6720E+02  0.6690E+02  0.6426E+02  0.6415E+02
     -6.127  0.6520E+02  0.6493E+02  0.6770E+02  0.6758E+02
     -6.074  0.6064E+02  0.5939E+02  0.7090E+02  0.7071E+02
     -6.021  0.7395E+02  0.7344E+02  0.7480E+02  0.7459E+02
     -5.968  0.6146E+02  0.6167E+02  0.7805E+02  0.7784E+02
     -5.915  0.7310E+02  0.7574E+02  0.8191E+02  0.8184E+02
     -5.863  0.6357E+02  0.6173E+02  0.8526E+02  0.8510E+02
     -5.810  0.7390E+02  0.7328E+02  0.8916E+02  0.8897E+02
     -5.757  0.7963E+02  0.7983E+02  0.9337E+02  0.9318E+02
     -5.704  0.8166E+02  0.8123E+02  0.9768E+02  0.9747E+02
     -5.651  0.7419E+02  0.7564E+02  0.1016E+03  0.1015E+03
     -5.599  0.1032E+03  0.1016E+03  0.1070E+03  0.1068E+03
     -5.546  0.6423E+02  0.6514E+02  0.1104E+03  0.1103E+03
     -5.493  0.6595E+02  0.6639E+02  0.1139E+03  0.1138E+03
     -5.440  0.7471E+02  0.7334E+02  0.1179E+03  0.1176E+03
     -5.388  0.6706E+02  0.6669E+02  0.1214E+03  0.1212E+03
     -5.335  0.1014E+03  0.1022E+03  0.1268E+03  0.1266E+03
     -5.282  0.8505E+02  0.8287E+02  0.1312E+03  0.1309E+03
     -5.229  0.7673E+02  0.7935E+02  0.1353E+03  0.1351E+03
     -5.176  0.5782E+02  0.5940E+02  0.1383E+03  0.1383E+03
     -5.124  0.7504E+02  0.7284E+02  0.1423E+03  0.1421E+03
     -5.071  0.7045E+02  0.7084E+02  0.1460E+03  0.1458E+03
     -5.018  0.7020E+02  0.6995E+02  0.1497E+03  0.1495E+03
     -4.965  0.7035E+02  0.6970E+02  0.1534E+03  0.1532E+03
     -4.912  0.6509E+02  0.6738E+02  0.1569E+03  0.1568E+03
     -4.860  0.8014E+02  0.7704E+02  0.1611E+03  0.1608E+03
     -4.807  0.8219E+02  0.8467E+02  0.1655E+03  0.1653E+03
     -4.754  0.9023E+02  0.8876E+02  0.1702E+03  0.1700E+03
     -4.701  0.1165E+03  0.1143E+03  0.1764E+03  0.1760E+03
     -4.648  0.1014E+03  0.1032E+03  0.1817E+03  0.1815E+03
     -4.596  0.1047E+03  0.1027E+03  0.1872E+03  0.1869E+03
     -4.543  0.1065E+03  0.1059E+03  0.1929E+03  0.1925E+03
     -4.490  0.9637E+02  0.9568E+02  0.1979E+03  0.1975E+03
     -4.437  0.1063E+03  0.1084E+03  0.2036E+03  0.2033E+03
     -4.385  0.1104E+03  0.1096E+03  0.2094E+03  0.2090E+03
     -4.332  0.7404E+02  0.7465E+02  0.2133E+03  0.2130E+03
     -4.279  0.7287E+02  0.7048E+02  0.2171E+03  0.2167E+03
     -4.226  0.7006E+02  0.7496E+02  0.2208E+03  0.2207E+03
     -4.173  0.9568E+02  0.9438E+02  0.2259E+03  0.2256E+03
     -4.121  0.9834E+02  0.9781E+02  0.2311E+03  0.2308E+03
     -4.068  0.5762E+02  0.5811E+02  0.2341E+03  0.2339E+03
     -4.015  0.8386E+02  0.8539E+02  0.2386E+03  0.2384E+03
     -3.962  0.3916E+02  0.4052E+02  0.2406E+03  0.2405E+03
     -3.909  0.3695E+02  0.3763E+02  0.2426E+03  0.2425E+03
     -3.857  0.6505E+02  0.6228E+02  0.2460E+03  0.2458E+03
     -3.804  0.5116E+02  0.5116E+02  0.2487E+03  0.2485E+03
     -3.751  0.6916E+02  0.6743E+02  0.2524E+03  0.2521E+03
     -3.698  0.7133E+02  0.7364E+02  0.2561E+03  0.2559E+03
     -3.645  0.6714E+02  0.6687E+02  0.2597E+03  0.2595E+03
     -3.593  0.7649E+02  0.7508E+02  0.2637E+03  0.2634E+03
     -3.540  0.5111E+02  0.5223E+02  0.2664E+03  0.2662E+03
     -3.487  0.8377E+02  0.8309E+02  0.2708E+03  0.2706E+03
     -3.434  0.8073E+02  0.8103E+02  0.2751E+03  0.2749E+03
     -3.382  0.7497E+02  0.7421E+02  0.2790E+03  0.2788E+03
     -3.329  0.7592E+02  0.7699E+02  0.2831E+03  0.2828E+03
     -3.276  0.7131E+02  0.6811E+02  0.2868E+03  0.2864E+03
     -3.223  0.7221E+02  0.7458E+02  0.2906E+03  0.2904E+03
     -3.170  0.7432E+02  0.7267E+02  0.2946E+03  0.2942E+03
     -3.118  0.6779E+02  0.7052E+02  0.2981E+03  0.2979E+03
     -3.065  0.7861E+02  0.7459E+02  0.3023E+03  0.3019E+03
     -3.012  0.6138E+02  0.6384E+02  0.3055E+03  0.3052E+03
     -2.959  0.8419E+02  0.8243E+02  0.3100E+03  0.3096E+03
     -2.906  0.1179E+03  0.1194E+03  0.3162E+03  0.3159E+03
     -2.854  0.6681E+02  0.6776E+02  0.3197E+03  0.3195E+03
     -2.801  0.9622E+02  0.9380E+02  0.3248E+03  0.3244E+03
     -2.748  0.1033E+03  0.1043E+03  0.3302E+03  0.3299E+03
     -2.695  0.9440E+02  0.9414E+02  0.3352E+03  0.3349E+03
     -2.642  0.9575E+02  0.9718E+02  0.3403E+03  0.3400E+03
     -2.590  0.1162E+03  0.1137E+03  0.3464E+03  0.3460E+03
     -2.537  0.1152E+03  0.1172E+03  0.3525E+03  0.3522E+03
     -2.484  0.1077E+03  0.1077E+03  0.3582E+03  0.3579E+03
     -2.431  0.8971E+02  0.9136E+02  0.3629E+03  0.3627E+03
     -2.379  0.1024E+03  0.9977E+02  0.3683E+03  0.3680E+03
     -2.326  0.1060E+03  0.1056E+03  0.3739E+03  0.3736E+03
     -2.273  0.9740E+02  0.9742E+02  0.3791E+03  0.3787E+03
     -2.220  0.7642E+02  0.8003E+02  0.3831E+03  0.3829E+03
     -2.167  0.3468E+02  0.3690E+02  0.3849E+03  0.3849E+03
     -2.115  0.4663E+02  0.4363E+02  0.3874E+03  0.3872E+03
     -2.062  0.6802E+02  0.6863E+02  0.3910E+03  0.3908E+03
     -2.009  0.8554E+02  0.8334E+02  0.3955E+03  0.3952E+03
     -1.956  0.9983E+02  0.1010E+03  0.4008E+03  0.4005E+03
     -1.903  0.9392E+02  0.9379E+02  0.4057E+03  0.4055E+03
     -1.851  0.7046E+02  0.7134E+02  0.4094E+03  0.4093E+03
     -1.798  0.7001E+02  0.6724E+02  0.4131E+03  0.4128E+03
     -1.745  0.1072E+03  0.1065E+03  0.4188E+03  0.4184E+03
     -1.692  0.9889E+02  0.1009E+03  0.4240E+03  0.4238E+03
     -1.639  0.9148E+02  0.9300E+02  0.4289E+03  0.4287E+03
     -1.587  0.8501E+02  0.8134E+02  0.4333E+03  0.4330E+03
     -1.534  0.7220E+02  0.7441E+02  0.4372E+03  0.4369E+03
     -1.481  0.5864E+02  0.6086E+02  0.4402E+03  0.4401E+03
     -1.428  0.5694E+02  0.5505E+02  0.4433E+03  0.4430E+03
     -1.376  0.6768E+02  0.6814E+02  0.4468E+03  0.4466E+03
     -1.323  0.5999E+02  0.6176E+02  0.4500E+03  0.4499E+03
     -1.270  0.3747E+02  0.3596E+02  0.4520E+03  0.4518E+03
     -1.217  0.6286E+02  0.6417E+02  0.4553E+03  0.4551E+03
     -1.164  0.4554E+02  0.4696E+02  0.4577E+03  0.4576E+03
     -1.112  0.5936E+02  0.5794E+02  0.4608E+03  0.4607E+03
     -1.059  0.4698E+02  0.4625E+02  0.4633E+03  0.4631E+03
     -1.006  0.6368E+02  0.6568E+02  0.4667E+03  0.4666E+03
     -0.953  0.3068E+02  0.3048E+02  0.4683E+03  0.4682E+03
     -0.900  0.3249E+02  0.2960E+02  0.4700E+03  0.4698E+03
     -0.848  0.8946E+02  0.8890E+02  0.4747E+03  0.4745E+03
     -0.795  0.6303E+02  0.6474E+02  0.4781E+03  0.4779E+03
     -0.742  0.3652E+02  0.3571E+02  0.4800E+03  0.4798E+03
     -0.689  0.7445E+02  0.7199E+02  0.4839E+03  0.4836E+03
     -0.637  0.5519E+02  0.5848E+02  0.4868E+03  0.4866E+03
     -0.584  0.3859E+02  0.4016E+02  0.4889E+03  0.4888E+03
     -0.531  0.1506E+02  0.1530E+02  0.4897E+03  0.4896E+03
     -0.478  0.2320E+02  0.2112E+02  0.4909E+03  0.4907E+03
     -0.425  0.3520E+02  0.3767E+02  0.4927E+03  0.4927E+03
     -0.373  0.5082E+02  0.4859E+02  0.4954E+03  0.4952E+03
     -0.320  0.5995E+02  0.6014E+02  0.4986E+03  0.4984E+03
     -0.267  0.6756E+02  0.6547E+02  0.5022E+03  0.5019E+03
     -0.214  0.9586E+02  0.9602E+02  0.5072E+03  0.5069E+03
     -0.161  0.9862E+02  0.9898E+02  0.5124E+03  0.5122E+03
     -0.109  0.1087E+03  0.1072E+03  0.5182E+03  0.5178E+03
     -0.056  0.1168E+03  0.1166E+03  0.5243E+03  0.5240E+03
     -0.003  0.1174E+03  0.1176E+03  0.5305E+03  0.5302E+03
      0.050  0.1278E+03  0.1254E+03  0.5373E+03  0.5368E+03
      0.103  0.1280E+03  0.1297E+03  0.5440E+03  0.5437E+03
      0.155  0.1084E+03  0.1101E+03  0.5497E+03  0.5495E+03
      0.208  0.6855E+02  0.6968E+02  0.5534E+03  0.5531E+03
      0.261  0.8464E+02  0.8499E+02  0.5578E+03  0.5576E+03
      0.314  0.9365E+02  0.9175E+02  0.5628E+03  0.5625E+03
      0.366  0.8489E+02  0.8531E+02  0.5673E+03  0.5670E+03
      0.419  0.1068E+03  0.1063E+03  0.5729E+03  0.5726E+03
      0.472  0.8728E+02  0.8915E+02  0.5775E+03  0.5773E+03
      0.525  0.9000E+02  0.8791E+02  0.5823E+03  0.5819E+03
      0.578  0.1372E+03  0.1373E+03  0.5895E+03  0.5892E+03
      0.630  0.1122E+03  0.1138E+03  0.5954E+03  0.5952E+03
      0.683  0.1380E+03  0.1334E+03  0.6027E+03  0.6022E+03
      0.736  0.1504E+03  0.1532E+03  0.6106E+03  0.6103E+03
      0.789  0.1208E+03  0.1206E+03  0.6170E+03  0.6167E+03
      0.842  0.1019E+03  0.1038E+03  0.6224E+03  0.6222E+03
      0.894  0.9999E+02  0.9784E+02  0.6277E+03  0.6273E+03
      0.947  0.1121E+03  0.1120E+03  0.6336E+03  0.6332E+03
      1.000  0.1211E+03  0.1244E+03  0.6400E+03  0.6398E+03
      1.053  0.1265E+03  0.1216E+03  0.6467E+03  0.6462E+03
      1.106  0.1709E+03  0.1712E+03  0.6557E+03  0.6553E+03
      1.158  0.1661E+03  0.1644E+03  0.6644E+03  0.6639E+03
      1.211  0.1906E+03  0.1901E+03  0.6745E+03  0.6740E+03
      1.264  0.1736E+03  0.1759E+03  0.6837E+03  0.6833E+03
      1.317  0.1797E+03  0.1778E+03  0.6932E+03  0.6927E+03
      1.369  0.1781E+03  0.1799E+03  0.7026E+03  0.7022E+03
      1.422  0.1545E+03  0.1560E+03  0.7107E+03  0.7104E+03
      1.475  0.1476E+03  0.1417E+03  0.7185E+03  0.7179E+03
      1.528  0.2197E+03  0.2220E+03  0.7301E+03  0.7296E+03
      1.581  0.1791E+03  0.1792E+03  0.7396E+03  0.7391E+03
      1.633  0.1967E+03  0.1972E+03  0.7499E+03  0.7495E+03
      1.686  0.1742E+03  0.1733E+03  0.7591E+03  0.7586E+03
      1.739  0.2025E+03  0.2023E+03  0.7698E+03  0.7693E+03
      1.792  0.1754E+03  0.1781E+03  0.7791E+03  0.7787E+03
      1.845  0.1649E+03  0.1644E+03  0.7878E+03  0.7874E+03
      1.897  0.1554E+03  0.1514E+03  0.7960E+03  0.7954E+03
      1.950  0.2135E+03  0.2144E+03  0.8073E+03  0.8067E+03
      2.003  0.1729E+03  0.1766E+03  0.8164E+03  0.8160E+03
      2.056  0.1776E+03  0.1736E+03  0.8258E+03  0.8252E+03
      2.109  0.2033E+03  0.2028E+03  0.8365E+03  0.8359E+03
      2.161  0.1795E+03  0.1829E+03  0.8460E+03  0.8455E+03
      2.214  0.1412E+03  0.1418E+03  0.8534E+03  0.8530E+03
      2.267  0.1691E+03  0.1674E+03  0.8624E+03  0.8619E+03
      2.320  0.1486E+03  0.1482E+03  0.8702E+03  0.8697E+03
      2.372  0.1898E+03  0.1847E+03  0.8802E+03  0.8794E+03
      2.425  0.1807E+03  0.1880E+03  0.8898E+03  0.8894E+03
      2.478  0.1387E+03  0.1390E+03  0.8971E+03  0.8967E+03
      2.531  0.1220E+03  0.1209E+03  0.9035E+03  0.9031E+03
      2.584  0.1537E+03  0.1505E+03  0.9116E+03  0.9110E+03
      2.636  0.1286E+03  0.1296E+03  0.9184E+03  0.9179E+03
      2.689  0.1110E+03  0.1141E+03  0.9243E+03  0.9239E+03
      2.742  0.1587E+03  0.1513E+03  0.9327E+03  0.9319E+03
      2.795  0.1433E+03  0.1522E+03  0.9402E+03  0.9399E+03
      2.848  0.1533E+03  0.1415E+03  0.9483E+03  0.9474E+03
      2.900  0.1499E+03  0.1568E+03  0.9562E+03  0.9557E+03
      2.953  0.1091E+03  0.1106E+03  0.9620E+03  0.9615E+03
      3.006  0.1190E+03  0.1185E+03  0.9683E+03  0.9678E+03
      3.059  0.1284E+03  0.1299E+03  0.9750E+03  0.9746E+03
      3.112  0.1119E+03  0.1115E+03  0.9810E+03  0.9805E+03
      3.164  0.1112E+03  0.1123E+03  0.9868E+03  0.9864E+03
      3.217  0.1268E+03  0.1277E+03  0.9935E+03  0.9932E+03
      3.270  0.9590E+02  0.8920E+02  0.9986E+03  0.9979E+03
      3.323  0.1005E+03  0.1044E+03  0.1004E+04  0.1003E+04
      3.375  0.1041E+03  0.1053E+03  0.1009E+04  0.1009E+04
      3.428  0.5581E+02  0.5891E+02  0.1012E+04  0.1012E+04
      3.481  0.1074E+03  0.1012E+03  0.1018E+04  0.1017E+04
      3.534  0.9264E+02  0.9594E+02  0.1023E+04  0.1022E+04
      3.587  0.9011E+02  0.8115E+02  0.1028E+04  0.1027E+04
      3.639  0.8601E+02  0.9347E+02  0.1032E+04  0.1032E+04
      3.692  0.5623E+02  0.5556E+02  0.1035E+04  0.1035E+04
      3.745  0.5190E+02  0.5832E+02  0.1038E+04  0.1038E+04
      3.798  0.5745E+02  0.4943E+02  0.1041E+04  0.1040E+04
      3.851  0.4540E+02  0.4524E+02  0.1043E+04  0.1043E+04
      3.903  0.2277E+02  0.2846E+02  0.1045E+04  0.1044E+04
      3.956  0.6991E+02  0.6324E+02  0.1048E+04  0.1048E+04
      4.009  0.6561E+02  0.6579E+02  0.1052E+04  0.1051E+04
      4.062  0.1051E+03  0.9071E+02  0.1057E+04  0.1056E+04
      4.115  0.1110E+03  0.1228E+03  0.1063E+04  0.1062E+04
      4.167  0.9846E+02  0.9738E+02  0.1068E+04  0.1067E+04
      4.220  0.9653E+02  0.1026E+03  0.1073E+04  0.1073E+04
      4.273  0.1038E+03  0.9340E+02  0.1079E+04  0.1078E+04
      4.326  0.1093E+03  0.1161E+03  0.1085E+04  0.1084E+04
      4.378  0.1168E+03  0.1112E+03  0.1091E+04  0.1090E+04
      4.431  0.1149E+03  0.1205E+03  0.1097E+04  0.1096E+04
      4.484  0.1168E+03  0.1130E+03  0.1103E+04  0.1102E+04
      4.537  0.1177E+03  0.1211E+03  0.1109E+04  0.1108E+04
      4.590  0.8340E+02  0.8629E+02  0.1114E+04  0.1113E+04
      4.642  0.1207E+03  0.1169E+03  0.1120E+04  0.1119E+04
      4.695  0.1046E+03  0.1078E+03  0.1126E+04  0.1125E+04
      4.748  0.1127E+03  0.1109E+03  0.1131E+04  0.1131E+04
      4.801  0.1133E+03  0.1120E+03  0.1137E+04  0.1137E+04
      4.854  0.1272E+03  0.1278E+03  0.1144E+04  0.1143E+04
      4.906  0.1268E+03  0.1288E+03  0.1151E+04  0.1150E+04
      4.959  0.1067E+03  0.1065E+03  0.1157E+04  0.1156E+04
      5.012  0.1044E+03  0.1064E+03  0.1162E+04  0.1161E+04
      5.065  0.1484E+03  0.1420E+03  0.1170E+04  0.1169E+04
      5.117  0.1114E+03  0.1133E+03  0.1176E+04  0.1175E+04
      5.170  0.1051E+03  0.1121E+03  0.1181E+04  0.1181E+04
      5.223  0.1080E+03  0.1025E+03  0.1187E+04  0.1186E+04
      5.276  0.1063E+03  0.1092E+03  0.1193E+04  0.1192E+04
      5.329  0.1038E+03  0.1021E+03  0.1198E+04  0.1197E+04
      5.381  0.1325E+03  0.1356E+03  0.1205E+04  0.1205E+04
      5.434  0.1475E+03  0.1474E+03  0.1213E+04  0.1212E+04
      5.487  0.1519E+03  0.1440E+03  0.1221E+04  0.1220E+04
      5.540  0.1620E+03  0.1647E+03  0.1229E+04  0.1229E+04
      5.593  0.1534E+03  0.1582E+03  0.1238E+04  0.1237E+04
      5.645  0.1236E+03  0.1268E+03  0.1244E+04  0.1244E+04
      5.698  0.9672E+02  0.9610E+02  0.1249E+04  0.1249E+04
      5.751  0.1171E+03  0.1175E+03  0.1255E+04  0.1255E+04
      5.804  0.1278E+03  0.1266E+03  0.1262E+04  0.1262E+04
      5.857  0.1112E+03  0.1109E+03  0.1268E+04  0.1268E+04
      5.909  0.7193E+02  0.7683E+02  0.1272E+04  0.1272E+04
      5.962  0.4543E+01  0.8111E+01  0.1272E+04  0.1272E+04
      6.015  0.0000E+00  0.0000E+00  0.1272E+04  0.1272E+04
      6.068  0.0000E+00  0.0000E+00  0.1272E+04  0.1272E+04
      6.120  0.0000E+00  0.0000E+00  0.1272E+04  0.1272E+04
      6.173  0.0000E+00  0.0000E+00  0.1272E+04  0.1272E+04
      6.226  0.0000E+00  0.0000E+00  0.1272E+04  0.1272E+04
      6.279  0.0000E+00  0.0000E+00  0.1272E+04  0.1272E+04
      6.332  0.0000E+00  0.0000E+00  0.1272E+04  0.1272E+04
      6.384  0.0000E+00  0.0000E+00  0.1272E+04  0.1272E+04
      6.437  0.0000E+00  0.0000E+00  0.1272E+04  0.1272E+04
      6.490  0.0000E+00  0.0000E+00  0.1272E+04  0.1272E+04
      6.543  0.0000E+00  0.0000E+00  0.1272E+04  0.1272E+04
      6.596  0.0000E+00  0.0000E+00  0.1272E+04  0.1272E+04
      6.648  0.0000E+00  0.0000E+00  0.1272E+04  0.1272E+04
