 vasp.6.4.3 19Mar24 (build Oct 22 2024 11:23:12) complex                        
  
 executed on             LinuxIFC date 2025.06.10  21:45:51
 running   64 mpi-ranks, on    4 nodes
 distrk:  each k-point on   64 cores,    1 groups
 distr:  one band on NCORE=  16 cores,    4 groups


--------------------------------------------------------------------------------------------------------


 INCAR:
   SYSTEM = Si and Ge interface calculation
   ISTART = 0
   ICHARG = 2
   LWAVE = .FALSE.
   LREAL = AUTO
   ENCUT = 700
   ENAUG = 900
   ADDGRID = .TRUE.
   LMAXMIX = 6
   LASPH = .TRUE.
   LMIXTAU = .TRUE.
   NCORE = 16
   NELM = 100
   NBANDS = 634
   EDIFF = 1d-7
   AMIX = 0.6
   ISMEAR = 0
   SIGMA = 0.01
   NELECT = 1056
   ISPIN = 2
   NUPDOWN = 1
   LVTOT = .FALSE.
   LVHAR = .TRUE.

 POTCAR:    PAW_PBE Si 05Jan2001                  
 POTCAR:    PAW_PBE Sn 08Apr2002                  
 -----------------------------------------------------------------------------
|                                                                             |
|           W    W    AA    RRRRR   N    N  II  N    N   GGGG   !!!           |
|           W    W   A  A   R    R  NN   N  II  NN   N  G    G  !!!           |
|           W    W  A    A  R    R  N N  N  II  N N  N  G       !!!           |
|           W WW W  AAAAAA  RRRRR   N  N N  II  N  N N  G  GGG   !            |
|           WW  WW  A    A  R   R   N   NN  II  N   NN  G    G                |
|           W    W  A    A  R    R  N    N  II  N    N   GGGG   !!!           |
|                                                                             |
|     You use a magnetic or noncollinear calculation, but did not specify     |
|     the initial magnetic moment with the MAGMOM tag. Note that a            |
|     default of 3.788e-3 will be used for all atoms. This ferromagnetic      |
|     setup may break the symmetry of the crystal, in particular it may       |
|     rule out finding an antiferromagnetic solution. Thence, we              |
|     recommend setting the initial magnetic moment manually or verifying     |
|     carefully that this magnetic setup is desired.                          |
|                                                                             |
 -----------------------------------------------------------------------------

 POTCAR:    PAW_PBE Si 05Jan2001                  
   VRHFIN =Si: s2p2                                                                                 
   LEXCH  = PE                                                                                      
   EATOM  =   103.0669 eV,    7.5752 Ry                                                             
                                                                                                    
   TITEL  = PAW_PBE Si 05Jan2001                                                                    
   LULTRA =        F    use ultrasoft PP ?                                                          
   IUNSCR =        1    unscreen: 0-lin 1-nonlin 2-no                                               
   RPACOR =    1.500    partial core radius                                                         
   POMASS =   28.085; ZVAL   =    4.000    mass and valenz                                          
   RCORE  =    1.900    outmost cutoff radius                                                       
   RWIGS  =    2.480; RWIGS  =    1.312    wigner-seitz radius (au A)                               
   ENMAX  =  245.345; ENMIN  =  184.009 eV                                                          
   ICORE  =        2    local potential                                                             
   LCOR   =        T    correct aug charges                                                         
   LPAW   =        T    paw PP                                                                      
   EAUG   =  322.069                                                                                
   DEXC   =    0.000                                                                                
   RMAX   =    1.950    core radius for proj-oper                                                   
   RAUG   =    1.300    factor for augmentation sphere                                              
   RDEP   =    1.993    radius for radial grids                                                     
   RDEPT  =    1.837    core radius for aug-charge                                                  
                                                                                                    
   Atomic configuration                                                                             
    6 entries                                                                                       
     n  l   j            E        occ.                                                              
     1  0  0.50     -1785.8828   2.0000                                                             
     2  0  0.50      -139.4969   2.0000                                                             
     2  1  1.50       -95.5546   6.0000                                                             
     3  0  0.50       -10.8127   2.0000                                                             
     3  1  0.50        -4.0811   2.0000                                                             
     3  2  1.50        -4.0817   0.0000                                                             
   Description                                                                                      
     l       E           TYP  RCUT    TYP  RCUT                                                     
     0    -10.8127223     23  1.900                                                                 
     0     -7.6451159     23  1.900                                                                 
     1     -4.0811372     23  1.900                                                                 
     1      2.4879257     23  1.900                                                                 
     2     -4.0817478      7  1.900                                                                 
  local pseudopotential read in
  partial core-charges read in
  partial kinetic energy density read in
  atomic valenz-charges read in
  non local Contribution for L=           0  read in
    real space projection operators read in
  non local Contribution for L=           0  read in
    real space projection operators read in
  non local Contribution for L=           1  read in
    real space projection operators read in
  non local Contribution for L=           1  read in
    real space projection operators read in
    PAW grid and wavefunctions read in
 
   number of l-projection  operators is LMAX  =           4
   number of lm-projection operators is LMMAX =           8
 
 POTCAR:    PAW_PBE Sn 08Apr2002                  
   VRHFIN =Sn: s2p2                                                                                 
   LEXCH  = PE                                                                                      
   EATOM  =    94.0860 eV,    6.9151 Ry                                                             
                                                                                                    
   TITEL  = PAW_PBE Sn 08Apr2002                                                                    
   LULTRA =        F    use ultrasoft PP ?                                                          
   IUNSCR =        1    unscreen: 0-lin 1-nonlin 2-no                                               
   RPACOR =    2.000    partial core radius                                                         
   POMASS =  118.710; ZVAL   =    4.000    mass and valenz                                          
   RCORE  =    3.000    outmost cutoff radius                                                       
   RWIGS  =    2.960; RWIGS  =    1.566    wigner-seitz radius (au A)                               
   ENMAX  =  103.236; ENMIN  =   77.427 eV                                                          
   ICORE  =        3    local potential                                                             
   LCOR   =        T    correct aug charges                                                         
   LPAW   =        T    paw PP                                                                      
   EAUG   =  263.585                                                                                
   DEXC   =    0.000                                                                                
   RMAX   =    3.078    core radius for proj-oper                                                   
   RAUG   =    1.300    factor for augmentation sphere                                              
   RDEP   =    3.022    radius for radial grids                                                     
   RDEPT  =    2.655    core radius for aug-charge                                                  
                                                                                                    
   Atomic configuration                                                                             
   13 entries                                                                                       
     n  l   j            E        occ.                                                              
     1  0  0.50    -29007.2859   2.0000                                                             
     2  0  0.50     -4378.8056   2.0000                                                             
     2  1  1.50     -3930.4293   6.0000                                                             
     3  0  0.50      -845.0264   2.0000                                                             
     3  1  1.50      -698.5725   6.0000                                                             
     3  2  2.50      -473.2839  10.0000                                                             
     4  0  0.50      -133.9036   2.0000                                                             
     4  1  1.50       -89.6752   6.0000                                                             
     4  2  2.50       -25.8375  10.0000                                                             
     5  0  0.50       -10.5484   2.0000                                                             
     5  1  0.50        -3.6940   2.0000                                                             
     5  2  1.50        -1.3606   0.0000                                                             
     4  3  2.50        -4.0817   0.0000                                                             
   Description                                                                                      
     l       E           TYP  RCUT    TYP  RCUT                                                     
     0    -10.5483727     23  3.000                                                                 
     0     27.2116520     23  3.000                                                                 
     1     -3.6939829     23  3.000                                                                 
     1      1.9821976     23  3.000                                                                 
     2     -1.3605826     23  3.000                                                                 
     3     -2.7211652     23  3.000                                                                 
  local pseudopotential read in
  partial core-charges read in
  partial kinetic energy density read in
  atomic valenz-charges read in
  non local Contribution for L=           0  read in
    real space projection operators read in
  non local Contribution for L=           0  read in
    real space projection operators read in
  non local Contribution for L=           1  read in
    real space projection operators read in
  non local Contribution for L=           1  read in
    real space projection operators read in
  non local Contribution for L=           2  read in
    real space projection operators read in
    PAW grid and wavefunctions read in
 
   number of l-projection  operators is LMAX  =           5
   number of lm-projection operators is LMMAX =          13
 
 Optimization of the real space projectors (new method)

 maximal supplied QI-value         = 19.84
 optimisation between [QCUT,QGAM] = [ 13.49, 26.99] = [ 50.98,203.92] Ry 
 Optimized for a Real-space Cutoff    1.07 Angstroem

   l    n(q)    QCUT    max X(q) W(low)/X(q) W(high)/X(q)  e(spline) 
   0      9    13.493   159.560    0.22E-03    0.15E-03    0.72E-07
   0      9    13.493   115.863    0.21E-03    0.15E-03    0.71E-07
   1      8    13.493    88.339    0.15E-03    0.11E-03    0.13E-06
   1      8    13.493    48.592    0.15E-03    0.10E-03    0.13E-06
 Optimization of the real space projectors (new method)

 maximal supplied QI-value         = 12.47
 optimisation between [QCUT,QGAM] = [ 12.47, 27.06] = [ 43.56,205.12] Ry 
 Optimized for a Real-space Cutoff    1.58 Angstroem

   l    n(q)    QCUT    max X(q) W(low)/X(q) W(high)/X(q)  e(spline) 
   0     13    12.472    14.688    0.45E-04    0.45E-04    0.25E-05
   0     13    12.472     7.308    0.94E-04    0.11E-03    0.61E-05
   1     12    12.472    45.102    0.34E-03    0.14E-03    0.21E-05
   1     12    12.472    30.691    0.31E-03    0.13E-03    0.20E-05
   2     12    12.472     7.156    0.86E-04    0.11E-03    0.17E-05
 WARNING: PSMAXN for non-local potential too small
          PSMAXN should be >   13.5545592237991       NTYP=           2
  PAW_PBE Si 05Jan2001                  :
 energy of atom  1       EATOM= -103.0669
 kinetic energy error for atom=    0.0003 (will be added to EATOM!!)
  PAW_PBE Sn 08Apr2002                  :
 energy of atom  2       EATOM=  -94.0860
 kinetic energy error for atom=    0.0000 (will be added to EATOM!!)
 
 
 POSCAR: Si+Sn
  positions in direct lattice
  No initial velocities read in


 exchange-correlation table for PE
   RHO(1)=    0.500       N(1)  =     2000
   RHO(2)=  100.500       N(2)  =     4000
 


--------------------------------------------------------------------------------------------------------


 ion  position               nearest neighbor table
   1  0.996  0.997  0.000- 145 2.35  49 2.35  79 2.96 204 3.44
   2  0.881  0.920  0.142-  76 2.35 146 2.35  50 2.35 145 2.35
   3  0.765  0.843  0.284-  77 2.35  51 2.35 147 2.35 146 2.35
   4  0.073  0.382  0.000-  43 2.35 154 2.35  91 2.87
   5  0.508  0.867  0.805- 188 2.82  64 2.82 239 2.82  88 2.82
   6  0.842  0.228  0.284-  74 2.35 169 2.35 155 2.35 156 2.35
   7  0.227  0.151  0.000- 186 2.29 118 2.35  46 2.35
   8  0.111  0.074  0.142-  49 2.35  47 2.35 118 2.35 187 2.35
   9  0.996  0.997  0.284-  50 2.35 238 2.35 120 2.35 187 2.35
  10  0.150  0.766  0.000-  52 2.35 121 2.35 189 3.00
  11  0.034  0.690  0.142-  40 2.35 122 2.35 121 2.35  53 2.35
  12  0.919  0.613  0.284-  41 2.35 123 2.35 214 2.35 122 2.35
  13  0.304  0.536  0.000-  55 2.35 124 2.35  61 2.83
  14  0.188  0.459  0.142-  43 2.35 125 2.35 208 2.35 124 2.35
  15  0.073  0.382  0.284-  44 2.35 181 2.35 126 2.35 125 2.35
  16  0.457  0.305  0.000-  19 2.24 127 2.35  58 2.35
  17  0.342  0.228  0.142-  46 2.35 128 2.35 244 2.35 127 2.35
  18  0.341  0.033  0.465- 256 2.82 152 2.82  60 2.87 160 3.00
  19  0.425  0.283  0.890-  16 2.24 219 2.82 101 2.82
  20  0.496  0.997  0.142- 198 2.35 131 2.35 130 2.35  62 2.35
  21  0.381  0.920  0.284-  65 2.35  63 2.35 160 2.35 131 2.35
  22  0.381  0.920  0.000-  88 2.34 133 2.35 198 2.35
  23  0.841  0.533  0.805-  85 2.82 200 2.82 251 2.82 112 2.82
  24  0.150  0.766  0.284-  53 2.35  66 2.35 135 2.35 134 2.35
  25  0.758  0.283  0.890- 228 2.82 183 2.82  31 2.88 100 3.00
  26  0.419  0.613  0.142-  55 2.35 196 2.35  68 2.35 159 2.35
  27  0.304  0.536  0.284- 208 2.35 138 2.35  69 2.35 196 2.35
  28  0.688  0.459  0.000- 237 2.35  70 2.35 103 2.84
  29  0.175  0.533  0.805- 209 2.82  61 2.82 260 2.82 261 2.82
  30  0.008  0.700  0.465- 250 2.82 137 2.82 135 2.83 214 2.96
  31  0.842  0.228  0.000- 142 2.35  73 2.35  25 2.88 204 3.43
  32  0.727  0.151  0.142- 192 2.35  74 2.35 143 2.35 142 2.35
  33  0.611  0.074  0.284-  62 2.35 211 2.35  75 2.35 143 2.35
  34  0.925  0.783  0.890- 115 2.24 177 2.82  94 2.82
  35  0.650  0.766  0.142-  67 2.35 149 2.35  77 2.35 148 2.35
  36  0.534  0.690  0.284-  68 2.35 157 2.35 150 2.35 149 2.35
  37  0.919  0.613  0.000-  40 2.35 151 2.35
  38  0.804  0.536  0.142-  70 2.35  41 2.35 202 2.35 151 2.35
  39  0.688  0.459  0.284- 172 2.35  71 2.35 153 2.35 202 2.35
  40  0.015  0.593  0.071-  37 2.35  11 2.35  82 2.35  83 2.35
  41  0.900  0.516  0.213-  83 2.35  38 2.35  12 2.35  84 2.35
  42  0.841  0.200  0.465-  90 2.82  59 2.82 169 2.84 156 2.96
  43  0.169  0.363  0.071-  14 2.35   4 2.35  86 2.35 210 2.35
  44  0.054  0.286  0.213-  15 2.35 168 2.35  87 2.35  86 2.35
  45  0.841  0.533  0.465- 199 2.82 108 2.82 123 2.87 172 3.00
  46  0.323  0.132  0.071-  17 2.35   7 2.35 240 2.35  89 2.35
  47  0.207  0.055  0.213- 229 2.35   8 2.35  89 2.35 193 2.35
  48  0.758  0.950  0.550- 221 2.82 144 2.82 166 2.82 167 2.82
  49  0.092  0.978  0.071-   8 2.35   1 2.35 264 2.35  92 2.35
  50  0.977  0.901  0.213-   9 2.35   2 2.35  92 2.35  93 2.35
  51  0.861  0.824  0.355- 166 2.29   3 2.35  93 2.35
  52  0.246  0.747  0.071- 180 2.35  10 2.35 234 2.35  95 2.35
  53  0.131  0.670  0.213-  24 2.35  95 2.35  11 2.35  96 2.35
  54  0.675  0.700  0.465- 157 2.34 108 2.82 119 2.82
  55  0.400  0.516  0.071-  26 2.35  97 2.35  13 2.35  98 2.35
  56  0.258  0.450  0.550- 236 2.82 141 2.82 161 2.82 235 2.82
  57  0.175  0.200  0.465- 129 2.34 152 2.82 253 2.82
  58  0.554  0.286  0.071- 162 2.35 174 2.35 100 2.35  16 2.35
  59  0.758  0.283  0.550- 227 2.82 217 2.82  42 2.82 173 2.82
  60  0.323  0.132  0.355- 229 2.35 102 2.35  18 2.87
  61  0.258  0.450  0.890- 219 2.82  29 2.82  13 2.83 210 2.96
  62  0.592  0.978  0.213-  33 2.35 105 2.35 231 2.35  20 2.35
  63  0.477  0.901  0.355-  78 2.29  21 2.35 105 2.35
  64  0.591  0.783  0.890-   5 2.82 225 2.82 106 2.87 255 3.00
  65  0.361  0.824  0.213-  21 2.35 107 2.35 180 2.35 241 2.35
  66  0.246  0.747  0.355- 241 2.35  24 2.35  72 2.96 175 3.44
  67  0.631  0.670  0.071-  35 2.35 109 2.35 255 2.35 110 2.35
  68  0.515  0.593  0.213-  36 2.35 110 2.35  26 2.35 111 2.35
  69  0.400  0.516  0.355- 111 2.35  27 2.35 132 3.00
  70  0.784  0.440  0.071-  38 2.35 252 2.35 113 2.35  28 2.35
  71  0.669  0.363  0.213-  39 2.35 114 2.35 113 2.35 162 2.35
  72  0.341  0.700  0.465- 259 2.82 205 2.82 150 2.84  66 2.96
  73  0.938  0.209  0.071- 168 2.35 258 2.35  80 2.35  31 2.35
  74  0.823  0.132  0.213-   6 2.35  80 2.35  32 2.35  81 2.35
  75  0.707  0.055  0.355- 144 2.24  81 2.35  33 2.35
  76  0.861  0.824  0.071-   2 2.35 115 2.35 207 2.35 116 2.35
  77  0.746  0.747  0.213-   3 2.35 116 2.35  35 2.35 117 2.35
  78  0.508  0.867  0.465-  63 2.29 119 2.82 256 2.82
  79  0.091  0.950  0.890- 104 2.82 136 2.82 264 2.84   1 2.96
  80  0.919  0.113  0.142- 145 2.35  74 2.35 187 2.35  73 2.35
  81  0.804  0.036  0.284-  75 2.35 146 2.35 120 2.35  74 2.35
  82  0.111  0.574  0.000- 261 2.29  40 2.35 124 2.35
  83  0.996  0.497  0.142- 154 2.35  41 2.35  40 2.35 125 2.35
  84  0.881  0.420  0.284- 155 2.35 172 2.35 126 2.35  41 2.35
  85  0.925  0.450  0.890- 252 2.34  23 2.82 139 2.82
  86  0.150  0.266  0.142- 118 2.35  43 2.35 128 2.35  44 2.35
  87  0.034  0.190  0.284- 187 2.35 129 2.35  44 2.35 169 2.35
  88  0.425  0.950  0.890-  22 2.34 213 2.82   5 2.82
  89  0.304  0.036  0.142- 133 2.35  46 2.35  47 2.35 131 2.35
  90  0.925  0.117  0.550-  42 2.82 182 2.82 220 2.82 221 2.82
  91  0.091  0.283  0.890- 139 2.82 165 2.82   4 2.87 258 3.00
  92  0.073  0.882  0.142- 121 2.35  50 2.35 134 2.35  49 2.35
  93  0.957  0.805  0.284- 122 2.35  51 2.35 135 2.35  50 2.35
  94  0.008  0.700  0.805- 261 2.82 251 2.82 206 2.82  34 2.82
  95  0.227  0.651  0.142- 124 2.35  53 2.35 196 2.35  52 2.35
  96  0.111  0.574  0.284- 125 2.35 138 2.35 214 2.35  53 2.35
  97  0.496  0.497  0.000-  55 2.35 237 2.35 103 2.96 243 3.44
  98  0.381  0.420  0.142- 127 2.35 208 2.35 140 2.35  55 2.35
  99  0.265  0.343  0.284- 128 2.35 181 2.35 178 2.35 208 2.35
 100  0.650  0.266  0.000-  58 2.35 142 2.35  25 3.00
 101  0.508  0.200  0.805- 185 2.82 195 2.82 245 2.82  19 2.82
 102  0.419  0.113  0.284- 131 2.35 211 2.35 244 2.35  60 2.35
 103  0.591  0.450  0.890- 171 2.82 228 2.82  28 2.84  97 2.96
 104  0.008  0.033  0.805-  79 2.82 248 2.82 203 2.82 204 2.82
 105  0.573  0.882  0.284- 149 2.35  62 2.35 147 2.35  63 2.35
 106  0.573  0.882  0.000- 198 2.35 148 2.35  64 2.87
 107  0.457  0.805  0.142- 159 2.35  65 2.35 198 2.35 149 2.35
 108  0.758  0.617  0.550- 224 2.82  54 2.82  45 2.82 170 2.82
 109  0.727  0.651  0.000- 112 2.29  67 2.35 151 2.35
 110  0.611  0.574  0.142- 237 2.35  68 2.35 202 2.35  67 2.35
 111  0.496  0.497  0.284- 140 2.35  69 2.35 153 2.35  68 2.35
 112  0.758  0.617  0.890- 109 2.29 225 2.82  23 2.82
 113  0.765  0.343  0.142- 155 2.35 142 2.35  70 2.35  71 2.35
 114  0.650  0.266  0.284- 156 2.35  71 2.35 143 2.35 232 2.35
 115  0.957  0.805  0.000-  34 2.24 121 2.35  76 2.35
 116  0.842  0.728  0.142- 151 2.35  77 2.35 122 2.35  76 2.35
 117  0.727  0.651  0.284- 202 2.35 123 2.35 157 2.35  77 2.35
 118  0.131  0.170  0.071-  86 2.35   7 2.35 258 2.35   8 2.35
 119  0.591  0.783  0.550-  78 2.82 167 2.82  54 2.82 215 2.82
 120  0.900  0.016  0.355-   9 2.35  81 2.35 220 3.00
 121  0.054  0.786  0.071-  92 2.35 115 2.35  10 2.35  11 2.35
 122  0.938  0.709  0.213-  93 2.35 116 2.35  11 2.35  12 2.35
 123  0.823  0.632  0.355- 117 2.35  12 2.35  45 2.87
 124  0.207  0.555  0.071-  95 2.35  82 2.35  13 2.35  14 2.35
 125  0.092  0.478  0.213-  96 2.35  14 2.35  83 2.35  15 2.35
 126  0.977  0.401  0.355- 226 2.29  84 2.35  15 2.35
 127  0.361  0.324  0.071-  98 2.35 210 2.35  16 2.35  17 2.35
 128  0.246  0.247  0.213-  99 2.35  17 2.35  86 2.35 229 2.35
 129  0.131  0.170  0.355-  57 2.34  87 2.35 229 2.35
 130  0.515  0.093  0.071- 174 2.35 246 2.35 240 2.35  20 2.35
 131  0.400  0.016  0.213- 102 2.35  20 2.35  89 2.35  21 2.35
 132  0.508  0.533  0.465- 190 2.82 259 2.82 153 2.88  69 3.00
 133  0.284  0.940  0.071-  89 2.35  22 2.35 264 2.35 180 2.35
 134  0.169  0.863  0.213- 193 2.35 180 2.35  24 2.35  92 2.35
 135  0.054  0.786  0.355-  24 2.35  93 2.35  30 2.83
 136  0.175  0.867  0.805- 206 2.82 189 2.82 257 2.82  79 2.82
 137  0.925  0.783  0.550- 166 2.82 176 2.82  30 2.82 224 2.82
 138  0.207  0.555  0.355- 141 2.24  96 2.35  27 2.35
 139  0.008  0.367  0.805-  91 2.82 209 2.82 254 2.82  85 2.82
 140  0.477  0.401  0.213- 111 2.35 162 2.35  98 2.35 223 2.35
 141  0.175  0.533  0.465- 138 2.24  56 2.82 250 2.82
 142  0.746  0.247  0.071-  31 2.35 113 2.35 100 2.35  32 2.35
 143  0.631  0.170  0.213- 174 2.35 114 2.35  32 2.35  33 2.35
 144  0.675  0.033  0.465-  75 2.24  48 2.82 184 2.82
 145  0.900  0.016  0.071-   1 2.35  80 2.35 201 2.35   2 2.35
 146  0.784  0.940  0.213-  81 2.35   2 2.35 231 2.35   3 2.35
 147  0.669  0.863  0.355-   3 2.35 105 2.35
 148  0.669  0.863  0.071- 231 2.35 207 2.35 106 2.35  35 2.35
 149  0.554  0.786  0.213- 105 2.35  35 2.35 107 2.35  36 2.35
 150  0.438  0.709  0.355- 241 2.35  36 2.35  72 2.84
 151  0.823  0.632  0.071- 116 2.35  37 2.35  38 2.35 109 2.35
 152  0.258  0.117  0.550-  57 2.82 164 2.82 230 2.82  18 2.82
 153  0.592  0.478  0.355- 111 2.35  39 2.35 132 2.88 217 3.43
 154  0.977  0.401  0.071-  83 2.35 252 2.35   4 2.35 168 2.35
 155  0.861  0.324  0.213-  84 2.35 113 2.35 168 2.35   6 2.35
 156  0.746  0.247  0.355- 114 2.35   6 2.35  42 2.96 217 3.44
 157  0.631  0.670  0.355-  54 2.34 117 2.35  36 2.35
 158  0.341  0.867  0.635- 205 2.82 257 2.82 188 2.82 256 2.82
 159  0.438  0.709  0.071- 107 2.35 234 2.35 255 2.35  26 2.35
 160  0.284  0.940  0.355-  21 2.35 193 2.35  18 3.00 175 3.33
 161  0.341  0.533  0.635- 260 2.82  56 2.82 259 2.82 191 2.82
 162  0.573  0.382  0.142-  58 2.35 140 2.35 237 2.35  71 2.35
 163  0.508  0.200  0.465- 184 2.82 262 2.82 232 2.83 211 2.96
 164  0.341  0.200  0.635- 152 2.82 263 2.82 185 2.82 262 2.82
 165  0.175  0.200  0.805- 203 2.82 186 2.82 263 2.82  91 2.82
 166  0.841  0.867  0.465-  51 2.29 137 2.82  48 2.82
 167  0.675  0.867  0.635- 119 2.82 197 2.82 239 2.82  48 2.82
 168  0.957  0.305  0.142-  73 2.35  44 2.35 155 2.35 154 2.35
 169  0.938  0.209  0.355-   6 2.35  87 2.35  42 2.84
 170  0.675  0.533  0.635- 242 2.82 190 2.82 200 2.82 108 2.82
 171  0.508  0.533  0.805- 191 2.82 103 2.82 242 2.82 243 2.82
 172  0.784  0.440  0.355-  39 2.35  84 2.35  45 3.00 217 3.33
 173  0.675  0.200  0.635- 184 2.82 194 2.82 245 2.82  59 2.82
 174  0.534  0.190  0.142- 130 2.35 143 2.35  58 2.35 244 2.35
 175  0.175  0.867  0.465- 205 2.82 247 2.82 160 3.33 238 3.43  66 3.44
 176  0.008  0.867  0.635- 248 2.82 137 2.82 206 2.82 247 2.82
 177  0.841  0.867  0.805-  34 2.82 197 2.82 248 2.82 249 2.82
 178  0.361  0.324  0.355- 235 2.29 223 2.35  99 2.35
 179  0.008  0.533  0.635- 251 2.82 199 2.82 250 2.82 209 2.82
 180  0.265  0.843  0.142-  52 2.35 134 2.35 133 2.35  65 2.35
 181  0.169  0.363  0.355-  99 2.35  15 2.35
 182  0.008  0.200  0.635- 254 2.82  90 2.82 203 2.82 253 2.82
 183  0.841  0.200  0.805- 204 2.82 194 2.82 254 2.82  25 2.82
 184  0.591  0.117  0.550- 163 2.82 173 2.82 144 2.82 212 2.82
 185  0.425  0.117  0.720- 101 2.82 164 2.82 212 2.82 213 2.82
 186  0.258  0.117  0.890-   7 2.29 165 2.82 213 2.82
 187  0.015  0.093  0.213-  87 2.35  80 2.35   8 2.35   9 2.35
 188  0.425  0.783  0.720-   5 2.82 215 2.82 158 2.82 216 2.82
 189  0.258  0.783  0.890- 136 2.82 216 2.82 234 2.88  10 3.00
 190  0.591  0.450  0.550- 217 2.82 218 2.82 132 2.82 170 2.82
 191  0.425  0.450  0.720- 218 2.82 171 2.82 219 2.82 161 2.82
 192  0.707  0.055  0.071-  32 2.35 231 2.35 201 2.35 246 2.35
 193  0.188  0.959  0.284- 134 2.35 160 2.35 238 2.35  47 2.35
 194  0.758  0.117  0.720- 173 2.82 183 2.82 221 2.82 222 2.82
 195  0.591  0.117  0.890- 246 2.29 101 2.82 222 2.82
 196  0.323  0.632  0.213- 241 2.35  95 2.35  26 2.35  27 2.35
 197  0.758  0.783  0.720- 167 2.82 177 2.82 224 2.82 225 2.82
 198  0.477  0.901  0.071-  20 2.35 106 2.35  22 2.35 107 2.35
 199  0.925  0.450  0.550-  45 2.82 226 2.82 227 2.82 179 2.82
 200  0.758  0.450  0.720- 227 2.82 228 2.82 170 2.82  23 2.82
 201  0.804  0.036  0.000- 192 2.35 145 2.35 249 2.83 204 3.54
 202  0.707  0.555  0.213- 117 2.35  38 2.35  39 2.35 110 2.35
 203  0.091  0.117  0.720- 165 2.82 182 2.82 230 2.82 104 2.82
 204  0.925  0.117  0.890- 183 2.82 104 2.82 258 3.33  31 3.43   1 3.44 201 3.54
 205  0.258  0.783  0.550- 175 2.82 158 2.82 233 2.82  72 2.82
 206  0.091  0.783  0.720- 136 2.82 233 2.82 176 2.82  94 2.82
 207  0.765  0.843  0.000- 148 2.35  76 2.35 249 2.96
 208  0.284  0.440  0.213-  27 2.35  98 2.35  14 2.35  99 2.35
 209  0.091  0.450  0.720-  29 2.82 236 2.82 139 2.82 179 2.82
 210  0.265  0.343  0.000- 127 2.35  43 2.35  61 2.96
 211  0.515  0.093  0.355-  33 2.35 102 2.35 163 2.96
 212  0.508  0.033  0.635- 239 2.82 256 2.82 185 2.82 184 2.82
 213  0.341  0.033  0.805- 257 2.82  88 2.82 186 2.82 185 2.82
 214  0.015  0.593  0.355-  12 2.35  96 2.35  30 2.96
 215  0.508  0.700  0.635- 242 2.82 259 2.82 188 2.82 119 2.82
 216  0.341  0.700  0.805- 260 2.82 243 2.82 189 2.82 188 2.82
 217  0.675  0.367  0.465- 190 2.82  59 2.82 172 3.33 153 3.43 156 3.44 232 3.54
 218  0.508  0.367  0.635- 191 2.82 245 2.82 190 2.82 262 2.82
 219  0.341  0.367  0.805-  61 2.82 263 2.82  19 2.82 191 2.82
 220  0.008  0.033  0.465- 247 2.82  90 2.82 238 2.88 120 3.00
 221  0.841  0.033  0.635-  48 2.82 248 2.82 194 2.82  90 2.82
 222  0.675  0.033  0.805- 239 2.82 249 2.82 194 2.82 195 2.82
 223  0.457  0.305  0.284- 178 2.35 244 2.35 232 2.35 140 2.35
 224  0.841  0.700  0.635- 108 2.82 251 2.82 197 2.82 137 2.82
 225  0.675  0.700  0.805- 242 2.82 112 2.82 197 2.82  64 2.82
 226  0.008  0.367  0.465- 126 2.29 199 2.82 253 2.82
 227  0.841  0.367  0.635- 200 2.82  59 2.82 199 2.82 254 2.82
 228  0.675  0.367  0.805- 245 2.82 200 2.82 103 2.82  25 2.82
 229  0.227  0.151  0.284-  47 2.35  60 2.35 129 2.35 128 2.35
 230  0.175  0.033  0.635- 257 2.82 247 2.82 203 2.82 152 2.82
 231  0.688  0.959  0.142- 148 2.35 192 2.35  62 2.35 146 2.35
 232  0.554  0.286  0.355- 114 2.35 223 2.35 163 2.83 217 3.54
 233  0.175  0.700  0.635- 260 2.82 250 2.82 206 2.82 205 2.82
 234  0.342  0.728  0.000- 159 2.35  52 2.35 189 2.88 243 3.43
 235  0.341  0.367  0.465- 178 2.29 262 2.82  56 2.82
 236  0.175  0.367  0.635- 209 2.82 263 2.82  56 2.82 253 2.82
 237  0.592  0.478  0.071- 110 2.35  28 2.35  97 2.35 162 2.35
 238  0.092  0.978  0.355-   9 2.35 193 2.35 220 2.88 175 3.43
 239  0.591  0.950  0.720- 212 2.82 222 2.82 167 2.82   5 2.82
 240  0.419  0.113  0.000- 130 2.35  46 2.35
 241  0.342  0.728  0.284- 196 2.35  66 2.35 150 2.35  65 2.35
 242  0.591  0.617  0.720- 215 2.82 225 2.82 170 2.82 171 2.82
 243  0.425  0.617  0.890- 216 2.82 171 2.82 255 3.33 234 3.43  97 3.44
 244  0.438  0.209  0.213- 223 2.35 102 2.35  17 2.35 174 2.35
 245  0.591  0.283  0.720- 218 2.82 173 2.82 228 2.82 101 2.82
 246  0.611  0.074  0.000- 195 2.29 130 2.35 192 2.35
 247  0.091  0.950  0.550- 220 2.82 230 2.82 175 2.82 176 2.82
 248  0.925  0.950  0.720- 176 2.82 104 2.82 221 2.82 177 2.82
 249  0.758  0.950  0.890- 222 2.82 177 2.82 201 2.83 207 2.96
 250  0.091  0.617  0.550-  30 2.82 233 2.82 141 2.82 179 2.82
 251  0.925  0.617  0.720- 179 2.82  94 2.82 224 2.82  23 2.82
 252  0.881  0.420  0.000-  85 2.34  70 2.35 154 2.35
 253  0.091  0.283  0.550- 226 2.82  57 2.82 236 2.82 182 2.82
 254  0.925  0.283  0.720- 182 2.82 139 2.82 227 2.82 183 2.82
 255  0.534  0.690  0.000- 159 2.35  67 2.35  64 3.00 243 3.33
 256  0.425  0.950  0.550-  18 2.82 212 2.82  78 2.82 158 2.82
 257  0.258  0.950  0.720- 230 2.82 213 2.82 158 2.82 136 2.82
 258  0.034  0.190  0.000-  73 2.35 118 2.35  91 3.00 204 3.33
 259  0.425  0.617  0.550-  72 2.82 215 2.82 132 2.82 161 2.82
 260  0.258  0.617  0.720- 233 2.82 216 2.82 161 2.82  29 2.82
 261  0.091  0.617  0.890-  82 2.29  94 2.82  29 2.82
 262  0.425  0.283  0.550- 235 2.82 163 2.82 218 2.82 164 2.82
 263  0.258  0.283  0.720- 236 2.82 164 2.82 219 2.82 165 2.82
 264  0.188  0.959  0.000- 133 2.35  49 2.35  79 2.84
 
  LATTYP: Found a simple tetragonal cell.
 ALAT       =    19.5817508700
 C/A-ratio  =     0.9754107470
  
  Lattice vectors:
  
 A1 = (  19.5817508700,   0.0000000000,   0.0000000000)
 A2 = (   0.0000000000,  19.5817489620,   0.0000000000)
 A3 = (   0.0000000000,   0.0000000000,  19.1002502440)


Analysis of symmetry for initial positions (statically):
=====================================================================
 Subroutine PRICEL returns:
 Original cell was already a primitive cell.
 

 Routine SETGRP: Setting up the symmetry group for a 
 simple tetragonal supercell.


 Subroutine GETGRP returns: Found  1 space group operations
 (whereof  1 operations were pure point group operations)
 out of a pool of 16 trial point group operations.


The static configuration has the point symmetry C_1 .


Analysis of symmetry for dynamics (positions and initial velocities):
=====================================================================
 Subroutine PRICEL returns:
 Original cell was already a primitive cell.
 

 Routine SETGRP: Setting up the symmetry group for a 
 simple tetragonal supercell.


 Subroutine GETGRP returns: Found  1 space group operations
 (whereof  1 operations were pure point group operations)
 out of a pool of 16 trial point group operations.


The dynamic configuration has the point symmetry C_1 .


Analysis of structural, dynamic, and magnetic symmetry:
=====================================================================
 Subroutine PRICEL returns:
 Original cell was already a primitive cell.
 

 Routine SETGRP: Setting up the symmetry group for a 
 simple tetragonal supercell.


 Subroutine GETGRP returns: Found  1 space group operations
 (whereof  1 operations were pure point group operations)
 out of a pool of 16 trial point group operations.


The overall configuration has the point symmetry C_1 .


 Subroutine INISYM returns: Found  1 space group operations
 (whereof  1 operations are pure point group operations),
 and found     1 'primitive' translations


----------------------------------------------------------------------------------------

                                     Primitive cell                                     

  volume of cell :    7323.8941

  direct lattice vectors                    reciprocal lattice vectors
    19.581750870  0.000000000  0.000000000     0.051067956  0.000000000  0.000000000
     0.000000000 19.581748962  0.000000000     0.000000000  0.051067961  0.000000000
     0.000000000  0.000000000 19.100250244     0.000000000  0.000000000  0.052355335

  length of vectors
    19.581750870 19.581748962 19.100250244     0.051067956  0.051067961  0.052355335

  position of ions in fractional coordinates (direct lattice)
     0.995893002  0.997262001  0.000000000
     0.880508363  0.920338869  0.142170906
     0.765123725  0.843415737  0.284341902
     0.072816126  0.381877452  0.000000000
     0.507855654  0.866666675  0.805117786
     0.842046797  0.228031158  0.284341902
     0.226662278  0.151108176  0.000000000
     0.111277618  0.074185051  0.142170906
     0.995892942  0.997261941  0.284341902
     0.149739221  0.766492844  0.000000000
     0.034354534  0.689569712  0.142170906
     0.918969870  0.612646580  0.284341902
     0.303585410  0.535723567  0.000000000
     0.188200727  0.458800435  0.142170906
     0.072816066  0.381877303  0.284341902
     0.457431555  0.304954350  0.000000000
     0.342046857  0.228031203  0.142170906
     0.341189146  0.033333302  0.465373576
     0.424522281  0.283333361  0.890053868
     0.495893002  0.997261941  0.142170906
     0.380508363  0.920338809  0.284341902
     0.380508512  0.920339048  0.000000000
     0.841189027  0.533333361  0.805117786
     0.149739176  0.766492724  0.284341902
     0.757855654  0.283333361  0.890053868
     0.418969929  0.612646580  0.142170906
     0.303585261  0.535723448  0.284341902
     0.688200712  0.458800495  0.000000000
     0.174522281  0.533333361  0.805117786
     0.007855654  0.699999988  0.465373576
     0.842046916  0.228031188  0.000000000
     0.726662278  0.151108041  0.142170906
     0.611277580  0.074184909  0.284341902
     0.924522340  0.783333421  0.890053868
     0.649739265  0.766492724  0.142170906
     0.534354568  0.689569592  0.284341902
     0.918970048  0.612646639  0.000000000
     0.803585410  0.535723507  0.142170906
     0.688200712  0.458800375  0.284341902
     0.015123837  0.593415856  0.071085475
     0.899739206  0.516492724  0.213256419
     0.841189027  0.200000003  0.465373576
     0.168969959  0.362646669  0.071085475
     0.053585295  0.285723537  0.213256419
     0.841189027  0.533333361  0.465373576
     0.322816133  0.131877407  0.071085475
     0.207431450  0.054954268  0.213256419
     0.757855654  0.950000048  0.550309598
     0.092046887  0.978031278  0.071085475
     0.976662219  0.901108146  0.213256419
     0.861277521  0.824185014  0.355427384
     0.245893061  0.747262061  0.071085475
     0.130508408  0.670338929  0.213256419
     0.674522281  0.699999988  0.465373576
     0.399739265  0.516492844  0.071085475
     0.257855654  0.449999988  0.550309598
     0.174522400  0.200000003  0.465373576
     0.553585410  0.285723537  0.071085475
     0.757855654  0.283333361  0.550309598
     0.322816044  0.131877258  0.355427384
     0.257855654  0.449999988  0.890053868
     0.592046857  0.978031158  0.213256419
     0.476662189  0.901108027  0.355427384
     0.591188908  0.783333421  0.890053868
     0.361277699  0.824185073  0.213256419
     0.245893002  0.747261941  0.355427384
     0.630508542  0.670338988  0.071085475
     0.515123844  0.593415797  0.213256419
     0.399739146  0.516492665  0.355427384
     0.784354687  0.439569712  0.071085475
     0.668969989  0.362646550  0.213256419
     0.341189146  0.699999988  0.465373576
     0.938200831  0.208800495  0.071085475
     0.822816133  0.131877348  0.213256419
     0.707431436  0.054954205  0.355427384
     0.861277878  0.824185133  0.071085475
     0.745893180  0.747262001  0.213256419
     0.507855654  0.866666675  0.465373576
     0.091188908  0.950000048  0.890053868
     0.918969929  0.112646602  0.142170906
     0.803585231  0.035723470  0.284341902
     0.111277662  0.574185073  0.000000000
     0.995893002  0.497262001  0.142170906
     0.880508304  0.420338839  0.284341902
     0.924522340  0.449999988  0.890053868
     0.149739191  0.266492784  0.142170906
     0.034354493  0.189569652  0.284341902
     0.424522281  0.950000048  0.890053868
     0.303585321  0.035723474  0.142170906
     0.924522281  0.116666794  0.550309598
     0.091188908  0.283333361  0.890053868
     0.072816059  0.881877303  0.142170906
     0.957431376  0.804954231  0.284341902
     0.007855773  0.699999988  0.805117786
     0.226662233  0.651108146  0.142170906
     0.111277573  0.574185014  0.284341902
     0.495893091  0.497262001  0.000000000
     0.380508423  0.420338869  0.142170906
     0.265123725  0.343415737  0.284341902
     0.649739265  0.266492784  0.000000000
     0.507855654  0.200000003  0.805117786
     0.418969929  0.112646520  0.284341902
     0.591188908  0.449999988  0.890053868
     0.007855773  0.033333302  0.805117786
     0.572816074  0.881877303  0.284341902
     0.572816133  0.881877363  0.000000000
     0.457431436  0.804954290  0.142170906
     0.757855654  0.616666734  0.550309598
     0.726662338  0.651108146  0.000000000
     0.611277640  0.574185014  0.142170906
     0.495892942  0.497261852  0.284341902
     0.757855654  0.616666734  0.890053868
     0.765123844  0.343415856  0.142170906
     0.649739146  0.266492724  0.284341902
     0.957431614  0.804954290  0.000000000
     0.842046916  0.728031158  0.142170906
     0.726662278  0.651108027  0.284341902
     0.130508438  0.170338959  0.071085475
     0.591188967  0.783333421  0.550309598
     0.899739087  0.016492693  0.355427384
     0.053585343  0.785723627  0.071085475
     0.938200712  0.708800435  0.213256419
     0.822816014  0.631877303  0.355427384
     0.207431525  0.554954410  0.071085475
     0.092046872  0.478031248  0.213256419
     0.976662159  0.401108086  0.355427384
     0.361277699  0.324185133  0.071085475
     0.245893031  0.247262001  0.213256419
     0.130508333  0.170338854  0.355427384
     0.515123844  0.093415849  0.071085475
     0.399739206  0.016492724  0.213256419
     0.507855654  0.533333361  0.465373576
     0.284354657  0.939569831  0.071085475
     0.168969989  0.862646639  0.213256419
     0.053585291  0.785723507  0.355427384
     0.174522281  0.866666675  0.805117786
     0.924522281  0.783333421  0.550309598
     0.207431406  0.554954290  0.355427384
     0.007855773  0.366666675  0.805117786
     0.476662278  0.401108146  0.213256419
     0.174522400  0.533333361  0.465373576
     0.745893121  0.247262001  0.071085475
     0.630508423  0.170338869  0.213256419
     0.674522281  0.033333302  0.465373576
     0.899739265  0.016492788  0.071085475
     0.784354568  0.939569652  0.213256419
     0.668969929  0.862646520  0.355427384
     0.668970108  0.862646759  0.071085475
     0.553585410  0.785723627  0.213256419
     0.438200712  0.708800495  0.355427384
     0.822816253  0.631877422  0.071085475
     0.257855654  0.116666794  0.550309598
     0.592046797  0.478031129  0.355427384
     0.976662278  0.401108235  0.071085475
     0.861277580  0.324185073  0.213256419
     0.745892882  0.247261927  0.355427384
     0.630508423  0.670338809  0.355427384
     0.341188908  0.866666675  0.635245681
     0.438200772  0.708800614  0.071085475
     0.284354508  0.939569533  0.355427384
     0.341188908  0.533333361  0.635245681
     0.572816074  0.381877363  0.142170906
     0.507855654  0.200000003  0.465373576
     0.341188908  0.200000003  0.635245681
     0.174522281  0.200000003  0.805117786
     0.841189027  0.866666675  0.465373576
     0.674522281  0.866666675  0.635245681
     0.957431436  0.304954290  0.142170906
     0.938200593  0.208800375  0.355427384
     0.674522281  0.533333361  0.635245681
     0.507855654  0.533333361  0.805117786
     0.784354508  0.439569622  0.355427384
     0.674522281  0.200000003  0.635245681
     0.534354627  0.189569652  0.142170906
     0.174522400  0.866666675  0.465373576
     0.007855654  0.866666675  0.635245681
     0.841189027  0.866666675  0.805117786
     0.361277610  0.324185014  0.355427384
     0.007855654  0.533333361  0.635245681
     0.265123844  0.843415916  0.142170906
     0.168969929  0.362646550  0.355427384
     0.007855654  0.200000003  0.635245681
     0.841189027  0.200000003  0.805117786
     0.591188967  0.116666794  0.550309598
     0.424522400  0.116666794  0.720181704
     0.257855654  0.116666794  0.890053868
     0.015123768  0.093415834  0.213256419
     0.424522400  0.783333421  0.720181704
     0.257855654  0.783333421  0.890053868
     0.591188967  0.449999988  0.550309598
     0.424522400  0.449999988  0.720181704
     0.707431555  0.054954302  0.071085475
     0.188200638  0.958800316  0.284341902
     0.757855654  0.116666794  0.720181704
     0.591188908  0.116666794  0.890053868
     0.322816074  0.631877422  0.213256419
     0.757855654  0.783333421  0.720181704
     0.476662397  0.901108205  0.071085475
     0.924522281  0.449999988  0.550309598
     0.757855654  0.449999988  0.720181704
     0.803585410  0.035723574  0.000000000
     0.707431555  0.554954290  0.213256419
     0.091189146  0.116666794  0.720181704
     0.924522340  0.116666794  0.890053868
     0.257855654  0.783333421  0.550309598
     0.091189146  0.783333421  0.720181704
     0.765123904  0.843415856  0.000000000
     0.284354597  0.439569682  0.213256419
     0.091189146  0.449999988  0.720181704
     0.265123844  0.343415916  0.000000000
     0.515123785  0.093415722  0.355427384
     0.507855654  0.033333302  0.635245681
     0.341188908  0.033333302  0.805117786
     0.015123715  0.593415797  0.355427384
     0.507855654  0.699999988  0.635245681
     0.341188908  0.699999988  0.805117786
     0.674522281  0.366666675  0.465373576
     0.507855654  0.366666675  0.635245681
     0.341188908  0.366666675  0.805117786
     0.007855654  0.033333302  0.465373576
     0.841188967  0.033333302  0.635245681
     0.674522281  0.033333302  0.805117786
     0.457431376  0.304954231  0.284341902
     0.841188967  0.699999988  0.635245681
     0.674522281  0.699999988  0.805117786
     0.007855654  0.366666675  0.465373576
     0.841188967  0.366666675  0.635245681
     0.674522281  0.366666675  0.805117786
     0.226662204  0.151108071  0.284341902
     0.174522400  0.033333302  0.635245681
     0.688200712  0.958800435  0.142170906
     0.553585291  0.285723418  0.355427384
     0.174522400  0.699999988  0.635245681
     0.342046916  0.728031278  0.000000000
     0.341189146  0.366666675  0.465373576
     0.174522400  0.366666675  0.635245681
     0.592046976  0.478031278  0.071085475
     0.092046767  0.978031158  0.355427384
     0.591188967  0.950000048  0.720181704
     0.418969989  0.112646602  0.000000000
     0.342046797  0.728031099  0.284341902
     0.591188967  0.616666734  0.720181704
     0.424522281  0.616666734  0.890053868
     0.438200712  0.208800390  0.213256419
     0.591188967  0.283333361  0.720181704
     0.611277699  0.074185103  0.000000000
     0.091189027  0.950000048  0.550309598
     0.924522400  0.950000048  0.720181704
     0.757855654  0.950000048  0.890053868
     0.091189027  0.616666734  0.550309598
     0.924522400  0.616666734  0.720181704
     0.880508482  0.420338988  0.000000000
     0.091189027  0.283333361  0.550309598
     0.924522400  0.283333361  0.720181704
     0.534354627  0.689569712  0.000000000
     0.424522281  0.950000048  0.550309598
     0.257855654  0.950000048  0.720181704
     0.034354586  0.189569741  0.000000000
     0.424522281  0.616666734  0.550309598
     0.257855654  0.616666734  0.720181704
     0.091188908  0.616666734  0.890053868
     0.424522281  0.283333361  0.550309598
     0.257855654  0.283333361  0.720181704
     0.188200757  0.958800435  0.000000000

  ion indices of the primitive-cell ions
   primitive index   ion index
                 1           1
                 2           2
                 3           3
                 4           4
                 5           5
                 6           6
                 7           7
                 8           8
                 9           9
                10          10
                11          11
                12          12
                13          13
                14          14
                15          15
                16          16
                17          17
                18          18
                19          19
                20          20
                21          21
                22          22
                23          23
                24          24
                25          25
                26          26
                27          27
                28          28
                29          29
                30          30
                31          31
                32          32
                33          33
                34          34
                35          35
                36          36
                37          37
                38          38
                39          39
                40          40
                41          41
                42          42
                43          43
                44          44
                45          45
                46          46
                47          47
                48          48
                49          49
                50          50
                51          51
                52          52
                53          53
                54          54
                55          55
                56          56
                57          57
                58          58
                59          59
                60          60
                61          61
                62          62
                63          63
                64          64
                65          65
                66          66
                67          67
                68          68
                69          69
                70          70
                71          71
                72          72
                73          73
                74          74
                75          75
                76          76
                77          77
                78          78
                79          79
                80          80
                81          81
                82          82
                83          83
                84          84
                85          85
                86          86
                87          87
                88          88
                89          89
                90          90
                91          91
                92          92
                93          93
                94          94
                95          95
                96          96
                97          97
                98          98
                99          99
               100         100
               101         101
               102         102
               103         103
               104         104
               105         105
               106         106
               107         107
               108         108
               109         109
               110         110
               111         111
               112         112
               113         113
               114         114
               115         115
               116         116
               117         117
               118         118
               119         119
               120         120
               121         121
               122         122
               123         123
               124         124
               125         125
               126         126
               127         127
               128         128
               129         129
               130         130
               131         131
               132         132
               133         133
               134         134
               135         135
               136         136
               137         137
               138         138
               139         139
               140         140
               141         141
               142         142
               143         143
               144         144
               145         145
               146         146
               147         147
               148         148
               149         149
               150         150
               151         151
               152         152
               153         153
               154         154
               155         155
               156         156
               157         157
               158         158
               159         159
               160         160
               161         161
               162         162
               163         163
               164         164
               165         165
               166         166
               167         167
               168         168
               169         169
               170         170
               171         171
               172         172
               173         173
               174         174
               175         175
               176         176
               177         177
               178         178
               179         179
               180         180
               181         181
               182         182
               183         183
               184         184
               185         185
               186         186
               187         187
               188         188
               189         189
               190         190
               191         191
               192         192
               193         193
               194         194
               195         195
               196         196
               197         197
               198         198
               199         199
               200         200
               201         201
               202         202
               203         203
               204         204
               205         205
               206         206
               207         207
               208         208
               209         209
               210         210
               211         211
               212         212
               213         213
               214         214
               215         215
               216         216
               217         217
               218         218
               219         219
               220         220
               221         221
               222         222
               223         223
               224         224
               225         225
               226         226
               227         227
               228         228
               229         229
               230         230
               231         231
               232         232
               233         233
               234         234
               235         235
               236         236
               237         237
               238         238
               239         239
               240         240
               241         241
               242         242
               243         243
               244         244
               245         245
               246         246
               247         247
               248         248
               249         249
               250         250
               251         251
               252         252
               253         253
               254         254
               255         255
               256         256
               257         257
               258         258
               259         259
               260         260
               261         261
               262         262
               263         263
               264         264

----------------------------------------------------------------------------------------

 
 
 KPOINTS: Automatic KPOINTS generated             

Automatic generation of k-mesh.
 Grid dimensions read from file:
 generate k-points for:    2    2    2

 Generating k-lattice:

  Cartesian coordinates                     Fractional coordinates (reciprocal lattice)
     0.025533978  0.000000000  0.000000000     0.500000000  0.000000000  0.000000000
     0.000000000  0.025533981  0.000000000     0.000000000  0.500000000  0.000000000
     0.000000000  0.000000000  0.026177667     0.000000000  0.000000000  0.500000000

  Length of vectors
     0.025533978  0.025533981  0.026177667

  Shift w.r.t. Gamma in fractional coordinates (k-lattice)
     0.000000000  0.000000000  0.000000000

 
 Subroutine IBZKPT returns following result:
 ===========================================
 
 Found      8 irreducible k-points:
 
 Following reciprocal coordinates:
            Coordinates               Weight
  0.000000  0.000000  0.000000      1.000000
  0.500000  0.000000  0.000000      1.000000
  0.000000  0.500000  0.000000      1.000000
  0.500000  0.500000  0.000000      1.000000
  0.000000  0.000000  0.500000      1.000000
  0.500000  0.000000  0.500000      1.000000
  0.000000  0.500000  0.500000      1.000000
  0.500000  0.500000  0.500000      1.000000
 
 Following cartesian coordinates:
            Coordinates               Weight
  0.000000  0.000000  0.000000      1.000000
  0.025534  0.000000  0.000000      1.000000
  0.000000  0.025534  0.000000      1.000000
  0.025534  0.025534  0.000000      1.000000
  0.000000  0.000000  0.026178      1.000000
  0.025534  0.000000  0.026178      1.000000
  0.000000  0.025534  0.026178      1.000000
  0.025534  0.025534  0.026178      1.000000
 
 -----------------------------------------------------------------------------
|                                                                             |
|           W    W    AA    RRRRR   N    N  II  N    N   GGGG   !!!           |
|           W    W   A  A   R    R  NN   N  II  NN   N  G    G  !!!           |
|           W    W  A    A  R    R  N N  N  II  N N  N  G       !!!           |
|           W WW W  AAAAAA  RRRRR   N  N N  II  N  N N  G  GGG   !            |
|           WW  WW  A    A  R   R   N   NN  II  N   NN  G    G                |
|           W    W  A    A  R    R  N    N  II  N    N   GGGG   !!!           |
|                                                                             |
|     The number of bands has been changed from the values supplied in        |
|     the INCAR file. This is a result of running the parallel version.       |
|     The orbitals not found in the WAVECAR file will be initialized with     |
|     random numbers, which is usually adequate. For correlated               |
|     calculations, however, you should redo the groundstate calculation.     |
|     I found NBANDS = 634. Now, NBANDS = 636.                                |
|                                                                             |
 -----------------------------------------------------------------------------



--------------------------------------------------------------------------------------------------------




 Dimension of arrays:
   k-points           NKPTS =      8   k-points in BZ     NKDIM =      8   number of bands    NBANDS=    636
   number of dos      NEDOS =    301   number of ions     NIONS =    264
   non local maximal  LDIM  =      5   non local SUM 2l+1 LMDIM =     13
   total plane-waves  NPLWV = ******
   max r-space proj   IRMAX =   4693   max aug-charges    IRDMAX= 217232
   dimension x,y,z NGX =   128 NGY =  128 NGZ =  126
   dimension x,y,z NGXF=   256 NGYF=  256 NGZF=  252
   support grid    NGXF=   512 NGYF=  512 NGZF=  504
   ions per type =             156 108
   NGX,Y,Z   is equivalent  to a cutoff of  10.87, 10.87, 10.97 a.u.
   NGXF,Y,Z  is equivalent  to a cutoff of  21.73, 21.73, 21.93 a.u.

 SYSTEM =  Si and Ge interface calculation         
 POSCAR =  Si+Sn                                   

 Startparameter for this run:
   NWRITE =      2    write-flag & timer
   PREC   = normal    normal or accurate (medium, high low for compatibility)
   ISTART =      0    job   : 0-new  1-cont  2-samecut
   ICHARG =      2    charge: 1-file 2-atom 10-const
   ISPIN  =      2    spin polarized calculation?
   LNONCOLLINEAR =      F non collinear calculations
   LSORBIT =      F    spin-orbit coupling
   INIWAV =      1    electr: 0-lowe 1-rand  2-diag
   LASPH  =      T    aspherical Exc in radial PAW
 Electronic Relaxation 1
   ENCUT  =  700.0 eV  51.45 Ry    7.17 a.u.  42.24 42.24 41.20*2*pi/ulx,y,z
   ENINI  =  700.0     initial cutoff
   ENAUG  =  900.0 eV  augmentation charge cutoff
   NELM   =    100;   NELMIN=  2; NELMDL= -5     # of ELM steps 
   EDIFF  = 0.1E-06   stopping-criterion for ELM
   LREAL  =      T    real-space projection
   NLSPLINE    = F    spline interpolate recip. space projectors
   LCOMPAT=      F    compatible to vasp.4.4
   GGA_COMPAT  = T    GGA compatible to vasp.4.4-vasp.4.6
   LMAXPAW     = -100 max onsite density
   LMAXMIX     =    6 max onsite mixed and CHGCAR
   VOSKOWN=      0    Vosko Wilk Nusair interpolation
   ROPT   =   -0.00050  -0.00050
 Ionic relaxation
   EDIFFG = 0.1E-05   stopping-criterion for IOM
   NSW    =      0    number of steps for IOM
   NBLOCK =      1;   KBLOCK =      1    inner block; outer block 
   IBRION =     -1    ionic relax: 0-MD 1-quasi-New 2-CG
   NFREE  =      0    steps in history (QN), initial steepest desc. (CG)
   ISIF   =      2    stress and relaxation
   IWAVPR =     10    prediction:  0-non 1-charg 2-wave 3-comb
   ISYM   =      2    0-nonsym 1-usesym 2-fastsym
   LCORR  =      T    Harris-Foulkes like correction to forces

   POTIM  = 0.5000    time-step for ionic-motion
   TEIN   =    0.0    initial temperature
   TEBEG  =    0.0;   TEEND  =   0.0 temperature during run
   SMASS  =  -3.00    Nose mass-parameter (am)
   estimated Nose-frequenzy (Omega)   =  0.10E-29 period in steps = 0.13E+47 mass=  -0.876E-26a.u.
   SCALEE = 1.0000    scale energy and forces
   NPACO  =    256;   APACO  = 10.0  distance and # of slots for P.C.
   PSTRESS=    0.0 pullay stress

  Mass of Ions in am
   POMASS =  28.09118.71
  Ionic Valenz
   ZVAL   =   4.00  4.00
  Atomic Wigner-Seitz radii
   RWIGS  =  -1.00 -1.00
  virtual crystal weights 
   VCA    =   1.00  1.00
   NELECT =    1056.0000    total number of electrons
   NUPDOWN=       1.0000    fix difference up-down

 DOS related values:
   EMIN   =  10.00;   EMAX   =-10.00  energy-range for DOS
   EFERMI =   0.00;   METHOD = LEGACY      
   ISMEAR =     0;   SIGMA  =   0.01  broadening in eV -4-tet -1-fermi 0-gaus

 Electronic relaxation 2 (details)
   IALGO  =     38    algorithm
   LDIAG  =      T    sub-space diagonalisation (order eigenvalues)
   LSUBROT=      F    optimize rotation matrix (better conditioning)
   TURBO    =      0    0=normal 1=particle mesh
   IRESTART =      0    0=no restart 2=restart with 2 vectors
   NREBOOT  =      0    no. of reboots
   NMIN     =      0    reboot dimension
   EREF     =   0.00    reference energy to select bands
   IMIX   =      4    mixing-type and parameters
     AMIX     =   0.60;   BMIX     =  1.00
     AMIX_MAG =   2.40;   BMIX_MAG =  1.00
     AMIN     =   0.10
     WC   =   100.;   INIMIX=   1;  MIXPRE=   1;  MAXMIX= -45

 Intra band minimization:
   WEIMIN = 0.0000     energy-eigenvalue tresh-hold
   EBREAK =  0.39E-10  absolut break condition
   DEPER  =   0.30     relativ break condition  

   TIME   =   0.40     timestep for ELM

  volume/ion in A,a.u.               =      27.74       187.21
  Fermi-wavevector in a.u.,A,eV,Ry     =   0.858451  1.622237 10.026649  0.736938
  Thomas-Fermi vector in A             =   1.975657
 
 Write flags
   LWAVE        =      F    write WAVECAR
   LDOWNSAMPLE  =      F    k-point downsampling of WAVECAR
   LCHARG       =      T    write CHGCAR
   LVTOT        =      F    write LOCPOT, total local potential
   LVHAR        =      T    write LOCPOT, Hartree potential only
   WRT_POTENTIAL=  hartree ionic  ! write potential to hdf5 file
   LELF         =      F    write electronic localiz. function (ELF)
   LORBIT       =      0    0 simple, 1 ext, 2 COOP (PROOUT), +10 PAW based schemes


 Dipole corrections
   LMONO      =      F    monopole corrections only (constant potential shift)
   LDIPOL     =      F    correct potential (dipole corrections)
   IDIPOL     =      0    1-x, 2-y, 3-z, 4-all directions 
   EPSILON    =  1.0000000 bulk dielectric constant
   LVACPOTAV  =      F  vacuum potentials using an averaging scheme for the charge density
   VACPOTFLAT =  0.1000000 required flatness to determine vacuum potential
 Exchange correlation treatment:
   GGA     = PE    functional components
   XC_C    = 1    coefficients multiplying the functional components
   LIBXC   =     F    Libxc                    
   VOSKOWN =     0    Vosko Wilk Nusair interpolation
   LHFCALC =     F    Hartree Fock is set to
   LHFONE  =     F    Hartree Fock one center treatment
   AEXX    =    0.0000 exact exchange contribution

 Parameters of functionals:
   PE:
     No parameter
 
 Van der Waals corrections
   IVDW    =     0    specifies the selected vdW correction

 Linear response parameters
   LEPSILON=     F    determine dielectric tensor
   LRPA    =     F    only Hartree local field effects (RPA)
   LNABLA  =     F    use nabla operator in PAW spheres
   LVEL    =     F    velocity operator in full k-point grid
   CSHIFT  =0.1000    complex shift for real part using Kramers Kronig
   OMEGAMAX=  -1.0    maximum frequency
   DEG_THRESHOLD= 0.2000000E-02 threshold for treating states as degnerate
   RTIME   =   -0.100 relaxation time in fs
  (WPLASMAI=    0.000 imaginary part of plasma frequency in eV, 0.658/RTIME)
   DFIELD  = 0.0000000 0.0000000 0.0000000 field for delta impulse in time
 
  Optional k-point grid parameters
   LKPOINTS_OPT  =     F    use optional k-point grid
   KPOINTS_OPT_MODE=     1    mode for optional k-point grid
 
 Orbital magnetization related:
   ORBITALMAG=     F  switch on orbital magnetization
   LCHIMAG   =     F  perturbation theory with respect to B field
   DQ        =  0.001000  dq finite difference perturbation B field
   LLRAUG    =     F  two centre corrections for induced B field
   LBONE     =     F  B-component reconstruction in AE one-centre
   LVGVCALC  =     T  calculate vGv susceptibility
   LVGVAPPL  =     F  apply vGv susceptibility instead of pGv for G=0

 Random number generation:
   RANDOM_GENERATOR = DEFAULT
   PCG_SEED         = not used


--------------------------------------------------------------------------------------------------------


 Static calculation
 charge density and potential will be updated during run
 spin polarized calculation
 Variant of blocked Davidson
 Davidson routine will perform the subspace rotation
 perform sub-space diagonalisation
    after iterative eigenvector-optimisation
 modified Broyden-mixing scheme, WC =      100.0
 initial mixing is a Kerker type mixing with AMIX =  0.6000 and BMIX =      1.0000
 Hartree-type preconditioning will be used
 using additional bands          108
 real space projection scheme for non local part
 use partial core corrections
 calculate Harris-corrections to forces 
   (improved forces if not selfconsistent)
 use gradient corrections 
 use of overlap-Matrix (Vanderbilt PP)
 Gauss-broadening in eV      SIGMA  =   0.01


--------------------------------------------------------------------------------------------------------


  energy-cutoff  :      700.00
  volume of cell :     7323.89
      direct lattice vectors                 reciprocal lattice vectors
    19.581750870  0.000000000  0.000000000     0.051067956  0.000000000  0.000000000
     0.000000000 19.581748962  0.000000000     0.000000000  0.051067961  0.000000000
     0.000000000  0.000000000 19.100250244     0.000000000  0.000000000  0.052355335

  length of vectors
    19.581750870 19.581748962 19.100250244     0.051067956  0.051067961  0.052355335


 
 k-points in units of 2pi/SCALE and weight: Automatic KPOINTS generated             
   0.00000000  0.00000000  0.00000000       0.125
   0.02553398  0.00000000  0.00000000       0.125
   0.00000000  0.02553398  0.00000000       0.125
   0.02553398  0.02553398  0.00000000       0.125
   0.00000000  0.00000000  0.02617767       0.125
   0.02553398  0.00000000  0.02617767       0.125
   0.00000000  0.02553398  0.02617767       0.125
   0.02553398  0.02553398  0.02617767       0.125
 
 k-points in reciprocal lattice and weights: Automatic KPOINTS generated             
   0.00000000  0.00000000  0.00000000       0.125
   0.50000000  0.00000000  0.00000000       0.125
   0.00000000  0.50000000  0.00000000       0.125
   0.50000000  0.50000000  0.00000000       0.125
   0.00000000  0.00000000  0.50000000       0.125
   0.50000000  0.00000000  0.50000000       0.125
   0.00000000  0.50000000  0.50000000       0.125
   0.50000000  0.50000000  0.50000000       0.125
 
 position of ions in fractional coordinates (direct lattice) 
   0.99589300  0.99726200  0.00000000
   0.88050836  0.92033887  0.14217091
   0.76512373  0.84341574  0.28434190
   0.07281613  0.38187745  0.00000000
   0.50785565  0.86666667  0.80511779
   0.84204680  0.22803116  0.28434190
   0.22666228  0.15110818  0.00000000
   0.11127762  0.07418505  0.14217091
   0.99589294  0.99726194  0.28434190
   0.14973922  0.76649284  0.00000000
   0.03435453  0.68956971  0.14217091
   0.91896987  0.61264658  0.28434190
   0.30358541  0.53572357  0.00000000
   0.18820073  0.45880044  0.14217091
   0.07281607  0.38187730  0.28434190
   0.45743155  0.30495435  0.00000000
   0.34204686  0.22803120  0.14217091
   0.34118915  0.03333330  0.46537358
   0.42452228  0.28333336  0.89005387
   0.49589300  0.99726194  0.14217091
   0.38050836  0.92033881  0.28434190
   0.38050851  0.92033905  0.00000000
   0.84118903  0.53333336  0.80511779
   0.14973918  0.76649272  0.28434190
   0.75785565  0.28333336  0.89005387
   0.41896993  0.61264658  0.14217091
   0.30358526  0.53572345  0.28434190
   0.68820071  0.45880049  0.00000000
   0.17452228  0.53333336  0.80511779
   0.00785565  0.69999999  0.46537358
   0.84204692  0.22803119  0.00000000
   0.72666228  0.15110804  0.14217091
   0.61127758  0.07418491  0.28434190
   0.92452234  0.78333342  0.89005387
   0.64973927  0.76649272  0.14217091
   0.53435457  0.68956959  0.28434190
   0.91897005  0.61264664  0.00000000
   0.80358541  0.53572351  0.14217091
   0.68820071  0.45880038  0.28434190
   0.01512384  0.59341586  0.07108547
   0.89973921  0.51649272  0.21325642
   0.84118903  0.20000000  0.46537358
   0.16896996  0.36264667  0.07108547
   0.05358529  0.28572354  0.21325642
   0.84118903  0.53333336  0.46537358
   0.32281613  0.13187741  0.07108547
   0.20743145  0.05495427  0.21325642
   0.75785565  0.95000005  0.55030960
   0.09204689  0.97803128  0.07108547
   0.97666222  0.90110815  0.21325642
   0.86127752  0.82418501  0.35542738
   0.24589306  0.74726206  0.07108547
   0.13050841  0.67033893  0.21325642
   0.67452228  0.69999999  0.46537358
   0.39973927  0.51649284  0.07108547
   0.25785565  0.44999999  0.55030960
   0.17452240  0.20000000  0.46537358
   0.55358541  0.28572354  0.07108547
   0.75785565  0.28333336  0.55030960
   0.32281604  0.13187726  0.35542738
   0.25785565  0.44999999  0.89005387
   0.59204686  0.97803116  0.21325642
   0.47666219  0.90110803  0.35542738
   0.59118891  0.78333342  0.89005387
   0.36127770  0.82418507  0.21325642
   0.24589300  0.74726194  0.35542738
   0.63050854  0.67033899  0.07108547
   0.51512384  0.59341580  0.21325642
   0.39973915  0.51649267  0.35542738
   0.78435469  0.43956971  0.07108547
   0.66896999  0.36264655  0.21325642
   0.34118915  0.69999999  0.46537358
   0.93820083  0.20880049  0.07108547
   0.82281613  0.13187735  0.21325642
   0.70743144  0.05495421  0.35542738
   0.86127788  0.82418513  0.07108547
   0.74589318  0.74726200  0.21325642
   0.50785565  0.86666667  0.46537358
   0.09118891  0.95000005  0.89005387
   0.91896993  0.11264660  0.14217091
   0.80358523  0.03572347  0.28434190
   0.11127766  0.57418507  0.00000000
   0.99589300  0.49726200  0.14217091
   0.88050830  0.42033884  0.28434190
   0.92452234  0.44999999  0.89005387
   0.14973919  0.26649278  0.14217091
   0.03435449  0.18956965  0.28434190
   0.42452228  0.95000005  0.89005387
   0.30358532  0.03572347  0.14217091
   0.92452228  0.11666679  0.55030960
   0.09118891  0.28333336  0.89005387
   0.07281606  0.88187730  0.14217091
   0.95743138  0.80495423  0.28434190
   0.00785577  0.69999999  0.80511779
   0.22666223  0.65110815  0.14217091
   0.11127757  0.57418501  0.28434190
   0.49589309  0.49726200  0.00000000
   0.38050842  0.42033887  0.14217091
   0.26512373  0.34341574  0.28434190
   0.64973927  0.26649278  0.00000000
   0.50785565  0.20000000  0.80511779
   0.41896993  0.11264652  0.28434190
   0.59118891  0.44999999  0.89005387
   0.00785577  0.03333330  0.80511779
   0.57281607  0.88187730  0.28434190
   0.57281613  0.88187736  0.00000000
   0.45743144  0.80495429  0.14217091
   0.75785565  0.61666673  0.55030960
   0.72666234  0.65110815  0.00000000
   0.61127764  0.57418501  0.14217091
   0.49589294  0.49726185  0.28434190
   0.75785565  0.61666673  0.89005387
   0.76512384  0.34341586  0.14217091
   0.64973915  0.26649272  0.28434190
   0.95743161  0.80495429  0.00000000
   0.84204692  0.72803116  0.14217091
   0.72666228  0.65110803  0.28434190
   0.13050844  0.17033896  0.07108547
   0.59118897  0.78333342  0.55030960
   0.89973909  0.01649269  0.35542738
   0.05358534  0.78572363  0.07108547
   0.93820071  0.70880044  0.21325642
   0.82281601  0.63187730  0.35542738
   0.20743152  0.55495441  0.07108547
   0.09204687  0.47803125  0.21325642
   0.97666216  0.40110809  0.35542738
   0.36127770  0.32418513  0.07108547
   0.24589303  0.24726200  0.21325642
   0.13050833  0.17033885  0.35542738
   0.51512384  0.09341585  0.07108547
   0.39973921  0.01649272  0.21325642
   0.50785565  0.53333336  0.46537358
   0.28435466  0.93956983  0.07108547
   0.16896999  0.86264664  0.21325642
   0.05358529  0.78572351  0.35542738
   0.17452228  0.86666667  0.80511779
   0.92452228  0.78333342  0.55030960
   0.20743141  0.55495429  0.35542738
   0.00785577  0.36666667  0.80511779
   0.47666228  0.40110815  0.21325642
   0.17452240  0.53333336  0.46537358
   0.74589312  0.24726200  0.07108547
   0.63050842  0.17033887  0.21325642
   0.67452228  0.03333330  0.46537358
   0.89973927  0.01649279  0.07108547
   0.78435457  0.93956965  0.21325642
   0.66896993  0.86264652  0.35542738
   0.66897011  0.86264676  0.07108547
   0.55358541  0.78572363  0.21325642
   0.43820071  0.70880049  0.35542738
   0.82281625  0.63187742  0.07108547
   0.25785565  0.11666679  0.55030960
   0.59204680  0.47803113  0.35542738
   0.97666228  0.40110824  0.07108547
   0.86127758  0.32418507  0.21325642
   0.74589288  0.24726193  0.35542738
   0.63050842  0.67033881  0.35542738
   0.34118891  0.86666667  0.63524568
   0.43820077  0.70880061  0.07108547
   0.28435451  0.93956953  0.35542738
   0.34118891  0.53333336  0.63524568
   0.57281607  0.38187736  0.14217091
   0.50785565  0.20000000  0.46537358
   0.34118891  0.20000000  0.63524568
   0.17452228  0.20000000  0.80511779
   0.84118903  0.86666667  0.46537358
   0.67452228  0.86666667  0.63524568
   0.95743144  0.30495429  0.14217091
   0.93820059  0.20880038  0.35542738
   0.67452228  0.53333336  0.63524568
   0.50785565  0.53333336  0.80511779
   0.78435451  0.43956962  0.35542738
   0.67452228  0.20000000  0.63524568
   0.53435463  0.18956965  0.14217091
   0.17452240  0.86666667  0.46537358
   0.00785565  0.86666667  0.63524568
   0.84118903  0.86666667  0.80511779
   0.36127761  0.32418501  0.35542738
   0.00785565  0.53333336  0.63524568
   0.26512384  0.84341592  0.14217091
   0.16896993  0.36264655  0.35542738
   0.00785565  0.20000000  0.63524568
   0.84118903  0.20000000  0.80511779
   0.59118897  0.11666679  0.55030960
   0.42452240  0.11666679  0.72018170
   0.25785565  0.11666679  0.89005387
   0.01512377  0.09341583  0.21325642
   0.42452240  0.78333342  0.72018170
   0.25785565  0.78333342  0.89005387
   0.59118897  0.44999999  0.55030960
   0.42452240  0.44999999  0.72018170
   0.70743155  0.05495430  0.07108547
   0.18820064  0.95880032  0.28434190
   0.75785565  0.11666679  0.72018170
   0.59118891  0.11666679  0.89005387
   0.32281607  0.63187742  0.21325642
   0.75785565  0.78333342  0.72018170
   0.47666240  0.90110820  0.07108547
   0.92452228  0.44999999  0.55030960
   0.75785565  0.44999999  0.72018170
   0.80358541  0.03572357  0.00000000
   0.70743155  0.55495429  0.21325642
   0.09118915  0.11666679  0.72018170
   0.92452234  0.11666679  0.89005387
   0.25785565  0.78333342  0.55030960
   0.09118915  0.78333342  0.72018170
   0.76512390  0.84341586  0.00000000
   0.28435460  0.43956968  0.21325642
   0.09118915  0.44999999  0.72018170
   0.26512384  0.34341592  0.00000000
   0.51512379  0.09341572  0.35542738
   0.50785565  0.03333330  0.63524568
   0.34118891  0.03333330  0.80511779
   0.01512372  0.59341580  0.35542738
   0.50785565  0.69999999  0.63524568
   0.34118891  0.69999999  0.80511779
   0.67452228  0.36666667  0.46537358
   0.50785565  0.36666667  0.63524568
   0.34118891  0.36666667  0.80511779
   0.00785565  0.03333330  0.46537358
   0.84118897  0.03333330  0.63524568
   0.67452228  0.03333330  0.80511779
   0.45743138  0.30495423  0.28434190
   0.84118897  0.69999999  0.63524568
   0.67452228  0.69999999  0.80511779
   0.00785565  0.36666667  0.46537358
   0.84118897  0.36666667  0.63524568
   0.67452228  0.36666667  0.80511779
   0.22666220  0.15110807  0.28434190
   0.17452240  0.03333330  0.63524568
   0.68820071  0.95880044  0.14217091
   0.55358529  0.28572342  0.35542738
   0.17452240  0.69999999  0.63524568
   0.34204692  0.72803128  0.00000000
   0.34118915  0.36666667  0.46537358
   0.17452240  0.36666667  0.63524568
   0.59204698  0.47803128  0.07108547
   0.09204677  0.97803116  0.35542738
   0.59118897  0.95000005  0.72018170
   0.41896999  0.11264660  0.00000000
   0.34204680  0.72803110  0.28434190
   0.59118897  0.61666673  0.72018170
   0.42452228  0.61666673  0.89005387
   0.43820071  0.20880039  0.21325642
   0.59118897  0.28333336  0.72018170
   0.61127770  0.07418510  0.00000000
   0.09118903  0.95000005  0.55030960
   0.92452240  0.95000005  0.72018170
   0.75785565  0.95000005  0.89005387
   0.09118903  0.61666673  0.55030960
   0.92452240  0.61666673  0.72018170
   0.88050848  0.42033899  0.00000000
   0.09118903  0.28333336  0.55030960
   0.92452240  0.28333336  0.72018170
   0.53435463  0.68956971  0.00000000
   0.42452228  0.95000005  0.55030960
   0.25785565  0.95000005  0.72018170
   0.03435459  0.18956974  0.00000000
   0.42452228  0.61666673  0.55030960
   0.25785565  0.61666673  0.72018170
   0.09118891  0.61666673  0.89005387
   0.42452228  0.28333336  0.55030960
   0.25785565  0.28333336  0.72018170
   0.18820076  0.95880044  0.00000000
 
 position of ions in cartesian coordinates  (Angst):
  19.50132866 19.52813415  0.00000000
  17.24189540 18.02184469  2.71549988
  14.98246217 16.51555523  5.43100148
   1.42586724  7.47782840  0.00000000
   9.94470289 16.97084926 15.37795119
  16.48875060  4.46524889  5.43100148
   4.43844426  2.95896237  0.00000000
   2.17901059  1.45267305  2.71549988
  19.50132748 19.52813298  5.43100148
   2.93215612 15.00927045  0.00000000
   0.67272193 13.50298099  2.71549988
  17.99503905 11.99669153  5.43100148
   5.94473387 10.49040440  0.00000000
   3.68529975  8.98411494  2.71549988
   1.42586606  7.47782548  5.43100148
   8.95731075  5.97153953  0.00000000
   6.69787634  4.46524977  2.71549988
   6.68108086  0.65272435  8.88875176
   8.31288955  5.54816275 17.00025161
   9.71045322 19.52813298  2.71549988
   7.45101997 18.02184352  5.43100148
   7.45102289 18.02184820  0.00000000
  16.47195396 10.44359999 15.37795119
   2.93215524 15.00926810  5.43100148
  14.84014061  5.54816275 17.00025161
   8.20416477 11.99669153  2.71549988
   5.94473095 10.49040207  5.43100148
  13.47617489  8.98411612  0.00000000
   3.41745183 10.44359999 15.37795119
   0.15382746 13.70722404  8.88875176
  16.48875293  4.46524948  0.00000000
  14.22931969  2.95895973  2.71549988
  11.96988528  1.45267026  5.43100148
  18.10376614 15.33903840 17.00025161
  12.72303242 15.00926810  2.71549988
  10.46359803 13.50297864  5.43100148
  17.99504254 11.99669269  0.00000000
  15.73560930 10.49040323  2.71549988
  13.47617489  8.98411377  5.43100148
   0.29615121 11.62012032  1.35775036
  17.61846898 10.11383086  4.07325097
  16.47195396  3.91634985  8.88875176
   3.30872764  7.10125603  1.35775036
   1.04929390  5.59496657  4.07325097
  16.47195396 10.44359999  8.88875176
   6.32130509  2.58239028  1.35775036
   4.06187098  1.07610068  4.07325097
  14.84014061 18.60266245 10.51105103
   1.80243921 19.15156296  1.35775036
  19.12475626 17.64527350  4.07325097
  16.86532185 16.13898404  6.78875198
   4.81501666 14.63269809  1.35775036
   2.55558313 13.12640863  4.07325097
  13.20832726 13.70722404  8.88875176
   7.82759470 10.11383321  1.35775036
   5.04926518  8.81178680 10.51105103
   3.41745416  3.91634985  8.88875176
  10.84017158  5.59496657  1.35775036
  14.84014061  5.54816275 10.51105103
   6.32130335  2.58238736  6.78875198
   5.04926518  8.81178680 17.00025161
  11.59331406 19.15156061  4.07325097
   9.33388023 17.64527117  6.78875198
  11.57651391 15.33903840 17.00025161
   7.07444990 16.13898520  4.07325097
   4.81501551 14.63269574  6.78875198
  12.34646119 13.12640978  1.35775036
  10.08702678 11.62011917  4.07325097
   7.82759237 10.11382971  6.78875198
  15.35903807  8.60754375  1.35775036
  13.09960366  7.10125370  4.07325097
   6.68108086 13.70722404  8.88875176
  18.37161494  4.08867888  1.35775036
  16.11218053  2.58238912  4.07325097
  13.85274614  1.07609945  6.78875198
  16.86532884 16.13898637  1.35775036
  14.60589443 14.63269691  4.07325097
   9.94470289 16.97084926  8.88875176
   1.78563848 18.60266245 17.00025161
  17.99504021  2.20581748  2.71549988
  15.73560580  0.69952802  5.43100148
   2.17901145 11.24354796  0.00000000
  19.50132866  9.73725967  2.71549988
  17.24189425  8.23096962  5.43100148
  18.10376614  8.81178680 17.00025161
   2.93215553  5.21839480  2.71549988
   0.67272112  3.71210534  5.43100148
   8.31288955 18.60266245 17.00025161
   5.94473212  0.69952810  2.71549988
  18.10376498  2.28453987 10.51105103
   1.78563848  5.54816275 17.00025161
   1.42586593 17.26869996  2.71549988
  18.74818268 15.76241168  5.43100148
   0.15382979 13.70722404 15.37795119
   4.43844338 12.74983626  2.71549988
   2.17900971 11.24354680  5.43100148
   9.71045497  9.73725967  0.00000000
   7.45102114  8.23097021  2.71549988
   5.19158673  6.72468075  5.43100148
[...]
      2.55558     13.12641      4.07325        -0.008870      0.043992     -0.156077
     13.20833     13.70722      8.88875         0.626912      1.095274      3.429063
      7.82759     10.11383      1.35775        -0.065706     -0.548234     -0.357079
      5.04927      8.81179     10.51105        -0.350515      0.495615     -0.612422
      3.41745      3.91635      8.88875         0.009121      0.180634      0.539474
     10.84017      5.59497      1.35775         0.057048     -0.310387     -3.765618
     14.84014      5.54816     10.51105         0.482713     -0.241482     -0.121384
      6.32130      2.58239      6.78875         3.050584     -0.828902      2.590175
      5.04927      8.81179     17.00025         0.280543      0.375616      0.556473
     11.59331     19.15156      4.07325        -2.332634      0.398021      1.676127
      9.33388     17.64527      6.78875         0.811290      0.054525     -0.239526
     11.57651     15.33904     17.00025        -1.228218      0.950329      0.500406
      7.07445     16.13899      4.07325         2.833540      1.758933     -0.001827
      4.81502     14.63270      6.78875        -1.723167      0.429416      2.289492
     12.34646     13.12641      1.35775         2.111170     -0.579615      0.952647
     10.08703     11.62012      4.07325         0.056258     -0.052670     -0.098996
      7.82759     10.11383      6.78875         1.100158      0.189368      0.966765
     15.35904      8.60754      1.35775        -2.067957      0.656309      0.885878
     13.09960      7.10125      4.07325         2.258028     -0.500113      1.640096
      6.68108     13.70722      8.88875         0.305888     -0.052648     -0.511634
     18.37161      4.08868      1.35775        -2.620859     -1.328458     -0.231030
     16.11218      2.58239      4.07325        -0.170086      0.123341     -0.089249
     13.85275      1.07610      6.78875        -0.103275      0.302508     -0.507792
     16.86533     16.13899      1.35775         2.355543     -0.170151      1.094356
     14.60589     14.63270      4.07325         0.144083      0.051829      0.040821
      9.94470     16.97085      8.88875        -0.097442     -0.126734      1.038108
      1.78564     18.60266     17.00025        -0.087340     -0.018143     -0.507596
     17.99504      2.20582      2.71550        -2.292568      0.427430     -1.654388
     15.73561      0.69953      5.43100         0.078366     -0.270823      0.561863
      2.17901     11.24355      0.00000        -0.097333     -1.335966      3.145551
     19.50133      9.73726      2.71550         0.134628      0.050500     -0.001445
     17.24189      8.23097      5.43100         2.090532     -0.612216     -0.988884
     18.10377      8.81179     17.00025         0.628808      1.093294     -3.446919
      2.93216      5.21839      2.71550         0.064809      0.070521      0.123425
      0.67272      3.71211      5.43100         2.693557      2.111603      0.840146
      8.31289     18.60266     17.00025         0.000078      0.182219     -0.538398
      5.94473      0.69953      2.71550        -0.042092      0.071277      0.077624
     18.10376      2.28454     10.51105        -0.430525      0.500988     -0.175058
      1.78564      5.54816     17.00025        -1.233378      0.950284      0.462499
      1.42587     17.26870      2.71550        -0.185367      0.065234      0.069472
     18.74818     15.76241      5.43100         0.153288      0.048819      0.503171
      0.15383     13.70722     15.37795        -0.428778      0.539478      0.604296
      4.43844     12.74984      2.71550        -2.343651      0.444275     -1.580177
      2.17901     11.24355      5.43100         2.372071     -0.180362     -1.130017
      9.71045      9.73726      0.00000        -1.724919      0.411519     -2.297563
      7.45102      8.23097      2.71550         2.303565     -0.404785     -1.462774
      5.19159      6.72468      5.43100        -0.445802     -2.145310     -1.391030
     12.72303      5.21839      0.00000         1.111005      0.168483     -0.980912
      9.94470      3.91635     15.37795        -0.360873      0.487046      0.614583
      8.20416      2.20582      5.43100        -2.857395     -1.835283      0.283969
     11.57651      8.81179     17.00025         0.323063     -0.031615      0.520864
      0.15383      0.65272     15.37795         0.502837     -0.235586      0.127380
     11.21674     17.26870      5.43100        -0.001451     -0.155234      0.188817
     11.21674     17.26870      0.00000         3.047493     -0.834179     -2.577452
      8.95731     15.76241      2.71550         0.003434      0.053897      3.409941
     14.84014     12.07541     10.51105        -0.007800     -0.338539     -0.848324
     14.22932     12.74984      0.00000         0.792183      0.054167      0.272800
     11.96989     11.24355      2.71550        -1.727751      2.685039      0.072757
      9.71045      9.73726      5.43100        -0.083262     -0.172660      0.013058
     14.84014     12.07541     17.00025        -0.106179     -0.134681     -1.051250
     14.98246      6.72468      2.71550         0.046600     -0.054542      0.126333
     12.72303      5.21839      5.43100         2.262399     -0.919935     -1.160252
     18.74819     15.76241      0.00000        -0.090580      0.301492      0.509131
     16.48875     14.25612      2.71550        -0.054743     -0.069633     -0.008743
     14.22932     12.74983      5.43100         2.612111      1.407224      0.354458
      2.55558      3.33553      1.35775         2.157752     -0.642325      1.000511
     11.57652     15.33904     10.51105         0.198947     -0.339762     -0.902216
     17.61847      0.32296      6.78875         0.823780      0.023776      0.673033
      1.04929     15.38584      1.35775         0.034850     -0.249297     -0.541788
     18.37161     13.87955      4.07325        -0.067168     -0.019433     -0.063223
     16.11218     12.37326      6.78875         0.733139     -0.265128      0.937058
      4.06187     10.86698      1.35775         0.084785      0.075034     -0.557045
      1.80244      9.36069      4.07325        -0.103328     -0.031966     -0.074772
     19.12476      7.85440      6.78875        -0.141088      1.066771     -3.288675
      7.07445      6.34811      1.35775         2.378388     -0.177014      1.073920
      4.81502      4.84182      4.07325         0.493605      2.251664     -1.663416
      2.55558      3.33553      6.78875        -1.826640      0.261367      1.942430
     10.08703      1.82925      1.35775        -0.401194     -2.151631      1.356917
      7.82759      0.32296      4.07325         0.049045      0.067946     -0.003502
      9.94470     10.44360      8.88875        -0.105613     -0.247234     -0.654261
      5.56816     18.39842      1.35775         2.649531      2.110101     -0.829241
      3.30873     16.89213      4.07325        -2.793070     -1.792035      0.032316
      1.04929     15.38584      6.78875         0.118137     -0.300044      1.307400
      3.41745     16.97085     15.37795        -0.441344      0.501000      0.174760
     18.10376     15.33904     10.51105         0.274244     -0.193499     -0.333191
      4.06187     10.86698      6.78875        -0.043385      0.315957     -0.497234
      0.15383      7.17997     15.37795        -0.012365     -0.341537      0.838653
      9.33388      7.85440      4.07325        -1.826261      2.746828     -0.096554
      3.41745     10.44360      8.88875         0.462059     -0.971780      1.360556
     14.60589      4.84182      1.35775        -0.078978     -0.189894      0.026456
     12.34646      3.33553      4.07325         2.415844     -0.429332      1.425446
     13.20833      0.65272      8.88875         0.475401     -0.942782      1.346593
     17.61847      0.32296      1.35775         2.179454     -0.908900      1.201261
     15.35904     18.39842      4.07325         2.262418     -0.554361      1.577166
     13.09960     16.89213      6.78875        -0.020349     -0.036326      0.817881
     13.09961     16.89213      1.35775        -2.815481     -1.848521     -0.243778
     10.84017     15.38584      4.07325        -0.090428      0.044805     -0.072707
      8.58074     13.87955      6.78875         1.011093     -0.475278      2.511592
     16.11218     12.37327      1.35775         0.089775     -0.161654     -0.176889
      5.04927      2.28454     10.51105        -0.002306     -0.414655     -0.831418
     11.59331      9.36069      6.78875        -0.751590      0.047149      0.751304
     19.12476      7.85440      1.35775         2.614158      1.410274     -0.339052
     16.86532      6.34811      4.07325        -2.219157      0.385725      1.495411
     14.60589      4.84182      6.78875         0.638869     -0.071723      0.728335
     12.34646     13.12641      6.78875        -0.729529     -0.626270      1.138795
      6.68108     16.97085     12.13335        -0.124736      0.055739      0.151003
      8.58074     13.87956      1.35775         0.086675      0.404767      3.900406
      5.56816     18.39841      6.78875         3.018922     -0.404338      6.342903
      6.68108     10.44360     12.13335        -0.548230     -0.639838     -0.502351
     11.21674      7.47783      2.71550        -0.683908     -2.804620      2.063260
      9.94470      3.91635      8.88875         0.192960     -0.459132     -0.390786
      6.68108      3.91635     12.13335        -0.584045     -0.541688     -0.615722
      3.41745      3.91635     15.37795        -0.455240      0.352826      0.484577
     16.47195     16.97085      8.88875        -0.207074      1.142602      3.519725
     13.20833     16.97085     12.13335        -0.031177      0.005699     -1.200855
     18.74818      5.97154      2.71550        -0.009667      0.001019      0.203887
     18.37161      4.08868      6.78875        -0.733948     -0.022631      3.668203
     13.20833     10.44360     12.13335         0.552763      0.708444     -0.468875
      9.94470     10.44360     15.37795         0.680798     -0.461549      0.335599
     15.35903      8.60754      6.78875        -0.211874      0.156691      4.202501
     13.20833      3.91635     12.13335         0.726485      0.472182     -0.507379
     10.46360      3.71211      2.71550         3.011278     -0.730220     -2.138574
      3.41745     16.97085      8.88875         0.184008     -0.289340     -1.278815
      0.15383     16.97085     12.13335        -0.489742     -0.655905     -0.429710
     16.47195     16.97085     15.37795         0.661552     -0.275409      0.607410
      7.07445      6.34811      6.78875        -2.205288     -2.189288     -1.780329
      0.15383     10.44360     12.13335        -0.046955     -0.045145     -0.003171
      5.19159     16.51556      2.71550         0.075677     -0.077631     -0.000094
      3.30873      7.10125      6.78875        -0.091829     -0.076654      3.900254
      0.15383      3.91635     12.13335        -0.702867     -0.615585     -0.496694
     16.47195      3.91635     15.37795        -0.705393      0.569120      0.366443
     11.57652      2.28454     10.51105         0.679657     -0.279213     -0.601191
      8.31289      2.28454     13.75565         0.577213      0.627729      0.597646
      5.04927      2.28454     17.00025         0.548959     -0.821143     -2.483433
      0.29615      1.82925      4.07325         0.074977     -0.106665     -0.069010
      8.31289     15.33904     13.75565         0.544912      0.703452      0.445921
      5.04927     15.33904     17.00025        -1.210719      0.839218      0.036073
     11.57652      8.81179     10.51105        -0.688744      0.593190     -0.368735
      8.31289      8.81179     13.75565         0.108245     -0.117362     -0.096710
     13.85275      1.07610      1.35775         0.490421      3.164974      1.451093
      3.68530     18.77499      5.43100        -0.016880      0.412059     -3.923131
     14.84014      2.28454     13.75565         0.107382     -0.060536     -0.148459
     11.57651      2.28454     17.00025        -1.651796      3.352937     -7.051364
      6.32130     12.37327      4.07325        -0.733037     -2.925484     -2.048993
     14.84014     15.33904     13.75565         0.009208     -0.047432      0.002715
      9.33388     17.64527      1.35775        -0.058684     -0.306893     -0.352844
     18.10376      8.81179     10.51105        -0.459596      0.379512     -0.483170
     14.84014      8.81179     13.75565         0.492509      0.636776      0.479998
     15.73561      0.69953      0.00000         3.821040     -0.064617     -5.414867
     13.85275     10.86698      4.07325         0.049340      0.072675     -0.169593
      1.78564      2.28454     13.75565        -0.726246     -0.543339      0.481768
     18.10377      2.28454     17.00025         0.707298     -0.699649      0.786605
      5.04927     15.33904     10.51105         0.700285     -0.458419     -0.344135
      1.78564     15.33904     13.75565         0.110978     -0.041587      1.118987
     14.98247     16.51556      0.00000        -0.550516     -0.421849     -3.329858
      5.56816      8.60754      4.07325        -0.013735     -0.045294     -0.116391
      1.78564      8.81179     13.75565         0.011314      0.056429      1.220117
      5.19159      6.72468      0.00000        -0.577046      0.157237     -3.824958
     10.08703      1.82924      6.78875        -0.562412     -0.420659      3.339234
      9.94470      0.65272     12.13335        -0.019697     -0.050503     -0.030401
      6.68108      0.65272     15.37795         0.604025     -0.800249      0.792968
      0.29615     11.62012      6.78875        -0.586681      0.178336      3.806225
      9.94470     13.70722     12.13335         0.522637      0.638519     -0.498701
      6.68108     13.70722     15.37795        -0.119856     -0.077232     -0.378277
     13.20833      7.17997      8.88875         0.711507     -0.706883     -0.798100
      9.94470      7.17997     12.13335         0.103862     -0.103095      0.142910
      6.68108      7.17997     15.37795         0.063242      0.326802      1.211895
      0.15383      0.65272      8.88875        -1.192379      0.852190     -0.035817
     16.47195      0.65272     12.13335         0.130041     -0.004785     -1.103658
     13.20833      0.65272     15.37795        -0.118071      0.167401     -0.083408
      8.95731      5.97154      5.43100         0.367951      3.208539     -1.361265
     16.47195     13.70722     12.13335         0.008854      0.054342     -1.222601
     13.20833     13.70722     15.37795         0.207108     -0.257791      1.171848
      0.15383      7.17997      8.88875         0.534572     -0.832026      2.505059
     16.47195      7.17997     12.13335        -0.700563     -0.523931     -0.450066
     13.20833      7.17997     15.37795        -0.050542      0.056724      1.048800
      4.43844      2.95896      5.43100        -0.077429     -0.283966      0.339154
      3.41745      0.65272     12.13335         0.514172      0.669706     -0.448816
     13.47617     18.77499      2.71550        -0.621449     -3.072326      2.314297
     10.84017      5.59496      6.78875         3.817554     -0.052369      5.421994
      3.41745     13.70722     12.13335         0.110873     -0.137854      0.097977
      6.69788     14.25613      0.00000        -3.202840      0.474422     -4.851266
      6.68108      7.17997      8.88875        -1.677004      3.330141      7.050157
      3.41745      7.17997     12.13335         0.604335      0.637483     -0.587546
     11.59332      9.36069      1.35775         0.621544      3.255387     -2.126450
      1.80244     19.15156      6.78875        -3.187198      0.502404      4.836699
     11.57652     18.60266     13.75565        -0.606695     -0.531547      0.592444
      8.20417      2.20582      0.00000        -0.112232     -0.078234     -3.901724
      6.69788     14.25612      5.43100         0.700422      3.240730      2.138667
     11.57652     12.07541     13.75565        -0.071886      0.081428     -0.148410
      8.31289     12.07541     17.00025         0.198230     -0.291999      1.297265
      8.58074      4.08868      4.07325        -3.677894     -2.433703     -0.119676
     11.57652      5.54816     13.75565        -0.511146     -0.590608      0.502222
     11.96989      1.45267      0.00000        -2.205555     -2.186980      1.759653
      1.78564     18.60266     10.51105        -0.111828     -0.065664      0.369067
     18.10377     18.60266     13.75565         0.734701      0.476075      0.482186
     14.84014     18.60266     17.00025         0.214354     -0.449740      0.389959
      1.78564     12.07541     10.51105         0.045860      0.326382     -1.197648
     18.10377     12.07541     13.75565        -0.020134      0.020613      1.205683
     17.24190      8.23097      0.00000        -0.743917     -0.645257     -1.151008
      1.78564      5.54816     10.51105         0.619922     -0.804178     -0.798167
     18.10377      5.54816     13.75565         0.506612      0.676738      0.481762
     10.46360     13.50298      0.00000         3.021148     -0.378366     -6.343905
      8.31289     18.60266     10.51105         0.199542     -0.229870     -1.173551
      5.04927     18.60266     13.75565        -0.673612     -0.604907      0.474830
      0.67272      3.71211      0.00000        -0.236715      0.158087     -4.195065
      8.31289     12.07541     10.51105        -0.065220      0.068469     -1.032667
      5.04927     12.07541     13.75565        -0.495222     -0.711837      0.446131
      1.78564     12.07541     17.00025        -0.235160      1.140276     -3.530261
      8.31289      5.54816     10.51105        -0.120307      0.191632      0.076968
      5.04927      5.54816     13.75565        -0.042820     -0.051937      0.016188
      3.68530     18.77499      0.00000        -0.701597     -0.004056     -3.668227
 -----------------------------------------------------------------------------------
    total drift:                                0.115743      0.111725     -0.217047


--------------------------------------------------------------------------------------------------------



  FREE ENERGIE OF THE ION-ELECTRON SYSTEM (eV)
  ---------------------------------------------------
  free  energy   TOTEN  =     -1100.09022992 eV

  energy  without entropy=    -1100.08502713  energy(sigma->0) =    -1100.08762852
 


--------------------------------------------------------------------------------------------------------


    POTLOK:  cpu time      3.0094: real time      3.0285


--------------------------------------------------------------------------------------------------------


     LOOP+:  cpu time   6344.1950: real time   6401.7825
    4ORBIT:  cpu time      0.0000: real time      0.0000

 total amount of memory used by VASP MPI-rank0   919114. kBytes
=======================================================================

   base      :      30000. kBytes
   nonlr-proj:      25864. kBytes
   fftplans  :      41700. kBytes
   grid      :      31129. kBytes
   one-center:        275. kBytes
   wavefun   :     790146. kBytes
 
  
  
 General timing and accounting informations for this job:
 ========================================================
  
                  Total CPU time used (sec):     6682.322
                            User time (sec):     6425.519
                          System time (sec):      256.804
                         Elapsed time (sec):     6748.101
  
                   Maximum memory used (kb):     1221620.
                   Average memory used (kb):          N/A
  
                          Minor page faults:       889713
                          Major page faults:         1226
                 Voluntary context switches:         4232
