       N       E                     dE             d eps       ncg     rms          rms(c)
DAV:   1     0.196709791009E+04    0.19671E+04   -0.21396E+05  6912   0.173E+03
DAV:   2    -0.359200284873E+03   -0.23263E+04   -0.22434E+04  8088   0.215E+02
DAV:   3    -0.575967271061E+03   -0.21677E+03   -0.21044E+03  8584   0.573E+01
DAV:   4    -0.583687632451E+03   -0.77204E+01   -0.75959E+01  8152   0.116E+01
DAV:   5    -0.583978387088E+03   -0.29075E+00   -0.28908E+00  9136   0.223E+00    0.315E+01
DAV:   6    -0.575112338954E+03    0.88660E+01   -0.14076E+01  8320   0.808E+00    0.144E+01
DAV:   7    -0.575277645243E+03   -0.16531E+00   -0.14934E+01  8400   0.902E+00    0.661E+00
DAV:   8    -0.574197326990E+03    0.10803E+01   -0.43966E+00  8448   0.532E+00    0.161E+00
DAV:   9    -0.574262467441E+03   -0.65140E-01   -0.13884E+00  8040   0.171E+00    0.128E+00
DAV:  10    -0.574247900909E+03    0.14567E-01   -0.18793E-01  8096   0.737E-01    0.785E-01
DAV:  11    -0.574249145790E+03   -0.12449E-02   -0.72792E-02  8328   0.485E-01    0.519E-01
DAV:  12    -0.574245795892E+03    0.33499E-02   -0.33054E-02  8416   0.371E-01    0.307E-01
DAV:  13    -0.574245059147E+03    0.73675E-03   -0.10785E-02  8296   0.195E-01    0.183E-01
DAV:  14    -0.574244839801E+03    0.21935E-03   -0.33188E-03  7976   0.987E-02    0.871E-02
DAV:  15    -0.574244873726E+03   -0.33925E-04   -0.91324E-04  7872   0.461E-02    0.647E-02
DAV:  16    -0.574244895187E+03   -0.21462E-04   -0.23709E-04  7944   0.238E-02    0.417E-02
DAV:  17    -0.574244914318E+03   -0.19131E-04   -0.14152E-04  8040   0.163E-02    0.193E-02
DAV:  18    -0.574244923483E+03   -0.91651E-05   -0.43210E-05  7928   0.926E-03    0.154E-02
DAV:  19    -0.574244929917E+03   -0.64343E-05   -0.14532E-05  8200   0.539E-03    0.113E-02
DAV:  20    -0.574244937452E+03   -0.75349E-05   -0.21790E-05  8080   0.532E-03    0.640E-03
DAV:  21    -0.574244940751E+03   -0.32990E-05   -0.85079E-06  8648   0.326E-03    0.498E-03
DAV:  22    -0.574244942953E+03   -0.22017E-05   -0.41610E-06  8320   0.222E-03    0.386E-03
DAV:  23    -0.574244946216E+03   -0.32635E-05   -0.20946E-05  7968   0.476E-03    0.307E-03
DAV:  24    -0.574244946221E+03   -0.44893E-08   -0.41693E-06  8792   0.227E-03    0.270E-03
DAV:  25    -0.574244946154E+03    0.66650E-07   -0.96369E-07  7856   0.111E-03
   1 F= -.57424495E+03 E0= -.57424399E+03  d E =-.191888E-02  mag=     1.0000
