Si and Ge interface calculation         
           1
    13.303180    0.000000    0.000000
     0.000000   18.813536    0.000000
     0.000000    0.000000   21.449951
   Si   Sn
   144    72
Direct configuration=     1
   0.97851729  0.49999997  0.00000000
   0.72851718  0.49999994  0.08951765
   0.47851712  0.49999988  0.17903526
   0.22851706  0.49999979  0.26855284
   0.97851694  0.49999973  0.35807046
   0.72851682  0.49999970  0.44758818
   0.31185061  0.66666669  0.00000000
   0.06185051  0.66666663  0.08951763
   0.81185043  0.66666657  0.17903525
   0.56185037  0.66666651  0.26855290
   0.31185019  0.66666645  0.35807052
   0.06185007  0.66666639  0.44758818
   0.64518398  0.83333343  0.00000000
   0.39518389  0.83333337  0.08951765
   0.14518374  0.83333331  0.17903526
   0.89518368  0.83333319  0.26855284
   0.64518356  0.83333313  0.35807049
   0.39518344  0.83333307  0.44758815
   0.97851729  0.00000000  0.00000001
   0.72851718  0.99999994  0.08951763
   0.47851712  0.99999988  0.17903525
   0.22851700  0.99999982  0.26855284
   0.97851694  0.99999970  0.35807049
   0.72851682  0.99999970  0.44758815
   0.31185061  0.16666666  0.00000001
   0.06185054  0.16666661  0.08951763
   0.81185043  0.16666654  0.17903525
   0.56185043  0.16666648  0.26855290
   0.31185031  0.16666642  0.35807049
   0.06185019  0.16666634  0.44758809
   0.64518398  0.33333334  0.00000001
   0.39518383  0.33333325  0.08951763
   0.14518380  0.33333319  0.17903525
   0.89518374  0.33333316  0.26855290
   0.64518356  0.33333307  0.35807049
   0.39518350  0.33333299  0.44758809
   0.14518397  0.83333337  0.00000001
   0.89518380  0.83333325  0.08951762
   0.64518380  0.83333319  0.17903526
   0.39518374  0.83333313  0.26855284
   0.14518356  0.83333313  0.35807052
   0.89518344  0.83333307  0.44758815
   0.14518394  0.33333331  0.00000001
   0.89518386  0.33333328  0.08951763
   0.64518380  0.33333319  0.17903525
   0.39518374  0.33333313  0.26855284
   0.14518362  0.33333307  0.35807049
   0.89518344  0.33333299  0.44758809
   0.47851732  0.50000000  0.00000001
   0.22851719  0.49999991  0.08951763
   0.97851712  0.49999988  0.17903525
   0.72851706  0.49999982  0.26855284
   0.47851694  0.49999973  0.35807049
   0.22851682  0.49999967  0.44758809
   0.81185067  0.66666675  0.00000001
   0.56185061  0.66666669  0.08951762
   0.31185049  0.66666657  0.17903526
   0.06185040  0.66666651  0.26855284
   0.81185025  0.66666645  0.35807049
   0.56185013  0.66666639  0.44758818
   0.47851729  0.00000000  0.00000001
   0.22851721  0.99999994  0.08951763
   0.97851712  0.99999988  0.17903525
   0.72851706  0.99999982  0.26855284
   0.47851694  0.99999976  0.35807049
   0.22851682  0.99999964  0.44758815
   0.81185061  0.16666669  0.00000001
   0.56185049  0.16666660  0.08951763
   0.31185046  0.16666654  0.17903525
   0.06185040  0.16666648  0.26855284
   0.81185025  0.16666640  0.35807049
   0.56185019  0.16666634  0.44758815
   0.14518398  0.70833337  0.00000000
   0.89518386  0.70833331  0.08951763
   0.64518380  0.70833325  0.17903525
   0.39518368  0.70833319  0.26855290
   0.14518356  0.70833313  0.35807052
   0.89518344  0.70833307  0.44758818
   0.47851729  0.87500012  0.00000000
   0.22851716  0.87500000  0.08951765
   0.97851712  0.87500000  0.17903526
   0.72851706  0.87499988  0.26855284
   0.47851688  0.87499982  0.35807049
   0.22851682  0.87499976  0.44758815
   0.14518395  0.20833334  0.00000001
   0.89518386  0.20833328  0.08951763
   0.64518380  0.20833322  0.17903526
   0.39518368  0.20833315  0.26855284
   0.14518356  0.20833307  0.35807049
   0.89518344  0.20833303  0.44758815
   0.47851732  0.37500000  0.00000001
   0.22851721  0.37499994  0.08951764
   0.97851712  0.37499988  0.17903525
   0.72851706  0.37499982  0.26855284
   0.47851694  0.37499973  0.35807049
   0.22851682  0.37499970  0.44758815
   0.81185067  0.54166669  0.00000001
   0.56185055  0.54166663  0.08951763
   0.31185046  0.54166657  0.17903526
   0.06185041  0.54166651  0.26855284
   0.81185031  0.54166645  0.35807049
   0.56185019  0.54166639  0.44758815
   0.81185067  0.04166668  0.00000001
   0.56185055  0.04166659  0.08951764
   0.31185049  0.04166653  0.17903525
   0.06185041  0.04166647  0.26855290
   0.81185031  0.04166639  0.35807049
   0.56185019  0.04166632  0.44758815
   0.97851729  0.87500006  0.00000001
   0.72851718  0.87500000  0.08951762
   0.47851712  0.87499988  0.17903528
   0.22851706  0.87499982  0.26855284
   0.97851694  0.87499982  0.35807052
   0.72851682  0.87499970  0.44758815
   0.97851729  0.37500000  0.00000001
   0.72851718  0.37499994  0.08951764
   0.47851712  0.37499991  0.17903526
   0.22851706  0.37499979  0.26855284
   0.97851694  0.37499976  0.35807052
   0.72851682  0.37499973  0.44758818
   0.31185067  0.54166669  0.00000001
   0.06185053  0.54166663  0.08951764
   0.81185043  0.54166657  0.17903526
   0.56185043  0.54166651  0.26855284
   0.31185025  0.54166645  0.35807052
   0.06185007  0.54166639  0.44758818
   0.64518398  0.70833331  0.00000001
   0.39518386  0.70833325  0.08951764
   0.14518382  0.70833319  0.17903525
   0.89518368  0.70833313  0.26855290
   0.64518356  0.70833307  0.35807049
   0.39518350  0.70833296  0.44758815
   0.31185067  0.04166666  0.00000001
   0.06185054  0.04166659  0.08951763
   0.81185049  0.04166652  0.17903525
   0.56185043  0.04166645  0.26855284
   0.31185031  0.04166641  0.35807049
   0.06185013  0.04166633  0.44758815
   0.64518404  0.20833334  0.00000001
   0.39518389  0.20833325  0.08951763
   0.14518383  0.20833319  0.17903525
   0.89518374  0.20833313  0.26855284
   0.64518362  0.20833307  0.35807049
   0.39518350  0.20833299  0.44758815
   0.21982539  0.76827097  0.53471440
   0.96982539  0.76827097  0.68597811
   0.71982545  0.76827097  0.83724183
   0.21982539  0.43493763  0.53471440
   0.96982539  0.43493763  0.68597811
   0.71982545  0.43493763  0.83724183
   0.21982539  0.10160427  0.53471440
   0.96982539  0.10160427  0.68597811
   0.71982545  0.10160427  0.83724183
   0.71982539  0.76827097  0.53471440
   0.46982539  0.76827097  0.68597811
   0.21982539  0.76827097  0.83724183
   0.71982539  0.43493763  0.53471440
   0.46982539  0.43493763  0.68597811
   0.21982539  0.43493763  0.83724183
   0.71982539  0.10160427  0.53471440
   0.46982539  0.10160427  0.68597811
   0.21982539  0.10160427  0.83724183
   0.34482539  0.01827097  0.61034632
   0.09482539  0.01827097  0.76161003
   0.84482539  0.01827097  0.91287380
   0.34482539  0.68493772  0.61034632
   0.09482539  0.68493772  0.76161003
   0.84482539  0.68493772  0.91287380
   0.34482539  0.35160428  0.61034632
   0.09482539  0.35160428  0.76161003
   0.84482539  0.35160428  0.91287380
   0.84482539  0.01827097  0.61034632
   0.59482545  0.01827097  0.76161003
   0.34482542  0.01827097  0.91287380
   0.84482539  0.68493772  0.61034632
   0.59482545  0.68493772  0.76161003
   0.34482542  0.68493772  0.91287380
   0.84482539  0.35160428  0.61034632
   0.59482545  0.35160428  0.76161003
   0.34482542  0.35160428  0.91287380
   0.46982539  0.93493760  0.53471440
   0.21982539  0.93493760  0.68597811
   0.96982545  0.93493760  0.83724183
   0.46982539  0.60160428  0.53471440
   0.21982539  0.60160428  0.68597811
   0.96982545  0.60160428  0.83724183
   0.46982539  0.26827094  0.53471440
   0.21982539  0.26827094  0.68597811
   0.96982545  0.26827094  0.83724183
   0.96982539  0.93493760  0.53471440
   0.71982539  0.93493760  0.68597811
   0.46982545  0.93493760  0.83724183
   0.96982539  0.60160428  0.53471440
   0.71982539  0.60160428  0.68597811
   0.46982545  0.60160428  0.83724183
   0.96982539  0.26827094  0.53471440
   0.71982539  0.26827094  0.68597811
   0.46982545  0.26827094  0.83724183
   0.59482539  0.85160434  0.61034632
   0.34482545  0.85160434  0.76161003
   0.09482539  0.85160434  0.91287380
   0.59482539  0.51827097  0.61034632
   0.34482545  0.51827097  0.76161003
   0.09482539  0.51827097  0.91287380
   0.59482539  0.18493763  0.61034632
   0.34482545  0.18493763  0.76161003
   0.09482539  0.18493763  0.91287380
   0.09482539  0.85160434  0.61034632
   0.84482545  0.85160434  0.76161003
   0.59482539  0.85160434  0.91287380
   0.09482539  0.51827097  0.61034632
   0.84482545  0.51827097  0.76161003
   0.59482539  0.51827097  0.91287380
   0.09482539  0.18493763  0.61034632
   0.84482545  0.18493763  0.76161003
   0.59482539  0.18493763  0.91287380
