 216 216   0   0
  0.2508207E+02  0.1330318E-08  0.1881354E-08  0.2164667E-08  0.5000000E-15
  1.000000000000000E-004
  CAR 
 Si and Ge interface calculation         
      7.57231159     -8.07908491  301      4.60179574      1.00000000
     -8.079  0.0000E+00  0.0000E+00  0.0000E+00  0.0000E+00
     -8.027  0.0000E+00  0.0000E+00  0.0000E+00  0.0000E+00
     -7.975  0.0000E+00  0.0000E+00  0.0000E+00  0.0000E+00
     -7.923  0.0000E+00  0.0000E+00  0.0000E+00  0.0000E+00
     -7.870  0.0000E+00  0.0000E+00  0.0000E+00  0.0000E+00
     -7.818  0.0000E+00  0.0000E+00  0.0000E+00  0.0000E+00
     -7.766  0.0000E+00  0.0000E+00  0.0000E+00  0.0000E+00
     -7.714  0.0000E+00  0.0000E+00  0.0000E+00  0.0000E+00
     -7.662  0.0000E+00  0.0000E+00  0.0000E+00  0.0000E+00
     -7.610  0.0000E+00  0.0000E+00  0.0000E+00  0.0000E+00
     -7.557  0.0000E+00  0.0000E+00  0.0000E+00  0.0000E+00
     -7.505  0.0000E+00  0.0000E+00  0.0000E+00  0.0000E+00
     -7.453  0.0000E+00  0.0000E+00  0.0000E+00  0.0000E+00
     -7.401  0.1276E-04  0.1308E-05  0.6659E-06  0.6826E-07
     -7.349  0.9549E+01  0.9463E+01  0.4982E+00  0.4937E+00
     -7.297  0.9286E+01  0.8857E+01  0.9827E+00  0.9558E+00
     -7.244  0.9916E+01  0.1043E+02  0.1500E+01  0.1500E+01
     -7.192  0.2226E+02  0.2034E+02  0.2662E+01  0.2561E+01
     -7.140  0.2586E+02  0.2751E+02  0.4011E+01  0.3997E+01
     -7.088  0.1902E+02  0.1924E+02  0.5003E+01  0.5001E+01
     -7.036  0.1922E+02  0.1919E+02  0.6005E+01  0.6002E+01
     -6.983  0.1317E+02  0.1104E+02  0.6692E+01  0.6578E+01
     -6.931  0.1553E+02  0.1769E+02  0.7502E+01  0.7501E+01
     -6.879  0.4907E+02  0.4837E+02  0.1006E+02  0.1002E+02
     -6.827  0.4267E+02  0.4021E+02  0.1229E+02  0.1212E+02
     -6.775  0.4228E+02  0.4511E+02  0.1449E+02  0.1448E+02
     -6.723  0.3981E+01  0.2162E+01  0.1470E+02  0.1459E+02
     -6.670  0.4011E+02  0.4089E+02  0.1679E+02  0.1672E+02
     -6.618  0.1408E+02  0.1476E+02  0.1753E+02  0.1749E+02
     -6.566  0.5494E+02  0.5103E+02  0.2040E+02  0.2015E+02
     -6.514  0.2897E+02  0.3150E+02  0.2191E+02  0.2180E+02
     -6.462  0.1263E+02  0.1369E+02  0.2257E+02  0.2251E+02
     -6.410  0.2757E+02  0.2847E+02  0.2400E+02  0.2400E+02
     -6.357  0.6621E+02  0.6232E+02  0.2746E+02  0.2725E+02
     -6.305  0.4630E+02  0.4456E+02  0.2987E+02  0.2957E+02
     -6.253  0.2236E+02  0.2735E+02  0.3104E+02  0.3100E+02
     -6.201  0.5365E+02  0.4862E+02  0.3384E+02  0.3354E+02
     -6.149  0.5286E+02  0.5783E+02  0.3660E+02  0.3655E+02
     -6.097  0.2154E+02  0.2074E+02  0.3772E+02  0.3764E+02
     -6.044  0.3383E+02  0.2946E+02  0.3949E+02  0.3917E+02
     -5.992  0.6748E+02  0.7337E+02  0.4301E+02  0.4300E+02
     -5.940  0.2865E+02  0.2869E+02  0.4450E+02  0.4450E+02
     -5.888  0.9585E+01  0.9624E+01  0.4500E+02  0.4500E+02
     -5.836  0.1979E+02  0.1929E+02  0.4603E+02  0.4601E+02
     -5.784  0.6426E+02  0.6217E+02  0.4938E+02  0.4925E+02
     -5.731  0.5812E+02  0.5746E+02  0.5242E+02  0.5225E+02
     -5.679  0.3955E+02  0.4234E+02  0.5448E+02  0.5446E+02
     -5.627  0.4795E+02  0.4790E+02  0.5698E+02  0.5696E+02
     -5.575  0.3337E+02  0.2899E+02  0.5872E+02  0.5847E+02
     -5.523  0.8300E+02  0.8137E+02  0.6305E+02  0.6271E+02
     -5.471  0.6887E+02  0.6840E+02  0.6665E+02  0.6628E+02
     -5.418  0.3555E+02  0.4239E+02  0.6850E+02  0.6849E+02
     -5.366  0.5300E+02  0.5027E+02  0.7127E+02  0.7112E+02
     -5.314  0.3473E+02  0.3109E+02  0.7308E+02  0.7274E+02
     -5.262  0.1030E+03  0.1079E+03  0.7845E+02  0.7837E+02
     -5.210  0.7877E+02  0.7609E+02  0.8256E+02  0.8234E+02
     -5.157  0.4627E+02  0.4965E+02  0.8497E+02  0.8493E+02
     -5.105  0.8003E+02  0.7339E+02  0.8915E+02  0.8876E+02
     -5.053  0.7241E+02  0.6853E+02  0.9293E+02  0.9233E+02
     -5.001  0.4227E+02  0.5214E+02  0.9513E+02  0.9505E+02
     -4.949  0.3627E+02  0.3571E+02  0.9703E+02  0.9692E+02
     -4.897  0.5917E+02  0.5917E+02  0.1001E+03  0.1000E+03
     -4.844  0.8731E+02  0.7869E+02  0.1047E+03  0.1041E+03
     -4.792  0.6818E+02  0.7406E+02  0.1082E+03  0.1080E+03
     -4.740  0.6710E+02  0.6930E+02  0.1117E+03  0.1116E+03
     -4.688  0.6280E+02  0.6522E+02  0.1150E+03  0.1150E+03
     -4.636  0.4461E+02  0.4046E+02  0.1173E+03  0.1171E+03
     -4.584  0.1044E+03  0.1042E+03  0.1228E+03  0.1225E+03
     -4.531  0.8404E+02  0.8526E+02  0.1272E+03  0.1270E+03
     -4.479  0.7286E+02  0.7018E+02  0.1310E+03  0.1306E+03
     -4.427  0.4403E+02  0.4095E+02  0.1333E+03  0.1328E+03
     -4.375  0.7766E+02  0.8024E+02  0.1373E+03  0.1370E+03
     -4.323  0.6084E+02  0.6379E+02  0.1405E+03  0.1403E+03
     -4.271  0.7289E+02  0.6888E+02  0.1443E+03  0.1439E+03
     -4.218  0.9833E+02  0.9757E+02  0.1494E+03  0.1490E+03
     -4.166  0.7995E+02  0.7613E+02  0.1536E+03  0.1530E+03
     -4.114  0.1171E+03  0.1228E+03  0.1597E+03  0.1594E+03
     -4.062  0.7356E+02  0.7641E+02  0.1635E+03  0.1633E+03
     -4.010  0.5620E+02  0.5723E+02  0.1665E+03  0.1663E+03
     -3.958  0.4669E+02  0.4470E+02  0.1689E+03  0.1687E+03
     -3.905  0.5080E+02  0.5397E+02  0.1716E+03  0.1715E+03
     -3.853  0.8724E+02  0.7356E+02  0.1761E+03  0.1753E+03
     -3.801  0.8165E+02  0.9083E+02  0.1804E+03  0.1801E+03
     -3.749  0.8025E+02  0.8082E+02  0.1845E+03  0.1843E+03
     -3.697  0.2918E+02  0.3301E+02  0.1861E+03  0.1860E+03
     -3.645  0.3177E+02  0.2668E+02  0.1877E+03  0.1874E+03
     -3.592  0.4605E+02  0.4527E+02  0.1901E+03  0.1897E+03
     -3.540  0.4500E+02  0.4597E+02  0.1925E+03  0.1921E+03
     -3.488  0.8498E+02  0.8917E+02  0.1969E+03  0.1968E+03
     -3.436  0.2051E+02  0.1865E+02  0.1980E+03  0.1978E+03
     -3.384  0.6622E+02  0.6681E+02  0.2014E+03  0.2013E+03
     -3.331  0.6611E+01  0.7307E+01  0.2018E+03  0.2016E+03
     -3.279  0.6067E+02  0.5744E+02  0.2049E+03  0.2046E+03
     -3.227  0.3113E+02  0.3621E+02  0.2066E+03  0.2065E+03
     -3.175  0.2903E+02  0.2869E+02  0.2081E+03  0.2080E+03
     -3.123  0.4394E+02  0.4231E+02  0.2104E+03  0.2102E+03
     -3.071  0.2295E+02  0.2393E+02  0.2116E+03  0.2115E+03
     -3.018  0.5086E+02  0.4788E+02  0.2142E+03  0.2140E+03
     -2.966  0.4127E+02  0.4244E+02  0.2164E+03  0.2162E+03
     -2.914  0.3324E+02  0.2722E+02  0.2181E+03  0.2176E+03
     -2.862  0.7220E+02  0.7987E+02  0.2219E+03  0.2218E+03
     -2.810  0.6342E+02  0.5607E+02  0.2252E+03  0.2247E+03
     -2.758  0.7403E+02  0.7502E+02  0.2291E+03  0.2286E+03
     -2.705  0.2979E+02  0.3221E+02  0.2306E+03  0.2303E+03
     -2.653  0.5506E+02  0.5994E+02  0.2335E+03  0.2334E+03
     -2.601  0.1001E+02  0.1108E+02  0.2340E+03  0.2340E+03
     -2.549  0.4850E+02  0.4460E+02  0.2365E+03  0.2363E+03
     -2.497  0.7583E+02  0.7713E+02  0.2405E+03  0.2404E+03
     -2.445  0.3536E+02  0.3407E+02  0.2423E+03  0.2421E+03
     -2.392  0.8660E+02  0.8294E+02  0.2469E+03  0.2465E+03
     -2.340  0.7109E+02  0.7332E+02  0.2506E+03  0.2503E+03
     -2.288  0.1021E+03  0.1044E+03  0.2559E+03  0.2557E+03
     -2.236  0.8893E+02  0.8709E+02  0.2605E+03  0.2603E+03
     -2.184  0.7988E+02  0.7704E+02  0.2647E+03  0.2643E+03
     -2.132  0.8192E+02  0.8875E+02  0.2690E+03  0.2689E+03
     -2.079  0.5938E+02  0.4886E+02  0.2721E+03  0.2715E+03
     -2.027  0.8159E+02  0.8567E+02  0.2763E+03  0.2759E+03
     -1.975  0.9356E+02  0.8958E+02  0.2812E+03  0.2806E+03
     -1.923  0.1066E+03  0.1065E+03  0.2868E+03  0.2862E+03
     -1.871  0.1098E+03  0.1156E+03  0.2925E+03  0.2922E+03
     -1.819  0.7609E+02  0.7802E+02  0.2965E+03  0.2963E+03
     -1.766  0.7978E+02  0.7749E+02  0.3006E+03  0.3003E+03
     -1.714  0.8385E+02  0.8592E+02  0.3050E+03  0.3048E+03
     -1.662  0.1046E+03  0.1030E+03  0.3105E+03  0.3102E+03
     -1.610  0.8848E+02  0.8375E+02  0.3151E+03  0.3145E+03
     -1.558  0.5825E+02  0.5803E+02  0.3181E+03  0.3176E+03
     -1.505  0.9005E+02  0.9280E+02  0.3228E+03  0.3224E+03
     -1.453  0.7721E+02  0.8079E+02  0.3268E+03  0.3266E+03
     -1.401  0.7986E+02  0.8379E+02  0.3310E+03  0.3310E+03
     -1.349  0.5444E+02  0.5182E+02  0.3338E+03  0.3337E+03
     -1.297  0.2255E+02  0.2505E+02  0.3350E+03  0.3350E+03
     -1.245  0.4510E+02  0.4357E+02  0.3374E+03  0.3373E+03
     -1.192  0.3425E+02  0.3454E+02  0.3392E+03  0.3391E+03
     -1.140  0.7221E+02  0.7106E+02  0.3429E+03  0.3428E+03
     -1.088  0.5722E+02  0.5656E+02  0.3459E+03  0.3457E+03
     -1.036  0.4476E+02  0.4541E+02  0.3483E+03  0.3481E+03
     -0.984  0.5078E+02  0.5058E+02  0.3509E+03  0.3507E+03
     -0.932  0.5336E+02  0.4623E+02  0.3537E+03  0.3532E+03
     -0.879  0.6897E+02  0.7565E+02  0.3573E+03  0.3571E+03
     -0.827  0.4125E+02  0.4065E+02  0.3594E+03  0.3592E+03
     -0.775  0.1874E+02  0.1902E+02  0.3604E+03  0.3602E+03
     -0.723  0.7824E+02  0.7439E+02  0.3645E+03  0.3641E+03
     -0.671  0.4516E+02  0.4977E+02  0.3668E+03  0.3667E+03
     -0.619  0.2586E+02  0.2596E+02  0.3682E+03  0.3681E+03
     -0.566  0.4372E+02  0.4535E+02  0.3705E+03  0.3704E+03
     -0.514  0.5465E+02  0.5279E+02  0.3733E+03  0.3732E+03
     -0.462  0.5820E+02  0.5515E+02  0.3764E+03  0.3760E+03
     -0.410  0.3635E+02  0.3887E+02  0.3783E+03  0.3781E+03
     -0.358  0.3232E+02  0.3236E+02  0.3800E+03  0.3798E+03
     -0.306  0.9546E+02  0.9127E+02  0.3849E+03  0.3845E+03
     -0.253  0.3945E+02  0.4661E+02  0.3870E+03  0.3870E+03
     -0.201  0.2759E+02  0.2571E+02  0.3884E+03  0.3883E+03
     -0.149  0.1136E+02  0.7190E+01  0.3890E+03  0.3887E+03
     -0.097  0.2839E+02  0.3496E+02  0.3905E+03  0.3905E+03
     -0.045  0.4443E+02  0.3599E+02  0.3928E+03  0.3924E+03
      0.007  0.3223E+02  0.4071E+02  0.3945E+03  0.3945E+03
      0.060  0.5058E+02  0.4685E+02  0.3971E+03  0.3969E+03
      0.112  0.3564E+02  0.3932E+02  0.3990E+03  0.3990E+03
      0.164  0.1109E-01  0.8062E-01  0.3990E+03  0.3990E+03
      0.216  0.1219E+02  0.7621E+01  0.3996E+03  0.3994E+03
      0.268  0.3854E+02  0.3765E+02  0.4016E+03  0.4014E+03
      0.320  0.2641E+02  0.3153E+02  0.4030E+03  0.4030E+03
      0.373  0.1106E+03  0.1047E+03  0.4088E+03  0.4085E+03
      0.425  0.5263E+02  0.5785E+02  0.4115E+03  0.4115E+03
      0.477  0.1232E+03  0.1082E+03  0.4180E+03  0.4171E+03
      0.529  0.1070E+03  0.1185E+03  0.4236E+03  0.4233E+03
      0.581  0.6462E+02  0.6636E+02  0.4269E+03  0.4268E+03
      0.634  0.1061E+03  0.1013E+03  0.4325E+03  0.4321E+03
      0.686  0.1424E+03  0.1468E+03  0.4399E+03  0.4397E+03
      0.738  0.6539E+02  0.6280E+02  0.4433E+03  0.4430E+03
      0.790  0.1093E+03  0.1060E+03  0.4490E+03  0.4485E+03
      0.842  0.1283E+03  0.1336E+03  0.4557E+03  0.4555E+03
      0.894  0.9982E+02  0.9544E+02  0.4609E+03  0.4605E+03
      0.947  0.1230E+03  0.1235E+03  0.4673E+03  0.4669E+03
      0.999  0.4987E+02  0.4970E+02  0.4699E+03  0.4695E+03
      1.051  0.1344E+03  0.1392E+03  0.4769E+03  0.4768E+03
      1.103  0.7770E+02  0.7633E+02  0.4810E+03  0.4808E+03
      1.155  0.1204E+03  0.1180E+03  0.4873E+03  0.4869E+03
      1.207  0.5587E+02  0.4982E+02  0.4902E+03  0.4895E+03
      1.260  0.1028E+03  0.1051E+03  0.4956E+03  0.4950E+03
      1.312  0.7595E+02  0.8001E+02  0.4995E+03  0.4992E+03
      1.364  0.1631E+03  0.1653E+03  0.5080E+03  0.5078E+03
      1.416  0.9044E+02  0.8403E+02  0.5127E+03  0.5122E+03
      1.468  0.1457E+03  0.1481E+03  0.5203E+03  0.5199E+03
      1.520  0.1078E+03  0.1058E+03  0.5260E+03  0.5254E+03
      1.573  0.1388E+03  0.1425E+03  0.5332E+03  0.5329E+03
      1.625  0.1579E+03  0.1509E+03  0.5414E+03  0.5407E+03
      1.677  0.1673E+03  0.1726E+03  0.5502E+03  0.5497E+03
      1.729  0.1387E+03  0.1379E+03  0.5574E+03  0.5569E+03
      1.781  0.1134E+03  0.1153E+03  0.5633E+03  0.5629E+03
      1.833  0.1485E+03  0.1386E+03  0.5711E+03  0.5702E+03
      1.886  0.1753E+03  0.1812E+03  0.5802E+03  0.5796E+03
      1.938  0.1164E+03  0.1241E+03  0.5863E+03  0.5861E+03
      1.990  0.1169E+03  0.1143E+03  0.5924E+03  0.5921E+03
      2.042  0.1375E+03  0.1400E+03  0.5996E+03  0.5994E+03
      2.094  0.1611E+03  0.1472E+03  0.6080E+03  0.6071E+03
      2.146  0.1523E+03  0.1538E+03  0.6159E+03  0.6151E+03
      2.199  0.1438E+03  0.1481E+03  0.6234E+03  0.6228E+03
      2.251  0.1822E+03  0.1789E+03  0.6329E+03  0.6321E+03
      2.303  0.1290E+03  0.1322E+03  0.6396E+03  0.6390E+03
      2.355  0.1299E+03  0.1232E+03  0.6464E+03  0.6455E+03
      2.407  0.1829E+03  0.1905E+03  0.6560E+03  0.6554E+03
      2.460  0.1156E+03  0.1136E+03  0.6620E+03  0.6613E+03
      2.512  0.1108E+03  0.1150E+03  0.6678E+03  0.6673E+03
      2.564  0.1605E+03  0.1546E+03  0.6762E+03  0.6754E+03
      2.616  0.1363E+03  0.1391E+03  0.6833E+03  0.6827E+03
      2.668  0.1278E+03  0.1320E+03  0.6899E+03  0.6895E+03
      2.720  0.1064E+03  0.1051E+03  0.6955E+03  0.6950E+03
      2.773  0.1440E+03  0.1444E+03  0.7030E+03  0.7026E+03
      2.825  0.1518E+03  0.1488E+03  0.7109E+03  0.7103E+03
      2.877  0.1349E+03  0.1337E+03  0.7180E+03  0.7173E+03
      2.929  0.1432E+03  0.1448E+03  0.7254E+03  0.7249E+03
      2.981  0.1257E+03  0.1346E+03  0.7320E+03  0.7319E+03
      3.033  0.1181E+03  0.1060E+03  0.7382E+03  0.7374E+03
      3.086  0.1481E+03  0.1508E+03  0.7459E+03  0.7453E+03
      3.138  0.4830E+02  0.5632E+02  0.7484E+03  0.7482E+03
      3.190  0.9323E+02  0.8665E+02  0.7533E+03  0.7527E+03
      3.242  0.1204E+03  0.1210E+03  0.7595E+03  0.7591E+03
      3.294  0.1219E+03  0.1257E+03  0.7659E+03  0.7656E+03
      3.346  0.6188E+02  0.6326E+02  0.7691E+03  0.7689E+03
      3.399  0.1204E+03  0.1165E+03  0.7754E+03  0.7750E+03
      3.451  0.9648E+02  0.1021E+03  0.7804E+03  0.7803E+03
      3.503  0.7215E+02  0.6743E+02  0.7842E+03  0.7838E+03
      3.555  0.1171E+03  0.1091E+03  0.7903E+03  0.7895E+03
      3.607  0.8380E+02  0.9283E+02  0.7947E+03  0.7944E+03
      3.659  0.8924E+02  0.8991E+02  0.7993E+03  0.7991E+03
      3.712  0.8975E+02  0.8871E+02  0.8040E+03  0.8037E+03
      3.764  0.8054E+02  0.8348E+02  0.8082E+03  0.8080E+03
      3.816  0.8456E+02  0.7387E+02  0.8126E+03  0.8119E+03
      3.868  0.6156E+02  0.7063E+02  0.8159E+03  0.8156E+03
      3.920  0.7419E+02  0.6767E+02  0.8197E+03  0.8191E+03
      3.972  0.1115E+03  0.1126E+03  0.8255E+03  0.8250E+03
      4.025  0.6620E+02  0.7655E+02  0.8290E+03  0.8290E+03
      4.077  0.4901E+02  0.4255E+02  0.8316E+03  0.8312E+03
      4.129  0.7865E+02  0.6569E+02  0.8357E+03  0.8346E+03
      4.181  0.8893E+02  0.1017E+03  0.8403E+03  0.8399E+03
      4.233  0.3782E+02  0.3376E+02  0.8423E+03  0.8417E+03
      4.286  0.7326E+02  0.5155E+02  0.8461E+03  0.8444E+03
      4.338  0.8844E+02  0.1016E+03  0.8507E+03  0.8497E+03
      4.390  0.5714E+02  0.6301E+02  0.8537E+03  0.8530E+03
      4.442  0.7493E+02  0.7126E+02  0.8576E+03  0.8567E+03
      4.494  0.3499E+02  0.3102E+02  0.8594E+03  0.8583E+03
      4.546  0.3298E+02  0.3275E+02  0.8611E+03  0.8600E+03
      4.599  0.5417E+02  0.5606E+02  0.8640E+03  0.8629E+03
      4.651  0.1892E+02  0.2307E+02  0.8650E+03  0.8641E+03
      4.703  0.1241E+01  0.1641E+02  0.8650E+03  0.8650E+03
      4.755  0.5464E+02  0.3566E+02  0.8679E+03  0.8668E+03
      4.807  0.2486E+01  0.2211E+02  0.8680E+03  0.8680E+03
      4.859  0.4764E+02  0.4510E+02  0.8705E+03  0.8704E+03
      4.912  0.4559E+02  0.2430E+02  0.8729E+03  0.8716E+03
      4.964  0.5314E+02  0.7072E+02  0.8756E+03  0.8753E+03
      5.016  0.4416E+02  0.4530E+02  0.8779E+03  0.8777E+03
      5.068  0.4782E+02  0.4716E+02  0.8804E+03  0.8801E+03
      5.120  0.4718E+02  0.4260E+02  0.8829E+03  0.8824E+03
      5.172  0.5529E+02  0.5891E+02  0.8858E+03  0.8854E+03
      5.225  0.6588E+02  0.5931E+02  0.8892E+03  0.8885E+03
      5.277  0.5829E+02  0.5425E+02  0.8923E+03  0.8914E+03
      5.329  0.3808E+02  0.5150E+02  0.8942E+03  0.8940E+03
      5.381  0.1113E+03  0.1054E+03  0.9001E+03  0.8995E+03
      5.433  0.8254E+02  0.8634E+02  0.9044E+03  0.9040E+03
      5.485  0.7127E+02  0.6493E+02  0.9081E+03  0.9074E+03
      5.538  0.5599E+02  0.6821E+02  0.9110E+03  0.9110E+03
      5.590  0.3652E+02  0.3220E+02  0.9129E+03  0.9127E+03
      5.642  0.4853E+02  0.4840E+02  0.9154E+03  0.9152E+03
      5.694  0.1049E+03  0.1010E+03  0.9209E+03  0.9205E+03
      5.746  0.9884E+02  0.1041E+03  0.9261E+03  0.9259E+03
      5.798  0.8794E+02  0.8403E+02  0.9307E+03  0.9303E+03
      5.851  0.6947E+02  0.7154E+02  0.9343E+03  0.9340E+03
      5.903  0.9760E+02  0.9678E+02  0.9394E+03  0.9391E+03
      5.955  0.1101E+03  0.1104E+03  0.9451E+03  0.9448E+03
      6.007  0.7954E+02  0.7393E+02  0.9493E+03  0.9487E+03
      6.059  0.9101E+02  0.1017E+03  0.9540E+03  0.9540E+03
      6.112  0.1068E+03  0.1051E+03  0.9596E+03  0.9595E+03
      6.164  0.8374E+02  0.8268E+02  0.9640E+03  0.9638E+03
      6.216  0.6265E+02  0.5936E+02  0.9672E+03  0.9669E+03
      6.268  0.1305E+03  0.1349E+03  0.9740E+03  0.9739E+03
      6.320  0.9924E+02  0.9695E+02  0.9792E+03  0.9790E+03
      6.372  0.1173E+03  0.1166E+03  0.9853E+03  0.9851E+03
      6.425  0.7154E+02  0.6731E+02  0.9891E+03  0.9886E+03
      6.477  0.1287E+03  0.1292E+03  0.9958E+03  0.9953E+03
      6.529  0.1343E+03  0.1330E+03  0.1003E+04  0.1002E+04
      6.581  0.1183E+03  0.1212E+03  0.1009E+04  0.1009E+04
      6.633  0.1354E+03  0.1355E+03  0.1016E+04  0.1016E+04
      6.685  0.1447E+03  0.1434E+03  0.1024E+04  0.1023E+04
      6.738  0.8751E+02  0.9159E+02  0.1028E+04  0.1028E+04
      6.790  0.9680E+02  0.8880E+02  0.1033E+04  0.1033E+04
      6.842  0.1164E+03  0.1097E+03  0.1039E+04  0.1038E+04
      6.894  0.1423E+02  0.3320E+02  0.1040E+04  0.1040E+04
      6.946  0.0000E+00  0.0000E+00  0.1040E+04  0.1040E+04
      6.998  0.0000E+00  0.0000E+00  0.1040E+04  0.1040E+04
      7.051  0.0000E+00  0.0000E+00  0.1040E+04  0.1040E+04
      7.103  0.0000E+00  0.0000E+00  0.1040E+04  0.1040E+04
      7.155  0.0000E+00  0.0000E+00  0.1040E+04  0.1040E+04
      7.207  0.0000E+00  0.0000E+00  0.1040E+04  0.1040E+04
      7.259  0.0000E+00  0.0000E+00  0.1040E+04  0.1040E+04
      7.311  0.0000E+00  0.0000E+00  0.1040E+04  0.1040E+04
      7.364  0.0000E+00  0.0000E+00  0.1040E+04  0.1040E+04
      7.416  0.0000E+00  0.0000E+00  0.1040E+04  0.1040E+04
      7.468  0.0000E+00  0.0000E+00  0.1040E+04  0.1040E+04
      7.520  0.0000E+00  0.0000E+00  0.1040E+04  0.1040E+04
      7.572  0.0000E+00  0.0000E+00  0.1040E+04  0.1040E+04
