       N       E                     dE             d eps       ncg     rms          rms(c)
DAV:   1     0.467001145500E+04    0.46700E+04   -0.44327E+05 20352   0.167E+03
DAV:   2    -0.578840602473E+03   -0.52489E+04   -0.50689E+04 23968   0.202E+02
DAV:   3    -0.111076848667E+04   -0.53193E+03   -0.51360E+03 25904   0.587E+01
DAV:   4    -0.113318829973E+04   -0.22420E+02   -0.21955E+02 24648   0.129E+01
DAV:   5    -0.113421667678E+04   -0.10284E+01   -0.10191E+01 28872   0.275E+00    0.480E+01
DAV:   6    -0.110379036144E+04    0.30426E+02   -0.10079E+02 30880   0.132E+01    0.222E+01
DAV:   7    -0.110197409491E+04    0.18163E+01   -0.67656E+01 25952   0.111E+01    0.156E+01
DAV:   8    -0.109889925505E+04    0.30748E+01   -0.15092E+01 24264   0.499E+00    0.309E+00
DAV:   9    -0.109889670673E+04    0.25483E-02   -0.40240E+00 25176   0.201E+00    0.220E+00
DAV:  10    -0.109884563790E+04    0.51069E-01   -0.87626E-01 24272   0.106E+00    0.149E+00
DAV:  11    -0.109883429265E+04    0.11345E-01   -0.18630E-01 24136   0.547E-01    0.964E-01
DAV:  12    -0.109883315502E+04    0.11376E-02   -0.54797E-02 24120   0.311E-01    0.602E-01
DAV:  13    -0.109883007487E+04    0.30802E-02   -0.23391E-02 24824   0.187E-01    0.284E-01
DAV:  14    -0.109883060934E+04   -0.53447E-03   -0.86726E-03 24232   0.107E-01    0.155E-01
DAV:  15    -0.109883026941E+04    0.33993E-03   -0.36104E-03 25096   0.777E-02    0.927E-02
DAV:  16    -0.109883015597E+04    0.11344E-03   -0.10367E-03 24512   0.385E-02    0.594E-02
DAV:  17    -0.109883017895E+04   -0.22978E-04   -0.34165E-04 23216   0.196E-02    0.370E-02
DAV:  18    -0.109883017881E+04    0.13539E-06   -0.94517E-05 23936   0.120E-02    0.183E-02
DAV:  19    -0.109883017442E+04    0.43955E-05   -0.28408E-05 24216   0.692E-03    0.127E-02
DAV:  20    -0.109883017273E+04    0.16925E-05   -0.93433E-06 24144   0.408E-03    0.881E-03
DAV:  21    -0.109883017289E+04   -0.16651E-06   -0.36533E-06 24112   0.242E-03    0.462E-03
DAV:  22    -0.109883017351E+04   -0.61344E-06   -0.13223E-06 24024   0.142E-03    0.215E-03
DAV:  23    -0.109883017379E+04   -0.28470E-06   -0.34409E-07 15760   0.679E-04    0.137E-03
DAV:  24    -0.109883017411E+04   -0.32185E-06   -0.12050E-07 12040   0.387E-04    0.815E-04
DAV:  25    -0.109883017432E+04   -0.20265E-06   -0.55549E-08 11792   0.258E-04    0.573E-04
DAV:  26    -0.109883017437E+04   -0.53202E-07   -0.29306E-08 11752   0.187E-04
   1 F= -.10988302E+04 E0= -.10988272E+04  d E =-.587399E-02  mag=     1.0000
