<?xml version="1.0" encoding="ISO-8859-1"?>
<modeling>
 <generator>
  <i name="program" type="string">vasp </i>
  <i name="version" type="string">6.4.3  </i>
  <i name="subversion" type="string">19Mar24 (build Oct 22 2024 11:23:12) complex                          parallel </i>
  <i name="platform" type="string">LinuxIFC </i>
  <i name="date" type="string">2025 06 09 </i>
  <i name="time" type="string">05:47:15 </i>
 </generator>
 <incar>
  <i type="string" name="SYSTEM">Si and Ge interface calculation</i>
  <i type="int" name="ISTART">     0</i>
  <i type="logical" name="ADDGRID"> T  </i>
  <i type="int" name="ISPIN">     2</i>
  <i name="AMIX">      0.60000000</i>
  <i type="int" name="ICHARG">     2</i>
  <i type="int" name="NELM">   100</i>
  <i name="EDIFF">      0.00000010</i>
  <i name="ENCUT">    700.00000000</i>
  <i name="ENAUG">    900.00000000</i>
  <i type="int" name="NBANDS">   432</i>
  <i name="NUPDOWN">      1.00000000</i>
  <i name="NELECT">    720.00000000</i>
  <i type="string" name="LREAL">AUTO</i>
  <i type="int" name="ISMEAR">     0</i>
  <i name="SIGMA">      0.01000000</i>
  <i type="int" name="LMAXMIX">     6</i>
  <i type="logical" name="LWAVE"> F  </i>
  <i type="logical" name="LVTOT"> F  </i>
  <i type="logical" name="LVHAR"> T  </i>
  <i type="logical" name="LASPH"> T  </i>
  <i type="logical" name="LMIXTAU"> T  </i>
 </incar>
 <primitive_cell>
  <structure name="primitive_cell" >
   <crystal>
    <varray name="basis" >
     <v>       6.92936065      -9.79959774       0.00000000 </v>
     <v>       6.92936065       9.79959774       0.00000000 </v>
     <v>       0.00000000       0.00000000      17.60313034 </v>
    </varray>
    <i name="volume">   2390.67926371 </i>
    <varray name="rec_basis" >
     <v>       0.07215673      -0.05102250       0.00000000 </v>
     <v>       0.07215673       0.05102250       0.00000000 </v>
     <v>       0.00000000       0.00000000       0.05680808 </v>
    </varray>
   </crystal>
   <varray name="positions" >
    <v>       0.47937873       0.47937867       0.00000001 </v>
    <v>       0.22937858       0.22937846       0.11363522 </v>
    <v>       0.97937846       0.97937822       0.22727042 </v>
    <v>       0.72937846       0.72937810       0.34090558 </v>
    <v>       0.47937872       0.47937819       0.45454073 </v>
    <v>       0.22937846       0.22937786       0.56817591 </v>
    <v>       0.64604530       0.97937864       0.00000002 </v>
    <v>       0.39604506       0.72937831       0.11363521 </v>
    <v>       0.14604522       0.47937836       0.22727041 </v>
    <v>       0.89604511       0.22937813       0.34090558 </v>
    <v>       0.64604510       0.97937800       0.45454070 </v>
    <v>       0.39604498       0.72937776       0.56817591 </v>
    <v>       0.81271183       0.47937845       0.00000002 </v>
    <v>       0.56271196       0.22937853       0.11363521 </v>
    <v>       0.31271168       0.97937806       0.22727041 </v>
    <v>       0.06271187       0.72937826       0.34090552 </v>
    <v>       0.81271181       0.47937796       0.45454070 </v>
    <v>       0.56271193       0.22937796       0.56817585 </v>
    <v>       0.97937870       0.97937870       0.00000002 </v>
    <v>       0.72937847       0.72937835       0.11363521 </v>
    <v>       0.47937858       0.47937834       0.22727041 </v>
    <v>       0.22937861       0.22937819       0.34090558 </v>
    <v>       0.97937852       0.97937804       0.45454070 </v>
    <v>       0.72937843       0.72937777       0.56817585 </v>
    <v>       0.14604516       0.47937854       0.00000002 </v>
    <v>       0.89604510       0.22937832       0.11363519 </v>
    <v>       0.64604510       0.97937812       0.22727038 </v>
    <v>       0.39604501       0.72937802       0.34090558 </v>
    <v>       0.14604516       0.47937806       0.45454073 </v>
    <v>       0.89604501       0.22937773       0.56817591 </v>
    <v>       0.31271196       0.97937864       0.00000002 </v>
    <v>       0.06271187       0.72937850       0.11363518 </v>
    <v>       0.81271174       0.47937818       0.22727038 </v>
    <v>       0.56271193       0.22937820       0.34090552 </v>
    <v>       0.31271175       0.97937802       0.45454076 </v>
    <v>       0.06271193       0.72937796       0.56817585 </v>
    <v>       0.43771181       0.85437856       0.00000000 </v>
    <v>       0.18771187       0.60437850       0.11363521 </v>
    <v>       0.93771177       0.35437818       0.22727038 </v>
    <v>       0.68771196       0.10437829       0.34090558 </v>
    <v>       0.43771175       0.85437802       0.45454070 </v>
    <v>       0.18771187       0.60437802       0.56817585 </v>
    <v>       0.60437873       0.35437867       0.00000001 </v>
    <v>       0.35437861       0.10437843       0.11363521 </v>
    <v>       0.10437852       0.85437840       0.22727042 </v>
    <v>       0.85437849       0.60437807       0.34090552 </v>
    <v>       0.60437872       0.35437819       0.45454070 </v>
    <v>       0.35437861       0.10437795       0.56817585 </v>
    <v>       0.93771180       0.35437845       0.00000002 </v>
    <v>       0.68771197       0.10437851       0.11363519 </v>
    <v>       0.43771174       0.85437812       0.22727041 </v>
    <v>       0.18771193       0.60437820       0.34090552 </v>
    <v>       0.93771178       0.35437799       0.45454073 </v>
    <v>       0.68771190       0.10437799       0.56817585 </v>
    <v>       0.10437869       0.85437881       0.00000001 </v>
    <v>       0.85437849       0.60437837       0.11363521 </v>
    <v>       0.60437864       0.35437840       0.22727041 </v>
    <v>       0.35437858       0.10437822       0.34090558 </v>
    <v>       0.10437869       0.85437822       0.45454076 </v>
    <v>       0.85437840       0.60437780       0.56817585 </v>
    <v>       0.27104528       0.35437866       0.00000002 </v>
    <v>       0.02104528       0.10437854       0.11363521 </v>
    <v>       0.77104513       0.85437827       0.22727041 </v>
    <v>       0.52104509       0.60437810       0.34090558 </v>
    <v>       0.27104528       0.35437818       0.45454073 </v>
    <v>       0.02104522       0.10437800       0.56817585 </v>
    <v>       0.77104522       0.85437860       0.00000001 </v>
    <v>       0.52104507       0.60437833       0.11363521 </v>
    <v>       0.27104522       0.35437836       0.22727042 </v>
    <v>       0.02104516       0.10437818       0.34090558 </v>
    <v>       0.77104516       0.85437806       0.45454073 </v>
    <v>       0.52104504       0.60437782       0.56817591 </v>
    <v>       0.54074086       0.09173741       0.68105024 </v>
    <v>       0.50740745       0.72507050       0.76348048 </v>
    <v>       0.47407419       0.35840381       0.84591079 </v>
    <v>       0.87407415       0.75840400       0.68105024 </v>
    <v>       0.84074074       0.39173722       0.76348048 </v>
    <v>       0.80740748       0.02507053       0.84591079 </v>
    <v>       0.20740755       0.42507072       0.68105024 </v>
    <v>       0.17407408       0.05840388       0.76348048 </v>
    <v>       0.14074079       0.69173721       0.84591079 </v>
    <v>       0.94074082       0.99173760       0.72226530 </v>
    <v>       0.90740735       0.62507064       0.80469555 </v>
    <v>       0.87407397       0.25840382       0.88712573 </v>
    <v>       0.27407431       0.65840410       0.72226530 </v>
    <v>       0.24074084       0.29173726       0.80469555 </v>
    <v>       0.20740737       0.92507042       0.88712573 </v>
    <v>       0.60740753       0.32507088       0.72226530 </v>
    <v>       0.57407409       0.95840389       0.80469555 </v>
    <v>       0.54074068       0.59173711       0.88712573 </v>
   </varray>
  </structure>
  <varray name="primitive_index" >
   <v type="int" >        1 </v>
   <v type="int" >        2 </v>
   <v type="int" >        3 </v>
   <v type="int" >        4 </v>
   <v type="int" >        5 </v>
   <v type="int" >        6 </v>
   <v type="int" >       67 </v>
   <v type="int" >        8 </v>
   <v type="int" >        9 </v>
   <v type="int" >       70 </v>
   <v type="int" >       11 </v>
   <v type="int" >       12 </v>
   <v type="int" >       43 </v>
   <v type="int" >       44 </v>
   <v type="int" >       15 </v>
   <v type="int" >       16 </v>
   <v type="int" >       47 </v>
   <v type="int" >       48 </v>
   <v type="int" >       19 </v>
   <v type="int" >       50 </v>
   <v type="int" >       51 </v>
   <v type="int" >       52 </v>
   <v type="int" >       53 </v>
   <v type="int" >       54 </v>
   <v type="int" >       55 </v>
   <v type="int" >       26 </v>
   <v type="int" >       57 </v>
   <v type="int" >       58 </v>
   <v type="int" >       59 </v>
   <v type="int" >       30 </v>
   <v type="int" >       31 </v>
   <v type="int" >       38 </v>
   <v type="int" >       33 </v>
   <v type="int" >       34 </v>
   <v type="int" >       41 </v>
   <v type="int" >       42 </v>
   <v type="int" >       73 </v>
   <v type="int" >       74 </v>
   <v type="int" >      141 </v>
   <v type="int" >      142 </v>
   <v type="int" >       77 </v>
   <v type="int" >       78 </v>
   <v type="int" >      115 </v>
   <v type="int" >      116 </v>
   <v type="int" >       81 </v>
   <v type="int" >      118 </v>
   <v type="int" >      119 </v>
   <v type="int" >      120 </v>
   <v type="int" >       85 </v>
   <v type="int" >       86 </v>
   <v type="int" >      129 </v>
   <v type="int" >      130 </v>
   <v type="int" >       89 </v>
   <v type="int" >       90 </v>
   <v type="int" >      109 </v>
   <v type="int" >       92 </v>
   <v type="int" >       93 </v>
   <v type="int" >       94 </v>
   <v type="int" >      113 </v>
   <v type="int" >       96 </v>
   <v type="int" >       97 </v>
   <v type="int" >       98 </v>
   <v type="int" >       99 </v>
   <v type="int" >      100 </v>
   <v type="int" >      101 </v>
   <v type="int" >      102 </v>
   <v type="int" >      121 </v>
   <v type="int" >      122 </v>
   <v type="int" >      123 </v>
   <v type="int" >      124 </v>
   <v type="int" >      125 </v>
   <v type="int" >      126 </v>
   <v type="int" >      169 </v>
   <v type="int" >      146 </v>
   <v type="int" >      147 </v>
   <v type="int" >      148 </v>
   <v type="int" >      149 </v>
   <v type="int" >      150 </v>
   <v type="int" >      166 </v>
   <v type="int" >      167 </v>
   <v type="int" >      153 </v>
   <v type="int" >      154 </v>
   <v type="int" >      176 </v>
   <v type="int" >      177 </v>
   <v type="int" >      157 </v>
   <v type="int" >      158 </v>
   <v type="int" >      180 </v>
   <v type="int" >      160 </v>
   <v type="int" >      173 </v>
   <v type="int" >      174 </v>
  </varray>
 </primitive_cell>
 <kpoints>
  <generation param="Gamma">
   <v type="int" name="divisions">       2        2        2 </v>
   <v name="usershift">      0.00000000       0.00000000       0.00000000 </v>
   <v name="genvec1">      0.50000000       0.00000000       0.00000000 </v>
   <v name="genvec2">      0.00000000       0.50000000       0.00000000 </v>
   <v name="genvec3">      0.00000000       0.00000000       0.50000000 </v>
   <v name="shift">      0.00000000       0.00000000       0.00000000 </v>
  </generation>
  <varray name="kpointlist" >
   <v>       0.00000000       0.00000000       0.00000000 </v>
   <v>       0.50000000       0.00000000       0.00000000 </v>
   <v>       0.00000000       0.50000000       0.00000000 </v>
   <v>       0.50000000       0.50000000       0.00000000 </v>
   <v>       0.00000000       0.00000000       0.50000000 </v>
   <v>       0.50000000       0.00000000       0.50000000 </v>
   <v>       0.00000000       0.50000000       0.50000000 </v>
   <v>       0.50000000       0.50000000       0.50000000 </v>
  </varray>
  <varray name="weights" >
   <v>       0.12500000 </v>
   <v>       0.12500000 </v>
   <v>       0.12500000 </v>
   <v>       0.12500000 </v>
   <v>       0.12500000 </v>
   <v>       0.12500000 </v>
   <v>       0.12500000 </v>
   <v>       0.12500000 </v>
  </varray>
 </kpoints>
 <parameters>
  <separator name="general" >
   <i type="string" name="SYSTEM">Si and Ge interface calculation</i>
   <i type="logical" name="LCOMPAT"> F  </i>
  </separator>
  <separator name="electronic" >
   <i type="string" name="PREC">normal</i>
   <i name="ENMAX">    700.00000000</i>
   <i name="ENAUG">    900.00000000</i>
   <i name="EDIFF">      0.00000010</i>
   <i type="int" name="IALGO">    38</i>
   <i type="int" name="IWAVPR">    10</i>
   <i type="int" name="NBANDS">   432</i>
   <i type="int" name="NBANDSLOW">    -1</i>
   <i type="int" name="NBANDSHIGH">    -1</i>
   <i name="NELECT">    720.00000000</i>
   <i type="int" name="TURBO">     0</i>
   <i type="int" name="IRESTART">     0</i>
   <i type="int" name="NREBOOT">     0</i>
   <i type="int" name="NMIN">     0</i>
   <i name="EREF">      0.00000000</i>
   <separator name="electronic smearing" >
    <i type="int" name="ISMEAR">     0</i>
    <i name="SIGMA">      0.01000000</i>
    <i name="KSPACING">      0.50000000</i>
    <i type="logical" name="KGAMMA"> T  </i>
    <i type="logical" name="KBLOWUP"> T  </i>
   </separator>
   <separator name="electronic projectors" >
    <i type="logical" name="LREAL"> T  </i>
    <v name="ROPT">     -0.00050000     -0.00050000</v>
    <i type="int" name="LMAXPAW">  -100</i>
    <i type="int" name="LMAXMIX">     6</i>
    <i type="logical" name="NLSPLINE"> F  </i>
   </separator>
   <separator name="electronic startup" >
    <i type="int" name="ISTART">     0</i>
    <i type="int" name="ICHARG">     2</i>
    <i type="int" name="INIWAV">     1</i>
   </separator>
   <separator name="electronic spin" >
    <i type="int" name="ISPIN">     2</i>
    <i type="logical" name="LNONCOLLINEAR"> F  </i>
    <v name="MAGMOM">      0.00555556      0.00555556      0.00555556      0.00555556      0.00555556      0.00555556      0.00555556      0.00555556      0.00555556      0.00555556      0.00555556      0.00555556      0.00555556      0.00555556      0.00555556      0.00555556      0.00555556      0.00555556      0.00555556      0.00555556
      0.00555556      0.00555556      0.00555556      0.00555556      0.00555556      0.00555556      0.00555556      0.00555556      0.00555556      0.00555556      0.00555556      0.00555556      0.00555556      0.00555556      0.00555556      0.00555556      0.00555556      0.00555556      0.00555556      0.00555556
      0.00555556      0.00555556      0.00555556      0.00555556      0.00555556      0.00555556      0.00555556      0.00555556      0.00555556      0.00555556      0.00555556      0.00555556      0.00555556      0.00555556      0.00555556      0.00555556      0.00555556      0.00555556      0.00555556      0.00555556
      0.00555556      0.00555556      0.00555556      0.00555556      0.00555556      0.00555556      0.00555556      0.00555556      0.00555556      0.00555556      0.00555556      0.00555556      0.00555556      0.00555556      0.00555556      0.00555556      0.00555556      0.00555556      0.00555556      0.00555556
      0.00555556      0.00555556      0.00555556      0.00555556      0.00555556      0.00555556      0.00555556      0.00555556      0.00555556      0.00555556      0.00555556      0.00555556      0.00555556      0.00555556      0.00555556      0.00555556      0.00555556      0.00555556      0.00555556      0.00555556
      0.00555556      0.00555556      0.00555556      0.00555556      0.00555556      0.00555556      0.00555556      0.00555556      0.00555556      0.00555556      0.00555556      0.00555556      0.00555556      0.00555556      0.00555556      0.00555556      0.00555556      0.00555556      0.00555556      0.00555556
      0.00555556      0.00555556      0.00555556      0.00555556      0.00555556      0.00555556      0.00555556      0.00555556      0.00555556      0.00555556      0.00555556      0.00555556      0.00555556      0.00555556      0.00555556      0.00555556      0.00555556      0.00555556      0.00555556      0.00555556
      0.00555556      0.00555556      0.00555556      0.00555556      0.00555556      0.00555556      0.00555556      0.00555556      0.00555556      0.00555556      0.00555556      0.00555556      0.00555556      0.00555556      0.00555556      0.00555556      0.00555556      0.00555556      0.00555556      0.00555556
      0.00555556      0.00555556      0.00555556      0.00555556      0.00555556      0.00555556      0.00555556      0.00555556      0.00555556      0.00555556      0.00555556      0.00555556      0.00555556      0.00555556      0.00555556      0.00555556      0.00555556      0.00555556      0.00555556      0.00555556
</v>
    <i name="NUPDOWN">      1.00000000</i>
    <i type="logical" name="LSORBIT"> F  </i>
    <v name="SAXIS">      0.00000000      0.00000000      1.00000000</v>
    <i type="logical" name="LSPIRAL"> F  </i>
    <v name="QSPIRAL">      0.00000000      0.00000000      0.00000000</v>
    <i type="logical" name="LZEROZ"> F  </i>
   </separator>
   <separator name="electronic exchange-correlation" >
    <i type="logical" name="LASPH"> T  </i>
   </separator>
   <separator name="electronic convergence" >
    <i type="int" name="NELM">   100</i>
    <i type="int" name="NELMDL">    -5</i>
    <i type="int" name="NELMIN">     2</i>
    <i name="ENINI">    700.00000000</i>
    <separator name="electronic convergence detail" >
     <i type="logical" name="LDIAG"> T  </i>
     <i type="logical" name="LSUBROT"> F  </i>
     <i name="WEIMIN">      0.00000000</i>
     <i name="EBREAK">      0.00000000</i>
     <i name="DEPER">      0.30000000</i>
     <i type="int" name="NRMM">     4</i>
     <i name="TIME">      0.40000000</i>
    </separator>
   </separator>
   <separator name="electronic mixer" >
    <i name="AMIX">      0.60000000</i>
    <i name="BMIX">      1.00000000</i>
    <i name="AMIN">      0.10000000</i>
    <i name="AMIX_MAG">      2.40000000</i>
    <i name="BMIX_MAG">      1.00000000</i>
    <separator name="electronic mixer details" >
     <i type="int" name="IMIX">     4</i>
     <i type="logical" name="MIXFIRST"> F  </i>
     <i type="int" name="MAXMIX">   -45</i>
     <i name="WC">    100.00000000</i>
     <i type="int" name="INIMIX">     1</i>
     <i type="int" name="MIXPRE">     1</i>
     <i type="int" name="MREMOVE">     5</i>
    </separator>
   </separator>
   <separator name="electronic dipolcorrection" >
    <i type="logical" name="LDIPOL"> F  </i>
    <i type="logical" name="LMONO"> F  </i>
    <i type="int" name="IDIPOL">     0</i>
    <i name="EPSILON">      1.00000000</i>
    <v name="DIPOL">   -100.00000000   -100.00000000   -100.00000000</v>
    <i name="EFIELD">      0.00000000</i>
    <i type="logical" name="LVACPOTAV"> F  </i>
   </separator>
  </separator>
  <separator name="grids" >
   <i type="int" name="NGX">    90</i>
   <i type="int" name="NGY">   128</i>
   <i type="int" name="NGZ">   120</i>
   <i type="int" name="NGXF">   180</i>
   <i type="int" name="NGYF">   256</i>
   <i type="int" name="NGZF">   240</i>
   <i type="logical" name="ADDGRID"> T  </i>
  </separator>
  <separator name="ionic" >
   <i type="int" name="NSW">     0</i>
   <i type="int" name="IBRION">    -1</i>
   <i type="int" name="MDALGO">     0</i>
   <i type="int" name="ISIF">     2</i>
   <i name="PSTRESS">      0.00000000</i>
   <i name="EDIFFG">      0.00000100</i>
   <i type="int" name="NFREE">     0</i>
   <i name="POTIM">      0.50000000</i>
   <i name="SMASS">     -3.00000000</i>
   <i name="SCALEE">      1.00000000</i>
  </separator>
  <separator name="ionic md" >
   <i name="TEBEG">      0.00010000</i>
   <i name="TEEND">      0.00010000</i>
   <i type="int" name="NBLOCK">     1</i>
   <i type="int" name="KBLOCK">     1</i>
   <i type="int" name="NPACO">   256</i>
   <i name="APACO">     10.00000000</i>
  </separator>
  <separator name="symmetry" >
   <i type="int" name="ISYM">     2</i>
   <i name="SYMPREC">      0.00001000</i>
  </separator>
  <separator name="dos" >
   <i type="int" name="LORBIT">     0</i>
   <v name="RWIGS">     -1.00000000     -1.00000000</v>
   <i type="int" name="NEDOS">   301</i>
   <i name="EMIN">     10.00000000</i>
   <i name="EMAX">    -10.00000000</i>
   <i name="EFERMI">      0.00000000</i>
  </separator>
  <separator name="writing" >
   <i type="int" name="NWRITE">     2</i>
   <i type="logical" name="LWAVE"> F  </i>
   <i type="logical" name="LDOWNSAMPLE"> F  </i>
   <i type="logical" name="LCHARG"> T  </i>
   <i type="logical" name="LPARD"> F  </i>
   <i type="logical" name="LVTOT"> F  </i>
   <i type="logical" name="LVHAR"> T  </i>
   <i type="logical" name="LELF"> F  </i>
   <i type="logical" name="LOPTICS"> F  </i>
   <v name="STM">      0.00000000      0.00000000      0.00000000      0.00000000      0.00000000      0.00000000      0.00000000</v>
  </separator>
  <separator name="performance" >
   <i type="int" name="NPAR">     4</i>
   <i type="int" name="NSIM">     4</i>
   <i type="int" name="NBLK">    -1</i>
   <i type="logical" name="LPLANE"> T  </i>
   <i type="logical" name="LSCALAPACK"> T  </i>
   <i type="logical" name="LSCAAWARE"> F  </i>
   <i type="logical" name="LSCALU"> F  </i>
   <i type="logical" name="LASYNC"> F  </i>
   <i type="logical" name="LORBITALREAL"> F  </i>
  </separator>
  <separator name="miscellaneous" >
   <i type="int" name="IDIOT">     3</i>
   <i type="int" name="PHON_NSTRUCT">    -1</i>
   <i type="logical" name="LMUSIC"> F  </i>
   <v name="POMASS">     72.61000000    118.71000000</v>
   <v name="DARWINR">      0.00000000      0.00000000</v>
   <v name="DARWINV">      1.00000000      1.00000000</v>
   <i type="logical" name="LCORR"> T  </i>
  </separator>
  <i type="logical" name="GGA_COMPAT"> T  </i>
  <i type="logical" name="LBERRY"> F  </i>
  <i type="int" name="ICORELEVEL">     0</i>
  <i type="logical" name="LDAU"> F  </i>
  <i type="int" name="I_CONSTRAINED_M">     0</i>
  <separator name="electronic exchange-correlation" >
   <i type="string" name="GGA    ">PE</i>
   <i type="string" name="XC_C">1</i>
   <i type="int" name="VOSKOWN">     0</i>
   <i type="logical" name="LHFCALC"> F  </i>
   <i type="string" name="PRECFOCK"></i>
   <i type="logical" name="LSYMGRAD"> F  </i>
   <i type="logical" name="LHFONE"> F  </i>
   <i type="logical" name="LRHFCALC"> F  </i>
   <i type="logical" name="LTHOMAS"> F  </i>
   <i type="logical" name="LMODELHF"> F  </i>
   <i type="logical" name="LFOCKACE"> F  </i>
   <i name="ENCUT4O">     -1.00000000</i>
   <i type="int" name="EXXOEP">     0</i>
   <i type="int" name="FOURORBIT">     0</i>
   <i name="AEXX">      0.00000000</i>
   <i name="HFALPHA">      0.00000000</i>
   <i name="MCALPHA">      0.00000000</i>
   <i name="ALDAX">      1.00000000</i>
   <i name="AGGAX">      1.00000000</i>
   <i name="AMGGAX">      1.00000000</i>
   <i name="ALDAC">      1.00000000</i>
   <i name="AGGAC">      1.00000000</i>
   <i name="AMGGAC">      1.00000000</i>
   <i type="int" name="NKREDX">     1</i>
   <i type="int" name="NKREDY">     1</i>
   <i type="int" name="NKREDZ">     1</i>
   <i type="logical" name="SHIFTRED"> F  </i>
   <i type="logical" name="ODDONLY"> F  </i>
   <i type="logical" name="EVENONLY"> F  </i>
   <i type="int" name="LMAXFOCK">     0</i>
   <i type="int" name="NMAXFOCKAE">     0</i>
   <i type="logical" name="LFOCKAEDFT"> F  </i>
   <i name="HFSCREEN">      0.00000000</i>
   <i name="HFSCREENC">      0.00000000</i>
   <i type="int" name="NBANDSGWLOW">     0</i>
  </separator>
  <separator name="vdW DFT" >
   <i type="logical" name="LUSE_VDW"> F  </i>
   <i type="int" name="IVDW_NL">    -1</i>
   <i type="logical" name="LSPIN_VDW"> F  </i>
   <i name="ZAB_VDW">     -0.84910000</i>
   <i name="GAMMA_VDW">      1.39626340</i>
   <i name="ALPHA_VDW">      0.00000000</i>
   <i name="PARAM1">      0.12340000</i>
   <i name="PARAM2">      1.00000000</i>
   <i name="BPARAM">      6.30000000</i>
   <i name="CPARAM">      0.00930000</i>
  </separator>
  <separator name="model GW" >
   <i type="int" name="MODEL_GW">     0</i>
   <i name="MODEL_EPS0">     15.93786555</i>
   <i name="MODEL_ALPHA">      1.00000000</i>
  </separator>
  <separator name="linear response parameters" >
   <i type="logical" name="LEPSILON"> F  </i>
   <i type="logical" name="LRPA"> F  </i>
   <i type="logical" name="LNABLA"> F  </i>
   <i type="logical" name="LVEL"> F  </i>
   <i name="CSHIFT">      0.10000000</i>
   <i name="OMEGAMAX">     -1.00000000</i>
   <i name="DEG_THRESHOLD">      0.00200000</i>
   <i name="RTIME">     -0.10000000</i>
   <i name="WPLASMAI">      0.00000000</i>
   <v name="DFIELD">      0.00000000      0.00000000      0.00000000</v>
   <v name="WPLASMA">      0.00000000      0.00000000      0.00000000      0.00000000      0.00000000      0.00000000      0.00000000      0.00000000      0.00000000</v>
  </separator>
  <separator name="orbital magnetization" >
   <i type="logical" name="NUCIND"> F  </i>
   <v name="MAGPOS">      0.00000000      0.00000000      0.00000000</v>
   <i type="logical" name="LNICSALL"> T  </i>
   <i type="logical" name="ORBITALMAG"> F  </i>
   <i type="logical" name="LMAGBLOCH"> F  </i>
   <i type="logical" name="LCHIMAG"> F  </i>
   <i type="logical" name="LGAUGE"> T  </i>
   <i type="int" name="MAGATOM">     0</i>
   <v name="MAGDIPOL">      0.00000000      0.00000000      0.00000000</v>
   <v name="AVECCONST">      0.00000000      0.00000000      0.00000000</v>
  </separator>
  <separator name="response functions" >
   <i type="logical" name="LALL_IN_ONE"> F  </i>
   <i type="int" name="IALL_IN_ONE">    -1</i>
   <i type="int" name="NBANDS_WAVE">    -1</i>
   <i type="logical" name="LFINITE_TEMPERATURE"> F  </i>
   <i type="logical" name="LADDER"> F  </i>
   <i type="logical" name="LRPAFORCE"> F  </i>
   <i type="logical" name="LFXC"> F  </i>
   <i type="logical" name="LHARTREE"> T  </i>
   <i type="int" name="IBSE">     0</i>
   <v type="int" name="KPOINT">    -1     0     0     0</v>
   <i type="logical" name="LTCTC"> F  </i>
   <i type="logical" name="LTCTE"> F  </i>
   <i type="logical" name="LTETE"> F  </i>
   <i type="logical" name="LTRIPLET"> F  </i>
   <i type="logical" name="LFXCEPS"> F  </i>
   <i type="logical" name="LFXHEG"> F  </i>
   <i type="int" name="NATURALO">     2</i>
   <i type="logical" name="LHOLEGF"> F  </i>
   <i type="logical" name="L2ORDER"> F  </i>
   <i type="logical" name="LDMP1"> F  </i>
   <i type="logical" name="LMP2LT"> F  </i>
   <i type="logical" name="LSMP2LT"> F  </i>
   <i type="logical" name="LGWLF"> F  </i>
   <i name="ENCUTGW">     -1.60000002</i>
   <i name="ENCUTGWSOFT">     -1.60000002</i>
   <i name="ENCUTLF">     -1.00000000</i>
   <i type="logical" name="ESF_SPLINES"> F  </i>
   <i name="ESF_CONV">      0.01000000</i>
   <i type="int" name="ESF_NINTER">    15</i>
   <i type="int" name="LMAXMP2">    -1</i>
   <i name="SCISSOR">      0.00000000</i>
   <i type="int" name="NOMEGA">     0</i>
   <i type="int" name="NOMEGAR">     0</i>
   <i type="int" name="NBANDSGW">    -1</i>
   <i type="int" name="NBANDSO">    -1</i>
   <i type="int" name="NBANDSV">    -1</i>
   <i type="int" name="NELMGW">     1</i>
   <i type="int" name="NELMHF">     1</i>
   <i type="int" name="DIM">     3</i>
   <i type="int" name="IESPILON">     4</i>
   <i type="int" name="ANTIRES">     0</i>
   <i name="OMEGAMAX">    -30.00000000</i>
   <i name="OMEGAMIN">    -30.00000000</i>
   <i name="OMEGATL">   -200.00000000</i>
   <i type="int" name="OMEGAGRID">     0</i>
   <i name="CSHIFT">     -0.10000000</i>
   <i type="logical" name="LSELFENERGY"> F  </i>
   <i type="logical" name="LSPECTRAL"> F  </i>
   <i type="logical" name="LSPECTRALGW"> F  </i>
   <i type="logical" name="LSINGLES"> F  </i>
   <i type="logical" name="LFERMIGW"> F  </i>
   <i type="logical" name="ODDONLYGW"> F  </i>
   <i type="logical" name="EVENONLYGW"> F  </i>
   <i type="int" name="NKREDLFX">     1</i>
   <i type="int" name="NKREDLFY">     1</i>
   <i type="int" name="NKREDLFZ">     1</i>
   <i type="int" name="MAXMEM">  2800</i>
   <i type="int" name="TELESCOPE">     0</i>
   <i type="int" name="NTAUPAR">    -1</i>
   <i type="int" name="NOMEGAPAR">    -1</i>
   <i name="DAMP_NEWTON">      0.80000001</i>
   <i name="LAMBDA">      1.00000000</i>
  </separator>
  <separator name="External order field" >
   <i name="OFIELD_KAPPA">      0.00000000</i>
   <v name="OFIELD_K">      0.00000000      0.00000000      0.00000000</v>
   <i name="OFIELD_Q6_NEAR">      0.00000000</i>
   <i name="OFIELD_Q6_FAR">      0.00000000</i>
   <i name="OFIELD_A">      0.00000000</i>
  </separator>
  <separator name="optional k-points parameters" >
   <i type="int" name="KPOINTS_OPT_MODE">     1</i>
   <i type="logical" name="LKPOINTS_OPT"> F  </i>
  </separator>
 </parameters>
 <atominfo>
  <atoms>     180 </atoms>
  <types>       2 </types>
  <array name="atoms" >
   <dimension dim="1">ion</dimension>
   <field type="string">element</field>
   <field type="int">atomtype</field>
   <set>
    <rc><c>Ge</c><c>   1</c></rc>
    <rc><c>Ge</c><c>   1</c></rc>
    <rc><c>Ge</c><c>   1</c></rc>
    <rc><c>Ge</c><c>   1</c></rc>
    <rc><c>Ge</c><c>   1</c></rc>
    <rc><c>Ge</c><c>   1</c></rc>
    <rc><c>Ge</c><c>   1</c></rc>
    <rc><c>Ge</c><c>   1</c></rc>
    <rc><c>Ge</c><c>   1</c></rc>
    <rc><c>Ge</c><c>   1</c></rc>
    <rc><c>Ge</c><c>   1</c></rc>
    <rc><c>Ge</c><c>   1</c></rc>
    <rc><c>Ge</c><c>   1</c></rc>
    <rc><c>Ge</c><c>   1</c></rc>
    <rc><c>Ge</c><c>   1</c></rc>
    <rc><c>Ge</c><c>   1</c></rc>
    <rc><c>Ge</c><c>   1</c></rc>
    <rc><c>Ge</c><c>   1</c></rc>
    <rc><c>Ge</c><c>   1</c></rc>
    <rc><c>Ge</c><c>   1</c></rc>
    <rc><c>Ge</c><c>   1</c></rc>
    <rc><c>Ge</c><c>   1</c></rc>
    <rc><c>Ge</c><c>   1</c></rc>
    <rc><c>Ge</c><c>   1</c></rc>
    <rc><c>Ge</c><c>   1</c></rc>
    <rc><c>Ge</c><c>   1</c></rc>
    <rc><c>Ge</c><c>   1</c></rc>
    <rc><c>Ge</c><c>   1</c></rc>
    <rc><c>Ge</c><c>   1</c></rc>
    <rc><c>Ge</c><c>   1</c></rc>
    <rc><c>Ge</c><c>   1</c></rc>
    <rc><c>Ge</c><c>   1</c></rc>
    <rc><c>Ge</c><c>   1</c></rc>
    <rc><c>Ge</c><c>   1</c></rc>
    <rc><c>Ge</c><c>   1</c></rc>
    <rc><c>Ge</c><c>   1</c></rc>
    <rc><c>Ge</c><c>   1</c></rc>
    <rc><c>Ge</c><c>   1</c></rc>
    <rc><c>Ge</c><c>   1</c></rc>
    <rc><c>Ge</c><c>   1</c></rc>
    <rc><c>Ge</c><c>   1</c></rc>
    <rc><c>Ge</c><c>   1</c></rc>
    <rc><c>Ge</c><c>   1</c></rc>
    <rc><c>Ge</c><c>   1</c></rc>
    <rc><c>Ge</c><c>   1</c></rc>
    <rc><c>Ge</c><c>   1</c></rc>
    <rc><c>Ge</c><c>   1</c></rc>
    <rc><c>Ge</c><c>   1</c></rc>
    <rc><c>Ge</c><c>   1</c></rc>
    <rc><c>Ge</c><c>   1</c></rc>
    <rc><c>Ge</c><c>   1</c></rc>
    <rc><c>Ge</c><c>   1</c></rc>
    <rc><c>Ge</c><c>   1</c></rc>
    <rc><c>Ge</c><c>   1</c></rc>
    <rc><c>Ge</c><c>   1</c></rc>
    <rc><c>Ge</c><c>   1</c></rc>
    <rc><c>Ge</c><c>   1</c></rc>
    <rc><c>Ge</c><c>   1</c></rc>
    <rc><c>Ge</c><c>   1</c></rc>
    <rc><c>Ge</c><c>   1</c></rc>
    <rc><c>Ge</c><c>   1</c></rc>
    <rc><c>Ge</c><c>   1</c></rc>
    <rc><c>Ge</c><c>   1</c></rc>
    <rc><c>Ge</c><c>   1</c></rc>
    <rc><c>Ge</c><c>   1</c></rc>
    <rc><c>Ge</c><c>   1</c></rc>
    <rc><c>Ge</c><c>   1</c></rc>
    <rc><c>Ge</c><c>   1</c></rc>
    <rc><c>Ge</c><c>   1</c></rc>
    <rc><c>Ge</c><c>   1</c></rc>
    <rc><c>Ge</c><c>   1</c></rc>
    <rc><c>Ge</c><c>   1</c></rc>
    <rc><c>Ge</c><c>   1</c></rc>
    <rc><c>Ge</c><c>   1</c></rc>
    <rc><c>Ge</c><c>   1</c></rc>
    <rc><c>Ge</c><c>   1</c></rc>
    <rc><c>Ge</c><c>   1</c></rc>
    <rc><c>Ge</c><c>   1</c></rc>
    <rc><c>Ge</c><c>   1</c></rc>
    <rc><c>Ge</c><c>   1</c></rc>
    <rc><c>Ge</c><c>   1</c></rc>
    <rc><c>Ge</c><c>   1</c></rc>
    <rc><c>Ge</c><c>   1</c></rc>
    <rc><c>Ge</c><c>   1</c></rc>
    <rc><c>Ge</c><c>   1</c></rc>
    <rc><c>Ge</c><c>   1</c></rc>
    <rc><c>Ge</c><c>   1</c></rc>
    <rc><c>Ge</c><c>   1</c></rc>
    <rc><c>Ge</c><c>   1</c></rc>
    <rc><c>Ge</c><c>   1</c></rc>
    <rc><c>Ge</c><c>   1</c></rc>
    <rc><c>Ge</c><c>   1</c></rc>
    <rc><c>Ge</c><c>   1</c></rc>
    <rc><c>Ge</c><c>   1</c></rc>
    <rc><c>Ge</c><c>   1</c></rc>
    <rc><c>Ge</c><c>   1</c></rc>
    <rc><c>Ge</c><c>   1</c></rc>
    <rc><c>Ge</c><c>   1</c></rc>
    <rc><c>Ge</c><c>   1</c></rc>
    <rc><c>Ge</c><c>   1</c></rc>
    <rc><c>Ge</c><c>   1</c></rc>
    <rc><c>Ge</c><c>   1</c></rc>
    <rc><c>Ge</c><c>   1</c></rc>
    <rc><c>Ge</c><c>   1</c></rc>
    <rc><c>Ge</c><c>   1</c></rc>
    <rc><c>Ge</c><c>   1</c></rc>
    <rc><c>Ge</c><c>   1</c></rc>
    <rc><c>Ge</c><c>   1</c></rc>
    <rc><c>Ge</c><c>   1</c></rc>
    <rc><c>Ge</c><c>   1</c></rc>
    <rc><c>Ge</c><c>   1</c></rc>
    <rc><c>Ge</c><c>   1</c></rc>
    <rc><c>Ge</c><c>   1</c></rc>
    <rc><c>Ge</c><c>   1</c></rc>
    <rc><c>Ge</c><c>   1</c></rc>
    <rc><c>Ge</c><c>   1</c></rc>
    <rc><c>Ge</c><c>   1</c></rc>
    <rc><c>Ge</c><c>   1</c></rc>
    <rc><c>Ge</c><c>   1</c></rc>
    <rc><c>Ge</c><c>   1</c></rc>
    <rc><c>Ge</c><c>   1</c></rc>
    <rc><c>Ge</c><c>   1</c></rc>
    <rc><c>Ge</c><c>   1</c></rc>
    <rc><c>Ge</c><c>   1</c></rc>
    <rc><c>Ge</c><c>   1</c></rc>
    <rc><c>Ge</c><c>   1</c></rc>
    <rc><c>Ge</c><c>   1</c></rc>
    <rc><c>Ge</c><c>   1</c></rc>
    <rc><c>Ge</c><c>   1</c></rc>
    <rc><c>Ge</c><c>   1</c></rc>
    <rc><c>Ge</c><c>   1</c></rc>
    <rc><c>Ge</c><c>   1</c></rc>
    <rc><c>Ge</c><c>   1</c></rc>
    <rc><c>Ge</c><c>   1</c></rc>
    <rc><c>Ge</c><c>   1</c></rc>
    <rc><c>Ge</c><c>   1</c></rc>
    <rc><c>Ge</c><c>   1</c></rc>
    <rc><c>Ge</c><c>   1</c></rc>
    <rc><c>Ge</c><c>   1</c></rc>
    <rc><c>Ge</c><c>   1</c></rc>
    <rc><c>Ge</c><c>   1</c></rc>
    <rc><c>Ge</c><c>   1</c></rc>
    <rc><c>Ge</c><c>   1</c></rc>
    <rc><c>Ge</c><c>   1</c></rc>
    <rc><c>Sn</c><c>   2</c></rc>
    <rc><c>Sn</c><c>   2</c></rc>
    <rc><c>Sn</c><c>   2</c></rc>
    <rc><c>Sn</c><c>   2</c></rc>
    <rc><c>Sn</c><c>   2</c></rc>
    <rc><c>Sn</c><c>   2</c></rc>
    <rc><c>Sn</c><c>   2</c></rc>
    <rc><c>Sn</c><c>   2</c></rc>
    <rc><c>Sn</c><c>   2</c></rc>
    <rc><c>Sn</c><c>   2</c></rc>
    <rc><c>Sn</c><c>   2</c></rc>
    <rc><c>Sn</c><c>   2</c></rc>
    <rc><c>Sn</c><c>   2</c></rc>
    <rc><c>Sn</c><c>   2</c></rc>
    <rc><c>Sn</c><c>   2</c></rc>
    <rc><c>Sn</c><c>   2</c></rc>
    <rc><c>Sn</c><c>   2</c></rc>
    <rc><c>Sn</c><c>   2</c></rc>
    <rc><c>Sn</c><c>   2</c></rc>
    <rc><c>Sn</c><c>   2</c></rc>
    <rc><c>Sn</c><c>   2</c></rc>
    <rc><c>Sn</c><c>   2</c></rc>
    <rc><c>Sn</c><c>   2</c></rc>
    <rc><c>Sn</c><c>   2</c></rc>
    <rc><c>Sn</c><c>   2</c></rc>
    <rc><c>Sn</c><c>   2</c></rc>
    <rc><c>Sn</c><c>   2</c></rc>
    <rc><c>Sn</c><c>   2</c></rc>
    <rc><c>Sn</c><c>   2</c></rc>
    <rc><c>Sn</c><c>   2</c></rc>
    <rc><c>Sn</c><c>   2</c></rc>
    <rc><c>Sn</c><c>   2</c></rc>
    <rc><c>Sn</c><c>   2</c></rc>
    <rc><c>Sn</c><c>   2</c></rc>
    <rc><c>Sn</c><c>   2</c></rc>
    <rc><c>Sn</c><c>   2</c></rc>
   </set>
  </array>
  <array name="atomtypes" >
   <dimension dim="1">type</dimension>
   <field type="int">atomspertype</field>
   <field type="string">element</field>
   <field>mass</field>
   <field>valence</field>
   <field type="string">pseudopotential</field>
   <set>
    <rc><c> 144</c><c>Ge</c><c>     72.61000000</c><c>      4.00000000</c><c>  PAW_PBE Ge 05Jan2001                  </c></rc>
    <rc><c>  36</c><c>Sn</c><c>    118.71000000</c><c>      4.00000000</c><c>  PAW_PBE Sn 08Apr2002                  </c></rc>
   </set>
  </array>
 </atominfo>
 <structure name="initialpos" >
  <crystal>
   <varray name="basis" >
    <v>      13.85872459       0.00000000       0.00000000 </v>
    <v>       0.00000000      19.59919548       0.00000000 </v>
    <v>       0.00000000       0.00000000      17.60313034 </v>
   </varray>
   <i name="volume">   4781.35966538 </i>
   <varray name="rec_basis" >
    <v>       0.07215671       0.00000000       0.00000000 </v>
    <v>       0.00000000       0.05102250       0.00000000 </v>
    <v>       0.00000000       0.00000000       0.05680808 </v>
   </varray>
  </crystal>
  <varray name="positions" >
   <v>       0.97937846       0.49999997       0.00000001 </v>
   <v>       0.72937834       0.49999994       0.11363522 </v>
   <v>       0.47937822       0.49999988       0.22727042 </v>
   <v>       0.22937822       0.49999982       0.34090558 </v>
   <v>       0.97937822       0.49999973       0.45454073 </v>
   <v>       0.72937798       0.49999970       0.56817591 </v>
   <v>       0.31271177       0.66666669       0.00000001 </v>
   <v>       0.06271167       0.66666663       0.11363521 </v>
   <v>       0.81271160       0.66666657       0.22727041 </v>
   <v>       0.56271154       0.66666651       0.34090552 </v>
   <v>       0.31271148       0.66666645       0.45454070 </v>
   <v>       0.06271136       0.66666639       0.56817591 </v>
   <v>       0.64604503       0.83333331       0.00000001 </v>
   <v>       0.39604497       0.83333325       0.11363521 </v>
   <v>       0.14604483       0.83333319       0.22727041 </v>
   <v>       0.89604485       0.83333319       0.34090552 </v>
   <v>       0.64604473       0.83333307       0.45454070 </v>
   <v>       0.39604467       0.83333302       0.56817591 </v>
   <v>       0.97937846       0.00000000       0.00000002 </v>
   <v>       0.72937834       0.99999994       0.11363519 </v>
   <v>       0.47937828       0.99999988       0.22727041 </v>
   <v>       0.22937828       0.99999982       0.34090552 </v>
   <v>       0.97937822       0.99999976       0.45454070 </v>
   <v>       0.72937810       0.99999970       0.56817591 </v>
   <v>       0.31271177       0.16666666       0.00000002 </v>
   <v>       0.06271169       0.16666661       0.11363519 </v>
   <v>       0.81271160       0.16666654       0.22727038 </v>
   <v>       0.56271154       0.16666648       0.34090552 </v>
   <v>       0.31271148       0.16666643       0.45454073 </v>
   <v>       0.06271136       0.16666636       0.56817591 </v>
   <v>       0.64604515       0.33333334       0.00000002 </v>
   <v>       0.39604500       0.33333328       0.11363521 </v>
   <v>       0.14604492       0.33333322       0.22727038 </v>
   <v>       0.89604485       0.33333313       0.34090552 </v>
   <v>       0.64604485       0.33333311       0.45454073 </v>
   <v>       0.39604473       0.33333305       0.56817591 </v>
   <v>       0.14604510       0.83333337       0.00000001 </v>
   <v>       0.89604497       0.83333331       0.11363518 </v>
   <v>       0.64604485       0.83333325       0.22727041 </v>
   <v>       0.39604479       0.83333319       0.34090558 </v>
   <v>       0.14604485       0.83333313       0.45454076 </v>
   <v>       0.89604473       0.83333302       0.56817585 </v>
   <v>       0.14604510       0.33333331       0.00000002 </v>
   <v>       0.89604503       0.33333328       0.11363521 </v>
   <v>       0.64604491       0.33333322       0.22727041 </v>
   <v>       0.39604491       0.33333313       0.34090558 </v>
   <v>       0.14604485       0.33333307       0.45454070 </v>
   <v>       0.89604473       0.33333302       0.56817585 </v>
   <v>       0.47937849       0.50000000       0.00000002 </v>
   <v>       0.22937836       0.49999994       0.11363521 </v>
   <v>       0.97937822       0.49999988       0.22727041 </v>
   <v>       0.72937822       0.49999979       0.34090558 </v>
   <v>       0.47937816       0.49999976       0.45454070 </v>
   <v>       0.22937804       0.49999967       0.56817585 </v>
   <v>       0.81271166       0.66666669       0.00000002 </v>
   <v>       0.56271166       0.66666663       0.11363521 </v>
   <v>       0.31271154       0.66666651       0.22727038 </v>
   <v>       0.06271150       0.66666651       0.34090558 </v>
   <v>       0.81271142       0.66666645       0.45454073 </v>
   <v>       0.56271136       0.66666633       0.56817585 </v>
   <v>       0.47937843       0.00000000       0.00000002 </v>
   <v>       0.22937836       0.99999994       0.11363521 </v>
   <v>       0.97937822       0.99999988       0.22727038 </v>
   <v>       0.72937822       0.99999982       0.34090558 </v>
   <v>       0.47937816       0.99999976       0.45454073 </v>
   <v>       0.22937804       0.99999970       0.56817591 </v>
   <v>       0.81271177       0.16666667       0.00000002 </v>
   <v>       0.56271172       0.16666660       0.11363521 </v>
   <v>       0.31271166       0.16666657       0.22727038 </v>
   <v>       0.06271160       0.16666651       0.34090558 </v>
   <v>       0.81271160       0.16666643       0.45454070 </v>
   <v>       0.56271148       0.16666640       0.56817591 </v>
   <v>       0.14604515       0.70833337       0.00000000 </v>
   <v>       0.89604497       0.70833331       0.11363521 </v>
   <v>       0.64604491       0.70833325       0.22727042 </v>
   <v>       0.39604485       0.70833319       0.34090558 </v>
   <v>       0.14604485       0.70833313       0.45454070 </v>
   <v>       0.89604473       0.70833307       0.56817585 </v>
   <v>       0.47937843       0.87500006       0.00000000 </v>
   <v>       0.22937839       0.87500000       0.11363521 </v>
   <v>       0.97937822       0.87499994       0.22727042 </v>
   <v>       0.72937822       0.87499988       0.34090558 </v>
   <v>       0.47937822       0.87499976       0.45454070 </v>
   <v>       0.22937810       0.87499976       0.56817585 </v>
   <v>       0.14604509       0.20833333       0.00000002 </v>
   <v>       0.89604503       0.20833327       0.11363519 </v>
   <v>       0.64604491       0.20833321       0.22727038 </v>
   <v>       0.39604485       0.20833315       0.34090558 </v>
   <v>       0.14604485       0.20833311       0.45454073 </v>
   <v>       0.89604473       0.20833305       0.56817585 </v>
   <v>       0.47937849       0.37500000       0.00000002 </v>
   <v>       0.22937837       0.37499994       0.11363521 </v>
   <v>       0.97937828       0.37499988       0.22727041 </v>
   <v>       0.72937822       0.37499982       0.34090558 </v>
   <v>       0.47937822       0.37499976       0.45454073 </v>
   <v>       0.22937804       0.37499970       0.56817585 </v>
   <v>       0.81271177       0.54166669       0.00000002 </v>
   <v>       0.56271177       0.54166663       0.11363521 </v>
   <v>       0.31271163       0.54166657       0.22727041 </v>
   <v>       0.06271158       0.54166651       0.34090558 </v>
   <v>       0.81271154       0.54166645       0.45454073 </v>
   <v>       0.56271148       0.54166639       0.56817585 </v>
   <v>       0.81271184       0.04166666       0.00000001 </v>
   <v>       0.56271172       0.04166659       0.11363521 </v>
   <v>       0.31271163       0.04166653       0.22727041 </v>
   <v>       0.06271157       0.04166649       0.34090558 </v>
   <v>       0.81271154       0.04166642       0.45454073 </v>
   <v>       0.56271148       0.04166634       0.56817591 </v>
   <v>       0.97937852       0.87500006       0.00000001 </v>
   <v>       0.72937834       0.87499994       0.11363518 </v>
   <v>       0.47937828       0.87499988       0.22727041 </v>
   <v>       0.22937822       0.87499982       0.34090558 </v>
   <v>       0.97937822       0.87499976       0.45454076 </v>
   <v>       0.72937810       0.87499970       0.56817585 </v>
   <v>       0.97937846       0.37499997       0.00000001 </v>
   <v>       0.72937834       0.37499991       0.11363521 </v>
   <v>       0.47937828       0.37499985       0.22727041 </v>
   <v>       0.22937822       0.37499979       0.34090552 </v>
   <v>       0.97937822       0.37499973       0.45454070 </v>
   <v>       0.72937810       0.37499967       0.56817585 </v>
   <v>       0.31271184       0.54166669       0.00000001 </v>
   <v>       0.06271169       0.54166663       0.11363521 </v>
   <v>       0.81271160       0.54166657       0.22727042 </v>
   <v>       0.56271154       0.54166651       0.34090558 </v>
   <v>       0.31271154       0.54166645       0.45454073 </v>
   <v>       0.06271142       0.54166639       0.56817591 </v>
   <v>       0.64604509       0.70833331       0.00000001 </v>
   <v>       0.39604500       0.70833325       0.11363521 </v>
   <v>       0.14604490       0.70833319       0.22727041 </v>
   <v>       0.89604485       0.70833313       0.34090552 </v>
   <v>       0.64604485       0.70833307       0.45454070 </v>
   <v>       0.39604473       0.70833302       0.56817585 </v>
   <v>       0.31271175       0.04166665       0.00000002 </v>
   <v>       0.06271169       0.04166659       0.11363519 </v>
   <v>       0.81271160       0.04166654       0.22727038 </v>
   <v>       0.56271154       0.04166648       0.34090558 </v>
   <v>       0.31271154       0.04166643       0.45454073 </v>
   <v>       0.06271142       0.04166637       0.56817585 </v>
   <v>       0.64604521       0.20833336       0.00000002 </v>
   <v>       0.39604506       0.20833328       0.11363519 </v>
   <v>       0.14604494       0.20833321       0.22727038 </v>
   <v>       0.89604491       0.20833316       0.34090558 </v>
   <v>       0.64604485       0.20833311       0.45454073 </v>
   <v>       0.39604473       0.20833305       0.56817585 </v>
   <v>       0.31623900       0.77549821       0.68105024 </v>
   <v>       0.11623895       0.60883152       0.76348048 </v>
   <v>       0.91623878       0.44216481       0.84591079 </v>
   <v>       0.31623900       0.44216493       0.68105024 </v>
   <v>       0.11623895       0.27549824       0.76348048 </v>
   <v>       0.91623878       0.10883152       0.84591079 </v>
   <v>       0.31623900       0.10883164       0.68105024 </v>
   <v>       0.11623895       0.94216496       0.76348048 </v>
   <v>       0.91623878       0.77549821       0.84591079 </v>
   <v>       0.96623898       0.02549839       0.72226530 </v>
   <v>       0.76623887       0.85883164       0.80469555 </v>
   <v>       0.56623876       0.69216496       0.88712573 </v>
   <v>       0.96623898       0.69216490       0.72226530 </v>
   <v>       0.76623887       0.52549821       0.80469555 </v>
   <v>       0.56623876       0.35883152       0.88712573 </v>
   <v>       0.96623898       0.35883167       0.72226530 </v>
   <v>       0.76623887       0.19216499       0.80469555 </v>
   <v>       0.56623876       0.02549827       0.88712573 </v>
   <v>       0.81623894       0.94216484       0.68105024 </v>
   <v>       0.61623883       0.77549815       0.76348048 </v>
   <v>       0.41623869       0.60883152       0.84591079 </v>
   <v>       0.81623894       0.60883158       0.68105024 </v>
   <v>       0.61623883       0.44216490       0.76348048 </v>
   <v>       0.41623869       0.27549821       0.84591079 </v>
   <v>       0.81623894       0.27549827       0.68105024 </v>
   <v>       0.61623883       0.10883164       0.76348048 </v>
   <v>       0.41623869       0.94216490       0.84591079 </v>
   <v>       0.46623898       0.85883158       0.72226530 </v>
   <v>       0.26623893       0.69216490       0.80469555 </v>
   <v>       0.06623888       0.52549821       0.88712573 </v>
   <v>       0.46623898       0.52549833       0.72226530 </v>
   <v>       0.26623893       0.35883164       0.80469555 </v>
   <v>       0.06623888       0.19216493       0.88712573 </v>
   <v>       0.46623898       0.19216493       0.72226530 </v>
   <v>       0.26623893       0.02549827       0.80469555 </v>
   <v>       0.06623888       0.85883152       0.88712573 </v>
  </varray>
 </structure>
 <calculation>
  <scstep>
   <time name="dav">   79.09   79.81</time>
   <time name="total">   82.08   82.81</time>
   <energy>
    <i name="alphaZ">   1205.67090968 </i>
    <i name="ewald"> -15441.98557936 </i>
    <i name="hartreedc">  -4372.02896887 </i>
    <i name="XCdc">  -5351.31253290 </i>
    <i name="pawpsdc">  19511.85949846 </i>
    <i name="pawaedc"> -12966.91288459 </i>
    <i name="eentropy">     -0.00329260 </i>
    <i name="bandstr">   2560.08007897 </i>
    <i name="atom">  18506.50640686 </i>
    <i name="e_fr_energy">   3651.87363566 </i>
    <i name="e_wo_entrp">   3651.87692826 </i>
    <i name="e_0_energy">   3651.87528196 </i>
   </energy>
  </scstep>
  <scstep>
   <time name="dav">   89.17   89.95</time>
   <time name="total">   89.17   89.96</time>
   <energy>
    <i name="e_fr_energy">   -295.89215693 </i>
    <i name="e_wo_entrp">   -295.88933045 </i>
    <i name="e_0_energy">   -295.89074369 </i>
   </energy>
  </scstep>
  <scstep>
   <time name="dav">   92.56   93.38</time>
   <time name="total">   92.56   93.38</time>
   <energy>
    <i name="e_fr_energy">   -725.42670988 </i>
    <i name="e_wo_entrp">   -725.42522597 </i>
    <i name="e_0_energy">   -725.42596792 </i>
   </energy>
  </scstep>
  <scstep>
   <time name="dav">   91.39   92.20</time>
   <time name="total">   91.40   92.21</time>
   <energy>
    <i name="e_fr_energy">   -743.97274143 </i>
    <i name="e_wo_entrp">   -743.97075427 </i>
    <i name="e_0_energy">   -743.97174785 </i>
   </energy>
  </scstep>
  <scstep>
   <time name="dav">   99.90  100.78</time>
   <time name="total">  103.81  104.74</time>
   <energy>
    <i name="e_fr_energy">   -744.84338516 </i>
    <i name="e_wo_entrp">   -744.84123058 </i>
    <i name="e_0_energy">   -744.84230787 </i>
   </energy>
  </scstep>
  <scstep>
   <time name="dav">  104.42  105.36</time>
   <time name="total">  111.27  112.26</time>
   <energy>
    <i name="e_fr_energy">   -735.96549446 </i>
    <i name="e_wo_entrp">   -735.96167264 </i>
    <i name="e_0_energy">   -735.96358355 </i>
   </energy>
  </scstep>
  <scstep>
   <time name="dav">   98.00   98.87</time>
   <time name="total">  104.85  105.78</time>
   <energy>
    <i name="e_fr_energy">   -734.89823159 </i>
    <i name="e_wo_entrp">   -734.89492971 </i>
    <i name="e_0_energy">   -734.89658065 </i>
   </energy>
  </scstep>
  <scstep>
   <time name="dav">   89.49   90.29</time>
   <time name="total">   96.34   97.19</time>
   <energy>
    <i name="e_fr_energy">   -733.27906464 </i>
    <i name="e_wo_entrp">   -733.27641046 </i>
    <i name="e_0_energy">   -733.27773755 </i>
   </energy>
  </scstep>
  <scstep>
   <time name="dav">   88.86   89.65</time>
   <time name="total">   95.71   96.56</time>
   <energy>
    <i name="e_fr_energy">   -733.33099885 </i>
    <i name="e_wo_entrp">   -733.32806888 </i>
    <i name="e_0_energy">   -733.32953386 </i>
   </energy>
  </scstep>
  <scstep>
   <time name="dav">   87.35   88.13</time>
   <time name="total">   94.20   95.03</time>
   <energy>
    <i name="e_fr_energy">   -733.31560107 </i>
    <i name="e_wo_entrp">   -733.31254565 </i>
    <i name="e_0_energy">   -733.31407336 </i>
   </energy>
  </scstep>
  <scstep>
   <time name="dav">   86.47   87.23</time>
   <time name="total">   93.30   94.11</time>
   <energy>
    <i name="e_fr_energy">   -733.31620153 </i>
    <i name="e_wo_entrp">   -733.31281965 </i>
    <i name="e_0_energy">   -733.31451059 </i>
   </energy>
  </scstep>
  <scstep>
   <time name="dav">   86.76   87.52</time>
   <time name="total">   93.56   94.37</time>
   <energy>
    <i name="e_fr_energy">   -733.31589221 </i>
    <i name="e_wo_entrp">   -733.31262954 </i>
    <i name="e_0_energy">   -733.31426088 </i>
   </energy>
  </scstep>
  <scstep>
   <time name="dav">   93.28   94.15</time>
   <time name="total">  100.08  101.00</time>
   <energy>
    <i name="e_fr_energy">   -733.31608697 </i>
    <i name="e_wo_entrp">   -733.31288610 </i>
    <i name="e_0_energy">   -733.31448653 </i>
   </energy>
  </scstep>
  <scstep>
   <time name="dav">   88.28   89.11</time>
   <time name="total">   95.08   95.97</time>
   <energy>
    <i name="e_fr_energy">   -733.31616853 </i>
    <i name="e_wo_entrp">   -733.31293654 </i>
    <i name="e_0_energy">   -733.31455254 </i>
   </energy>
  </scstep>
  <scstep>
   <time name="dav">   89.56   90.36</time>
   <time name="total">   96.36   97.22</time>
   <energy>
    <i name="e_fr_energy">   -733.31621177 </i>
    <i name="e_wo_entrp">   -733.31297253 </i>
    <i name="e_0_energy">   -733.31459215 </i>
   </energy>
  </scstep>
  <scstep>
   <time name="dav">   90.09   91.19</time>
   <time name="total">   96.97   98.12</time>
   <energy>
    <i name="e_fr_energy">   -733.31621131 </i>
    <i name="e_wo_entrp">   -733.31297749 </i>
    <i name="e_0_energy">   -733.31459440 </i>
   </energy>
  </scstep>
  <scstep>
   <time name="dav">   87.38   88.17</time>
   <time name="total">   94.27   95.11</time>
   <energy>
    <i name="e_fr_energy">   -733.31621388 </i>
    <i name="e_wo_entrp">   -733.31298287 </i>
    <i name="e_0_energy">   -733.31459837 </i>
   </energy>
  </scstep>
  <scstep>
   <time name="dav">   85.53   86.30</time>
   <time name="total">   92.41   93.22</time>
   <energy>
    <i name="e_fr_energy">   -733.31621792 </i>
    <i name="e_wo_entrp">   -733.31298375 </i>
    <i name="e_0_energy">   -733.31460083 </i>
   </energy>
  </scstep>
  <scstep>
   <time name="dav">   88.90   90.00</time>
   <time name="total">   95.78   96.94</time>
   <energy>
    <i name="e_fr_energy">   -733.31621882 </i>
    <i name="e_wo_entrp">   -733.31298367 </i>
    <i name="e_0_energy">   -733.31460124 </i>
   </energy>
  </scstep>
  <scstep>
   <time name="dav">   63.60   64.15</time>
   <time name="total">   70.49   71.09</time>
   <energy>
    <i name="e_fr_energy">   -733.31621843 </i>
    <i name="e_wo_entrp">   -733.31298451 </i>
    <i name="e_0_energy">   -733.31460147 </i>
   </energy>
  </scstep>
  <scstep>
   <time name="dav">   56.37   56.86</time>
   <time name="total">   63.28   63.82</time>
   <energy>
    <i name="e_fr_energy">   -733.31621819 </i>
    <i name="e_wo_entrp">   -733.31298437 </i>
    <i name="e_0_energy">   -733.31460128 </i>
   </energy>
  </scstep>
  <scstep>
   <time name="dav">   55.74   56.23</time>
   <time name="total">   58.71   59.21</time>
   <energy>
    <i name="alphaZ">   1205.67090968 </i>
    <i name="ewald"> -15441.98557936 </i>
    <i name="hartreedc">  -4630.36878580 </i>
    <i name="XCdc">  -5302.39238567 </i>
    <i name="pawpsdc">  42215.33673392 </i>
    <i name="pawaedc"> -35705.03908939 </i>
    <i name="eentropy">     -0.00323379 </i>
    <i name="bandstr">  -1581.04119465 </i>
    <i name="atom">  18506.50640686 </i>
    <i name="e_fr_energy">   -733.31621819 </i>
    <i name="e_wo_entrp">   -733.31298439 </i>
    <i name="e_0_energy">   -733.31460129 </i>
   </energy>
  </scstep>
  <structure>
   <crystal>
    <varray name="basis" >
     <v>      13.85872459       0.00000000       0.00000000 </v>
     <v>       0.00000000      19.59919548       0.00000000 </v>
     <v>       0.00000000       0.00000000      17.60313034 </v>
    </varray>
    <i name="volume">   4781.35966538 </i>
    <varray name="rec_basis" >
     <v>       0.07215671       0.00000000       0.00000000 </v>
     <v>       0.00000000       0.05102250       0.00000000 </v>
     <v>       0.00000000       0.00000000       0.05680808 </v>
    </varray>
   </crystal>
   <varray name="positions" >
    <v>       0.97937846       0.49999997       0.00000001 </v>
    <v>       0.72937834       0.49999994       0.11363522 </v>
    <v>       0.47937822       0.49999988       0.22727042 </v>
    <v>       0.22937822       0.49999982       0.34090558 </v>
    <v>       0.97937822       0.49999973       0.45454073 </v>
    <v>       0.72937798       0.49999970       0.56817591 </v>
    <v>       0.31271177       0.66666669       0.00000001 </v>
    <v>       0.06271167       0.66666663       0.11363521 </v>
    <v>       0.81271160       0.66666657       0.22727041 </v>
    <v>       0.56271154       0.66666651       0.34090552 </v>
    <v>       0.31271148       0.66666645       0.45454070 </v>
    <v>       0.06271136       0.66666639       0.56817591 </v>
    <v>       0.64604503       0.83333331       0.00000001 </v>
    <v>       0.39604497       0.83333325       0.11363521 </v>
    <v>       0.14604483       0.83333319       0.22727041 </v>
    <v>       0.89604485       0.83333319       0.34090552 </v>
    <v>       0.64604473       0.83333307       0.45454070 </v>
    <v>       0.39604467       0.83333302       0.56817591 </v>
    <v>       0.97937846       0.00000000       0.00000002 </v>
    <v>       0.72937834       0.99999994       0.11363519 </v>
    <v>       0.47937828       0.99999988       0.22727041 </v>
    <v>       0.22937828       0.99999982       0.34090552 </v>
    <v>       0.97937822       0.99999976       0.45454070 </v>
    <v>       0.72937810       0.99999970       0.56817591 </v>
    <v>       0.31271177       0.16666666       0.00000002 </v>
    <v>       0.06271169       0.16666661       0.11363519 </v>
    <v>       0.81271160       0.16666654       0.22727038 </v>
    <v>       0.56271154       0.16666648       0.34090552 </v>
    <v>       0.31271148       0.16666643       0.45454073 </v>
    <v>       0.06271136       0.16666636       0.56817591 </v>
    <v>       0.64604515       0.33333334       0.00000002 </v>
    <v>       0.39604500       0.33333328       0.11363521 </v>
    <v>       0.14604492       0.33333322       0.22727038 </v>
    <v>       0.89604485       0.33333313       0.34090552 </v>
    <v>       0.64604485       0.33333311       0.45454073 </v>
    <v>       0.39604473       0.33333305       0.56817591 </v>
    <v>       0.14604510       0.83333337       0.00000001 </v>
    <v>       0.89604497       0.83333331       0.11363518 </v>
    <v>       0.64604485       0.83333325       0.22727041 </v>
    <v>       0.39604479       0.83333319       0.34090558 </v>
    <v>       0.14604485       0.83333313       0.45454076 </v>
    <v>       0.89604473       0.83333302       0.56817585 </v>
    <v>       0.14604510       0.33333331       0.00000002 </v>
    <v>       0.89604503       0.33333328       0.11363521 </v>
    <v>       0.64604491       0.33333322       0.22727041 </v>
    <v>       0.39604491       0.33333313       0.34090558 </v>
    <v>       0.14604485       0.33333307       0.45454070 </v>
    <v>       0.89604473       0.33333302       0.56817585 </v>
    <v>       0.47937849       0.50000000       0.00000002 </v>
    <v>       0.22937836       0.49999994       0.11363521 </v>
    <v>       0.97937822       0.49999988       0.22727041 </v>
    <v>       0.72937822       0.49999979       0.34090558 </v>
    <v>       0.47937816       0.49999976       0.45454070 </v>
    <v>       0.22937804       0.49999967       0.56817585 </v>
    <v>       0.81271166       0.66666669       0.00000002 </v>
    <v>       0.56271166       0.66666663       0.11363521 </v>
    <v>       0.31271154       0.66666651       0.22727038 </v>
    <v>       0.06271150       0.66666651       0.34090558 </v>
    <v>       0.81271142       0.66666645       0.45454073 </v>
    <v>       0.56271136       0.66666633       0.56817585 </v>
    <v>       0.47937843       0.00000000       0.00000002 </v>
    <v>       0.22937836       0.99999994       0.11363521 </v>
    <v>       0.97937822       0.99999988       0.22727038 </v>
    <v>       0.72937822       0.99999982       0.34090558 </v>
    <v>       0.47937816       0.99999976       0.45454073 </v>
    <v>       0.22937804       0.99999970       0.56817591 </v>
    <v>       0.81271177       0.16666667       0.00000002 </v>
    <v>       0.56271172       0.16666660       0.11363521 </v>
    <v>       0.31271166       0.16666657       0.22727038 </v>
    <v>       0.06271160       0.16666651       0.34090558 </v>
    <v>       0.81271160       0.16666643       0.45454070 </v>
    <v>       0.56271148       0.16666640       0.56817591 </v>
    <v>       0.14604515       0.70833337       0.00000000 </v>
    <v>       0.89604497       0.70833331       0.11363521 </v>
    <v>       0.64604491       0.70833325       0.22727042 </v>
    <v>       0.39604485       0.70833319       0.34090558 </v>
    <v>       0.14604485       0.70833313       0.45454070 </v>
    <v>       0.89604473       0.70833307       0.56817585 </v>
    <v>       0.47937843       0.87500006       0.00000000 </v>
    <v>       0.22937839       0.87500000       0.11363521 </v>
    <v>       0.97937822       0.87499994       0.22727042 </v>
    <v>       0.72937822       0.87499988       0.34090558 </v>
    <v>       0.47937822       0.87499976       0.45454070 </v>
    <v>       0.22937810       0.87499976       0.56817585 </v>
    <v>       0.14604509       0.20833333       0.00000002 </v>
    <v>       0.89604503       0.20833327       0.11363519 </v>
    <v>       0.64604491       0.20833321       0.22727038 </v>
    <v>       0.39604485       0.20833315       0.34090558 </v>
    <v>       0.14604485       0.20833311       0.45454073 </v>
    <v>       0.89604473       0.20833305       0.56817585 </v>
    <v>       0.47937849       0.37500000       0.00000002 </v>
    <v>       0.22937837       0.37499994       0.11363521 </v>
    <v>       0.97937828       0.37499988       0.22727041 </v>
    <v>       0.72937822       0.37499982       0.34090558 </v>
    <v>       0.47937822       0.37499976       0.45454073 </v>
    <v>       0.22937804       0.37499970       0.56817585 </v>
    <v>       0.81271177       0.54166669       0.00000002 </v>
    <v>       0.56271177       0.54166663       0.11363521 </v>
    <v>       0.31271163       0.54166657       0.22727041 </v>
    <v>       0.06271158       0.54166651       0.34090558 </v>
    <v>       0.81271154       0.54166645       0.45454073 </v>
    <v>       0.56271148       0.54166639       0.56817585 </v>
    <v>       0.81271184       0.04166666       0.00000001 </v>
    <v>       0.56271172       0.04166659       0.11363521 </v>
    <v>       0.31271163       0.04166653       0.22727041 </v>
    <v>       0.06271157       0.04166649       0.34090558 </v>
    <v>       0.81271154       0.04166642       0.45454073 </v>
    <v>       0.56271148       0.04166634       0.56817591 </v>
    <v>       0.97937852       0.87500006       0.00000001 </v>
    <v>       0.72937834       0.87499994       0.11363518 </v>
    <v>       0.47937828       0.87499988       0.22727041 </v>
    <v>       0.22937822       0.87499982       0.34090558 </v>
    <v>       0.97937822       0.87499976       0.45454076 </v>
    <v>       0.72937810       0.87499970       0.56817585 </v>
    <v>       0.97937846       0.37499997       0.00000001 </v>
    <v>       0.72937834       0.37499991       0.11363521 </v>
    <v>       0.47937828       0.37499985       0.22727041 </v>
    <v>       0.22937822       0.37499979       0.34090552 </v>
    <v>       0.97937822       0.37499973       0.45454070 </v>
    <v>       0.72937810       0.37499967       0.56817585 </v>
    <v>       0.31271184       0.54166669       0.00000001 </v>
    <v>       0.06271169       0.54166663       0.11363521 </v>
    <v>       0.81271160       0.54166657       0.22727042 </v>
    <v>       0.56271154       0.54166651       0.34090558 </v>
    <v>       0.31271154       0.54166645       0.45454073 </v>
    <v>       0.06271142       0.54166639       0.56817591 </v>
    <v>       0.64604509       0.70833331       0.00000001 </v>
    <v>       0.39604500       0.70833325       0.11363521 </v>
    <v>       0.14604490       0.70833319       0.22727041 </v>
    <v>       0.89604485       0.70833313       0.34090552 </v>
    <v>       0.64604485       0.70833307       0.45454070 </v>
    <v>       0.39604473       0.70833302       0.56817585 </v>
    <v>       0.31271175       0.04166665       0.00000002 </v>
    <v>       0.06271169       0.04166659       0.11363519 </v>
    <v>       0.81271160       0.04166654       0.22727038 </v>
    <v>       0.56271154       0.04166648       0.34090558 </v>
    <v>       0.31271154       0.04166643       0.45454073 </v>
    <v>       0.06271142       0.04166637       0.56817585 </v>
    <v>       0.64604521       0.20833336       0.00000002 </v>
    <v>       0.39604506       0.20833328       0.11363519 </v>
    <v>       0.14604494       0.20833321       0.22727038 </v>
    <v>       0.89604491       0.20833316       0.34090558 </v>
    <v>       0.64604485       0.20833311       0.45454073 </v>
    <v>       0.39604473       0.20833305       0.56817585 </v>
    <v>       0.31623900       0.77549821       0.68105024 </v>
    <v>       0.11623895       0.60883152       0.76348048 </v>
    <v>       0.91623878       0.44216481       0.84591079 </v>
    <v>       0.31623900       0.44216493       0.68105024 </v>
    <v>       0.11623895       0.27549824       0.76348048 </v>
    <v>       0.91623878       0.10883152       0.84591079 </v>
    <v>       0.31623900       0.10883164       0.68105024 </v>
    <v>       0.11623895       0.94216496       0.76348048 </v>
    <v>       0.91623878       0.77549821       0.84591079 </v>
    <v>       0.96623898       0.02549839       0.72226530 </v>
    <v>       0.76623887       0.85883164       0.80469555 </v>
    <v>       0.56623876       0.69216496       0.88712573 </v>
    <v>       0.96623898       0.69216490       0.72226530 </v>
    <v>       0.76623887       0.52549821       0.80469555 </v>
    <v>       0.56623876       0.35883152       0.88712573 </v>
    <v>       0.96623898       0.35883167       0.72226530 </v>
    <v>       0.76623887       0.19216499       0.80469555 </v>
    <v>       0.56623876       0.02549827       0.88712573 </v>
    <v>       0.81623894       0.94216484       0.68105024 </v>
    <v>       0.61623883       0.77549815       0.76348048 </v>
    <v>       0.41623869       0.60883152       0.84591079 </v>
    <v>       0.81623894       0.60883158       0.68105024 </v>
    <v>       0.61623883       0.44216490       0.76348048 </v>
    <v>       0.41623869       0.27549821       0.84591079 </v>
    <v>       0.81623894       0.27549827       0.68105024 </v>
    <v>       0.61623883       0.10883164       0.76348048 </v>
    <v>       0.41623869       0.94216490       0.84591079 </v>
    <v>       0.46623898       0.85883158       0.72226530 </v>
    <v>       0.26623893       0.69216490       0.80469555 </v>
    <v>       0.06623888       0.52549821       0.88712573 </v>
    <v>       0.46623898       0.52549833       0.72226530 </v>
    <v>       0.26623893       0.35883164       0.80469555 </v>
    <v>       0.06623888       0.19216493       0.88712573 </v>
    <v>       0.46623898       0.19216493       0.72226530 </v>
    <v>       0.26623893       0.02549827       0.80469555 </v>
    <v>       0.06623888       0.85883152       0.88712573 </v>
   </varray>
  </structure>
  <varray name="forces" >
   <v>      -0.86895500      -0.08997211       2.87222364 </v>
   <v>       0.01242332       0.09557568      -0.00235913 </v>
   <v>      -0.03004065      -0.05675260       0.04861157 </v>
   <v>      -0.04563439      -0.00731222       0.08328222 </v>
   <v>       0.02193442      -0.04372705       0.09891619 </v>
   <v>       0.48340835       0.72290478       0.80682991 </v>
   <v>       0.14461870       0.04636874      -0.61911902 </v>
   <v>      -0.03764307      -0.12634155      -0.05283071 </v>
   <v>      -0.03077574      -0.03589343      -0.01324212 </v>
   <v>      -0.04186773       0.00452764      -0.01371236 </v>
   <v>      -0.12575242       0.08909663      -0.02488344 </v>
   <v>       0.17841335       0.09027189       0.55768499 </v>
   <v>       0.42554733       0.41591186      -0.88527786 </v>
   <v>      -0.07120538      -0.04223831      -0.07828317 </v>
   <v>      -0.07274464      -0.04803496      -0.01330479 </v>
   <v>       0.00278390      -0.05917606      -0.00271100 </v>
   <v>      -0.24426593      -0.17257958       0.09409344 </v>
   <v>       1.66695829       1.62638580      -1.79618434 </v>
   <v>       0.05599458       0.25511290      -0.62629382 </v>
   <v>      -0.13625830      -0.03709605      -0.00543256 </v>
   <v>       0.02268913       0.06795576      -0.05963208 </v>
   <v>       0.02018814       0.01066434      -0.04938023 </v>
   <v>      -0.06704276      -0.06452829      -0.00274895 </v>
   <v>      -0.42271920       0.50138867      -0.43328614 </v>
   <v>       0.57410403       0.43752129      -0.71269414 </v>
   <v>       0.00058723      -0.07766228       0.12539062 </v>
   <v>      -0.06039822      -0.03747507       0.00166143 </v>
   <v>      -0.08793242      -0.02518386       0.08565187 </v>
   <v>      -0.24902035      -0.01623877      -0.07052390 </v>
   <v>       0.54181475       0.23119723       0.73464870 </v>
   <v>       2.26875840      -1.08257710       3.07875678 </v>
   <v>      -0.10215655      -0.09889932      -0.11844321 </v>
   <v>      -0.04856903      -0.03777495      -0.00425872 </v>
   <v>      -0.07499979      -0.06720252       0.06708840 </v>
   <v>      -0.02068954      -0.08848082      -0.06647708 </v>
   <v>       0.03407748       0.65863887       0.61846013 </v>
   <v>       2.26875840      -1.08257710       3.07875678 </v>
   <v>      -0.10215655      -0.09889932      -0.11844321 </v>
   <v>      -0.04856903      -0.03777495      -0.00425872 </v>
   <v>      -0.07499979      -0.06720252       0.06708840 </v>
   <v>      -0.02068954      -0.08848082      -0.06647708 </v>
   <v>       0.03407748       0.65863887       0.61846013 </v>
   <v>       0.42554733       0.41591186      -0.88527786 </v>
   <v>      -0.07120538      -0.04223831      -0.07828317 </v>
   <v>      -0.07274464      -0.04803496      -0.01330479 </v>
   <v>       0.00278390      -0.05917606      -0.00271100 </v>
   <v>      -0.24426593      -0.17257958       0.09409344 </v>
   <v>       1.66695829       1.62638580      -1.79618434 </v>
   <v>       0.05599458       0.25511290      -0.62629382 </v>
   <v>      -0.13625830      -0.03709605      -0.00543256 </v>
   <v>       0.02268913       0.06795576      -0.05963208 </v>
   <v>       0.02018814       0.01066434      -0.04938023 </v>
   <v>      -0.06704276      -0.06452829      -0.00274895 </v>
   <v>      -0.42271920       0.50138867      -0.43328614 </v>
   <v>       0.57410403       0.43752129      -0.71269414 </v>
   <v>       0.00058723      -0.07766228       0.12539062 </v>
   <v>      -0.06039822      -0.03747507       0.00166143 </v>
   <v>      -0.08793242      -0.02518386       0.08565187 </v>
   <v>      -0.24902035      -0.01623877      -0.07052390 </v>
   <v>       0.54181475       0.23119723       0.73464870 </v>
   <v>      -0.86895500      -0.08997211       2.87222364 </v>
   <v>       0.01242332       0.09557568      -0.00235913 </v>
   <v>      -0.03004065      -0.05675260       0.04861157 </v>
   <v>      -0.04563439      -0.00731222       0.08328222 </v>
   <v>       0.02193442      -0.04372705       0.09891619 </v>
   <v>       0.48340835       0.72290478       0.80682991 </v>
   <v>       0.14461870       0.04636874      -0.61911902 </v>
   <v>      -0.03764307      -0.12634155      -0.05283071 </v>
   <v>      -0.03077574      -0.03589343      -0.01324212 </v>
   <v>      -0.04186773       0.00452764      -0.01371236 </v>
   <v>      -0.12575242       0.08909663      -0.02488344 </v>
   <v>       0.17841335       0.09027189       0.55768499 </v>
   <v>      -0.18074400      -0.17376428      -0.54333718 </v>
   <v>      -0.01603273       0.00428357      -0.07596729 </v>
   <v>       0.00662889      -0.00824832      -0.01162995 </v>
   <v>       0.05179558       0.03440042       0.01773029 </v>
   <v>       0.11971687       0.12214605       0.09048588 </v>
   <v>      -0.28724916      -0.21919898       0.03059765 </v>
   <v>      -0.38920880      -0.03443934      -0.90956447 </v>
   <v>       0.10202280       0.12876525      -0.13117885 </v>
   <v>       0.02101934       0.05421199      -0.10019653 </v>
   <v>       0.05251111       0.05864235       0.09515676 </v>
   <v>       0.24667421       0.12598751      -0.14235237 </v>
   <v>      -0.08845699      -0.41185679       0.89274799 </v>
   <v>       1.88890310       0.39376893       3.32220532 </v>
   <v>       0.11032553       0.10458861      -0.03877949 </v>
   <v>       0.07943466       0.06024506      -0.03571691 </v>
   <v>       0.00756583      -0.00682091       0.05701706 </v>
   <v>      -0.10775537       0.09392165       0.02441213 </v>
   <v>       0.12259300      -0.67449673      -0.07382141 </v>
   <v>      -2.62142692       0.82726522       3.45843138 </v>
   <v>       0.02728238       0.02697131      -0.01661687 </v>
   <v>       0.04802662       0.06914822       0.04431952 </v>
   <v>       0.07027153       0.08260196      -0.05183286 </v>
   <v>      -0.00807115       0.04163524       0.07724126 </v>
   <v>      -0.75768068      -0.91478188      -0.85378177 </v>
   <v>      -0.44196845      -0.10747666      -1.16559539 </v>
   <v>       0.05813139       0.06300700      -0.09072170 </v>
   <v>       0.04862679       0.04968292      -0.08132911 </v>
   <v>      -0.00955870      -0.01412684      -0.03612490 </v>
   <v>      -0.00695001      -0.05285835      -0.09217148 </v>
   <v>      -0.55405044       0.10070954       1.01200655 </v>
   <v>      -0.29078154      -0.13805885      -0.49173669 </v>
   <v>      -0.01420807       0.03004714       0.23108599 </v>
   <v>       0.02713032      -0.00770105       0.06307016 </v>
   <v>       0.03954873       0.03019534       0.02864632 </v>
   <v>       0.13253138       0.02758820       0.09103464 </v>
   <v>      -0.31814670      -0.10987474       0.83070454 </v>
   <v>      -2.62142692       0.82726522       3.45843138 </v>
   <v>       0.02728238       0.02697131      -0.01661687 </v>
   <v>       0.04802662       0.06914822       0.04431952 </v>
   <v>       0.07027153       0.08260196      -0.05183286 </v>
   <v>      -0.00807115       0.04163524       0.07724126 </v>
   <v>      -0.75768068      -0.91478188      -0.85378177 </v>
   <v>      -0.38920880      -0.03443934      -0.90956447 </v>
   <v>       0.10202280       0.12876525      -0.13117885 </v>
   <v>       0.02101934       0.05421199      -0.10019653 </v>
   <v>       0.05251111       0.05864235       0.09515676 </v>
   <v>       0.24667421       0.12598751      -0.14235237 </v>
   <v>      -0.08845699      -0.41185679       0.89274799 </v>
   <v>      -0.29078154      -0.13805885      -0.49173669 </v>
   <v>      -0.01420807       0.03004714       0.23108599 </v>
   <v>       0.02713032      -0.00770105       0.06307016 </v>
   <v>       0.03954873       0.03019534       0.02864632 </v>
   <v>       0.13253138       0.02758820       0.09103464 </v>
   <v>      -0.31814670      -0.10987474       0.83070454 </v>
   <v>       1.88890310       0.39376893       3.32220532 </v>
   <v>       0.11032553       0.10458861      -0.03877949 </v>
   <v>       0.07943466       0.06024506      -0.03571691 </v>
   <v>       0.00756583      -0.00682091       0.05701706 </v>
   <v>      -0.10775537       0.09392165       0.02441213 </v>
   <v>       0.12259300      -0.67449673      -0.07382141 </v>
   <v>      -0.44196845      -0.10747666      -1.16559539 </v>
   <v>       0.05813139       0.06300700      -0.09072170 </v>
   <v>       0.04862679       0.04968292      -0.08132911 </v>
   <v>      -0.00955870      -0.01412684      -0.03612490 </v>
   <v>      -0.00695001      -0.05285835      -0.09217148 </v>
   <v>      -0.55405044       0.10070954       1.01200655 </v>
   <v>      -0.18074400      -0.17376428      -0.54333718 </v>
   <v>      -0.01603273       0.00428357      -0.07596729 </v>
   <v>       0.00662889      -0.00824832      -0.01162995 </v>
   <v>       0.05179558       0.03440042       0.01773029 </v>
   <v>       0.11971687       0.12214605       0.09048588 </v>
   <v>      -0.28724916      -0.21919898       0.03059765 </v>
   <v>      -2.35446043      -1.06869146       1.63578357 </v>
   <v>       0.14234516      -0.90178362      -0.45579028 </v>
   <v>      -0.07359321      -1.30414012       0.14002801 </v>
   <v>       0.63718195      -0.14915018       0.75656284 </v>
   <v>       0.24693114      -0.96726875      -0.62920199 </v>
   <v>      -0.05582734      -0.70750506       0.85854667 </v>
   <v>      -0.94005934      -0.47472679      -1.20991164 </v>
   <v>       0.12823459      -0.72115781      -0.36112674 </v>
   <v>      -0.26465476      -1.23282169       0.83448931 </v>
   <v>       0.76921554       0.33802661      -1.23085740 </v>
   <v>      -0.65366578       0.71840164       0.89482495 </v>
   <v>      -1.84046413      -0.30625665      -3.31618864 </v>
   <v>       0.54647516       0.60496978      -0.11491809 </v>
   <v>      -0.45682954       0.57927168       1.29841740 </v>
   <v>       0.93414912       0.69807764      -6.29473395 </v>
   <v>       0.31460679       0.73996612      -0.85287174 </v>
   <v>      -0.36127557       0.55971711       0.88928811 </v>
   <v>       2.49761002       1.00058661      -1.88899969 </v>
   <v>       0.63718195      -0.14915018       0.75656284 </v>
   <v>       0.24693114      -0.96726875      -0.62920199 </v>
   <v>      -0.05582734      -0.70750506       0.85854667 </v>
   <v>      -0.94005934      -0.47472679      -1.20991164 </v>
   <v>       0.12823459      -0.72115781      -0.36112674 </v>
   <v>      -0.26465476      -1.23282169       0.83448931 </v>
   <v>      -2.35446043      -1.06869146       1.63578357 </v>
   <v>       0.14234516      -0.90178362      -0.45579028 </v>
   <v>      -0.07359321      -1.30414012       0.14002801 </v>
   <v>       0.31460679       0.73996612      -0.85287174 </v>
   <v>      -0.36127557       0.55971711       0.88928811 </v>
   <v>       2.49761002       1.00058661      -1.88899969 </v>
   <v>       0.76921554       0.33802661      -1.23085740 </v>
   <v>      -0.65366578       0.71840164       0.89482495 </v>
   <v>      -1.84046413      -0.30625665      -3.31618864 </v>
   <v>       0.54647516       0.60496978      -0.11491809 </v>
   <v>      -0.45682954       0.57927168       1.29841740 </v>
   <v>       0.93414912       0.69807764      -6.29473395 </v>
  </varray>
  <varray name="stress" >
   <v>      50.86869827       7.04758261       2.78469385 </v>
   <v>       7.04758421      42.13250872      -1.11492422 </v>
   <v>       2.78469708      -1.11492187      48.23938550 </v>
  </varray>
  <energy>
   <i name="e_fr_energy">   -733.31621819 </i>
   <i name="e_wo_entrp">   -733.31298439 </i>
   <i name="e_0_energy">   -733.31460129 </i>
  </energy>
  <time name="totalsc"> 2120.23 2140.27</time>
  <eigenvalues>
   <array>
    <dimension dim="1">band</dimension>
    <dimension dim="2">kpoint</dimension>
    <dimension dim="3">spin</dimension>
    <field>eigene</field>
    <field>occ</field>
    <set>
     <set comment="spin 1">
      <set comment="kpoint 1">
       <r>   -9.5012    1.0000 </r>
       <r>   -9.2029    1.0000 </r>
       <r>   -9.1469    1.0000 </r>
       <r>   -9.0582    1.0000 </r>
       <r>   -8.9287    1.0000 </r>
       <r>   -8.8569    1.0000 </r>
       <r>   -8.7980    1.0000 </r>
       <r>   -8.7449    1.0000 </r>
       <r>   -8.6345    1.0000 </r>
       <r>   -8.6127    1.0000 </r>
       <r>   -8.5852    1.0000 </r>
       <r>   -8.5099    1.0000 </r>
       <r>   -8.4969    1.0000 </r>
       <r>   -8.4764    1.0000 </r>
       <r>   -8.4165    1.0000 </r>
       <r>   -8.3269    1.0000 </r>
       <r>   -8.2749    1.0000 </r>
       <r>   -8.2727    1.0000 </r>
       <r>   -8.2338    1.0000 </r>
       <r>   -8.1865    1.0000 </r>
       <r>   -8.0807    1.0000 </r>
       <r>   -8.0289    1.0000 </r>
       <r>   -8.0010    1.0000 </r>
       <r>   -7.9880    1.0000 </r>
       <r>   -7.9325    1.0000 </r>
       <r>   -7.8711    1.0000 </r>
       <r>   -7.8276    1.0000 </r>
       <r>   -7.7494    1.0000 </r>
[...]
       <r>    -2.7554    25.4398   303.9409 </r>
       <r>    -2.7016    37.9463   305.9828 </r>
       <r>    -2.6478    34.9055   307.8611 </r>
       <r>    -2.5940    45.1629   310.2913 </r>
       <r>    -2.5402    32.0904   312.0181 </r>
       <r>    -2.4863    23.5894   313.2874 </r>
       <r>    -2.4325    27.0194   314.7413 </r>
       <r>    -2.3787    29.2208   316.3137 </r>
       <r>    -2.3249    38.4610   318.3833 </r>
       <r>    -2.2711    37.3830   320.3948 </r>
       <r>    -2.2173    36.9534   322.3833 </r>
       <r>    -2.1635    18.3167   323.3690 </r>
       <r>    -2.1097    16.5754   324.2609 </r>
       <r>    -2.0559    41.2012   326.4779 </r>
       <r>    -2.0021    14.3233   327.2487 </r>
       <r>    -1.9482    11.7040   327.8785 </r>
       <r>    -1.8944    15.0273   328.6871 </r>
       <r>    -1.8406    46.9510   331.2135 </r>
       <r>    -1.7868    15.9292   332.0706 </r>
       <r>    -1.7330    30.3744   333.7051 </r>
       <r>    -1.6792    52.8002   336.5463 </r>
       <r>    -1.6254    24.1262   337.8445 </r>
       <r>    -1.5716    33.2050   339.6313 </r>
       <r>    -1.5178    25.3158   340.9935 </r>
       <r>    -1.4640    14.0720   341.7507 </r>
       <r>    -1.4102    13.3575   342.4695 </r>
       <r>    -1.3563    23.8778   343.7544 </r>
       <r>    -1.3025    26.1076   345.1593 </r>
       <r>    -1.2487    27.5676   346.6427 </r>
       <r>    -1.1949    15.0281   347.4513 </r>
       <r>    -1.1411    11.5477   348.0727 </r>
       <r>    -1.0873    44.7226   350.4792 </r>
       <r>    -1.0335    64.1081   353.9289 </r>
       <r>    -0.9797    87.2194   358.6221 </r>
       <r>    -0.9259    97.4149   363.8641 </r>
       <r>    -0.8721    72.4236   367.7612 </r>
       <r>    -0.8182    84.9077   372.3301 </r>
       <r>    -0.7644   104.7857   377.9686 </r>
       <r>    -0.7106    63.4684   381.3838 </r>
       <r>    -0.6568    98.8354   386.7021 </r>
       <r>    -0.6030   109.3845   392.5881 </r>
       <r>    -0.5492   118.7044   398.9756 </r>
       <r>    -0.4954    83.7114   403.4801 </r>
       <r>    -0.4416   108.1242   409.2983 </r>
       <r>    -0.3878    76.6601   413.4234 </r>
       <r>    -0.3340    76.1158   417.5192 </r>
       <r>    -0.2801    90.9867   422.4152 </r>
       <r>    -0.2263    61.0166   425.6985 </r>
       <r>    -0.1725    72.7953   429.6156 </r>
       <r>    -0.1187    77.0815   433.7634 </r>
       <r>    -0.0649   115.1633   439.9603 </r>
       <r>    -0.0111   125.7385   446.7264 </r>
       <r>     0.0427   132.1357   453.8366 </r>
       <r>     0.0965   113.2146   459.9286 </r>
       <r>     0.1503   111.4129   465.9238 </r>
       <r>     0.2041   128.1661   472.8204 </r>
       <r>     0.2580   102.6866   478.3459 </r>
       <r>     0.3118   137.2139   485.7294 </r>
       <r>     0.3656   121.5659   492.2709 </r>
       <r>     0.4194   107.9573   498.0801 </r>
       <r>     0.4732   111.7910   504.0955 </r>
       <r>     0.5270   118.4167   510.4676 </r>
       <r>     0.5808   136.5415   517.8149 </r>
       <r>     0.6346   113.1299   523.9024 </r>
       <r>     0.6884    96.5444   529.0974 </r>
       <r>     0.7422   110.5509   535.0462 </r>
       <r>     0.7961   112.6542   541.1082 </r>
       <r>     0.8499   109.2963   546.9894 </r>
       <r>     0.9037   107.2799   552.7621 </r>
       <r>     0.9575   102.7807   558.2927 </r>
       <r>     1.0113   120.4619   564.7748 </r>
       <r>     1.0651   116.0903   571.0216 </r>
       <r>     1.1189    87.6063   575.7357 </r>
       <r>     1.1727   120.4134   582.2151 </r>
       <r>     1.2265    84.2994   586.7513 </r>
       <r>     1.2803   102.2902   592.2555 </r>
       <r>     1.3341    89.2691   597.0591 </r>
       <r>     1.3880    93.0990   602.0688 </r>
       <r>     1.4418    87.4625   606.7752 </r>
       <r>     1.4956   107.0159   612.5337 </r>
       <r>     1.5494    96.7376   617.7392 </r>
       <r>     1.6032    74.4482   621.7453 </r>
       <r>     1.6570    72.1921   625.6300 </r>
       <r>     1.7108   103.2731   631.1871 </r>
       <r>     1.7646    89.5629   636.0065 </r>
       <r>     1.8184    64.9081   639.4992 </r>
       <r>     1.8722    82.2478   643.9249 </r>
       <r>     1.9261    68.0616   647.5874 </r>
       <r>     1.9799    91.3282   652.5018 </r>
       <r>     2.0337    59.1286   655.6835 </r>
       <r>     2.0875    80.7376   660.0280 </r>
       <r>     2.1413    62.1639   663.3730 </r>
       <r>     2.1951    92.5247   668.3518 </r>
       <r>     2.2489    69.7351   672.1042 </r>
       <r>     2.3027    60.5014   675.3598 </r>
       <r>     2.3565    75.9111   679.4446 </r>
       <r>     2.4103    75.8048   683.5237 </r>
       <r>     2.4642    38.9200   685.6180 </r>
       <r>     2.5180    72.4934   689.5188 </r>
       <r>     2.5718    78.5007   693.7429 </r>
       <r>     2.6256    60.3710   696.9915 </r>
       <r>     2.6794    55.9222   700.0007 </r>
       <r>     2.7332    68.8536   703.7057 </r>
       <r>     2.7870    75.3758   707.7616 </r>
       <r>     2.8408    70.2436   711.5415 </r>
       <r>     2.8946    74.4204   715.5460 </r>
       <r>     2.9484    55.5442   718.5349 </r>
       <r>     3.0023    65.0175   722.0335 </r>
       <r>     3.0561    51.1875   724.7879 </r>
       <r>     3.1099    43.0172   727.1026 </r>
       <r>     3.1637    57.6174   730.2030 </r>
       <r>     3.2175    67.4264   733.8312 </r>
       <r>     3.2713    66.1680   737.3917 </r>
       <r>     3.3251    45.2747   739.8279 </r>
       <r>     3.3789    53.9158   742.7291 </r>
       <r>     3.4327    78.5380   746.9553 </r>
       <r>     3.4865    35.9326   748.8888 </r>
       <r>     3.5404    58.8371   752.0548 </r>
       <r>     3.5942    57.0715   755.1258 </r>
       <r>     3.6480    44.2106   757.5048 </r>
       <r>     3.7018    50.4385   760.2189 </r>
       <r>     3.7556    41.6413   762.4596 </r>
       <r>     3.8094    50.4127   765.1723 </r>
       <r>     3.8632    61.7534   768.4953 </r>
       <r>     3.9170    54.1003   771.4064 </r>
       <r>     3.9708    32.8992   773.1767 </r>
       <r>     4.0246    55.9688   776.1884 </r>
       <r>     4.0785    43.3206   778.5194 </r>
       <r>     4.1323    54.8837   781.4727 </r>
       <r>     4.1861    34.7455   783.3424 </r>
       <r>     4.2399    50.8899   786.0808 </r>
       <r>     4.2937    81.3925   790.4605 </r>
       <r>     4.3475    79.0948   794.7166 </r>
       <r>     4.4013    64.2771   798.1753 </r>
       <r>     4.4551    52.1835   800.9833 </r>
       <r>     4.5089    75.6614   805.0546 </r>
       <r>     4.5627    86.4718   809.7077 </r>
       <r>     4.6165   105.4048   815.3795 </r>
       <r>     4.6704   101.7289   820.8535 </r>
       <r>     4.7242    93.7093   825.8960 </r>
       <r>     4.7780    64.7722   829.3814 </r>
       <r>     4.8318    80.8564   833.7323 </r>
       <r>     4.8856    81.6342   838.1251 </r>
       <r>     4.9394    88.6565   842.8957 </r>
       <r>     4.9932   129.0396   849.8393 </r>
       <r>     5.0470   128.1375   856.7344 </r>
       <r>     5.1008    86.6831   861.3988 </r>
       <r>     5.1546    36.1260   863.3428 </r>
       <r>     5.2085    12.2132   864.0000 </r>
       <r>     5.2623     0.0000   864.0000 </r>
       <r>     5.3161     0.0000   864.0000 </r>
       <r>     5.3699     0.0000   864.0000 </r>
       <r>     5.4237     0.0000   864.0000 </r>
       <r>     5.4775     0.0000   864.0000 </r>
       <r>     5.5313     0.0000   864.0000 </r>
       <r>     5.5851     0.0000   864.0000 </r>
       <r>     5.6389     0.0000   864.0000 </r>
       <r>     5.6927     0.0000   864.0000 </r>
       <r>     5.7466     0.0000   864.0000 </r>
       <r>     5.8004     0.0000   864.0000 </r>
       <r>     5.8542     0.0000   864.0000 </r>
       <r>     5.9080     0.0000   864.0000 </r>
      </set>
     </set>
    </array>
   </total>
  </dos>
 </calculation>
 <structure name="finalpos" >
  <crystal>
   <varray name="basis" >
    <v>      13.85872459       0.00000000       0.00000000 </v>
    <v>       0.00000000      19.59919548       0.00000000 </v>
    <v>       0.00000000       0.00000000      17.60313034 </v>
   </varray>
   <i name="volume">   4781.35966538 </i>
   <varray name="rec_basis" >
    <v>       0.07215671       0.00000000       0.00000000 </v>
    <v>       0.00000000       0.05102250       0.00000000 </v>
    <v>       0.00000000       0.00000000       0.05680808 </v>
   </varray>
  </crystal>
  <varray name="positions" >
   <v>       0.97937846       0.49999997       0.00000001 </v>
   <v>       0.72937834       0.49999994       0.11363522 </v>
   <v>       0.47937822       0.49999988       0.22727042 </v>
   <v>       0.22937822       0.49999982       0.34090558 </v>
   <v>       0.97937822       0.49999973       0.45454073 </v>
   <v>       0.72937798       0.49999970       0.56817591 </v>
   <v>       0.31271177       0.66666669       0.00000001 </v>
   <v>       0.06271167       0.66666663       0.11363521 </v>
   <v>       0.81271160       0.66666657       0.22727041 </v>
   <v>       0.56271154       0.66666651       0.34090552 </v>
   <v>       0.31271148       0.66666645       0.45454070 </v>
   <v>       0.06271136       0.66666639       0.56817591 </v>
   <v>       0.64604503       0.83333331       0.00000001 </v>
   <v>       0.39604497       0.83333325       0.11363521 </v>
   <v>       0.14604483       0.83333319       0.22727041 </v>
   <v>       0.89604485       0.83333319       0.34090552 </v>
   <v>       0.64604473       0.83333307       0.45454070 </v>
   <v>       0.39604467       0.83333302       0.56817591 </v>
   <v>       0.97937846       0.00000000       0.00000002 </v>
   <v>       0.72937834       0.99999994       0.11363519 </v>
   <v>       0.47937828       0.99999988       0.22727041 </v>
   <v>       0.22937828       0.99999982       0.34090552 </v>
   <v>       0.97937822       0.99999976       0.45454070 </v>
   <v>       0.72937810       0.99999970       0.56817591 </v>
   <v>       0.31271177       0.16666666       0.00000002 </v>
   <v>       0.06271169       0.16666661       0.11363519 </v>
   <v>       0.81271160       0.16666654       0.22727038 </v>
   <v>       0.56271154       0.16666648       0.34090552 </v>
   <v>       0.31271148       0.16666643       0.45454073 </v>
   <v>       0.06271136       0.16666636       0.56817591 </v>
   <v>       0.64604515       0.33333334       0.00000002 </v>
   <v>       0.39604500       0.33333328       0.11363521 </v>
   <v>       0.14604492       0.33333322       0.22727038 </v>
   <v>       0.89604485       0.33333313       0.34090552 </v>
   <v>       0.64604485       0.33333311       0.45454073 </v>
   <v>       0.39604473       0.33333305       0.56817591 </v>
   <v>       0.14604510       0.83333337       0.00000001 </v>
   <v>       0.89604497       0.83333331       0.11363518 </v>
   <v>       0.64604485       0.83333325       0.22727041 </v>
   <v>       0.39604479       0.83333319       0.34090558 </v>
   <v>       0.14604485       0.83333313       0.45454076 </v>
   <v>       0.89604473       0.83333302       0.56817585 </v>
   <v>       0.14604510       0.33333331       0.00000002 </v>
   <v>       0.89604503       0.33333328       0.11363521 </v>
   <v>       0.64604491       0.33333322       0.22727041 </v>
   <v>       0.39604491       0.33333313       0.34090558 </v>
   <v>       0.14604485       0.33333307       0.45454070 </v>
   <v>       0.89604473       0.33333302       0.56817585 </v>
   <v>       0.47937849       0.50000000       0.00000002 </v>
   <v>       0.22937836       0.49999994       0.11363521 </v>
   <v>       0.97937822       0.49999988       0.22727041 </v>
   <v>       0.72937822       0.49999979       0.34090558 </v>
   <v>       0.47937816       0.49999976       0.45454070 </v>
   <v>       0.22937804       0.49999967       0.56817585 </v>
   <v>       0.81271166       0.66666669       0.00000002 </v>
   <v>       0.56271166       0.66666663       0.11363521 </v>
   <v>       0.31271154       0.66666651       0.22727038 </v>
   <v>       0.06271150       0.66666651       0.34090558 </v>
   <v>       0.81271142       0.66666645       0.45454073 </v>
   <v>       0.56271136       0.66666633       0.56817585 </v>
   <v>       0.47937843       0.00000000       0.00000002 </v>
   <v>       0.22937836       0.99999994       0.11363521 </v>
   <v>       0.97937822       0.99999988       0.22727038 </v>
   <v>       0.72937822       0.99999982       0.34090558 </v>
   <v>       0.47937816       0.99999976       0.45454073 </v>
   <v>       0.22937804       0.99999970       0.56817591 </v>
   <v>       0.81271177       0.16666667       0.00000002 </v>
   <v>       0.56271172       0.16666660       0.11363521 </v>
   <v>       0.31271166       0.16666657       0.22727038 </v>
   <v>       0.06271160       0.16666651       0.34090558 </v>
   <v>       0.81271160       0.16666643       0.45454070 </v>
   <v>       0.56271148       0.16666640       0.56817591 </v>
   <v>       0.14604515       0.70833337       0.00000000 </v>
   <v>       0.89604497       0.70833331       0.11363521 </v>
   <v>       0.64604491       0.70833325       0.22727042 </v>
   <v>       0.39604485       0.70833319       0.34090558 </v>
   <v>       0.14604485       0.70833313       0.45454070 </v>
   <v>       0.89604473       0.70833307       0.56817585 </v>
   <v>       0.47937843       0.87500006       0.00000000 </v>
   <v>       0.22937839       0.87500000       0.11363521 </v>
   <v>       0.97937822       0.87499994       0.22727042 </v>
   <v>       0.72937822       0.87499988       0.34090558 </v>
   <v>       0.47937822       0.87499976       0.45454070 </v>
   <v>       0.22937810       0.87499976       0.56817585 </v>
   <v>       0.14604509       0.20833333       0.00000002 </v>
   <v>       0.89604503       0.20833327       0.11363519 </v>
   <v>       0.64604491       0.20833321       0.22727038 </v>
   <v>       0.39604485       0.20833315       0.34090558 </v>
   <v>       0.14604485       0.20833311       0.45454073 </v>
   <v>       0.89604473       0.20833305       0.56817585 </v>
   <v>       0.47937849       0.37500000       0.00000002 </v>
   <v>       0.22937837       0.37499994       0.11363521 </v>
   <v>       0.97937828       0.37499988       0.22727041 </v>
   <v>       0.72937822       0.37499982       0.34090558 </v>
   <v>       0.47937822       0.37499976       0.45454073 </v>
   <v>       0.22937804       0.37499970       0.56817585 </v>
   <v>       0.81271177       0.54166669       0.00000002 </v>
   <v>       0.56271177       0.54166663       0.11363521 </v>
   <v>       0.31271163       0.54166657       0.22727041 </v>
   <v>       0.06271158       0.54166651       0.34090558 </v>
   <v>       0.81271154       0.54166645       0.45454073 </v>
   <v>       0.56271148       0.54166639       0.56817585 </v>
   <v>       0.81271184       0.04166666       0.00000001 </v>
   <v>       0.56271172       0.04166659       0.11363521 </v>
   <v>       0.31271163       0.04166653       0.22727041 </v>
   <v>       0.06271157       0.04166649       0.34090558 </v>
   <v>       0.81271154       0.04166642       0.45454073 </v>
   <v>       0.56271148       0.04166634       0.56817591 </v>
   <v>       0.97937852       0.87500006       0.00000001 </v>
   <v>       0.72937834       0.87499994       0.11363518 </v>
   <v>       0.47937828       0.87499988       0.22727041 </v>
   <v>       0.22937822       0.87499982       0.34090558 </v>
   <v>       0.97937822       0.87499976       0.45454076 </v>
   <v>       0.72937810       0.87499970       0.56817585 </v>
   <v>       0.97937846       0.37499997       0.00000001 </v>
   <v>       0.72937834       0.37499991       0.11363521 </v>
   <v>       0.47937828       0.37499985       0.22727041 </v>
   <v>       0.22937822       0.37499979       0.34090552 </v>
   <v>       0.97937822       0.37499973       0.45454070 </v>
   <v>       0.72937810       0.37499967       0.56817585 </v>
   <v>       0.31271184       0.54166669       0.00000001 </v>
   <v>       0.06271169       0.54166663       0.11363521 </v>
   <v>       0.81271160       0.54166657       0.22727042 </v>
   <v>       0.56271154       0.54166651       0.34090558 </v>
   <v>       0.31271154       0.54166645       0.45454073 </v>
   <v>       0.06271142       0.54166639       0.56817591 </v>
   <v>       0.64604509       0.70833331       0.00000001 </v>
   <v>       0.39604500       0.70833325       0.11363521 </v>
   <v>       0.14604490       0.70833319       0.22727041 </v>
   <v>       0.89604485       0.70833313       0.34090552 </v>
   <v>       0.64604485       0.70833307       0.45454070 </v>
   <v>       0.39604473       0.70833302       0.56817585 </v>
   <v>       0.31271175       0.04166665       0.00000002 </v>
   <v>       0.06271169       0.04166659       0.11363519 </v>
   <v>       0.81271160       0.04166654       0.22727038 </v>
   <v>       0.56271154       0.04166648       0.34090558 </v>
   <v>       0.31271154       0.04166643       0.45454073 </v>
   <v>       0.06271142       0.04166637       0.56817585 </v>
   <v>       0.64604521       0.20833336       0.00000002 </v>
   <v>       0.39604506       0.20833328       0.11363519 </v>
   <v>       0.14604494       0.20833321       0.22727038 </v>
   <v>       0.89604491       0.20833316       0.34090558 </v>
   <v>       0.64604485       0.20833311       0.45454073 </v>
   <v>       0.39604473       0.20833305       0.56817585 </v>
   <v>       0.31623900       0.77549821       0.68105024 </v>
   <v>       0.11623895       0.60883152       0.76348048 </v>
   <v>       0.91623878       0.44216481       0.84591079 </v>
   <v>       0.31623900       0.44216493       0.68105024 </v>
   <v>       0.11623895       0.27549824       0.76348048 </v>
   <v>       0.91623878       0.10883152       0.84591079 </v>
   <v>       0.31623900       0.10883164       0.68105024 </v>
   <v>       0.11623895       0.94216496       0.76348048 </v>
   <v>       0.91623878       0.77549821       0.84591079 </v>
   <v>       0.96623898       0.02549839       0.72226530 </v>
   <v>       0.76623887       0.85883164       0.80469555 </v>
   <v>       0.56623876       0.69216496       0.88712573 </v>
   <v>       0.96623898       0.69216490       0.72226530 </v>
   <v>       0.76623887       0.52549821       0.80469555 </v>
   <v>       0.56623876       0.35883152       0.88712573 </v>
   <v>       0.96623898       0.35883167       0.72226530 </v>
   <v>       0.76623887       0.19216499       0.80469555 </v>
   <v>       0.56623876       0.02549827       0.88712573 </v>
   <v>       0.81623894       0.94216484       0.68105024 </v>
   <v>       0.61623883       0.77549815       0.76348048 </v>
   <v>       0.41623869       0.60883152       0.84591079 </v>
   <v>       0.81623894       0.60883158       0.68105024 </v>
   <v>       0.61623883       0.44216490       0.76348048 </v>
   <v>       0.41623869       0.27549821       0.84591079 </v>
   <v>       0.81623894       0.27549827       0.68105024 </v>
   <v>       0.61623883       0.10883164       0.76348048 </v>
   <v>       0.41623869       0.94216490       0.84591079 </v>
   <v>       0.46623898       0.85883158       0.72226530 </v>
   <v>       0.26623893       0.69216490       0.80469555 </v>
   <v>       0.06623888       0.52549821       0.88712573 </v>
   <v>       0.46623898       0.52549833       0.72226530 </v>
   <v>       0.26623893       0.35883164       0.80469555 </v>
   <v>       0.06623888       0.19216493       0.88712573 </v>
   <v>       0.46623898       0.19216493       0.72226530 </v>
   <v>       0.26623893       0.02549827       0.80469555 </v>
   <v>       0.06623888       0.85883152       0.88712573 </v>
  </varray>
 </structure>
</modeling>
