  60  60   0   0
  0.2197471E+02  0.1330318E-08  0.1629300E-08  0.6663594E-09  0.5000000E-15
  1.000000000000000E-004
  CAR 
 Si and Ge interface calculation         
      8.73109267     -9.09579727  301      6.10316499      1.00000000
     -9.096  0.0000E+00  0.0000E+00  0.0000E+00  0.0000E+00
     -9.036  0.0000E+00  0.0000E+00  0.0000E+00  0.0000E+00
     -8.977  0.0000E+00  0.0000E+00  0.0000E+00  0.0000E+00
     -8.918  0.0000E+00  0.0000E+00  0.0000E+00  0.0000E+00
     -8.858  0.0000E+00  0.0000E+00  0.0000E+00  0.0000E+00
     -8.799  0.0000E+00  0.0000E+00  0.0000E+00  0.0000E+00
     -8.739  0.0000E+00  0.0000E+00  0.0000E+00  0.0000E+00
     -8.680  0.0000E+00  0.0000E+00  0.0000E+00  0.0000E+00
     -8.620  0.0000E+00  0.0000E+00  0.0000E+00  0.0000E+00
     -8.561  0.0000E+00  0.0000E+00  0.0000E+00  0.0000E+00
     -8.502  0.0000E+00  0.0000E+00  0.0000E+00  0.0000E+00
     -8.442  0.0000E+00  0.0000E+00  0.0000E+00  0.0000E+00
     -8.383  0.0000E+00  0.0000E+00  0.0000E+00  0.0000E+00
     -8.323  0.8110E-07  0.7098E-12  0.4819E-08  0.4218E-13
     -8.264  0.3415E+01  0.2006E+01  0.2030E+00  0.1192E+00
     -8.204  0.1822E+02  0.1755E+02  0.1286E+01  0.1162E+01
     -8.145  0.3319E+02  0.2960E+02  0.3258E+01  0.2921E+01
     -8.086  0.1249E+02  0.1815E+02  0.4000E+01  0.4000E+01
     -8.026  0.0000E+00  0.0000E+00  0.4000E+01  0.4000E+01
     -7.967  0.0000E+00  0.0000E+00  0.4000E+01  0.4000E+01
     -7.907  0.0000E+00  0.0000E+00  0.4000E+01  0.4000E+01
     -7.848  0.0000E+00  0.0000E+00  0.4000E+01  0.4000E+01
     -7.788  0.0000E+00  0.0000E+00  0.4000E+01  0.4000E+01
     -7.729  0.0000E+00  0.0000E+00  0.4000E+01  0.4000E+01
     -7.670  0.0000E+00  0.0000E+00  0.4000E+01  0.4000E+01
     -7.610  0.0000E+00  0.0000E+00  0.4000E+01  0.4000E+01
     -7.551  0.0000E+00  0.0000E+00  0.4000E+01  0.4000E+01
     -7.491  0.0000E+00  0.0000E+00  0.4000E+01  0.4000E+01
     -7.432  0.0000E+00  0.0000E+00  0.4000E+01  0.4000E+01
     -7.373  0.0000E+00  0.0000E+00  0.4000E+01  0.4000E+01
     -7.313  0.0000E+00  0.0000E+00  0.4000E+01  0.4000E+01
     -7.254  0.0000E+00  0.0000E+00  0.4000E+01  0.4000E+01
     -7.194  0.4606E-01  0.3511E-03  0.4003E+01  0.4000E+01
     -7.135  0.2246E+01  0.2241E+01  0.4136E+01  0.4133E+01
     -7.075  0.8975E+01  0.8966E+01  0.4669E+01  0.4666E+01
     -7.016  0.8928E+01  0.8983E+01  0.5200E+01  0.5200E+01
     -6.957  0.7197E+01  0.4561E+01  0.5628E+01  0.5471E+01
     -6.897  0.2834E+02  0.2527E+02  0.7312E+01  0.6972E+01
     -6.838  0.4456E+02  0.4321E+02  0.9960E+01  0.9540E+01
     -6.778  0.2221E+02  0.2525E+02  0.1128E+02  0.1104E+02
     -6.719  0.1134E+01  0.4925E+01  0.1135E+02  0.1133E+02
     -6.659  0.1143E+02  0.8284E+01  0.1203E+02  0.1183E+02
     -6.600  0.6229E+01  0.8683E+01  0.1240E+02  0.1234E+02
     -6.541  0.1040E+00  0.9729E+00  0.1240E+02  0.1240E+02
     -6.481  0.4428E+01  0.4487E+01  0.1267E+02  0.1267E+02
     -6.422  0.1571E+02  0.6779E+01  0.1360E+02  0.1307E+02
     -6.362  0.7712E+01  0.1569E+02  0.1406E+02  0.1400E+02
     -6.303  0.1759E+02  0.1424E+02  0.1510E+02  0.1485E+02
     -6.243  0.1507E+02  0.1908E+02  0.1600E+02  0.1598E+02
     -6.184  0.6587E-02  0.3123E+00  0.1600E+02  0.1600E+02
     -6.125  0.0000E+00  0.0000E+00  0.1600E+02  0.1600E+02
     -6.065  0.0000E+00  0.0000E+00  0.1600E+02  0.1600E+02
     -6.006  0.0000E+00  0.0000E+00  0.1600E+02  0.1600E+02
     -5.946  0.0000E+00  0.0000E+00  0.1600E+02  0.1600E+02
     -5.887  0.0000E+00  0.0000E+00  0.1600E+02  0.1600E+02
     -5.828  0.0000E+00  0.0000E+00  0.1600E+02  0.1600E+02
     -5.768  0.0000E+00  0.0000E+00  0.1600E+02  0.1600E+02
     -5.709  0.3255E-04  0.1411E-09  0.1600E+02  0.1600E+02
     -5.649  0.1456E+02  0.5814E+01  0.1687E+02  0.1635E+02
     -5.590  0.2489E+02  0.2843E+02  0.1834E+02  0.1803E+02
     -5.530  0.5688E+01  0.1063E+02  0.1868E+02  0.1867E+02
     -5.471  0.1173E+02  0.9349E+01  0.1938E+02  0.1922E+02
     -5.412  0.7635E+01  0.9716E+01  0.1983E+02  0.1980E+02
     -5.352  0.1176E+02  0.1057E+02  0.2053E+02  0.2043E+02
     -5.293  0.2364E+02  0.1547E+02  0.2194E+02  0.2135E+02
     -5.233  0.2806E+02  0.3451E+02  0.2360E+02  0.2340E+02
     -5.174  0.6662E+01  0.1014E+02  0.2400E+02  0.2400E+02
     -5.114  0.1561E-03  0.2011E-08  0.2400E+02  0.2400E+02
     -5.055  0.7723E+01  0.5394E+01  0.2446E+02  0.2432E+02
     -4.996  0.6878E+01  0.9150E+01  0.2487E+02  0.2486E+02
     -4.936  0.5593E+01  0.5549E+01  0.2520E+02  0.2519E+02
     -4.877  0.7529E+01  0.2754E+01  0.2565E+02  0.2536E+02
     -4.817  0.1042E+02  0.1524E+02  0.2627E+02  0.2626E+02
     -4.758  0.9231E+01  0.4013E+01  0.2682E+02  0.2650E+02
     -4.698  0.1049E+02  0.1146E+02  0.2744E+02  0.2718E+02
     -4.639  0.2721E+01  0.7019E+01  0.2760E+02  0.2760E+02
     -4.580  0.2130E+02  0.1197E+02  0.2887E+02  0.2831E+02
     -4.520  0.2153E+02  0.2585E+02  0.3015E+02  0.2985E+02
     -4.461  0.6200E+01  0.9554E+01  0.3051E+02  0.3042E+02
     -4.401  0.9010E+01  0.3908E+01  0.3105E+02  0.3065E+02
     -4.342  0.1735E+02  0.2137E+02  0.3208E+02  0.3192E+02
     -4.283  0.6850E+01  0.9252E+01  0.3249E+02  0.3247E+02
     -4.223  0.7625E+01  0.6525E+01  0.3294E+02  0.3285E+02
     -4.164  0.2172E+01  0.3565E+01  0.3307E+02  0.3307E+02
     -4.104  0.9214E+01  0.2728E+01  0.3362E+02  0.3323E+02
     -4.045  0.2288E+02  0.2271E+02  0.3498E+02  0.3458E+02
     -3.985  0.1432E+02  0.1950E+02  0.3583E+02  0.3574E+02
     -3.926  0.1022E+02  0.9384E+01  0.3643E+02  0.3630E+02
     -3.867  0.1338E+02  0.1479E+02  0.3723E+02  0.3717E+02
     -3.807  0.2554E+02  0.2019E+02  0.3875E+02  0.3837E+02
     -3.748  0.3015E+02  0.2825E+02  0.4054E+02  0.4005E+02
     -3.688  0.7718E+01  0.1405E+02  0.4100E+02  0.4089E+02
     -3.629  0.8171E+01  0.7944E+01  0.4148E+02  0.4136E+02
     -3.569  0.6309E+01  0.6752E+01  0.4186E+02  0.4176E+02
     -3.510  0.1215E+02  0.1017E+02  0.4258E+02  0.4237E+02
     -3.451  0.1390E+02  0.1439E+02  0.4341E+02  0.4322E+02
     -3.391  0.1050E+02  0.9892E+01  0.4403E+02  0.4381E+02
     -3.332  0.1207E+02  0.1424E+02  0.4475E+02  0.4465E+02
     -3.272  0.1523E+02  0.1206E+02  0.4565E+02  0.4537E+02
     -3.213  0.7690E+01  0.1068E+02  0.4611E+02  0.4601E+02
     -3.154  0.8245E+01  0.9423E+01  0.4660E+02  0.4657E+02
     -3.094  0.1015E+02  0.6685E+01  0.4720E+02  0.4696E+02
     -3.035  0.1261E+02  0.1291E+02  0.4795E+02  0.4773E+02
     -2.975  0.1780E+02  0.1631E+02  0.4901E+02  0.4870E+02
     -2.916  0.7240E+01  0.1082E+02  0.4944E+02  0.4934E+02
     -2.856  0.1755E+02  0.1047E+02  0.5048E+02  0.4996E+02
     -2.797  0.1115E+02  0.1608E+02  0.5115E+02  0.5092E+02
     -2.738  0.1579E+02  0.1524E+02  0.5208E+02  0.5183E+02
     -2.678  0.6867E+01  0.9549E+01  0.5249E+02  0.5239E+02
     -2.619  0.1421E+02  0.1315E+02  0.5334E+02  0.5318E+02
     -2.559  0.1530E+02  0.1400E+02  0.5425E+02  0.5401E+02
     -2.500  0.9040E+01  0.1037E+02  0.5478E+02  0.5462E+02
     -2.440  0.1681E+02  0.1354E+02  0.5578E+02  0.5543E+02
     -2.381  0.1793E+02  0.2054E+02  0.5685E+02  0.5665E+02
     -2.322  0.1154E+02  0.9897E+01  0.5753E+02  0.5724E+02
     -2.262  0.9980E+01  0.1328E+02  0.5813E+02  0.5803E+02
     -2.203  0.9217E+01  0.9283E+01  0.5867E+02  0.5858E+02
     -2.143  0.1279E+02  0.9354E+01  0.5943E+02  0.5913E+02
     -2.084  0.7939E+01  0.1219E+02  0.5991E+02  0.5986E+02
     -2.024  0.1392E+02  0.6374E+01  0.6073E+02  0.6024E+02
     -1.965  0.1993E+02  0.2627E+02  0.6192E+02  0.6180E+02
     -1.906  0.2018E+02  0.1418E+02  0.6312E+02  0.6264E+02
     -1.846  0.8884E+01  0.1371E+02  0.6364E+02  0.6346E+02
     -1.787  0.1627E+02  0.1508E+02  0.6461E+02  0.6435E+02
     -1.727  0.2071E+02  0.1848E+02  0.6584E+02  0.6545E+02
     -1.668  0.1331E+02  0.1934E+02  0.6663E+02  0.6660E+02
     -1.609  0.1155E+02  0.8131E+01  0.6732E+02  0.6708E+02
     -1.549  0.1674E+02  0.1670E+02  0.6831E+02  0.6807E+02
     -1.490  0.2214E+02  0.2098E+02  0.6963E+02  0.6932E+02
     -1.430  0.1269E+02  0.1479E+02  0.7038E+02  0.7020E+02
     -1.371  0.2379E+02  0.1647E+02  0.7180E+02  0.7118E+02
     -1.311  0.2105E+02  0.2757E+02  0.7305E+02  0.7282E+02
     -1.252  0.7729E+01  0.8848E+01  0.7351E+02  0.7334E+02
     -1.193  0.1502E+02  0.1548E+02  0.7440E+02  0.7426E+02
     -1.133  0.1630E+02  0.1364E+02  0.7537E+02  0.7507E+02
     -1.074  0.1817E+02  0.1674E+02  0.7645E+02  0.7607E+02
     -1.014  0.9669E+01  0.1214E+02  0.7702E+02  0.7679E+02
     -0.955  0.2453E+02  0.2387E+02  0.7848E+02  0.7821E+02
     -0.895  0.1493E+02  0.1725E+02  0.7937E+02  0.7923E+02
     -0.836  0.1188E+02  0.8881E+01  0.8007E+02  0.7976E+02
     -0.777  0.2622E+02  0.2611E+02  0.8163E+02  0.8131E+02
     -0.717  0.1851E+02  0.1962E+02  0.8273E+02  0.8248E+02
     -0.658  0.1681E+02  0.1891E+02  0.8373E+02  0.8360E+02
     -0.598  0.2261E+02  0.1759E+02  0.8507E+02  0.8465E+02
     -0.539  0.2013E+02  0.2271E+02  0.8627E+02  0.8600E+02
     -0.479  0.1514E+02  0.1379E+02  0.8717E+02  0.8682E+02
     -0.420  0.1958E+02  0.2416E+02  0.8833E+02  0.8825E+02
     -0.361  0.1051E+02  0.9316E+01  0.8896E+02  0.8881E+02
     -0.301  0.1216E+02  0.1177E+02  0.8968E+02  0.8951E+02
     -0.242  0.2639E+02  0.2360E+02  0.9125E+02  0.9091E+02
     -0.182  0.1826E+02  0.1931E+02  0.9233E+02  0.9206E+02
     -0.123  0.1292E+02  0.1603E+02  0.9310E+02  0.9301E+02
     -0.064  0.2434E+02  0.2175E+02  0.9455E+02  0.9430E+02
     -0.004  0.1717E+02  0.1517E+02  0.9557E+02  0.9520E+02
      0.055  0.2348E+02  0.2342E+02  0.9696E+02  0.9659E+02
      0.115  0.3412E+02  0.3452E+02  0.9899E+02  0.9865E+02
      0.174  0.7893E+01  0.1145E+02  0.9946E+02  0.9933E+02
      0.234  0.1558E+02  0.1286E+02  0.1004E+03  0.1001E+03
      0.293  0.1425E+02  0.1691E+02  0.1012E+03  0.1011E+03
      0.352  0.2654E+02  0.2265E+02  0.1028E+03  0.1024E+03
      0.412  0.1437E+02  0.1748E+02  0.1037E+03  0.1035E+03
      0.471  0.1100E+02  0.1182E+02  0.1043E+03  0.1042E+03
      0.531  0.1525E+02  0.1297E+02  0.1052E+03  0.1050E+03
      0.590  0.2101E+02  0.2194E+02  0.1065E+03  0.1063E+03
      0.650  0.1348E+02  0.1119E+02  0.1073E+03  0.1069E+03
      0.709  0.2122E+02  0.2296E+02  0.1085E+03  0.1083E+03
      0.768  0.2055E+02  0.2073E+02  0.1098E+03  0.1095E+03
      0.828  0.2082E+02  0.1892E+02  0.1110E+03  0.1106E+03
      0.887  0.2795E+02  0.2838E+02  0.1127E+03  0.1123E+03
      0.947  0.2264E+02  0.2395E+02  0.1140E+03  0.1138E+03
      1.006  0.2221E+02  0.2152E+02  0.1153E+03  0.1150E+03
      1.066  0.1896E+02  0.1760E+02  0.1164E+03  0.1161E+03
      1.125  0.1573E+02  0.2028E+02  0.1174E+03  0.1173E+03
      1.184  0.1498E+02  0.1253E+02  0.1183E+03  0.1180E+03
      1.244  0.2280E+02  0.2512E+02  0.1196E+03  0.1195E+03
      1.303  0.2696E+02  0.2348E+02  0.1212E+03  0.1209E+03
      1.363  0.3098E+02  0.2964E+02  0.1231E+03  0.1227E+03
      1.422  0.2839E+02  0.2466E+02  0.1248E+03  0.1241E+03
      1.481  0.2747E+02  0.3235E+02  0.1264E+03  0.1261E+03
      1.541  0.2189E+02  0.1968E+02  0.1277E+03  0.1272E+03
      1.600  0.1740E+02  0.2033E+02  0.1287E+03  0.1284E+03
      1.660  0.2305E+02  0.2246E+02  0.1301E+03  0.1298E+03
      1.719  0.2221E+02  0.2233E+02  0.1314E+03  0.1311E+03
      1.779  0.2184E+02  0.1830E+02  0.1327E+03  0.1322E+03
      1.838  0.1874E+02  0.2110E+02  0.1338E+03  0.1334E+03
      1.897  0.3573E+02  0.3103E+02  0.1359E+03  0.1353E+03
      1.957  0.1803E+02  0.2568E+02  0.1370E+03  0.1368E+03
      2.016  0.2749E+02  0.2601E+02  0.1387E+03  0.1384E+03
      2.076  0.1795E+02  0.1397E+02  0.1397E+03  0.1392E+03
      2.135  0.1476E+02  0.2042E+02  0.1406E+03  0.1404E+03
      2.195  0.2304E+02  0.1694E+02  0.1420E+03  0.1414E+03
      2.254  0.2291E+02  0.2237E+02  0.1433E+03  0.1427E+03
      2.313  0.2236E+02  0.2650E+02  0.1447E+03  0.1443E+03
      2.373  0.2367E+02  0.2601E+02  0.1461E+03  0.1459E+03
      2.432  0.2256E+02  0.2040E+02  0.1474E+03  0.1471E+03
      2.492  0.3509E+02  0.3206E+02  0.1495E+03  0.1490E+03
      2.551  0.2084E+02  0.2208E+02  0.1507E+03  0.1503E+03
      2.611  0.1682E+02  0.1390E+02  0.1517E+03  0.1511E+03
      2.670  0.1894E+02  0.2551E+02  0.1529E+03  0.1526E+03
      2.729  0.3310E+02  0.2507E+02  0.1548E+03  0.1541E+03
      2.789  0.1974E+02  0.2445E+02  0.1560E+03  0.1556E+03
      2.848  0.1534E+02  0.1742E+02  0.1569E+03  0.1566E+03
      2.908  0.2678E+02  0.2329E+02  0.1585E+03  0.1580E+03
      2.967  0.3373E+02  0.3251E+02  0.1605E+03  0.1599E+03
      3.026  0.2006E+02  0.2572E+02  0.1617E+03  0.1615E+03
      3.086  0.3360E+02  0.2618E+02  0.1637E+03  0.1630E+03
      3.145  0.3688E+02  0.4208E+02  0.1659E+03  0.1655E+03
      3.205  0.2413E+02  0.2466E+02  0.1673E+03  0.1670E+03
      3.264  0.2506E+02  0.2168E+02  0.1688E+03  0.1683E+03
      3.324  0.1185E+02  0.1541E+02  0.1695E+03  0.1692E+03
      3.383  0.2737E+02  0.2467E+02  0.1711E+03  0.1706E+03
      3.442  0.2347E+02  0.2985E+02  0.1725E+03  0.1724E+03
      3.502  0.2646E+02  0.2050E+02  0.1741E+03  0.1736E+03
      3.561  0.2348E+02  0.2607E+02  0.1755E+03  0.1752E+03
      3.621  0.2176E+02  0.2307E+02  0.1768E+03  0.1766E+03
      3.680  0.2480E+02  0.2019E+02  0.1783E+03  0.1778E+03
      3.740  0.3350E+02  0.3208E+02  0.1803E+03  0.1797E+03
      3.799  0.1379E+02  0.2053E+02  0.1811E+03  0.1809E+03
      3.858  0.3160E+02  0.2886E+02  0.1830E+03  0.1826E+03
      3.918  0.1876E+02  0.2086E+02  0.1841E+03  0.1838E+03
      3.977  0.1775E+02  0.1694E+02  0.1851E+03  0.1848E+03
      4.037  0.3060E+02  0.2472E+02  0.1869E+03  0.1863E+03
      4.096  0.1724E+02  0.2431E+02  0.1880E+03  0.1878E+03
      4.156  0.2399E+02  0.2099E+02  0.1894E+03  0.1890E+03
      4.215  0.1996E+02  0.1856E+02  0.1906E+03  0.1901E+03
      4.274  0.3918E+02  0.3786E+02  0.1929E+03  0.1924E+03
      4.334  0.2387E+02  0.2540E+02  0.1943E+03  0.1939E+03
      4.393  0.1996E+02  0.1650E+02  0.1955E+03  0.1949E+03
      4.453  0.1726E+02  0.2528E+02  0.1965E+03  0.1964E+03
      4.512  0.2245E+02  0.1541E+02  0.1979E+03  0.1973E+03
      4.571  0.2343E+02  0.2773E+02  0.1993E+03  0.1989E+03
      4.631  0.2930E+02  0.2734E+02  0.2010E+03  0.2005E+03
      4.690  0.1747E+02  0.2048E+02  0.2020E+03  0.2018E+03
      4.750  0.2224E+02  0.2328E+02  0.2034E+03  0.2031E+03
      4.809  0.2943E+02  0.2596E+02  0.2051E+03  0.2047E+03
      4.869  0.2605E+02  0.2463E+02  0.2067E+03  0.2062E+03
      4.928  0.2704E+02  0.2857E+02  0.2083E+03  0.2078E+03
      4.987  0.2351E+02  0.2199E+02  0.2097E+03  0.2092E+03
      5.047  0.3794E+02  0.4209E+02  0.2119E+03  0.2117E+03
      5.106  0.2328E+02  0.2315E+02  0.2133E+03  0.2130E+03
      5.166  0.2652E+02  0.1945E+02  0.2149E+03  0.2142E+03
      5.225  0.2921E+02  0.3340E+02  0.2166E+03  0.2162E+03
      5.285  0.2541E+02  0.2290E+02  0.2181E+03  0.2175E+03
      5.344  0.1612E+02  0.2356E+02  0.2191E+03  0.2189E+03
      5.403  0.2859E+02  0.2275E+02  0.2208E+03  0.2203E+03
      5.463  0.1677E+02  0.1909E+02  0.2218E+03  0.2214E+03
      5.522  0.3224E+02  0.2652E+02  0.2237E+03  0.2230E+03
      5.582  0.2849E+02  0.3040E+02  0.2254E+03  0.2248E+03
      5.641  0.2553E+02  0.2542E+02  0.2269E+03  0.2263E+03
      5.701  0.2872E+02  0.3181E+02  0.2286E+03  0.2282E+03
      5.760  0.2241E+02  0.2139E+02  0.2299E+03  0.2295E+03
      5.819  0.2264E+02  0.2529E+02  0.2313E+03  0.2310E+03
      5.879  0.3301E+02  0.2626E+02  0.2333E+03  0.2325E+03
      5.938  0.2705E+02  0.3347E+02  0.2349E+03  0.2345E+03
      5.998  0.3482E+02  0.2501E+02  0.2369E+03  0.2360E+03
      6.057  0.2452E+02  0.3244E+02  0.2384E+03  0.2379E+03
      6.116  0.3043E+02  0.2637E+02  0.2402E+03  0.2395E+03
      6.176  0.2600E+02  0.2934E+02  0.2417E+03  0.2413E+03
      6.235  0.2073E+02  0.1988E+02  0.2430E+03  0.2424E+03
      6.295  0.3415E+02  0.2694E+02  0.2450E+03  0.2440E+03
      6.354  0.1953E+02  0.3027E+02  0.2462E+03  0.2458E+03
      6.414  0.2686E+02  0.2209E+02  0.2478E+03  0.2471E+03
      6.473  0.3636E+02  0.3650E+02  0.2499E+03  0.2493E+03
      6.532  0.2331E+02  0.2407E+02  0.2513E+03  0.2507E+03
      6.592  0.3627E+02  0.3110E+02  0.2535E+03  0.2526E+03
      6.651  0.2305E+02  0.3061E+02  0.2548E+03  0.2544E+03
      6.711  0.3411E+02  0.2753E+02  0.2569E+03  0.2561E+03
      6.770  0.3010E+02  0.3271E+02  0.2586E+03  0.2580E+03
      6.830  0.3892E+02  0.3880E+02  0.2610E+03  0.2603E+03
      6.889  0.1809E+02  0.1724E+02  0.2620E+03  0.2613E+03
      6.948  0.2726E+02  0.2915E+02  0.2637E+03  0.2631E+03
      7.008  0.3045E+02  0.2903E+02  0.2655E+03  0.2648E+03
      7.067  0.2731E+02  0.3248E+02  0.2671E+03  0.2667E+03
      7.127  0.2621E+02  0.2166E+02  0.2686E+03  0.2680E+03
      7.186  0.2618E+02  0.2838E+02  0.2702E+03  0.2697E+03
      7.246  0.3050E+02  0.2897E+02  0.2720E+03  0.2714E+03
      7.305  0.1844E+02  0.1924E+02  0.2731E+03  0.2726E+03
      7.364  0.3663E+02  0.3308E+02  0.2753E+03  0.2745E+03
      7.424  0.2259E+02  0.2899E+02  0.2766E+03  0.2762E+03
      7.483  0.2345E+02  0.2251E+02  0.2780E+03  0.2776E+03
      7.543  0.2724E+02  0.2565E+02  0.2796E+03  0.2791E+03
      7.602  0.3565E+02  0.2995E+02  0.2818E+03  0.2809E+03
      7.661  0.3491E+02  0.3864E+02  0.2838E+03  0.2832E+03
      7.721  0.2585E+02  0.3258E+02  0.2854E+03  0.2851E+03
      7.780  0.1498E+02  0.1592E+02  0.2863E+03  0.2861E+03
      7.840  0.1756E+02  0.1703E+02  0.2873E+03  0.2871E+03
      7.899  0.9881E+01  0.1207E+02  0.2879E+03  0.2878E+03
      7.959  0.1911E+01  0.3542E+01  0.2880E+03  0.2880E+03
      8.018  0.0000E+00  0.0000E+00  0.2880E+03  0.2880E+03
      8.077  0.0000E+00  0.0000E+00  0.2880E+03  0.2880E+03
      8.137  0.0000E+00  0.0000E+00  0.2880E+03  0.2880E+03
      8.196  0.0000E+00  0.0000E+00  0.2880E+03  0.2880E+03
      8.256  0.0000E+00  0.0000E+00  0.2880E+03  0.2880E+03
      8.315  0.0000E+00  0.0000E+00  0.2880E+03  0.2880E+03
      8.375  0.0000E+00  0.0000E+00  0.2880E+03  0.2880E+03
      8.434  0.0000E+00  0.0000E+00  0.2880E+03  0.2880E+03
      8.493  0.0000E+00  0.0000E+00  0.2880E+03  0.2880E+03
      8.553  0.0000E+00  0.0000E+00  0.2880E+03  0.2880E+03
      8.612  0.0000E+00  0.0000E+00  0.2880E+03  0.2880E+03
      8.672  0.0000E+00  0.0000E+00  0.2880E+03  0.2880E+03
      8.731  0.0000E+00  0.0000E+00  0.2880E+03  0.2880E+03
