Si and Ge interface calculation         
           1
    13.303180    0.000000    0.000000
    -6.651589   14.873406    0.000000
     0.000000    0.000000    6.663594
   Si   Sn
    36    24
Direct configuration=     1
   0.01709435  0.99145281  0.00000000
   0.21709445  0.89145273  0.18224534
   0.41709456  0.79145265  0.36449069
   0.01709435  0.32478613  0.00000000
   0.21709445  0.22478604  0.18224534
   0.41709456  0.12478594  0.36449069
   0.01709435  0.65811950  0.00000000
   0.21709445  0.55811936  0.18224534
   0.41709456  0.45811924  0.36449069
   0.36709428  0.19145279  0.09112249
   0.56709439  0.09145270  0.27336788
   0.76709449  0.99145263  0.45561326
   0.36709428  0.52478605  0.09112249
   0.56709439  0.42478600  0.27336788
   0.76709449  0.32478592  0.45561326
   0.36709428  0.85811943  0.09112249
   0.56709439  0.75811923  0.27336788
   0.76709449  0.65811920  0.45561326
   0.51709437  0.99145281  0.00000000
   0.71709442  0.89145267  0.18224531
   0.91709453  0.79145259  0.36449069
   0.51709437  0.32478613  0.00000000
   0.71709442  0.22478601  0.18224531
   0.91709453  0.12478592  0.36449069
   0.51709437  0.65811938  0.00000000
   0.71709442  0.55811930  0.18224531
   0.91709453  0.45811924  0.36449069
   0.86709428  0.19145280  0.09112250
   0.06709445  0.09145273  0.27336791
   0.26709437  0.99145263  0.45561314
   0.86709428  0.52478611  0.09112250
   0.06709445  0.42478600  0.27336791
   0.26709437  0.32478592  0.45561314
   0.86709428  0.85811949  0.09112250
   0.06709445  0.75811934  0.27336791
   0.26709437  0.65811926  0.45561314
   0.96423757  0.03065353  0.45561326
   0.61423755  0.33065358  0.67336810
   0.26423729  0.63065362  0.89112288
   0.46423748  0.03065353  0.45561326
   0.11423740  0.33065358  0.67336810
   0.76423729  0.63065362  0.89112288
   0.41423750  0.68065351  0.56449044
   0.06423735  0.98065347  0.78224522
   0.71423733  0.28065360  0.99999994
   0.91423756  0.68065351  0.56449044
   0.56423742  0.98065347  0.78224522
   0.21423733  0.28065360  0.99999994
   0.96423757  0.53065348  0.45561326
   0.61423743  0.83065349  0.67336810
   0.26423723  0.13065362  0.89112288
   0.46423748  0.53065348  0.45561326
   0.11423742  0.83065349  0.67336810
   0.76423729  0.13065362  0.89112288
   0.41423744  0.18065351  0.56449044
   0.06423732  0.48065358  0.78224522
   0.71423733  0.78065366  0.99999994
   0.91423756  0.18065351  0.56449044
   0.56423736  0.48065358  0.78224522
   0.21423739  0.78065366  0.99999994
