Si and Ge interface calculation         
           1
     8.001338    0.000000    0.000000
     0.000000   16.002676    0.000000
     0.000000    0.000000   13.264322
   Ge   Si
    48    24
Direct configuration=     1
   0.00854173  0.99572915  0.00000000
   0.25854170  0.87072915  0.21327135
   0.50854170  0.74572915  0.42654276
   0.50854170  0.24572912  0.00000000
   0.75854164  0.12072913  0.21327135
   0.00854158  0.99572915  0.42654276
   0.00854174  0.49572909  0.00000000
   0.25854170  0.37072912  0.21327135
   0.50854170  0.24572912  0.42654276
   0.50854170  0.74572909  0.00000000
   0.75854164  0.62072909  0.21327135
   0.00854170  0.49572912  0.42654276
   0.00854170  0.12072916  0.10663567
   0.25854170  0.99572915  0.31990707
   0.50854170  0.87072915  0.53317845
   0.50854176  0.37072912  0.10663567
   0.75854170  0.24572915  0.31990707
   0.00854170  0.12072913  0.53317845
   0.00854158  0.62072909  0.10663567
   0.25854158  0.49572909  0.31990707
   0.50854158  0.37072906  0.53317845
   0.50854170  0.87072915  0.10663567
   0.75854170  0.74572915  0.31990707
   0.00854170  0.62072915  0.53317845
   0.50854170  0.99572915  0.00000000
   0.75854164  0.87072915  0.21327135
   0.00854158  0.74572921  0.42654276
   0.00854172  0.24572913  0.00000000
   0.25854170  0.12072913  0.21327135
   0.50854170  0.99572915  0.42654276
   0.50854170  0.49572915  0.00000000
   0.75854170  0.37072915  0.21327135
   0.00854170  0.24572916  0.42654276
   0.00854174  0.74572915  0.00000000
   0.25854167  0.62072915  0.21327135
   0.50854170  0.49572915  0.42654276
   0.50854170  0.12072913  0.10663567
   0.75854170  0.99572915  0.31990707
   0.00854170  0.87072915  0.53317845
   0.00854170  0.37072912  0.10663567
   0.25854158  0.24572912  0.31990707
   0.50854170  0.12072911  0.53317845
   0.50854170  0.62072909  0.10663567
   0.75854164  0.49572912  0.31990707
   0.00854170  0.37072909  0.53317845
   0.00854158  0.87072909  0.10663567
   0.25854158  0.74572909  0.31990707
   0.50854158  0.62072909  0.53317845
   0.38559988  0.97502607  0.64595544
   0.63559997  0.58613712  0.69420898
   0.88559997  0.19724822  0.74246252
   0.13559997  0.80835921  0.79071599
   0.38560006  0.41947025  0.83896953
   0.63560021  0.03058088  0.88722289
   0.13559997  0.72502613  0.64595544
   0.38559994  0.33613709  0.69420898
   0.63559997  0.94724822  0.74246246
   0.88560021  0.55835915  0.79071599
   0.13560009  0.16947013  0.83896941
   0.38560030  0.78058106  0.88722295
   0.63559997  0.72502613  0.64595544
   0.88559997  0.33613712  0.69420898
   0.13559997  0.94724822  0.74246246
   0.38560006  0.55835915  0.79071599
   0.63560009  0.16947013  0.83896941
   0.88560021  0.78058106  0.88722295
   0.88559985  0.97502607  0.64595544
   0.13559985  0.58613712  0.69420898
   0.38559994  0.19724822  0.74246252
   0.63559997  0.80835921  0.79071599
   0.88560033  0.41947013  0.83896941
   0.13560021  0.03058112  0.88722289
