<?xml version="1.0" encoding="ISO-8859-1"?>
<modeling>
 <generator>
  <i name="program" type="string">vasp </i>
  <i name="version" type="string">6.4.3  </i>
  <i name="subversion" type="string">19Mar24 (build Oct 22 2024 11:23:12) complex                          parallel </i>
  <i name="platform" type="string">LinuxIFC </i>
  <i name="date" type="string">2025 06 04 </i>
  <i name="time" type="string">08:00:46 </i>
 </generator>
 <incar>
  <i type="string" name="SYSTEM">Si and Ge interface calculation</i>
  <i type="int" name="ISTART">     0</i>
  <i type="logical" name="ADDGRID"> T  </i>
  <i type="int" name="ISPIN">     2</i>
  <i name="AMIX">      0.60000000</i>
  <i type="int" name="ICHARG">     2</i>
  <i type="int" name="NELM">   100</i>
  <i name="EDIFF">      0.00000010</i>
  <i name="ENCUT">    700.00000000</i>
  <i name="ENAUG">    900.00000000</i>
  <i type="int" name="NBANDS">   231</i>
  <i name="NUPDOWN">      1.00000000</i>
  <i name="NELECT">    384.00000000</i>
  <i type="string" name="LREAL">AUTO</i>
  <i type="int" name="ISMEAR">     0</i>
  <i name="SIGMA">      0.01000000</i>
  <i type="int" name="LMAXMIX">     6</i>
  <i type="logical" name="LWAVE"> F  </i>
  <i type="logical" name="LVTOT"> F  </i>
  <i type="logical" name="LVHAR"> T  </i>
  <i type="logical" name="LASPH"> T  </i>
  <i type="logical" name="LMIXTAU"> T  </i>
 </incar>
 <primitive_cell>
  <structure name="primitive_cell" >
   <crystal>
    <varray name="basis" >
     <v>      12.65122604       0.00000000       0.00000000 </v>
     <v>       2.53024530      12.39562035       0.00000000 </v>
     <v>       0.00000000       0.00000000      13.73516273 </v>
    </varray>
    <i name="volume">   2153.94540375 </i>
    <varray name="rec_basis" >
     <v>       0.07904372      -0.01613473       0.00000000 </v>
     <v>       0.00000000       0.08067366       0.00000000 </v>
     <v>       0.00000000       0.00000000       0.07280584 </v>
    </varray>
   </crystal>
   <varray name="positions" >
    <v>       0.01757705       0.92711431       0.50000006 </v>
    <v>       0.99259037       0.94813251       0.00000002 </v>
    <v>       0.95092356       0.65646577       0.08408309 </v>
    <v>       0.90925682       0.36479890       0.16816616 </v>
    <v>       0.86759007       0.07313222       0.25224918 </v>
    <v>       0.89257693       0.80211419       0.50000006 </v>
    <v>       0.39257693       0.30211425       0.50000006 </v>
    <v>       0.49259037       0.44813251       0.00000003 </v>
    <v>       0.45092362       0.15646577       0.08408309 </v>
    <v>       0.40925688       0.86479896       0.16816616 </v>
    <v>       0.36759013       0.57313228       0.25224918 </v>
    <v>       0.76757705       0.17711425       0.50000006 </v>
    <v>       0.22591019       0.38544744       0.58408308 </v>
    <v>       0.36759040       0.82313263       0.00000001 </v>
    <v>       0.32592362       0.53146583       0.08408309 </v>
    <v>       0.28425688       0.23979901       0.16816619 </v>
    <v>       0.24259017       0.94813240       0.25224918 </v>
    <v>       0.20092338       0.65646565       0.33633223 </v>
    <v>       0.76757705       0.17711425       0.50000006 </v>
    <v>       0.86759049       0.32313258       0.00000001 </v>
    <v>       0.82592368       0.03146578       0.08408309 </v>
    <v>       0.78425688       0.73979890       0.16816616 </v>
    <v>       0.74259013       0.44813234       0.25224918 </v>
    <v>       0.70092338       0.15646553       0.33633217 </v>
    <v>       0.26757705       0.67711425       0.50000006 </v>
    <v>       0.24259035       0.69813263       0.00000000 </v>
    <v>       0.20092359       0.40646580       0.08408308 </v>
    <v>       0.15925685       0.11479896       0.16816616 </v>
    <v>       0.11759009       0.82313240       0.25224915 </v>
    <v>       0.14257705       0.55211419       0.50000006 </v>
    <v>       0.89257693       0.80211419       0.50000006 </v>
    <v>       0.74259043       0.19813251       0.00000002 </v>
    <v>       0.70092362       0.90646571       0.08408309 </v>
    <v>       0.65925688       0.61479890       0.16816616 </v>
    <v>       0.61759025       0.32313234       0.25224918 </v>
    <v>       0.57592344       0.03146547       0.33633217 </v>
    <v>       0.97591031       0.63544744       0.58408308 </v>
    <v>       0.11759036       0.07313251       0.00000002 </v>
    <v>       0.07592360       0.78146577       0.08408309 </v>
    <v>       0.03425685       0.48979896       0.16816616 </v>
    <v>       0.99259007       0.19813222       0.25224918 </v>
    <v>       0.95092338       0.90646553       0.33633223 </v>
    <v>       0.14257705       0.55211419       0.50000006 </v>
    <v>       0.61759049       0.57313258       0.00000001 </v>
    <v>       0.57592362       0.28146583       0.08408308 </v>
    <v>       0.53425694       0.98979902       0.16816619 </v>
    <v>       0.49259019       0.69813228       0.25224924 </v>
    <v>       0.45092344       0.40646553       0.33633226 </v>
    <v>       0.93424308       0.09378040       0.92041534 </v>
    <v>       0.28425661       0.98979878       0.42041531 </v>
    <v>       0.10091007       0.26044738       0.58408308 </v>
    <v>       0.80924344       0.21878064       0.66816616 </v>
    <v>       0.51757669       0.17711389       0.75224924 </v>
    <v>       0.22590995       0.13544715       0.83633232 </v>
    <v>       0.43424308       0.59378040       0.92041534 </v>
    <v>       0.82592332       0.78146553       0.33633217 </v>
    <v>       0.60091019       0.76044738       0.58408308 </v>
    <v>       0.30924344       0.71878076       0.66816616 </v>
    <v>       0.01757669       0.67711395       0.75224924 </v>
    <v>       0.72590995       0.63544720       0.83633232 </v>
    <v>       0.80924320       0.46878046       0.92041534 </v>
    <v>       0.03425656       0.23979878       0.42041528 </v>
    <v>       0.90925658       0.61479878       0.42041531 </v>
    <v>       0.68424350       0.59378076       0.66816616 </v>
    <v>       0.39257681       0.55211401       0.75224924 </v>
    <v>       0.10091007       0.51044720       0.83633232 </v>
    <v>       0.30924308       0.96878046       0.92041528 </v>
    <v>       0.65925658       0.86479867       0.42041528 </v>
    <v>       0.47591022       0.13544750       0.58408308 </v>
    <v>       0.18424344       0.09378076       0.66816616 </v>
    <v>       0.89257681       0.05211401       0.75224924 </v>
    <v>       0.60090995       0.01044726       0.83633232 </v>
    <v>       0.68424320       0.34378040       0.92041534 </v>
    <v>       0.07592334       0.53146553       0.33633217 </v>
    <v>       0.85091025       0.51044738       0.58408308 </v>
    <v>       0.55924350       0.46878067       0.66816616 </v>
    <v>       0.26757681       0.42711392       0.75224918 </v>
    <v>       0.97590995       0.38544717       0.83633226 </v>
    <v>       0.18424308       0.84378052       0.92041534 </v>
    <v>       0.90925658       0.61479878       0.42041531 </v>
    <v>       0.35091019       0.01044750       0.58408308 </v>
    <v>       0.05924344       0.96878070       0.66816616 </v>
    <v>       0.76757669       0.92711407       0.75224924 </v>
    <v>       0.47590992       0.88544726       0.83633232 </v>
    <v>       0.05924308       0.21878040       0.92041534 </v>
    <v>       0.15925664       0.36479878       0.42041531 </v>
    <v>       0.15925664       0.36479878       0.42041531 </v>
    <v>       0.93424344       0.34378070       0.66816616 </v>
    <v>       0.64257669       0.30211401       0.75224918 </v>
    <v>       0.35090995       0.26044726       0.83633232 </v>
    <v>       0.55924320       0.71878052       0.92041534 </v>
    <v>       0.78425658       0.48979867       0.42041528 </v>
    <v>       0.28425661       0.98979878       0.42041531 </v>
    <v>       0.43424356       0.84378076       0.66816616 </v>
    <v>       0.14257669       0.80211401       0.75224924 </v>
    <v>       0.85090995       0.76044726       0.83633232 </v>
   </varray>
  </structure>
  <varray name="primitive_index" >
   <v type="int" >        1 </v>
   <v type="int" >        2 </v>
   <v type="int" >        3 </v>
   <v type="int" >        4 </v>
   <v type="int" >        5 </v>
   <v type="int" >        6 </v>
   <v type="int" >        7 </v>
   <v type="int" >        8 </v>
   <v type="int" >        9 </v>
   <v type="int" >       10 </v>
   <v type="int" >       11 </v>
   <v type="int" >       12 </v>
   <v type="int" >       13 </v>
   <v type="int" >       14 </v>
   <v type="int" >       15 </v>
   <v type="int" >       16 </v>
   <v type="int" >       17 </v>
   <v type="int" >       18 </v>
   <v type="int" >       19 </v>
   <v type="int" >       20 </v>
   <v type="int" >       21 </v>
   <v type="int" >       22 </v>
   <v type="int" >       23 </v>
   <v type="int" >       24 </v>
   <v type="int" >       25 </v>
   <v type="int" >       26 </v>
   <v type="int" >       27 </v>
   <v type="int" >       28 </v>
   <v type="int" >       29 </v>
   <v type="int" >       30 </v>
   <v type="int" >       31 </v>
   <v type="int" >       32 </v>
   <v type="int" >       33 </v>
   <v type="int" >       34 </v>
   <v type="int" >       35 </v>
   <v type="int" >       36 </v>
   <v type="int" >       37 </v>
   <v type="int" >       38 </v>
   <v type="int" >       39 </v>
   <v type="int" >       40 </v>
   <v type="int" >       41 </v>
   <v type="int" >       42 </v>
   <v type="int" >       43 </v>
   <v type="int" >       44 </v>
   <v type="int" >       45 </v>
   <v type="int" >       46 </v>
   <v type="int" >       47 </v>
   <v type="int" >       48 </v>
   <v type="int" >       49 </v>
   <v type="int" >       50 </v>
   <v type="int" >       51 </v>
   <v type="int" >       52 </v>
   <v type="int" >       53 </v>
   <v type="int" >       54 </v>
   <v type="int" >       55 </v>
   <v type="int" >       56 </v>
   <v type="int" >       57 </v>
   <v type="int" >       58 </v>
   <v type="int" >       59 </v>
   <v type="int" >       60 </v>
   <v type="int" >       61 </v>
   <v type="int" >       62 </v>
   <v type="int" >       63 </v>
   <v type="int" >       64 </v>
   <v type="int" >       65 </v>
   <v type="int" >       66 </v>
   <v type="int" >       67 </v>
   <v type="int" >       68 </v>
   <v type="int" >       69 </v>
   <v type="int" >       70 </v>
   <v type="int" >       71 </v>
   <v type="int" >       72 </v>
   <v type="int" >       73 </v>
   <v type="int" >       74 </v>
   <v type="int" >       75 </v>
   <v type="int" >       76 </v>
   <v type="int" >       77 </v>
   <v type="int" >       78 </v>
   <v type="int" >       79 </v>
   <v type="int" >       80 </v>
   <v type="int" >       81 </v>
   <v type="int" >       82 </v>
   <v type="int" >       83 </v>
   <v type="int" >       84 </v>
   <v type="int" >       85 </v>
   <v type="int" >       86 </v>
   <v type="int" >       87 </v>
   <v type="int" >       88 </v>
   <v type="int" >       89 </v>
   <v type="int" >       90 </v>
   <v type="int" >       91 </v>
   <v type="int" >       92 </v>
   <v type="int" >       93 </v>
   <v type="int" >       94 </v>
   <v type="int" >       95 </v>
   <v type="int" >       96 </v>
  </varray>
 </primitive_cell>
 <kpoints>
  <generation param="Gamma">
   <v type="int" name="divisions">       3        3        2 </v>
   <v name="usershift">      0.00000000       0.00000000       0.00000000 </v>
   <v name="genvec1">      0.33333333       0.00000000       0.00000000 </v>
   <v name="genvec2">      0.00000000       0.33333333       0.00000000 </v>
   <v name="genvec3">      0.00000000       0.00000000       0.50000000 </v>
   <v name="shift">      0.00000000       0.00000000       0.00000000 </v>
  </generation>
  <varray name="kpointlist" >
   <v>       0.00000000       0.00000000       0.00000000 </v>
   <v>       0.33333333       0.00000000       0.00000000 </v>
   <v>       0.00000000      -0.33333333       0.00000000 </v>
   <v>       0.33333333       0.33333333       0.00000000 </v>
   <v>      -0.33333333       0.33333333       0.00000000 </v>
   <v>       0.00000000       0.00000000       0.50000000 </v>
   <v>       0.33333333       0.00000000       0.50000000 </v>
   <v>       0.00000000      -0.33333333       0.50000000 </v>
   <v>       0.33333333       0.33333333       0.50000000 </v>
   <v>      -0.33333333       0.33333333       0.50000000 </v>
  </varray>
  <varray name="weights" >
   <v>       0.05555556 </v>
   <v>       0.11111111 </v>
   <v>       0.11111111 </v>
   <v>       0.11111111 </v>
   <v>       0.11111111 </v>
   <v>       0.05555556 </v>
   <v>       0.11111111 </v>
   <v>       0.11111111 </v>
   <v>       0.11111111 </v>
   <v>       0.11111111 </v>
  </varray>
 </kpoints>
 <parameters>
  <separator name="general" >
   <i type="string" name="SYSTEM">Si and Ge interface calculation</i>
   <i type="logical" name="LCOMPAT"> F  </i>
  </separator>
  <separator name="electronic" >
   <i type="string" name="PREC">normal</i>
   <i name="ENMAX">    700.00000000</i>
   <i name="ENAUG">    900.00000000</i>
   <i name="EDIFF">      0.00000010</i>
   <i type="int" name="IALGO">    38</i>
   <i type="int" name="IWAVPR">    10</i>
   <i type="int" name="NBANDS">   232</i>
   <i type="int" name="NBANDSLOW">    -1</i>
   <i type="int" name="NBANDSHIGH">    -1</i>
   <i name="NELECT">    384.00000000</i>
   <i type="int" name="TURBO">     0</i>
   <i type="int" name="IRESTART">     0</i>
   <i type="int" name="NREBOOT">     0</i>
   <i type="int" name="NMIN">     0</i>
   <i name="EREF">      0.00000000</i>
   <separator name="electronic smearing" >
    <i type="int" name="ISMEAR">     0</i>
    <i name="SIGMA">      0.01000000</i>
    <i name="KSPACING">      0.50000000</i>
    <i type="logical" name="KGAMMA"> T  </i>
    <i type="logical" name="KBLOWUP"> T  </i>
   </separator>
   <separator name="electronic projectors" >
    <i type="logical" name="LREAL"> T  </i>
    <v name="ROPT">     -0.00050000</v>
    <i type="int" name="LMAXPAW">  -100</i>
    <i type="int" name="LMAXMIX">     6</i>
    <i type="logical" name="NLSPLINE"> F  </i>
   </separator>
   <separator name="electronic startup" >
    <i type="int" name="ISTART">     0</i>
    <i type="int" name="ICHARG">     2</i>
    <i type="int" name="INIWAV">     1</i>
   </separator>
   <separator name="electronic spin" >
    <i type="int" name="ISPIN">     2</i>
    <i type="logical" name="LNONCOLLINEAR"> F  </i>
    <v name="MAGMOM">      0.01041667      0.01041667      0.01041667      0.01041667      0.01041667      0.01041667      0.01041667      0.01041667      0.01041667      0.01041667      0.01041667      0.01041667      0.01041667      0.01041667      0.01041667      0.01041667      0.01041667      0.01041667      0.01041667      0.01041667
      0.01041667      0.01041667      0.01041667      0.01041667      0.01041667      0.01041667      0.01041667      0.01041667      0.01041667      0.01041667      0.01041667      0.01041667      0.01041667      0.01041667      0.01041667      0.01041667      0.01041667      0.01041667      0.01041667      0.01041667
      0.01041667      0.01041667      0.01041667      0.01041667      0.01041667      0.01041667      0.01041667      0.01041667      0.01041667      0.01041667      0.01041667      0.01041667      0.01041667      0.01041667      0.01041667      0.01041667      0.01041667      0.01041667      0.01041667      0.01041667
      0.01041667      0.01041667      0.01041667      0.01041667      0.01041667      0.01041667      0.01041667      0.01041667      0.01041667      0.01041667      0.01041667      0.01041667      0.01041667      0.01041667      0.01041667      0.01041667      0.01041667      0.01041667      0.01041667      0.01041667
      0.01041667      0.01041667      0.01041667      0.01041667      0.01041667      0.01041667      0.01041667      0.01041667      0.01041667      0.01041667      0.01041667      0.01041667      0.01041667      0.01041667      0.01041667      0.01041667</v>
    <i name="NUPDOWN">      1.00000000</i>
    <i type="logical" name="LSORBIT"> F  </i>
    <v name="SAXIS">      0.00000000      0.00000000      1.00000000</v>
    <i type="logical" name="LSPIRAL"> F  </i>
    <v name="QSPIRAL">      0.00000000      0.00000000      0.00000000</v>
    <i type="logical" name="LZEROZ"> F  </i>
   </separator>
   <separator name="electronic exchange-correlation" >
    <i type="logical" name="LASPH"> T  </i>
   </separator>
   <separator name="electronic convergence" >
    <i type="int" name="NELM">   100</i>
    <i type="int" name="NELMDL">    -5</i>
    <i type="int" name="NELMIN">     2</i>
    <i name="ENINI">    700.00000000</i>
    <separator name="electronic convergence detail" >
     <i type="logical" name="LDIAG"> T  </i>
     <i type="logical" name="LSUBROT"> F  </i>
     <i name="WEIMIN">      0.00000000</i>
     <i name="EBREAK">      0.00000000</i>
     <i name="DEPER">      0.30000000</i>
     <i type="int" name="NRMM">     4</i>
     <i name="TIME">      0.40000000</i>
    </separator>
   </separator>
   <separator name="electronic mixer" >
    <i name="AMIX">      0.60000000</i>
    <i name="BMIX">      1.00000000</i>
    <i name="AMIN">      0.10000000</i>
    <i name="AMIX_MAG">      2.40000000</i>
    <i name="BMIX_MAG">      1.00000000</i>
    <separator name="electronic mixer details" >
     <i type="int" name="IMIX">     4</i>
     <i type="logical" name="MIXFIRST"> F  </i>
     <i type="int" name="MAXMIX">   -45</i>
     <i name="WC">    100.00000000</i>
     <i type="int" name="INIMIX">     1</i>
     <i type="int" name="MIXPRE">     1</i>
     <i type="int" name="MREMOVE">     5</i>
    </separator>
   </separator>
   <separator name="electronic dipolcorrection" >
    <i type="logical" name="LDIPOL"> F  </i>
    <i type="logical" name="LMONO"> F  </i>
    <i type="int" name="IDIPOL">     0</i>
    <i name="EPSILON">      1.00000000</i>
    <v name="DIPOL">   -100.00000000   -100.00000000   -100.00000000</v>
    <i name="EFIELD">      0.00000000</i>
    <i type="logical" name="LVACPOTAV"> F  </i>
   </separator>
  </separator>
  <separator name="grids" >
   <i type="int" name="NGX">    84</i>
   <i type="int" name="NGY">    84</i>
   <i type="int" name="NGZ">    90</i>
   <i type="int" name="NGXF">   168</i>
   <i type="int" name="NGYF">   168</i>
   <i type="int" name="NGZF">   180</i>
   <i type="logical" name="ADDGRID"> T  </i>
  </separator>
  <separator name="ionic" >
   <i type="int" name="NSW">     0</i>
   <i type="int" name="IBRION">    -1</i>
   <i type="int" name="MDALGO">     0</i>
   <i type="int" name="ISIF">     2</i>
   <i name="PSTRESS">      0.00000000</i>
   <i name="EDIFFG">      0.00000100</i>
   <i type="int" name="NFREE">     0</i>
   <i name="POTIM">      0.50000000</i>
   <i name="SMASS">     -3.00000000</i>
   <i name="SCALEE">      1.00000000</i>
  </separator>
  <separator name="ionic md" >
   <i name="TEBEG">      0.00010000</i>
   <i name="TEEND">      0.00010000</i>
   <i type="int" name="NBLOCK">     1</i>
   <i type="int" name="KBLOCK">     1</i>
   <i type="int" name="NPACO">   256</i>
   <i name="APACO">     10.00000000</i>
  </separator>
  <separator name="symmetry" >
   <i type="int" name="ISYM">     2</i>
   <i name="SYMPREC">      0.00001000</i>
  </separator>
  <separator name="dos" >
   <i type="int" name="LORBIT">     0</i>
   <v name="RWIGS">     -1.00000000</v>
   <i type="int" name="NEDOS">   301</i>
   <i name="EMIN">     10.00000000</i>
   <i name="EMAX">    -10.00000000</i>
   <i name="EFERMI">      0.00000000</i>
  </separator>
  <separator name="writing" >
   <i type="int" name="NWRITE">     2</i>
   <i type="logical" name="LWAVE"> F  </i>
   <i type="logical" name="LDOWNSAMPLE"> F  </i>
   <i type="logical" name="LCHARG"> T  </i>
   <i type="logical" name="LPARD"> F  </i>
   <i type="logical" name="LVTOT"> F  </i>
   <i type="logical" name="LVHAR"> T  </i>
   <i type="logical" name="LELF"> F  </i>
   <i type="logical" name="LOPTICS"> F  </i>
   <v name="STM">      0.00000000      0.00000000      0.00000000      0.00000000      0.00000000      0.00000000      0.00000000</v>
  </separator>
  <separator name="performance" >
   <i type="int" name="NPAR">     4</i>
   <i type="int" name="NSIM">     4</i>
   <i type="int" name="NBLK">    -1</i>
   <i type="logical" name="LPLANE"> T  </i>
   <i type="logical" name="LSCALAPACK"> T  </i>
   <i type="logical" name="LSCAAWARE"> F  </i>
   <i type="logical" name="LSCALU"> F  </i>
   <i type="logical" name="LASYNC"> F  </i>
   <i type="logical" name="LORBITALREAL"> F  </i>
  </separator>
  <separator name="miscellaneous" >
   <i type="int" name="IDIOT">     3</i>
   <i type="int" name="PHON_NSTRUCT">    -1</i>
   <i type="logical" name="LMUSIC"> F  </i>
   <v name="POMASS">     72.61000000</v>
   <v name="DARWINR">      0.00000000</v>
   <v name="DARWINV">      1.00000000</v>
   <i type="logical" name="LCORR"> T  </i>
  </separator>
  <i type="logical" name="GGA_COMPAT"> T  </i>
  <i type="logical" name="LBERRY"> F  </i>
  <i type="int" name="ICORELEVEL">     0</i>
  <i type="logical" name="LDAU"> F  </i>
  <i type="int" name="I_CONSTRAINED_M">     0</i>
  <separator name="electronic exchange-correlation" >
   <i type="string" name="GGA    ">PE</i>
   <i type="string" name="XC_C">1</i>
   <i type="int" name="VOSKOWN">     0</i>
   <i type="logical" name="LHFCALC"> F  </i>
   <i type="string" name="PRECFOCK"></i>
   <i type="logical" name="LSYMGRAD"> F  </i>
   <i type="logical" name="LHFONE"> F  </i>
   <i type="logical" name="LRHFCALC"> F  </i>
   <i type="logical" name="LTHOMAS"> F  </i>
   <i type="logical" name="LMODELHF"> F  </i>
   <i type="logical" name="LFOCKACE"> F  </i>
   <i name="ENCUT4O">     -1.00000000</i>
   <i type="int" name="EXXOEP">     0</i>
   <i type="int" name="FOURORBIT">     0</i>
   <i name="AEXX">      0.00000000</i>
   <i name="HFALPHA">      0.00000000</i>
   <i name="MCALPHA">      0.00000000</i>
   <i name="ALDAX">      1.00000000</i>
   <i name="AGGAX">      1.00000000</i>
   <i name="AMGGAX">      1.00000000</i>
   <i name="ALDAC">      1.00000000</i>
   <i name="AGGAC">      1.00000000</i>
   <i name="AMGGAC">      1.00000000</i>
   <i type="int" name="NKREDX">     1</i>
   <i type="int" name="NKREDY">     1</i>
   <i type="int" name="NKREDZ">     1</i>
   <i type="logical" name="SHIFTRED"> F  </i>
   <i type="logical" name="ODDONLY"> F  </i>
   <i type="logical" name="EVENONLY"> F  </i>
   <i type="int" name="LMAXFOCK">     0</i>
   <i type="int" name="NMAXFOCKAE">     0</i>
   <i type="logical" name="LFOCKAEDFT"> F  </i>
   <i name="HFSCREEN">      0.00000000</i>
   <i name="HFSCREENC">      0.00000000</i>
   <i type="int" name="NBANDSGWLOW">     0</i>
  </separator>
  <separator name="vdW DFT" >
   <i type="logical" name="LUSE_VDW"> F  </i>
   <i type="int" name="IVDW_NL">    -1</i>
   <i type="logical" name="LSPIN_VDW"> F  </i>
   <i name="ZAB_VDW">     -0.84910000</i>
   <i name="GAMMA_VDW">      1.39626340</i>
   <i name="ALPHA_VDW">      0.00000000</i>
   <i name="PARAM1">      0.12340000</i>
   <i name="PARAM2">      1.00000000</i>
   <i name="BPARAM">      6.30000000</i>
   <i name="CPARAM">      0.00930000</i>
  </separator>
  <separator name="model GW" >
   <i type="int" name="MODEL_GW">     0</i>
   <i name="MODEL_EPS0">     13.46215877</i>
   <i name="MODEL_ALPHA">      1.00000000</i>
  </separator>
  <separator name="linear response parameters" >
   <i type="logical" name="LEPSILON"> F  </i>
   <i type="logical" name="LRPA"> F  </i>
   <i type="logical" name="LNABLA"> F  </i>
   <i type="logical" name="LVEL"> F  </i>
   <i name="CSHIFT">      0.10000000</i>
   <i name="OMEGAMAX">     -1.00000000</i>
   <i name="DEG_THRESHOLD">      0.00200000</i>
   <i name="RTIME">     -0.10000000</i>
   <i name="WPLASMAI">      0.00000000</i>
   <v name="DFIELD">      0.00000000      0.00000000      0.00000000</v>
   <v name="WPLASMA">      0.00000000      0.00000000      0.00000000      0.00000000      0.00000000      0.00000000      0.00000000      0.00000000      0.00000000</v>
  </separator>
  <separator name="orbital magnetization" >
   <i type="logical" name="NUCIND"> F  </i>
   <v name="MAGPOS">      0.00000000      0.00000000      0.00000000</v>
   <i type="logical" name="LNICSALL"> T  </i>
   <i type="logical" name="ORBITALMAG"> F  </i>
   <i type="logical" name="LMAGBLOCH"> F  </i>
   <i type="logical" name="LCHIMAG"> F  </i>
   <i type="logical" name="LGAUGE"> T  </i>
   <i type="int" name="MAGATOM">     0</i>
   <v name="MAGDIPOL">      0.00000000      0.00000000      0.00000000</v>
   <v name="AVECCONST">      0.00000000      0.00000000      0.00000000</v>
  </separator>
  <separator name="response functions" >
   <i type="logical" name="LALL_IN_ONE"> F  </i>
   <i type="int" name="IALL_IN_ONE">    -1</i>
   <i type="int" name="NBANDS_WAVE">    -1</i>
   <i type="logical" name="LFINITE_TEMPERATURE"> F  </i>
   <i type="logical" name="LADDER"> F  </i>
   <i type="logical" name="LRPAFORCE"> F  </i>
   <i type="logical" name="LFXC"> F  </i>
   <i type="logical" name="LHARTREE"> T  </i>
   <i type="int" name="IBSE">     0</i>
   <v type="int" name="KPOINT">    -1     0     0     0</v>
   <i type="logical" name="LTCTC"> F  </i>
   <i type="logical" name="LTCTE"> F  </i>
   <i type="logical" name="LTETE"> F  </i>
   <i type="logical" name="LTRIPLET"> F  </i>
   <i type="logical" name="LFXCEPS"> F  </i>
   <i type="logical" name="LFXHEG"> F  </i>
   <i type="int" name="NATURALO">     2</i>
   <i type="logical" name="LHOLEGF"> F  </i>
   <i type="logical" name="L2ORDER"> F  </i>
   <i type="logical" name="LDMP1"> F  </i>
   <i type="logical" name="LMP2LT"> F  </i>
   <i type="logical" name="LSMP2LT"> F  </i>
   <i type="logical" name="LGWLF"> F  </i>
   <i name="ENCUTGW">     -1.60000002</i>
   <i name="ENCUTGWSOFT">     -1.60000002</i>
   <i name="ENCUTLF">     -1.00000000</i>
   <i type="logical" name="ESF_SPLINES"> F  </i>
   <i name="ESF_CONV">      0.01000000</i>
   <i type="int" name="ESF_NINTER">    15</i>
   <i type="int" name="LMAXMP2">    -1</i>
   <i name="SCISSOR">      0.00000000</i>
   <i type="int" name="NOMEGA">     0</i>
   <i type="int" name="NOMEGAR">     0</i>
   <i type="int" name="NBANDSGW">    -1</i>
   <i type="int" name="NBANDSO">    -1</i>
   <i type="int" name="NBANDSV">    -1</i>
   <i type="int" name="NELMGW">     1</i>
   <i type="int" name="NELMHF">     1</i>
   <i type="int" name="DIM">     3</i>
   <i type="int" name="IESPILON">     4</i>
   <i type="int" name="ANTIRES">     0</i>
   <i name="OMEGAMAX">    -30.00000000</i>
   <i name="OMEGAMIN">    -30.00000000</i>
   <i name="OMEGATL">   -200.00000000</i>
   <i type="int" name="OMEGAGRID">     0</i>
   <i name="CSHIFT">     -0.10000000</i>
   <i type="logical" name="LSELFENERGY"> F  </i>
   <i type="logical" name="LSPECTRAL"> F  </i>
   <i type="logical" name="LSPECTRALGW"> F  </i>
   <i type="logical" name="LSINGLES"> F  </i>
   <i type="logical" name="LFERMIGW"> F  </i>
   <i type="logical" name="ODDONLYGW"> F  </i>
   <i type="logical" name="EVENONLYGW"> F  </i>
   <i type="int" name="NKREDLFX">     1</i>
   <i type="int" name="NKREDLFY">     1</i>
   <i type="int" name="NKREDLFZ">     1</i>
   <i type="int" name="MAXMEM">  2800</i>
   <i type="int" name="TELESCOPE">     0</i>
   <i type="int" name="NTAUPAR">    -1</i>
   <i type="int" name="NOMEGAPAR">    -1</i>
   <i name="DAMP_NEWTON">      0.80000001</i>
   <i name="LAMBDA">      1.00000000</i>
  </separator>
  <separator name="External order field" >
   <i name="OFIELD_KAPPA">      0.00000000</i>
   <v name="OFIELD_K">      0.00000000      0.00000000      0.00000000</v>
   <i name="OFIELD_Q6_NEAR">      0.00000000</i>
   <i name="OFIELD_Q6_FAR">      0.00000000</i>
   <i name="OFIELD_A">      0.00000000</i>
  </separator>
  <separator name="optional k-points parameters" >
   <i type="int" name="KPOINTS_OPT_MODE">     1</i>
   <i type="logical" name="LKPOINTS_OPT"> F  </i>
  </separator>
 </parameters>
 <atominfo>
  <atoms>      96 </atoms>
  <types>       1 </types>
  <array name="atoms" >
   <dimension dim="1">ion</dimension>
   <field type="string">element</field>
   <field type="int">atomtype</field>
   <set>
    <rc><c>Ge</c><c>   1</c></rc>
    <rc><c>Ge</c><c>   1</c></rc>
    <rc><c>Ge</c><c>   1</c></rc>
    <rc><c>Ge</c><c>   1</c></rc>
    <rc><c>Ge</c><c>   1</c></rc>
    <rc><c>Ge</c><c>   1</c></rc>
    <rc><c>Ge</c><c>   1</c></rc>
    <rc><c>Ge</c><c>   1</c></rc>
    <rc><c>Ge</c><c>   1</c></rc>
    <rc><c>Ge</c><c>   1</c></rc>
    <rc><c>Ge</c><c>   1</c></rc>
    <rc><c>Ge</c><c>   1</c></rc>
    <rc><c>Ge</c><c>   1</c></rc>
    <rc><c>Ge</c><c>   1</c></rc>
    <rc><c>Ge</c><c>   1</c></rc>
    <rc><c>Ge</c><c>   1</c></rc>
    <rc><c>Ge</c><c>   1</c></rc>
    <rc><c>Ge</c><c>   1</c></rc>
    <rc><c>Ge</c><c>   1</c></rc>
    <rc><c>Ge</c><c>   1</c></rc>
    <rc><c>Ge</c><c>   1</c></rc>
    <rc><c>Ge</c><c>   1</c></rc>
    <rc><c>Ge</c><c>   1</c></rc>
    <rc><c>Ge</c><c>   1</c></rc>
    <rc><c>Ge</c><c>   1</c></rc>
    <rc><c>Ge</c><c>   1</c></rc>
    <rc><c>Ge</c><c>   1</c></rc>
    <rc><c>Ge</c><c>   1</c></rc>
    <rc><c>Ge</c><c>   1</c></rc>
    <rc><c>Ge</c><c>   1</c></rc>
    <rc><c>Ge</c><c>   1</c></rc>
    <rc><c>Ge</c><c>   1</c></rc>
    <rc><c>Ge</c><c>   1</c></rc>
    <rc><c>Ge</c><c>   1</c></rc>
    <rc><c>Ge</c><c>   1</c></rc>
    <rc><c>Ge</c><c>   1</c></rc>
    <rc><c>Ge</c><c>   1</c></rc>
    <rc><c>Ge</c><c>   1</c></rc>
    <rc><c>Ge</c><c>   1</c></rc>
    <rc><c>Ge</c><c>   1</c></rc>
    <rc><c>Ge</c><c>   1</c></rc>
    <rc><c>Ge</c><c>   1</c></rc>
    <rc><c>Ge</c><c>   1</c></rc>
    <rc><c>Ge</c><c>   1</c></rc>
    <rc><c>Ge</c><c>   1</c></rc>
    <rc><c>Ge</c><c>   1</c></rc>
    <rc><c>Ge</c><c>   1</c></rc>
    <rc><c>Ge</c><c>   1</c></rc>
    <rc><c>Ge</c><c>   1</c></rc>
    <rc><c>Ge</c><c>   1</c></rc>
    <rc><c>Ge</c><c>   1</c></rc>
    <rc><c>Ge</c><c>   1</c></rc>
    <rc><c>Ge</c><c>   1</c></rc>
    <rc><c>Ge</c><c>   1</c></rc>
    <rc><c>Ge</c><c>   1</c></rc>
    <rc><c>Ge</c><c>   1</c></rc>
    <rc><c>Ge</c><c>   1</c></rc>
    <rc><c>Ge</c><c>   1</c></rc>
    <rc><c>Ge</c><c>   1</c></rc>
    <rc><c>Ge</c><c>   1</c></rc>
    <rc><c>Ge</c><c>   1</c></rc>
    <rc><c>Ge</c><c>   1</c></rc>
    <rc><c>Ge</c><c>   1</c></rc>
    <rc><c>Ge</c><c>   1</c></rc>
    <rc><c>Ge</c><c>   1</c></rc>
    <rc><c>Ge</c><c>   1</c></rc>
    <rc><c>Ge</c><c>   1</c></rc>
    <rc><c>Ge</c><c>   1</c></rc>
    <rc><c>Ge</c><c>   1</c></rc>
    <rc><c>Ge</c><c>   1</c></rc>
    <rc><c>Ge</c><c>   1</c></rc>
    <rc><c>Ge</c><c>   1</c></rc>
    <rc><c>Ge</c><c>   1</c></rc>
    <rc><c>Ge</c><c>   1</c></rc>
    <rc><c>Ge</c><c>   1</c></rc>
    <rc><c>Ge</c><c>   1</c></rc>
    <rc><c>Ge</c><c>   1</c></rc>
    <rc><c>Ge</c><c>   1</c></rc>
    <rc><c>Ge</c><c>   1</c></rc>
    <rc><c>Ge</c><c>   1</c></rc>
    <rc><c>Ge</c><c>   1</c></rc>
    <rc><c>Ge</c><c>   1</c></rc>
    <rc><c>Ge</c><c>   1</c></rc>
    <rc><c>Ge</c><c>   1</c></rc>
    <rc><c>Ge</c><c>   1</c></rc>
    <rc><c>Ge</c><c>   1</c></rc>
    <rc><c>Ge</c><c>   1</c></rc>
    <rc><c>Ge</c><c>   1</c></rc>
    <rc><c>Ge</c><c>   1</c></rc>
    <rc><c>Ge</c><c>   1</c></rc>
    <rc><c>Ge</c><c>   1</c></rc>
    <rc><c>Ge</c><c>   1</c></rc>
    <rc><c>Ge</c><c>   1</c></rc>
    <rc><c>Ge</c><c>   1</c></rc>
    <rc><c>Ge</c><c>   1</c></rc>
    <rc><c>Ge</c><c>   1</c></rc>
   </set>
  </array>
  <array name="atomtypes" >
   <dimension dim="1">type</dimension>
   <field type="int">atomspertype</field>
   <field type="string">element</field>
   <field>mass</field>
   <field>valence</field>
   <field type="string">pseudopotential</field>
   <set>
    <rc><c>  96</c><c>Ge</c><c>     72.61000000</c><c>      4.00000000</c><c>  PAW_PBE Ge 05Jan2001                  </c></rc>
   </set>
  </array>
 </atominfo>
 <structure name="initialpos" >
  <crystal>
   <varray name="basis" >
    <v>      12.65122604       0.00000000       0.00000000 </v>
    <v>       2.53024530      12.39562035       0.00000000 </v>
    <v>       0.00000000       0.00000000      13.73516273 </v>
   </varray>
   <i name="volume">   2153.94540375 </i>
   <varray name="rec_basis" >
    <v>       0.07904372      -0.01613473       0.00000000 </v>
    <v>       0.00000000       0.08067366       0.00000000 </v>
    <v>       0.00000000       0.00000000       0.07280584 </v>
   </varray>
  </crystal>
  <varray name="positions" >
   <v>       0.01757705       0.92711431       0.50000006 </v>
   <v>       0.99259037       0.94813251       0.00000002 </v>
   <v>       0.95092356       0.65646577       0.08408309 </v>
   <v>       0.90925682       0.36479890       0.16816616 </v>
   <v>       0.86759007       0.07313222       0.25224918 </v>
   <v>       0.89257693       0.80211419       0.50000006 </v>
   <v>       0.39257693       0.30211425       0.50000006 </v>
   <v>       0.49259037       0.44813251       0.00000003 </v>
   <v>       0.45092362       0.15646577       0.08408309 </v>
   <v>       0.40925688       0.86479896       0.16816616 </v>
   <v>       0.36759013       0.57313228       0.25224918 </v>
   <v>       0.76757705       0.17711425       0.50000006 </v>
   <v>       0.22591019       0.38544744       0.58408308 </v>
   <v>       0.36759040       0.82313263       0.00000001 </v>
   <v>       0.32592362       0.53146583       0.08408309 </v>
   <v>       0.28425688       0.23979901       0.16816619 </v>
   <v>       0.24259017       0.94813240       0.25224918 </v>
   <v>       0.20092338       0.65646565       0.33633223 </v>
   <v>       0.76757705       0.17711425       0.50000006 </v>
   <v>       0.86759049       0.32313258       0.00000001 </v>
   <v>       0.82592368       0.03146578       0.08408309 </v>
   <v>       0.78425688       0.73979890       0.16816616 </v>
   <v>       0.74259013       0.44813234       0.25224918 </v>
   <v>       0.70092338       0.15646553       0.33633217 </v>
   <v>       0.26757705       0.67711425       0.50000006 </v>
   <v>       0.24259035       0.69813263       0.00000000 </v>
   <v>       0.20092359       0.40646580       0.08408308 </v>
   <v>       0.15925685       0.11479896       0.16816616 </v>
   <v>       0.11759009       0.82313240       0.25224915 </v>
   <v>       0.14257705       0.55211419       0.50000006 </v>
   <v>       0.89257693       0.80211419       0.50000006 </v>
   <v>       0.74259043       0.19813251       0.00000002 </v>
   <v>       0.70092362       0.90646571       0.08408309 </v>
   <v>       0.65925688       0.61479890       0.16816616 </v>
   <v>       0.61759025       0.32313234       0.25224918 </v>
   <v>       0.57592344       0.03146547       0.33633217 </v>
   <v>       0.97591031       0.63544744       0.58408308 </v>
   <v>       0.11759036       0.07313251       0.00000002 </v>
   <v>       0.07592360       0.78146577       0.08408309 </v>
   <v>       0.03425685       0.48979896       0.16816616 </v>
   <v>       0.99259007       0.19813222       0.25224918 </v>
   <v>       0.95092338       0.90646553       0.33633223 </v>
   <v>       0.14257705       0.55211419       0.50000006 </v>
   <v>       0.61759049       0.57313258       0.00000001 </v>
   <v>       0.57592362       0.28146583       0.08408308 </v>
   <v>       0.53425694       0.98979902       0.16816619 </v>
   <v>       0.49259019       0.69813228       0.25224924 </v>
   <v>       0.45092344       0.40646553       0.33633226 </v>
   <v>       0.93424308       0.09378040       0.92041534 </v>
   <v>       0.28425661       0.98979878       0.42041531 </v>
   <v>       0.10091007       0.26044738       0.58408308 </v>
   <v>       0.80924344       0.21878064       0.66816616 </v>
   <v>       0.51757669       0.17711389       0.75224924 </v>
   <v>       0.22590995       0.13544715       0.83633232 </v>
   <v>       0.43424308       0.59378040       0.92041534 </v>
   <v>       0.82592332       0.78146553       0.33633217 </v>
   <v>       0.60091019       0.76044738       0.58408308 </v>
   <v>       0.30924344       0.71878076       0.66816616 </v>
   <v>       0.01757669       0.67711395       0.75224924 </v>
   <v>       0.72590995       0.63544720       0.83633232 </v>
   <v>       0.80924320       0.46878046       0.92041534 </v>
   <v>       0.03425656       0.23979878       0.42041528 </v>
   <v>       0.90925658       0.61479878       0.42041531 </v>
   <v>       0.68424350       0.59378076       0.66816616 </v>
   <v>       0.39257681       0.55211401       0.75224924 </v>
   <v>       0.10091007       0.51044720       0.83633232 </v>
   <v>       0.30924308       0.96878046       0.92041528 </v>
   <v>       0.65925658       0.86479867       0.42041528 </v>
   <v>       0.47591022       0.13544750       0.58408308 </v>
   <v>       0.18424344       0.09378076       0.66816616 </v>
   <v>       0.89257681       0.05211401       0.75224924 </v>
   <v>       0.60090995       0.01044726       0.83633232 </v>
   <v>       0.68424320       0.34378040       0.92041534 </v>
   <v>       0.07592334       0.53146553       0.33633217 </v>
   <v>       0.85091025       0.51044738       0.58408308 </v>
   <v>       0.55924350       0.46878067       0.66816616 </v>
   <v>       0.26757681       0.42711392       0.75224918 </v>
   <v>       0.97590995       0.38544717       0.83633226 </v>
   <v>       0.18424308       0.84378052       0.92041534 </v>
   <v>       0.90925658       0.61479878       0.42041531 </v>
   <v>       0.35091019       0.01044750       0.58408308 </v>
   <v>       0.05924344       0.96878070       0.66816616 </v>
   <v>       0.76757669       0.92711407       0.75224924 </v>
   <v>       0.47590992       0.88544726       0.83633232 </v>
   <v>       0.05924308       0.21878040       0.92041534 </v>
   <v>       0.15925664       0.36479878       0.42041531 </v>
   <v>       0.15925664       0.36479878       0.42041531 </v>
   <v>       0.93424344       0.34378070       0.66816616 </v>
   <v>       0.64257669       0.30211401       0.75224918 </v>
   <v>       0.35090995       0.26044726       0.83633232 </v>
   <v>       0.55924320       0.71878052       0.92041534 </v>
   <v>       0.78425658       0.48979867       0.42041528 </v>
   <v>       0.28425661       0.98979878       0.42041531 </v>
   <v>       0.43424356       0.84378076       0.66816616 </v>
   <v>       0.14257669       0.80211401       0.75224924 </v>
   <v>       0.85090995       0.76044726       0.83633232 </v>
  </varray>
 </structure>
 <calculation>
  <scstep>
   <time name="dav">   19.20   19.36</time>
   <time name="total">   20.96   21.13</time>
   <energy>
    <i name="alphaZ">    817.79019152 </i>
    <i name="ewald"> -10167.14846472 </i>
    <i name="hartreedc">  -1670.16727329 </i>
    <i name="XCdc">   -744.79342132 </i>
    <i name="pawpsdc">   8461.93788731 </i>
    <i name="pawaedc">  -7071.13096423 </i>
    <i name="eentropy">     -0.00103519 </i>
    <i name="bandstr">   1432.72548267 </i>
    <i name="atom">  10079.60734648 </i>
    <i name="e_fr_energy">   1138.81974922 </i>
    <i name="e_wo_entrp">   1138.82078442 </i>
    <i name="e_0_energy">   1138.82026682 </i>
   </energy>
  </scstep>
  <scstep>
   <time name="dav">   21.59   21.78</time>
   <time name="total">   21.59   21.78</time>
   <energy>
    <i name="e_fr_energy">   -997.19787337 </i>
    <i name="e_wo_entrp">   -997.19617807 </i>
    <i name="e_0_energy">   -997.19702572 </i>
   </energy>
  </scstep>
  <scstep>
   <time name="dav">   22.88   23.07</time>
   <time name="total">   22.88   23.07</time>
   <energy>
    <i name="e_fr_energy">  -1231.57025610 </i>
    <i name="e_wo_entrp">  -1231.56811328 </i>
    <i name="e_0_energy">  -1231.56918469 </i>
   </energy>
  </scstep>
  <scstep>
   <time name="dav">   22.51   22.69</time>
   <time name="total">   22.51   22.70</time>
   <energy>
    <i name="e_fr_energy">  -1243.21234781 </i>
    <i name="e_wo_entrp">  -1243.20997041 </i>
    <i name="e_0_energy">  -1243.21115911 </i>
   </energy>
  </scstep>
  <scstep>
   <time name="dav">   24.48   24.70</time>
   <time name="total">   25.58   25.81</time>
   <energy>
    <i name="e_fr_energy">  -1243.80939365 </i>
    <i name="e_wo_entrp">  -1243.80701401 </i>
    <i name="e_0_energy">  -1243.80820383 </i>
   </energy>
  </scstep>
  <scstep>
   <time name="dav">   21.49   21.67</time>
   <time name="total">   24.24   24.43</time>
   <energy>
    <i name="e_fr_energy">  -1250.17470124 </i>
    <i name="e_wo_entrp">  -1250.17274541 </i>
    <i name="e_0_energy">  -1250.17372333 </i>
   </energy>
  </scstep>
  <scstep>
   <time name="dav">   25.72   25.94</time>
   <time name="total">   28.50   28.73</time>
   <energy>
    <i name="e_fr_energy">  -1208.96453641 </i>
    <i name="e_wo_entrp">  -1208.96225420 </i>
    <i name="e_0_energy">  -1208.96339531 </i>
   </energy>
  </scstep>
  <scstep>
   <time name="dav">   23.03   23.24</time>
   <time name="total">   25.80   26.03</time>
   <energy>
    <i name="e_fr_energy">  -1198.72508768 </i>
    <i name="e_wo_entrp">  -1198.72302559 </i>
    <i name="e_0_energy">  -1198.72405663 </i>
   </energy>
  </scstep>
  <scstep>
   <time name="dav">   22.72   22.92</time>
   <time name="total">   25.46   25.68</time>
   <energy>
    <i name="e_fr_energy">  -1197.43366996 </i>
    <i name="e_wo_entrp">  -1197.43105943 </i>
    <i name="e_0_energy">  -1197.43236470 </i>
   </energy>
  </scstep>
  <scstep>
   <time name="dav">   21.49   21.67</time>
   <time name="total">   24.23   24.42</time>
   <energy>
    <i name="e_fr_energy">  -1197.06721795 </i>
    <i name="e_wo_entrp">  -1197.06493566 </i>
    <i name="e_0_energy">  -1197.06607680 </i>
   </energy>
  </scstep>
  <scstep>
   <time name="dav">   21.80   21.98</time>
   <time name="total">   24.54   24.74</time>
   <energy>
    <i name="e_fr_energy">  -1196.98844456 </i>
    <i name="e_wo_entrp">  -1196.98609372 </i>
    <i name="e_0_energy">  -1196.98726914 </i>
   </energy>
  </scstep>
  <scstep>
   <time name="dav">   21.85   22.03</time>
   <time name="total">   24.58   24.78</time>
   <energy>
    <i name="e_fr_energy">  -1196.94869523 </i>
    <i name="e_wo_entrp">  -1196.94551873 </i>
    <i name="e_0_energy">  -1196.94710698 </i>
   </energy>
  </scstep>
  <scstep>
   <time name="dav">   22.99   23.19</time>
   <time name="total">   25.73   25.95</time>
   <energy>
    <i name="e_fr_energy">  -1196.93950479 </i>
    <i name="e_wo_entrp">  -1196.93667186 </i>
    <i name="e_0_energy">  -1196.93808832 </i>
   </energy>
  </scstep>
  <scstep>
   <time name="dav">   21.90   22.08</time>
   <time name="total">   24.64   24.84</time>
   <energy>
    <i name="e_fr_energy">  -1196.93729588 </i>
    <i name="e_wo_entrp">  -1196.93429910 </i>
    <i name="e_0_energy">  -1196.93579749 </i>
   </energy>
  </scstep>
  <scstep>
   <time name="dav">   21.76   21.94</time>
   <time name="total">   24.51   24.71</time>
   <energy>
    <i name="e_fr_energy">  -1196.93737581 </i>
    <i name="e_wo_entrp">  -1196.93436685 </i>
    <i name="e_0_energy">  -1196.93587133 </i>
   </energy>
  </scstep>
  <scstep>
   <time name="dav">   21.90   22.09</time>
   <time name="total">   24.65   24.85</time>
   <energy>
    <i name="e_fr_energy">  -1196.93720490 </i>
    <i name="e_wo_entrp">  -1196.93422884 </i>
    <i name="e_0_energy">  -1196.93571687 </i>
   </energy>
  </scstep>
  <scstep>
   <time name="dav">   21.41   21.59</time>
   <time name="total">   24.16   24.35</time>
   <energy>
    <i name="e_fr_energy">  -1196.93719036 </i>
    <i name="e_wo_entrp">  -1196.93420436 </i>
    <i name="e_0_energy">  -1196.93569736 </i>
   </energy>
  </scstep>
  <scstep>
   <time name="dav">   22.12   22.31</time>
   <time name="total">   24.87   25.07</time>
   <energy>
    <i name="e_fr_energy">  -1196.93719252 </i>
    <i name="e_wo_entrp">  -1196.93420692 </i>
    <i name="e_0_energy">  -1196.93569972 </i>
   </energy>
  </scstep>
  <scstep>
   <time name="dav">   22.03   22.21</time>
   <time name="total">   24.78   24.98</time>
   <energy>
    <i name="e_fr_energy">  -1196.93719392 </i>
    <i name="e_wo_entrp">  -1196.93420968 </i>
    <i name="e_0_energy">  -1196.93570180 </i>
   </energy>
  </scstep>
  <scstep>
   <time name="dav">   22.28   22.46</time>
   <time name="total">   25.05   25.25</time>
   <energy>
    <i name="e_fr_energy">  -1196.93719503 </i>
    <i name="e_wo_entrp">  -1196.93421089 </i>
    <i name="e_0_energy">  -1196.93570296 </i>
   </energy>
  </scstep>
  <scstep>
   <time name="dav">   21.09   21.26</time>
   <time name="total">   22.74   22.92</time>
   <energy>
    <i name="alphaZ">    817.79019152 </i>
    <i name="ewald"> -10167.14846472 </i>
    <i name="hartreedc">  -1790.01456113 </i>
    <i name="XCdc">   -712.76904579 </i>
    <i name="pawpsdc">  39954.66000473 </i>
    <i name="pawaedc"> -38620.14371209 </i>
    <i name="eentropy">     -0.00298413 </i>
    <i name="bandstr">   -758.91596981 </i>
    <i name="atom">  10079.60734648 </i>
    <i name="e_fr_energy">  -1196.93719495 </i>
    <i name="e_wo_entrp">  -1196.93421083 </i>
    <i name="e_0_energy">  -1196.93570289 </i>
   </energy>
  </scstep>
  <structure>
   <crystal>
    <varray name="basis" >
     <v>      12.65122604       0.00000000       0.00000000 </v>
     <v>       2.53024530      12.39562035       0.00000000 </v>
     <v>       0.00000000       0.00000000      13.73516273 </v>
    </varray>
    <i name="volume">   2153.94540375 </i>
    <varray name="rec_basis" >
     <v>       0.07904372      -0.01613473       0.00000000 </v>
     <v>       0.00000000       0.08067366       0.00000000 </v>
     <v>       0.00000000       0.00000000       0.07280584 </v>
    </varray>
   </crystal>
   <varray name="positions" >
    <v>       0.01757705       0.92711431       0.50000006 </v>
    <v>       0.99259037       0.94813251       0.00000002 </v>
    <v>       0.95092356       0.65646577       0.08408309 </v>
    <v>       0.90925682       0.36479890       0.16816616 </v>
    <v>       0.86759007       0.07313222       0.25224918 </v>
    <v>       0.89257693       0.80211419       0.50000006 </v>
    <v>       0.39257693       0.30211425       0.50000006 </v>
    <v>       0.49259037       0.44813251       0.00000003 </v>
    <v>       0.45092362       0.15646577       0.08408309 </v>
    <v>       0.40925688       0.86479896       0.16816616 </v>
    <v>       0.36759013       0.57313228       0.25224918 </v>
    <v>       0.76757705       0.17711425       0.50000006 </v>
    <v>       0.22591019       0.38544744       0.58408308 </v>
    <v>       0.36759040       0.82313263       0.00000001 </v>
    <v>       0.32592362       0.53146583       0.08408309 </v>
    <v>       0.28425688       0.23979901       0.16816619 </v>
    <v>       0.24259017       0.94813240       0.25224918 </v>
    <v>       0.20092338       0.65646565       0.33633223 </v>
    <v>       0.76757705       0.17711425       0.50000006 </v>
    <v>       0.86759049       0.32313258       0.00000001 </v>
    <v>       0.82592368       0.03146578       0.08408309 </v>
    <v>       0.78425688       0.73979890       0.16816616 </v>
    <v>       0.74259013       0.44813234       0.25224918 </v>
    <v>       0.70092338       0.15646553       0.33633217 </v>
    <v>       0.26757705       0.67711425       0.50000006 </v>
    <v>       0.24259035       0.69813263       0.00000000 </v>
    <v>       0.20092359       0.40646580       0.08408308 </v>
    <v>       0.15925685       0.11479896       0.16816616 </v>
    <v>       0.11759009       0.82313240       0.25224915 </v>
    <v>       0.14257705       0.55211419       0.50000006 </v>
    <v>       0.89257693       0.80211419       0.50000006 </v>
    <v>       0.74259043       0.19813251       0.00000002 </v>
    <v>       0.70092362       0.90646571       0.08408309 </v>
    <v>       0.65925688       0.61479890       0.16816616 </v>
    <v>       0.61759025       0.32313234       0.25224918 </v>
    <v>       0.57592344       0.03146547       0.33633217 </v>
    <v>       0.97591031       0.63544744       0.58408308 </v>
    <v>       0.11759036       0.07313251       0.00000002 </v>
    <v>       0.07592360       0.78146577       0.08408309 </v>
    <v>       0.03425685       0.48979896       0.16816616 </v>
    <v>       0.99259007       0.19813222       0.25224918 </v>
    <v>       0.95092338       0.90646553       0.33633223 </v>
    <v>       0.14257705       0.55211419       0.50000006 </v>
    <v>       0.61759049       0.57313258       0.00000001 </v>
    <v>       0.57592362       0.28146583       0.08408308 </v>
    <v>       0.53425694       0.98979902       0.16816619 </v>
    <v>       0.49259019       0.69813228       0.25224924 </v>
    <v>       0.45092344       0.40646553       0.33633226 </v>
    <v>       0.93424308       0.09378040       0.92041534 </v>
    <v>       0.28425661       0.98979878       0.42041531 </v>
    <v>       0.10091007       0.26044738       0.58408308 </v>
    <v>       0.80924344       0.21878064       0.66816616 </v>
    <v>       0.51757669       0.17711389       0.75224924 </v>
    <v>       0.22590995       0.13544715       0.83633232 </v>
    <v>       0.43424308       0.59378040       0.92041534 </v>
    <v>       0.82592332       0.78146553       0.33633217 </v>
    <v>       0.60091019       0.76044738       0.58408308 </v>
    <v>       0.30924344       0.71878076       0.66816616 </v>
    <v>       0.01757669       0.67711395       0.75224924 </v>
    <v>       0.72590995       0.63544720       0.83633232 </v>
    <v>       0.80924320       0.46878046       0.92041534 </v>
    <v>       0.03425656       0.23979878       0.42041528 </v>
    <v>       0.90925658       0.61479878       0.42041531 </v>
    <v>       0.68424350       0.59378076       0.66816616 </v>
    <v>       0.39257681       0.55211401       0.75224924 </v>
    <v>       0.10091007       0.51044720       0.83633232 </v>
    <v>       0.30924308       0.96878046       0.92041528 </v>
    <v>       0.65925658       0.86479867       0.42041528 </v>
    <v>       0.47591022       0.13544750       0.58408308 </v>
    <v>       0.18424344       0.09378076       0.66816616 </v>
    <v>       0.89257681       0.05211401       0.75224924 </v>
    <v>       0.60090995       0.01044726       0.83633232 </v>
    <v>       0.68424320       0.34378040       0.92041534 </v>
    <v>       0.07592334       0.53146553       0.33633217 </v>
    <v>       0.85091025       0.51044738       0.58408308 </v>
    <v>       0.55924350       0.46878067       0.66816616 </v>
    <v>       0.26757681       0.42711392       0.75224918 </v>
    <v>       0.97590995       0.38544717       0.83633226 </v>
    <v>       0.18424308       0.84378052       0.92041534 </v>
    <v>       0.90925658       0.61479878       0.42041531 </v>
    <v>       0.35091019       0.01044750       0.58408308 </v>
    <v>       0.05924344       0.96878070       0.66816616 </v>
    <v>       0.76757669       0.92711407       0.75224924 </v>
    <v>       0.47590992       0.88544726       0.83633232 </v>
    <v>       0.05924308       0.21878040       0.92041534 </v>
    <v>       0.15925664       0.36479878       0.42041531 </v>
    <v>       0.15925664       0.36479878       0.42041531 </v>
    <v>       0.93424344       0.34378070       0.66816616 </v>
    <v>       0.64257669       0.30211401       0.75224918 </v>
    <v>       0.35090995       0.26044726       0.83633232 </v>
    <v>       0.55924320       0.71878052       0.92041534 </v>
    <v>       0.78425658       0.48979867       0.42041528 </v>
    <v>       0.28425661       0.98979878       0.42041531 </v>
    <v>       0.43424356       0.84378076       0.66816616 </v>
    <v>       0.14257669       0.80211401       0.75224924 </v>
    <v>       0.85090995       0.76044726       0.83633232 </v>
   </varray>
  </structure>
  <varray name="forces" >
   <v>       1.23157663       0.71512453       0.03452478 </v>
   <v>       0.03528042      -4.10398507       1.84238845 </v>
   <v>      -0.59772157      -0.23197639      -0.87351711 </v>
   <v>       0.20041671       0.07461459       0.41510486 </v>
   <v>       0.06086676       0.20060941      -0.04717105 </v>
   <v>      -0.37123553       1.81947079       2.61687583 </v>
   <v>       0.93218572       0.54772570      -1.43917609 </v>
   <v>       0.07867427      -4.19054261       1.83187695 </v>
   <v>      -0.68193627      -0.13790262      -0.64298193 </v>
   <v>       0.24256058      -0.18630392       0.50552719 </v>
   <v>      -0.04229862       0.11451035       0.17781665 </v>
   <v>      -0.06793829       0.09953433       0.10341587 </v>
   <v>       1.89979097      -0.94133973       4.73315575 </v>
   <v>       2.01715678      -3.28400996       3.54079641 </v>
   <v>      -0.73173186      -0.32724604       0.79594565 </v>
   <v>       0.35993806       0.37353448       0.29479169 </v>
   <v>      -0.56929242      -0.19495286      -1.70032944 </v>
   <v>       0.84665094       0.93808828      -1.59850266 </v>
   <v>      -0.06793829       0.09953433       0.10341587 </v>
   <v>       2.11522838      -3.30415005       3.55582049 </v>
   <v>      -0.64703027      -0.21857735       0.99688457 </v>
   <v>       0.02061977       0.06808353      -0.74439385 </v>
   <v>      -0.12972030      -0.11593824      -0.39964493 </v>
   <v>      -0.64834243      -0.57616811      -1.97508164 </v>
   <v>       1.17789112       0.86911168      -0.03408572 </v>
   <v>       0.12287427      -4.14325151       1.83360736 </v>
   <v>      -0.51998922      -0.40599012      -0.65643404 </v>
   <v>       0.21562128       0.26312359       0.41716192 </v>
   <v>      -0.02723831       0.03478191      -0.01514108 </v>
   <v>       1.08575512       1.03248012       2.11145989 </v>
   <v>      -0.37123553       1.81947079       2.61687583 </v>
   <v>       0.21289679      -4.28621015       1.78565599 </v>
   <v>      -0.54865921      -0.29419453      -0.63815687 </v>
   <v>       0.01696406       0.17640604       0.54977628 </v>
   <v>      -0.10939162       0.21529112       0.46278582 </v>
   <v>      -0.74802569       0.39428850       0.66492552 </v>
   <v>       0.95991062      -0.47391602       5.69690092 </v>
   <v>       2.08473299      -3.26794655       3.56595206 </v>
   <v>      -0.65248989      -0.28041025       0.95331980 </v>
   <v>       0.03873619       0.04645641      -0.53190228 </v>
   <v>      -0.00604356      -0.32798417      -0.36821354 </v>
   <v>       0.70392222       0.98648911      -1.51403488 </v>
   <v>       1.08575512       1.03248012       2.11145989 </v>
   <v>       2.11629160      -3.33336340       3.46199608 </v>
   <v>      -0.73145333      -0.21732517       0.90128737 </v>
   <v>       0.10152130       0.12868328      -0.11442668 </v>
   <v>       0.49387755       0.32905612       0.70019438 </v>
   <v>      -0.30769995      -0.68956565       1.11038759 </v>
   <v>      -2.08473299       3.26794655      -3.56595206 </v>
   <v>       0.06793829      -0.09953433      -0.10341587 </v>
   <v>      -0.70392222      -0.98648911       1.51403488 </v>
   <v>       0.56929242       0.19495286       1.70032944 </v>
   <v>      -0.10152130      -0.12868328       0.11442668 </v>
   <v>       0.64703027       0.21857735      -0.99688457 </v>
   <v>      -2.11629160       3.33336340      -3.46199608 </v>
   <v>      -1.89979097       0.94133973      -4.73315575 </v>
   <v>       0.30769995       0.68956565      -1.11038759 </v>
   <v>       0.12972030       0.11593824       0.39964493 </v>
   <v>      -0.03873619      -0.04645641       0.53190228 </v>
   <v>       0.73173186       0.32724604      -0.79594565 </v>
   <v>      -0.12287427       4.14325151      -1.83360736 </v>
   <v>      -1.23157663      -0.71512453      -0.03452478 </v>
   <v>      -1.08575512      -1.03248012      -2.11145989 </v>
   <v>       0.04229862      -0.11451035      -0.17781665 </v>
   <v>      -0.01696406      -0.17640604      -0.54977628 </v>
   <v>       0.59772157       0.23197639       0.87351711 </v>
   <v>      -0.21289679       4.28621015      -1.78565599 </v>
   <v>      -0.93218572      -0.54772570       1.43917609 </v>
   <v>       0.74802569      -0.39428850      -0.66492552 </v>
   <v>      -0.06086676      -0.20060941       0.04717105 </v>
   <v>      -0.21562128      -0.26312359      -0.41716192 </v>
   <v>       0.68193627       0.13790262       0.64298193 </v>
   <v>      -2.01715678       3.28400996      -3.54079641 </v>
   <v>      -0.95991062       0.47391602      -5.69690092 </v>
   <v>      -0.84665094      -0.93808828       1.59850266 </v>
   <v>      -0.49387755      -0.32905612      -0.70019438 </v>
   <v>      -0.02061977      -0.06808353       0.74439385 </v>
   <v>       0.65248989       0.28041025      -0.95331980 </v>
   <v>      -2.11522838       3.30415005      -3.55582049 </v>
   <v>      -1.08575512      -1.03248012      -2.11145989 </v>
   <v>       0.64834243       0.57616811       1.97508164 </v>
   <v>       0.00604356       0.32798417       0.36821354 </v>
   <v>      -0.35993806      -0.37353448      -0.29479169 </v>
   <v>       0.73145333       0.21732517      -0.90128737 </v>
   <v>      -0.03528042       4.10398507      -1.84238845 </v>
   <v>       0.37123553      -1.81947079      -2.61687583 </v>
   <v>       0.37123553      -1.81947079      -2.61687583 </v>
   <v>       0.02723831      -0.03478191       0.01514108 </v>
   <v>      -0.24256058       0.18630392      -0.50552719 </v>
   <v>       0.54865921       0.29419453       0.63815687 </v>
   <v>      -0.07867427       4.19054261      -1.83187695 </v>
   <v>      -1.17789112      -0.86911168       0.03408572 </v>
   <v>       0.06793829      -0.09953433      -0.10341587 </v>
   <v>       0.10939162      -0.21529112      -0.46278582 </v>
   <v>      -0.20041671      -0.07461459      -0.41510486 </v>
   <v>       0.51998922       0.40599012       0.65643404 </v>
  </varray>
  <varray name="stress" >
   <v>      95.57701732      -2.36516432      13.23008251 </v>
   <v>      -2.36517071     114.20039316     -21.92615315 </v>
   <v>      13.23006782     -21.92613064     134.90151090 </v>
  </varray>
  <energy>
   <i name="e_fr_energy">  -1196.93719495 </i>
   <i name="e_wo_entrp">  -1196.93421083 </i>
   <i name="e_0_energy">  -1196.93570289 </i>
  </energy>
  <time name="totalsc">  547.12  552.19</time>
  <eigenvalues>
   <array>
    <dimension dim="1">band</dimension>
    <dimension dim="2">kpoint</dimension>
    <dimension dim="3">spin</dimension>
    <field>eigene</field>
    <field>occ</field>
    <set>
     <set comment="spin 1">
      <set comment="kpoint 1">
       <r>  -11.4326    1.0000 </r>
       <r>  -10.7619    1.0000 </r>
       <r>  -10.1571    1.0000 </r>
       <r>   -9.6695    1.0000 </r>
       <r>   -9.6557    1.0000 </r>
       <r>   -9.5735    1.0000 </r>
       <r>   -9.3817    1.0000 </r>
       <r>   -8.8186    1.0000 </r>
       <r>   -8.3924    1.0000 </r>
       <r>   -8.3745    1.0000 </r>
       <r>   -8.3134    1.0000 </r>
       <r>   -8.0818    1.0000 </r>
       <r>   -8.0470    1.0000 </r>
       <r>   -7.9945    1.0000 </r>
       <r>   -7.9915    1.0000 </r>
       <r>   -7.8093    1.0000 </r>
       <r>   -7.7722    1.0000 </r>
       <r>   -7.6345    1.0000 </r>
       <r>   -7.5697    1.0000 </r>
       <r>   -7.4993    1.0000 </r>
       <r>   -7.4028    1.0000 </r>
       <r>   -7.3058    1.0000 </r>
       <r>   -7.2057    1.0000 </r>
       <r>   -7.1648    1.0000 </r>
       <r>   -7.1000    1.0000 </r>
       <r>   -6.8955    1.0000 </r>
       <r>   -6.8859    1.0000 </r>
       <r>   -6.8085    1.0000 </r>
       <r>   -6.6793    1.0000 </r>
       <r>   -6.6716    1.0000 </r>
       <r>   -6.5911    1.0000 </r>
       <r>   -6.3522    1.0000 </r>
       <r>   -6.3501    1.0000 </r>
       <r>   -6.2106    1.0000 </r>
       <r>   -6.1286    1.0000 </r>
       <r>   -6.0946    1.0000 </r>
       <r>   -6.0890    1.0000 </r>
       <r>   -6.0130    1.0000 </r>
       <r>   -5.9717    1.0000 </r>
       <r>   -5.8486    1.0000 </r>
       <r>   -5.8194    1.0000 </r>
       <r>   -5.7024    1.0000 </r>
       <r>   -5.6305    1.0000 </r>
       <r>   -5.6297    1.0000 </r>
       <r>   -5.3878    1.0000 </r>
       <r>   -5.3677    1.0000 </r>
       <r>   -5.2483    1.0000 </r>
       <r>   -5.1462    1.0000 </r>
       <r>   -5.1177    1.0000 </r>
       <r>   -5.0433    1.0000 </r>
       <r>   -5.0033    1.0000 </r>
       <r>   -4.7522    1.0000 </r>
       <r>   -4.6609    1.0000 </r>
       <r>   -4.5984    1.0000 </r>
       <r>   -4.5565    1.0000 </r>
       <r>   -4.5402    1.0000 </r>
       <r>   -4.4896    1.0000 </r>
       <r>   -4.4133    1.0000 </r>
       <r>   -4.3233    1.0000 </r>
       <r>   -4.3032    1.0000 </r>
       <r>   -4.2590    1.0000 </r>
       <r>   -4.1013    1.0000 </r>
       <r>   -4.0174    1.0000 </r>
       <r>   -3.9794    1.0000 </r>
       <r>   -3.9502    1.0000 </r>
       <r>   -3.8451    1.0000 </r>
       <r>   -3.6785    1.0000 </r>
       <r>   -3.4636    1.0000 </r>
       <r>   -3.4390    1.0000 </r>
       <r>   -3.2926    1.0000 </r>
       <r>   -3.1503    1.0000 </r>
       <r>   -3.0874    1.0000 </r>
       <r>   -2.9240    1.0000 </r>
       <r>   -2.8750    1.0000 </r>
       <r>   -2.7630    1.0000 </r>
       <r>   -2.7375    1.0000 </r>
       <r>   -2.6644    1.0000 </r>
       <r>   -2.6575    1.0000 </r>
       <r>   -2.6154    1.0000 </r>
       <r>   -2.5671    1.0000 </r>
       <r>   -2.4644    1.0000 </r>
       <r>   -2.4139    1.0000 </r>
       <r>   -2.3707    1.0000 </r>
       <r>   -2.3153    1.0000 </r>
       <r>   -2.2703    1.0000 </r>
       <r>   -2.2349    1.0000 </r>
       <r>   -2.1287    1.0000 </r>
       <r>   -2.0992    1.0000 </r>
       <r>   -1.9587    1.0000 </r>
       <r>   -1.9493    1.0000 </r>
       <r>   -1.9037    1.0000 </r>
       <r>   -1.8366    1.0000 </r>
       <r>   -1.7220    1.0000 </r>
       <r>   -1.6914    1.0000 </r>
       <r>   -1.6250    1.0000 </r>
       <r>   -1.5379    1.0000 </r>
       <r>   -1.4842    1.0000 </r>
       <r>   -1.3576    1.0000 </r>
       <r>   -1.1787    1.0000 </r>
       <r>   -1.1620    1.0000 </r>
       <r>   -1.0306    1.0000 </r>
       <r>   -0.9723    1.0000 </r>
       <r>   -0.8108    1.0000 </r>
       <r>   -0.7908    1.0000 </r>
       <r>   -0.6607    1.0000 </r>
       <r>   -0.6591    1.0000 </r>
       <r>   -0.4792    1.0000 </r>
       <r>   -0.4449    1.0000 </r>
       <r>   -0.4265    1.0000 </r>
       <r>   -0.3871    1.0000 </r>
       <r>   -0.3038    1.0000 </r>
       <r>   -0.2944    1.0000 </r>
       <r>   -0.2790    1.0000 </r>
       <r>   -0.1595    1.0000 </r>
       <r>   -0.0717    1.0000 </r>
       <r>   -0.0083    1.0000 </r>
       <r>    0.0527    1.0000 </r>
       <r>    0.0842    1.0000 </r>
       <r>    0.2054    1.0000 </r>
       <r>    0.2078    1.0000 </r>
       <r>    0.3513    1.0000 </r>
       <r>    0.3523    1.0000 </r>
       <r>    0.3623    1.0000 </r>
       <r>    0.3723    1.0000 </r>
       <r>    0.4930    1.0000 </r>
       <r>    0.5140    1.0000 </r>
       <r>    0.5171    1.0000 </r>
       <r>    0.5567    1.0000 </r>
       <r>    0.6115    1.0000 </r>
       <r>    0.6601    1.0000 </r>
       <r>    0.6621    1.0000 </r>
       <r>    0.7299    1.0000 </r>
       <r>    0.8094    1.0000 </r>
       <r>    0.8167    1.0000 </r>
       <r>    0.8668    1.0000 </r>
       <r>    0.9055    1.0000 </r>
       <r>    0.9800    1.0000 </r>
       <r>    1.0037    1.0000 </r>
       <r>    1.0349    1.0000 </r>
       <r>    1.0570    1.0000 </r>
       <r>    1.1009    1.0000 </r>
       <r>    1.1972    1.0000 </r>
       <r>    1.2182    1.0000 </r>
       <r>    1.3622    1.0000 </r>
       <r>    1.4094    1.0000 </r>
       <r>    1.4255    1.0000 </r>
       <r>    1.4578    1.0000 </r>
       <r>    1.5011    1.0000 </r>
       <r>    1.5087    1.0000 </r>
       <r>    1.5472    1.0000 </r>
       <r>    1.5591    1.0000 </r>
       <r>    1.6169    1.0000 </r>
       <r>    1.6552    1.0000 </r>
       <r>    1.6753    1.0000 </r>
       <r>    1.7190    1.0000 </r>
       <r>    1.7804    1.0000 </r>
       <r>    1.7892    1.0000 </r>
       <r>    1.8946    1.0000 </r>
       <r>    1.9392    1.0000 </r>
       <r>    1.9432    1.0000 </r>
       <r>    2.1161    1.0000 </r>
       <r>    2.1282    1.0000 </r>
       <r>    2.1343    1.0000 </r>
       <r>    2.1801    1.0000 </r>
       <r>    2.2677    1.0000 </r>
       <r>    2.2779    1.0000 </r>
       <r>    2.3601    1.0000 </r>
       <r>    2.4248    1.0000 </r>
       <r>    2.4255    1.0000 </r>
       <r>    2.4900    1.0000 </r>
       <r>    2.5699    1.0000 </r>
       <r>    2.6156    1.0000 </r>
       <r>    2.7187    1.0000 </r>
       <r>    2.7457    1.0000 </r>
       <r>    2.9073    1.0000 </r>
       <r>    2.9102    1.0000 </r>
       <r>    2.9488    1.0000 </r>
       <r>    3.0229    1.0000 </r>
       <r>    3.0391    1.0000 </r>
       <r>    3.1081    1.0000 </r>
       <r>    3.1316    1.0000 </r>
       <r>    3.2039    1.0000 </r>
       <r>    3.2439    1.0000 </r>
       <r>    3.3106    1.0000 </r>
       <r>    3.3492    1.0000 </r>
       <r>    3.3519    1.0000 </r>
       <r>    3.4205    1.0000 </r>
       <r>    3.4643    1.0000 </r>
       <r>    3.5001    1.0000 </r>
       <r>    3.5532    1.0000 </r>
       <r>    3.5642    1.0000 </r>
       <r>    3.6478    1.0000 </r>
       <r>    3.6674    1.0000 </r>
       <r>    3.7294    0.0000 </r>
       <r>    3.7762    0.0000 </r>
       <r>    3.8086    0.0000 </r>
       <r>    3.9053    0.0000 </r>
       <r>    3.9780    0.0000 </r>
       <r>    3.9948    0.0000 </r>
       <r>    4.0624    0.0000 </r>
       <r>    4.1432    0.0000 </r>
       <r>    4.2062    0.0000 </r>
       <r>    4.2076    0.0000 </r>
       <r>    4.2543    0.0000 </r>
       <r>    4.2826    0.0000 </r>
       <r>    4.4594    0.0000 </r>
       <r>    4.4614    0.0000 </r>
       <r>    4.4738    0.0000 </r>
       <r>    4.5036    0.0000 </r>
       <r>    4.5782    0.0000 </r>
       <r>    4.5894    0.0000 </r>
       <r>    4.6275    0.0000 </r>
       <r>    4.6887    0.0000 </r>
       <r>    4.7359    0.0000 </r>
       <r>    4.8619    0.0000 </r>
       <r>    4.8708    0.0000 </r>
       <r>    4.9986    0.0000 </r>
       <r>    5.0277    0.0000 </r>
       <r>    5.0820    0.0000 </r>
       <r>    5.1702    0.0000 </r>
       <r>    5.2201    0.0000 </r>
       <r>    5.2276    0.0000 </r>
       <r>    5.3137    0.0000 </r>
       <r>    5.3499    0.0000 </r>
       <r>    5.3686    0.0000 </r>
       <r>    5.5005    0.0000 </r>
       <r>    5.5436    0.0000 </r>
       <r>    5.5519    0.0000 </r>
       <r>    5.6086    0.0000 </r>
       <r>    5.6366    0.0000 </r>
       <r>    5.6430    0.0000 </r>
       <r>    5.7092    0.0000 </r>
      </set>
      <set comment="kpoint 2">
       <r>  -11.4324    1.0000 </r>
       <r>  -10.7622    1.0000 </r>
       <r>  -10.0983    1.0000 </r>
       <r>   -9.9275    1.0000 </r>
       <r>   -9.5779    1.0000 </r>
       <r>   -9.3822    1.0000 </r>
       <r>   -9.3226    1.0000 </r>
       <r>   -8.9863    1.0000 </r>
       <r>   -8.3962    1.0000 </r>
       <r>   -8.3381    1.0000 </r>
       <r>   -8.3235    1.0000 </r>
       <r>   -8.2418    1.0000 </r>
       <r>   -8.0782    1.0000 </r>
       <r>   -7.9888    1.0000 </r>
       <r>   -7.9132    1.0000 </r>
       <r>   -7.8422    1.0000 </r>
       <r>   -7.7360    1.0000 </r>
       <r>   -7.5920    1.0000 </r>
       <r>   -7.4998    1.0000 </r>
       <r>   -7.4269    1.0000 </r>
       <r>   -7.2982    1.0000 </r>
       <r>   -7.2736    1.0000 </r>
       <r>   -7.2231    1.0000 </r>
       <r>   -7.1116    1.0000 </r>
       <r>   -7.0354    1.0000 </r>
       <r>   -6.9775    1.0000 </r>
       <r>   -6.9243    1.0000 </r>
       <r>   -6.7785    1.0000 </r>
       <r>   -6.7254    1.0000 </r>
       <r>   -6.6388    1.0000 </r>
       <r>   -6.5435    1.0000 </r>
       <r>   -6.5015    1.0000 </r>
       <r>   -6.3718    1.0000 </r>
       <r>   -6.2885    1.0000 </r>
       <r>   -6.2116    1.0000 </r>
       <r>   -6.1329    1.0000 </r>
       <r>   -6.1027    1.0000 </r>
       <r>   -6.0381    1.0000 </r>
       <r>   -5.9627    1.0000 </r>
       <r>   -5.8693    1.0000 </r>
       <r>   -5.8340    1.0000 </r>
       <r>   -5.7468    1.0000 </r>
       <r>   -5.6987    1.0000 </r>
       <r>   -5.5314    1.0000 </r>
       <r>   -5.5106    1.0000 </r>
       <r>   -5.3381    1.0000 </r>
       <r>   -5.1846    1.0000 </r>
       <r>   -5.1536    1.0000 </r>
       <r>   -5.0764    1.0000 </r>
       <r>   -4.9847    1.0000 </r>
       <r>   -4.7800    1.0000 </r>
       <r>   -4.7631    1.0000 </r>
       <r>   -4.7133    1.0000 </r>
       <r>   -4.6956    1.0000 </r>
       <r>   -4.6077    1.0000 </r>
       <r>   -4.5060    1.0000 </r>
       <r>   -4.4756    1.0000 </r>
       <r>   -4.3904    1.0000 </r>
       <r>   -4.3676    1.0000 </r>
       <r>   -4.3579    1.0000 </r>
       <r>   -4.2284    1.0000 </r>
       <r>   -4.0822    1.0000 </r>
       <r>   -3.9517    1.0000 </r>
       <r>   -3.8957    1.0000 </r>
       <r>   -3.8158    1.0000 </r>
       <r>   -3.7162    1.0000 </r>
       <r>   -3.5886    1.0000 </r>
       <r>   -3.5031    1.0000 </r>
       <r>   -3.3177    1.0000 </r>
       <r>   -3.2758    1.0000 </r>
       <r>   -3.1613    1.0000 </r>
       <r>   -3.0979    1.0000 </r>
       <r>   -3.0237    1.0000 </r>
       <r>   -3.0053    1.0000 </r>
       <r>   -2.9079    1.0000 </r>
       <r>   -2.8453    1.0000 </r>
       <r>   -2.7560    1.0000 </r>
       <r>   -2.6802    1.0000 </r>
       <r>   -2.6527    1.0000 </r>
       <r>   -2.6139    1.0000 </r>
       <r>   -2.5187    1.0000 </r>
       <r>   -2.4612    1.0000 </r>
       <r>   -2.3313    1.0000 </r>
       <r>   -2.2916    1.0000 </r>
       <r>   -2.2321    1.0000 </r>
       <r>   -2.2080    1.0000 </r>
       <r>   -2.1067    1.0000 </r>
       <r>   -2.0951    1.0000 </r>
       <r>   -2.0366    1.0000 </r>
       <r>   -1.9194    1.0000 </r>
       <r>   -1.8839    1.0000 </r>
       <r>   -1.8185    1.0000 </r>
       <r>   -1.7620    1.0000 </r>
       <r>   -1.7152    1.0000 </r>
       <r>   -1.6355    1.0000 </r>
       <r>   -1.4591    1.0000 </r>
       <r>   -1.3943    1.0000 </r>
       <r>   -1.3430    1.0000 </r>
       <r>   -1.2975    1.0000 </r>
       <r>   -0.9817    1.0000 </r>
       <r>   -0.9293    1.0000 </r>
       <r>   -0.8566    1.0000 </r>
       <r>   -0.7643    1.0000 </r>
       <r>   -0.7164    1.0000 </r>
       <r>   -0.6572    1.0000 </r>
       <r>   -0.5717    1.0000 </r>
       <r>   -0.5364    1.0000 </r>
       <r>   -0.4959    1.0000 </r>
       <r>   -0.4563    1.0000 </r>
       <r>   -0.4236    1.0000 </r>
       <r>   -0.3934    1.0000 </r>
       <r>   -0.3281    1.0000 </r>
       <r>   -0.2299    1.0000 </r>
       <r>   -0.1797    1.0000 </r>
       <r>   -0.1148    1.0000 </r>
       <r>   -0.0406    1.0000 </r>
       <r>    0.0581    1.0000 </r>
       <r>    0.0912    1.0000 </r>
       <r>    0.1200    1.0000 </r>
       <r>    0.1876    1.0000 </r>
       <r>    0.2238    1.0000 </r>
       <r>    0.2987    1.0000 </r>
       <r>    0.3401    1.0000 </r>
       <r>    0.3597    1.0000 </r>
       <r>    0.4211    1.0000 </r>
       <r>    0.4881    1.0000 </r>
       <r>    0.5400    1.0000 </r>
       <r>    0.6168    1.0000 </r>
       <r>    0.6631    1.0000 </r>
       <r>    0.7091    1.0000 </r>
       <r>    0.7688    1.0000 </r>
       <r>    0.7888    1.0000 </r>
       <r>    0.8238    1.0000 </r>
       <r>    0.8486    1.0000 </r>
       <r>    0.9230    1.0000 </r>
       <r>    0.9352    1.0000 </r>
       <r>    0.9742    1.0000 </r>
       <r>    1.0086    1.0000 </r>
       <r>    1.0195    1.0000 </r>
       <r>    1.0595    1.0000 </r>
       <r>    1.1275    1.0000 </r>
       <r>    1.1457    1.0000 </r>
       <r>    1.1851    1.0000 </r>
       <r>    1.2544    1.0000 </r>
       <r>    1.2723    1.0000 </r>
       <r>    1.2981    1.0000 </r>
       <r>    1.3721    1.0000 </r>
       <r>    1.4372    1.0000 </r>
       <r>    1.4976    1.0000 </r>
       <r>    1.5198    1.0000 </r>
       <r>    1.5878    1.0000 </r>
       <r>    1.5970    1.0000 </r>
       <r>    1.6397    1.0000 </r>
       <r>    1.6529    1.0000 </r>
       <r>    1.7677    1.0000 </r>
       <r>    1.8037    1.0000 </r>
       <r>    1.8288    1.0000 </r>
       <r>    1.8960    1.0000 </r>
       <r>    1.9547    1.0000 </r>
       <r>    2.0089    1.0000 </r>
       <r>    2.0590    1.0000 </r>
       <r>    2.1159    1.0000 </r>
       <r>    2.1859    1.0000 </r>
       <r>    2.2424    1.0000 </r>
       <r>    2.2879    1.0000 </r>
       <r>    2.3221    1.0000 </r>
       <r>    2.3538    1.0000 </r>
       <r>    2.3884    1.0000 </r>
       <r>    2.4468    1.0000 </r>
       <r>    2.4798    1.0000 </r>
       <r>    2.6336    1.0000 </r>
       <r>    2.6583    1.0000 </r>
       <r>    2.7243    1.0000 </r>
       <r>    2.7977    1.0000 </r>
       <r>    2.8560    1.0000 </r>
       <r>    2.8919    1.0000 </r>
       <r>    2.9758    1.0000 </r>
       <r>    3.0301    1.0000 </r>
       <r>    3.0699    1.0000 </r>
       <r>    3.0924    1.0000 </r>
       <r>    3.1452    1.0000 </r>
       <r>    3.2044    1.0000 </r>
       <r>    3.2603    1.0000 </r>
       <r>    3.3030    1.0000 </r>
       <r>    3.3633    1.0000 </r>
       <r>    3.4201    1.0000 </r>
       <r>    3.4542    1.0000 </r>
       <r>    3.5105    1.0000 </r>
       <r>    3.5408    1.0000 </r>
       <r>    3.5763    1.0000 </r>
       <r>    3.6334    1.0000 </r>
       <r>    3.6687    1.0000 </r>
       <r>    3.7421    0.0000 </r>
       <r>    3.7671    0.0000 </r>
       <r>    3.7859    0.0000 </r>
       <r>    3.8068    0.0000 </r>
       <r>    3.8551    0.0000 </r>
       <r>    3.9282    0.0000 </r>
       <r>    4.0108    0.0000 </r>
       <r>    4.0744    0.0000 </r>
       <r>    4.1252    0.0000 </r>
       <r>    4.1507    0.0000 </r>
       <r>    4.1634    0.0000 </r>
       <r>    4.1723    0.0000 </r>
       <r>    4.2977    0.0000 </r>
       <r>    4.3535    0.0000 </r>
       <r>    4.3881    0.0000 </r>
       <r>    4.4714    0.0000 </r>
       <r>    4.4983    0.0000 </r>
       <r>    4.5357    0.0000 </r>
       <r>    4.6333    0.0000 </r>
       <r>    4.6774    0.0000 </r>
       <r>    4.7324    0.0000 </r>
       <r>    4.8146    0.0000 </r>
       <r>    4.8587    0.0000 </r>
       <r>    4.8883    0.0000 </r>
       <r>    4.9944    0.0000 </r>
       <r>    5.0439    0.0000 </r>
       <r>    5.1196    0.0000 </r>
       <r>    5.1372    0.0000 </r>
       <r>    5.2029    0.0000 </r>
       <r>    5.2435    0.0000 </r>
       <r>    5.2891    0.0000 </r>
       <r>    5.3804    0.0000 </r>
       <r>    5.3942    0.0000 </r>
       <r>    5.4293    0.0000 </r>
       <r>    5.4787    0.0000 </r>
       <r>    5.5656    0.0000 </r>
       <r>    5.6217    0.0000 </r>
       <r>    5.6778    0.0000 </r>
       <r>    5.6846    0.0000 </r>
       <r>    5.7791    0.0000 </r>
      </set>
      <set comment="kpoint 3">
       <r>  -11.4322    1.0000 </r>
       <r>  -10.7629    1.0000 </r>
       <r>  -10.0985    1.0000 </r>
       <r>   -9.9284    1.0000 </r>
       <r>   -9.5742    1.0000 </r>
       <r>   -9.3827    1.0000 </r>
       <r>   -9.3241    1.0000 </r>
       <r>   -8.9853    1.0000 </r>
       <r>   -8.4207    1.0000 </r>
       <r>   -8.3450    1.0000 </r>
       <r>   -8.2918    1.0000 </r>
       <r>   -8.1937    1.0000 </r>
       <r>   -8.0674    1.0000 </r>
       <r>   -7.9939    1.0000 </r>
       <r>   -7.9160    1.0000 </r>
       <r>   -7.8614    1.0000 </r>
       <r>   -7.7694    1.0000 </r>
       <r>   -7.5965    1.0000 </r>
       <r>   -7.5116    1.0000 </r>
       <r>   -7.4602    1.0000 </r>
       <r>   -7.4175    1.0000 </r>
       <r>   -7.2330    1.0000 </r>
       <r>   -7.1922    1.0000 </r>
       <r>   -7.1427    1.0000 </r>
       <r>   -7.0122    1.0000 </r>
       <r>   -6.9674    1.0000 </r>
       <r>   -6.8681    1.0000 </r>
       <r>   -6.7697    1.0000 </r>
       <r>   -6.7288    1.0000 </r>
       <r>   -6.6729    1.0000 </r>
       <r>   -6.4868    1.0000 </r>
       <r>   -6.4466    1.0000 </r>
       <r>   -6.3053    1.0000 </r>
       <r>   -6.3000    1.0000 </r>
       <r>   -6.2462    1.0000 </r>
       <r>   -6.1506    1.0000 </r>
       <r>   -5.9789    1.0000 </r>
       <r>   -5.9458    1.0000 </r>
       <r>   -5.9075    1.0000 </r>
       <r>   -5.8689    1.0000 </r>
       <r>   -5.8144    1.0000 </r>
       <r>   -5.7335    1.0000 </r>
       <r>   -5.6728    1.0000 </r>
       <r>   -5.5942    1.0000 </r>
       <r>   -5.5455    1.0000 </r>
       <r>   -5.4448    1.0000 </r>
       <r>   -5.3857    1.0000 </r>
       <r>   -5.2195    1.0000 </r>
       <r>   -5.1861    1.0000 </r>
       <r>   -5.1232    1.0000 </r>
       <r>   -4.9277    1.0000 </r>
       <r>   -4.8454    1.0000 </r>
       <r>   -4.7487    1.0000 </r>
       <r>   -4.6129    1.0000 </r>
       <r>   -4.5354    1.0000 </r>
       <r>   -4.5176    1.0000 </r>
       <r>   -4.4295    1.0000 </r>
       <r>   -4.3173    1.0000 </r>
       <r>   -4.2637    1.0000 </r>
       <r>   -4.2085    1.0000 </r>
       <r>   -4.1193    1.0000 </r>
       <r>   -4.0347    1.0000 </r>
       <r>   -3.9164    1.0000 </r>
       <r>   -3.8813    1.0000 </r>
       <r>   -3.7688    1.0000 </r>
       <r>   -3.7356    1.0000 </r>
       <r>   -3.6329    1.0000 </r>
       <r>   -3.4239    1.0000 </r>
       <r>   -3.2992    1.0000 </r>
       <r>   -3.2665    1.0000 </r>
       <r>   -3.1315    1.0000 </r>
       <r>   -3.0936    1.0000 </r>
       <r>   -3.0137    1.0000 </r>
       <r>   -2.9361    1.0000 </r>
       <r>   -2.8746    1.0000 </r>
       <r>   -2.8355    1.0000 </r>
       <r>   -2.7796    1.0000 </r>
       <r>   -2.6915    1.0000 </r>
       <r>   -2.5977    1.0000 </r>
       <r>   -2.5765    1.0000 </r>
       <r>   -2.5423    1.0000 </r>
       <r>   -2.5010    1.0000 </r>
       <r>   -2.4447    1.0000 </r>
       <r>   -2.3130    1.0000 </r>
       <r>   -2.2939    1.0000 </r>
       <r>   -2.2628    1.0000 </r>
       <r>   -2.2148    1.0000 </r>
       <r>   -2.1192    1.0000 </r>
       <r>   -2.0783    1.0000 </r>
       <r>   -2.0155    1.0000 </r>
       <r>   -1.9460    1.0000 </r>
       <r>   -1.8465    1.0000 </r>
       <r>   -1.7634    1.0000 </r>
       <r>   -1.7258    1.0000 </r>
       <r>   -1.6212    1.0000 </r>
       <r>   -1.5417    1.0000 </r>
       <r>   -1.3502    1.0000 </r>
       <r>   -1.2647    1.0000 </r>
       <r>   -1.1349    1.0000 </r>
       <r>   -1.1035    1.0000 </r>
       <r>   -0.9355    1.0000 </r>
       <r>   -0.8586    1.0000 </r>
       <r>   -0.8290    1.0000 </r>
       <r>   -0.7135    1.0000 </r>
       <r>   -0.5822    1.0000 </r>
       <r>   -0.5350    1.0000 </r>
       <r>   -0.5225    1.0000 </r>
       <r>   -0.5013    1.0000 </r>
       <r>   -0.4398    1.0000 </r>
       <r>   -0.3770    1.0000 </r>
       <r>   -0.3304    1.0000 </r>
       <r>   -0.2732    1.0000 </r>
       <r>   -0.2282    1.0000 </r>
       <r>   -0.1915    1.0000 </r>
[...]
       <r>   -10.3354     0.0000     4.0000 </r>
       <r>   -10.2722     0.0000     4.0000 </r>
       <r>   -10.2090     0.0000     4.0000 </r>
       <r>   -10.1458     4.2107     4.2661 </r>
       <r>   -10.0827    21.9478     5.6529 </r>
       <r>   -10.0195     5.4932     6.0000 </r>
       <r>    -9.9563     0.0007     6.0000 </r>
       <r>    -9.8931    21.0995     7.3333 </r>
       <r>    -9.8299     0.0000     7.3333 </r>
       <r>    -9.7667     0.0000     7.3333 </r>
       <r>    -9.7035     0.0000     7.3333 </r>
       <r>    -9.6403    20.1454     8.6063 </r>
       <r>    -9.5772     2.1556     8.7438 </r>
       <r>    -9.5140    30.4305    10.6667 </r>
       <r>    -9.4508     0.0000    10.6667 </r>
       <r>    -9.3876     0.3526    10.6889 </r>
       <r>    -9.3244    35.1092    12.9074 </r>
       <r>    -9.2612    17.2911    14.0000 </r>
       <r>    -9.1980     0.0000    14.0000 </r>
       <r>    -9.1348     0.0000    14.0000 </r>
       <r>    -9.0716     0.0000    14.0000 </r>
       <r>    -9.0085     0.0002    14.0000 </r>
       <r>    -8.9453    21.1008    15.3333 </r>
       <r>    -8.8821     0.0000    15.3333 </r>
       <r>    -8.8189     1.0382    15.3989 </r>
       <r>    -8.7557     9.5124    16.0000 </r>
       <r>    -8.6925     0.0000    16.0000 </r>
       <r>    -8.6293     0.0000    16.0000 </r>
       <r>    -8.5661     0.0001    16.0000 </r>
       <r>    -8.5030     2.2424    16.1417 </r>
       <r>    -8.4398    17.6406    17.2564 </r>
       <r>    -8.3766    19.4244    18.4838 </r>
       <r>    -8.3134    28.6762    20.2958 </r>
       <r>    -8.2502     8.1129    20.8087 </r>
       <r>    -8.1870    24.1211    22.3328 </r>
       <r>    -8.1238    14.0120    23.2187 </r>
       <r>    -8.0606    29.2652    25.0679 </r>
       <r>    -7.9975    11.2969    25.7817 </r>
       <r>    -7.9343    35.5391    28.0273 </r>
       <r>    -7.8711    33.2982    30.1314 </r>
       <r>    -7.8079    31.2464    32.1059 </r>
       <r>    -7.7447    22.8638    33.5537 </r>
       <r>    -7.6815    14.8562    34.4960 </r>
       <r>    -7.6183    14.4406    35.4086 </r>
       <r>    -7.5551    16.1779    36.4315 </r>
       <r>    -7.4920    21.8542    37.8125 </r>
       <r>    -7.4288    26.5657    39.4911 </r>
       <r>    -7.3656    16.9136    40.5599 </r>
       <r>    -7.3024    16.3164    41.5909 </r>
       <r>    -7.2392    22.8260    43.0333 </r>
       <r>    -7.1760    30.1886    44.9408 </r>
       <r>    -7.1128    24.5689    46.4935 </r>
       <r>    -7.0496    17.1088    47.5750 </r>
       <r>    -6.9865    39.1234    50.0479 </r>
       <r>    -6.9233    21.9825    51.4388 </r>
       <r>    -6.8601    27.8670    53.1998 </r>
       <r>    -6.7969    22.1359    54.6004 </r>
       <r>    -6.7337    16.1250    55.6199 </r>
       <r>    -6.6705    33.9549    57.7655 </r>
       <r>    -6.6073    27.8293    59.5240 </r>
       <r>    -6.5441    15.6145    60.5109 </r>
       <r>    -6.4810    24.1366    62.0360 </r>
       <r>    -6.4178    24.6429    63.5946 </r>
       <r>    -6.3546    25.1656    65.1852 </r>
       <r>    -6.2914    33.1755    67.2819 </r>
       <r>    -6.2282    21.9670    68.6712 </r>
       <r>    -6.1650    31.1133    70.6374 </r>
       <r>    -6.1018    33.5184    72.7568 </r>
       <r>    -6.0386    30.5758    74.6912 </r>
       <r>    -5.9755    25.7441    76.3180 </r>
       <r>    -5.9123    31.8511    78.3320 </r>
       <r>    -5.8491    34.4026    80.5067 </r>
       <r>    -5.7859    30.6526    82.4439 </r>
       <r>    -5.7227    13.0525    83.2698 </r>
       <r>    -5.6595    30.2378    85.1804 </r>
       <r>    -5.5963    28.6626    86.9915 </r>
       <r>    -5.5331    17.8197    88.1182 </r>
       <r>    -5.4700    15.5017    89.0977 </r>
       <r>    -5.4068    27.7815    90.8532 </r>
       <r>    -5.3436    17.5803    91.9643 </r>
       <r>    -5.2804    14.4550    92.8777 </r>
       <r>    -5.2172    16.6265    93.9283 </r>
       <r>    -5.1540    27.1079    95.6413 </r>
       <r>    -5.0908    32.3857    97.6883 </r>
       <r>    -5.0276    16.9423    98.7601 </r>
       <r>    -4.9644    13.7601    99.6296 </r>
       <r>    -4.9013    19.1573   100.8402 </r>
       <r>    -4.8381    11.0248   101.5390 </r>
       <r>    -4.7749    11.1408   102.2443 </r>
       <r>    -4.7117    28.2925   104.0320 </r>
       <r>    -4.6485    26.6530   105.7168 </r>
       <r>    -4.5853    30.5345   107.6475 </r>
       <r>    -4.5221    24.6610   109.2071 </r>
       <r>    -4.4589    40.7971   111.7851 </r>
       <r>    -4.3958    26.9778   113.4900 </r>
       <r>    -4.3326    37.9675   115.8893 </r>
       <r>    -4.2694    27.8630   117.6515 </r>
       <r>    -4.2062    32.2397   119.6889 </r>
       <r>    -4.1430    16.2915   120.7209 </r>
       <r>    -4.0798    15.4251   121.6956 </r>
       <r>    -4.0166    16.7895   122.7566 </r>
       <r>    -3.9534    28.4464   124.5555 </r>
       <r>    -3.8903    14.4746   125.4706 </r>
       <r>    -3.8271    30.3104   127.3858 </r>
       <r>    -3.7639    19.9147   128.6445 </r>
       <r>    -3.7007    30.0362   130.5424 </r>
       <r>    -3.6375    15.7625   131.5384 </r>
       <r>    -3.5743    28.9328   133.3666 </r>
       <r>    -3.5111     9.3309   133.9589 </r>
       <r>    -3.4479    24.2866   135.4935 </r>
       <r>    -3.3848    24.3463   137.0319 </r>
       <r>    -3.3216    20.0451   138.2985 </r>
       <r>    -3.2584    29.0066   140.1314 </r>
       <r>    -3.1952    16.7952   141.1927 </r>
       <r>    -3.1320    20.6848   142.4997 </r>
       <r>    -3.0688    33.6705   144.6280 </r>
       <r>    -3.0056    27.9859   146.3983 </r>
       <r>    -2.9424    23.6869   147.8950 </r>
       <r>    -2.8793    29.3827   149.7520 </r>
       <r>    -2.8161    35.7308   152.0104 </r>
       <r>    -2.7529    21.2643   153.3545 </r>
       <r>    -2.6897    33.9218   155.4998 </r>
       <r>    -2.6265    33.0278   157.5884 </r>
       <r>    -2.5633    38.1608   159.9998 </r>
       <r>    -2.5001    36.8838   162.3306 </r>
       <r>    -2.4369    22.5413   163.7549 </r>
       <r>    -2.3738    32.8202   165.8298 </r>
       <r>    -2.3106    35.2341   168.0564 </r>
       <r>    -2.2474    30.3994   169.9780 </r>
       <r>    -2.1842    36.7056   172.2974 </r>
       <r>    -2.1210    29.3080   174.1494 </r>
       <r>    -2.0578    34.2889   176.3163 </r>
       <r>    -1.9946    26.4764   177.9893 </r>
       <r>    -1.9314    29.1147   179.8290 </r>
       <r>    -1.8683    20.6134   181.1323 </r>
       <r>    -1.8051    36.2012   183.4197 </r>
       <r>    -1.7419    27.8291   185.1788 </r>
       <r>    -1.6787    19.9741   186.4410 </r>
       <r>    -1.6155    30.4332   188.3640 </r>
       <r>    -1.5523    18.4240   189.5281 </r>
       <r>    -1.4891    18.4711   190.6953 </r>
       <r>    -1.4259    28.5136   192.4970 </r>
       <r>    -1.3628    12.4745   193.2860 </r>
       <r>    -1.2996    23.7222   194.7853 </r>
       <r>    -1.2364    18.0339   195.9248 </r>
       <r>    -1.1732    11.8338   196.6731 </r>
       <r>    -1.1100    19.5800   197.9103 </r>
       <r>    -1.0468    18.9814   199.1097 </r>
       <r>    -0.9836    11.8356   199.8590 </r>
       <r>    -0.9204    32.6605   201.9230 </r>
       <r>    -0.8572    14.9910   202.8717 </r>
       <r>    -0.7941    28.3830   204.6652 </r>
       <r>    -0.7309    26.4756   206.3388 </r>
       <r>    -0.6677    21.2349   207.6807 </r>
       <r>    -0.6045    36.1166   209.9632 </r>
       <r>    -0.5413    37.1681   212.3138 </r>
       <r>    -0.4781    48.2822   215.3650 </r>
       <r>    -0.4149    40.3246   217.9148 </r>
       <r>    -0.3517    35.9765   220.1882 </r>
       <r>    -0.2886    29.3065   222.0414 </r>
       <r>    -0.2254    39.0946   224.5125 </r>
       <r>    -0.1622    32.0190   226.5374 </r>
       <r>    -0.0990    30.2010   228.4460 </r>
       <r>    -0.0358    38.2900   230.8654 </r>
       <r>     0.0274    23.2490   232.3346 </r>
       <r>     0.0906    32.5376   234.3922 </r>
       <r>     0.1538    38.2730   236.8135 </r>
       <r>     0.2169    40.3625   239.3640 </r>
       <r>     0.2801    36.7397   241.6881 </r>
       <r>     0.3433    48.1447   244.7318 </r>
       <r>     0.4065    43.1941   247.4620 </r>
       <r>     0.4697    42.7922   250.1672 </r>
       <r>     0.5329    45.9798   253.0745 </r>
       <r>     0.5961    41.2979   255.6854 </r>
       <r>     0.6593    35.9561   257.9597 </r>
       <r>     0.7224    47.3965   260.9549 </r>
       <r>     0.7856    41.2458   263.5624 </r>
       <r>     0.8488    52.8403   266.9025 </r>
       <r>     0.9120    38.7434   269.3506 </r>
       <r>     0.9752    42.5680   272.0404 </r>
       <r>     1.0384    70.3540   276.4863 </r>
       <r>     1.1016    44.1382   279.2759 </r>
       <r>     1.1648    38.2236   281.6927 </r>
       <r>     1.2279    47.5541   284.6976 </r>
       <r>     1.2911    46.6882   287.6481 </r>
       <r>     1.3543    43.4769   290.3954 </r>
       <r>     1.4175    40.1859   292.9367 </r>
       <r>     1.4807    52.4817   296.2530 </r>
       <r>     1.5439    43.2706   298.9871 </r>
       <r>     1.6071    46.3087   301.9134 </r>
       <r>     1.6703    50.8618   305.1281 </r>
       <r>     1.7334    46.0464   308.0401 </r>
       <r>     1.7966    47.8663   311.0659 </r>
       <r>     1.8598    40.1534   313.6058 </r>
       <r>     1.9230    38.3665   316.0313 </r>
       <r>     1.9862    36.8883   318.3636 </r>
       <r>     2.0494    25.9477   320.0036 </r>
       <r>     2.1126    43.9102   322.7781 </r>
       <r>     2.1758    48.2212   325.8253 </r>
       <r>     2.2389    31.2663   327.8015 </r>
       <r>     2.3021    44.9907   330.6443 </r>
       <r>     2.3653    34.6681   332.8354 </r>
       <r>     2.4285    33.2800   334.9382 </r>
       <r>     2.4917    38.2020   337.3522 </r>
       <r>     2.5549    34.2443   339.5160 </r>
       <r>     2.6181    33.6097   341.6425 </r>
       <r>     2.6813    31.8332   343.6544 </r>
       <r>     2.7444    40.0058   346.1822 </r>
       <r>     2.8076    36.9718   348.5184 </r>
       <r>     2.8708    41.0840   351.1145 </r>
       <r>     2.9340    27.8527   352.8777 </r>
       <r>     2.9972    32.9121   354.9576 </r>
       <r>     3.0604    33.5971   357.0808 </r>
       <r>     3.1236    34.1373   359.2382 </r>
       <r>     3.1868    43.7324   362.0016 </r>
       <r>     3.2500    33.8630   364.1414 </r>
       <r>     3.3131    48.1787   367.1857 </r>
       <r>     3.3763    44.7085   370.0108 </r>
       <r>     3.4395    39.1809   372.4878 </r>
       <r>     3.5027    40.4618   375.0465 </r>
       <r>     3.5659    51.1120   378.2763 </r>
       <r>     3.6291    39.2366   380.7561 </r>
       <r>     3.6923    50.2077   383.9286 </r>
       <r>     3.7555    36.8713   386.2592 </r>
       <r>     3.8186    48.9463   389.3536 </r>
       <r>     3.8818    33.8654   391.4958 </r>
       <r>     3.9450    47.1385   394.4744 </r>
       <r>     4.0082    27.0054   396.1826 </r>
       <r>     4.0714    38.7057   398.6284 </r>
       <r>     4.1346    37.9114   401.0240 </r>
       <r>     4.1978    51.2656   404.2635 </r>
       <r>     4.2610    35.6074   406.5140 </r>
       <r>     4.3241    38.8459   408.9686 </r>
       <r>     4.3873    33.1661   411.0643 </r>
       <r>     4.4505    28.0710   412.8389 </r>
       <r>     4.5137    30.9493   414.7945 </r>
       <r>     4.5769    43.7337   417.5585 </r>
       <r>     4.6401    29.2090   419.4068 </r>
       <r>     4.7033    38.0571   421.8135 </r>
       <r>     4.7665    39.8281   424.3301 </r>
       <r>     4.8296    40.8668   426.9133 </r>
       <r>     4.8928    49.0539   430.0137 </r>
       <r>     4.9560    24.8503   431.5855 </r>
       <r>     5.0192    33.1427   433.6797 </r>
       <r>     5.0824    30.0476   435.5784 </r>
       <r>     5.1456    32.8050   437.6513 </r>
       <r>     5.2088    44.6714   440.4740 </r>
       <r>     5.2720    42.0908   443.1337 </r>
       <r>     5.3351    43.3978   445.8770 </r>
       <r>     5.3983    48.0557   448.9139 </r>
       <r>     5.4615    39.8273   451.4311 </r>
       <r>     5.5247    36.4864   453.7368 </r>
       <r>     5.5879    49.1750   456.8443 </r>
       <r>     5.6511    38.2514   459.2624 </r>
       <r>     5.7143    45.1105   462.1135 </r>
       <r>     5.7775    26.3254   463.7771 </r>
       <r>     5.8406     3.5249   464.0000 </r>
       <r>     5.9038     0.0000   464.0000 </r>
       <r>     5.9670     0.0000   464.0000 </r>
       <r>     6.0302     0.0000   464.0000 </r>
       <r>     6.0934     0.0000   464.0000 </r>
       <r>     6.1566     0.0000   464.0000 </r>
       <r>     6.2198     0.0000   464.0000 </r>
       <r>     6.2830     0.0000   464.0000 </r>
       <r>     6.3461     0.0000   464.0000 </r>
       <r>     6.4093     0.0000   464.0000 </r>
       <r>     6.4725     0.0000   464.0000 </r>
       <r>     6.5357     0.0000   464.0000 </r>
       <r>     6.5989     0.0000   464.0000 </r>
       <r>     6.6621     0.0000   464.0000 </r>
      </set>
     </set>
    </array>
   </total>
  </dos>
 </calculation>
 <structure name="finalpos" >
  <crystal>
   <varray name="basis" >
    <v>      12.65122604       0.00000000       0.00000000 </v>
    <v>       2.53024530      12.39562035       0.00000000 </v>
    <v>       0.00000000       0.00000000      13.73516273 </v>
   </varray>
   <i name="volume">   2153.94540375 </i>
   <varray name="rec_basis" >
    <v>       0.07904372      -0.01613473       0.00000000 </v>
    <v>       0.00000000       0.08067366       0.00000000 </v>
    <v>       0.00000000       0.00000000       0.07280584 </v>
   </varray>
  </crystal>
  <varray name="positions" >
   <v>       0.01757705       0.92711431       0.50000006 </v>
   <v>       0.99259037       0.94813251       0.00000002 </v>
   <v>       0.95092356       0.65646577       0.08408309 </v>
   <v>       0.90925682       0.36479890       0.16816616 </v>
   <v>       0.86759007       0.07313222       0.25224918 </v>
   <v>       0.89257693       0.80211419       0.50000006 </v>
   <v>       0.39257693       0.30211425       0.50000006 </v>
   <v>       0.49259037       0.44813251       0.00000003 </v>
   <v>       0.45092362       0.15646577       0.08408309 </v>
   <v>       0.40925688       0.86479896       0.16816616 </v>
   <v>       0.36759013       0.57313228       0.25224918 </v>
   <v>       0.76757705       0.17711425       0.50000006 </v>
   <v>       0.22591019       0.38544744       0.58408308 </v>
   <v>       0.36759040       0.82313263       0.00000001 </v>
   <v>       0.32592362       0.53146583       0.08408309 </v>
   <v>       0.28425688       0.23979901       0.16816619 </v>
   <v>       0.24259017       0.94813240       0.25224918 </v>
   <v>       0.20092338       0.65646565       0.33633223 </v>
   <v>       0.76757705       0.17711425       0.50000006 </v>
   <v>       0.86759049       0.32313258       0.00000001 </v>
   <v>       0.82592368       0.03146578       0.08408309 </v>
   <v>       0.78425688       0.73979890       0.16816616 </v>
   <v>       0.74259013       0.44813234       0.25224918 </v>
   <v>       0.70092338       0.15646553       0.33633217 </v>
   <v>       0.26757705       0.67711425       0.50000006 </v>
   <v>       0.24259035       0.69813263       0.00000000 </v>
   <v>       0.20092359       0.40646580       0.08408308 </v>
   <v>       0.15925685       0.11479896       0.16816616 </v>
   <v>       0.11759009       0.82313240       0.25224915 </v>
   <v>       0.14257705       0.55211419       0.50000006 </v>
   <v>       0.89257693       0.80211419       0.50000006 </v>
   <v>       0.74259043       0.19813251       0.00000002 </v>
   <v>       0.70092362       0.90646571       0.08408309 </v>
   <v>       0.65925688       0.61479890       0.16816616 </v>
   <v>       0.61759025       0.32313234       0.25224918 </v>
   <v>       0.57592344       0.03146547       0.33633217 </v>
   <v>       0.97591031       0.63544744       0.58408308 </v>
   <v>       0.11759036       0.07313251       0.00000002 </v>
   <v>       0.07592360       0.78146577       0.08408309 </v>
   <v>       0.03425685       0.48979896       0.16816616 </v>
   <v>       0.99259007       0.19813222       0.25224918 </v>
   <v>       0.95092338       0.90646553       0.33633223 </v>
   <v>       0.14257705       0.55211419       0.50000006 </v>
   <v>       0.61759049       0.57313258       0.00000001 </v>
   <v>       0.57592362       0.28146583       0.08408308 </v>
   <v>       0.53425694       0.98979902       0.16816619 </v>
   <v>       0.49259019       0.69813228       0.25224924 </v>
   <v>       0.45092344       0.40646553       0.33633226 </v>
   <v>       0.93424308       0.09378040       0.92041534 </v>
   <v>       0.28425661       0.98979878       0.42041531 </v>
   <v>       0.10091007       0.26044738       0.58408308 </v>
   <v>       0.80924344       0.21878064       0.66816616 </v>
   <v>       0.51757669       0.17711389       0.75224924 </v>
   <v>       0.22590995       0.13544715       0.83633232 </v>
   <v>       0.43424308       0.59378040       0.92041534 </v>
   <v>       0.82592332       0.78146553       0.33633217 </v>
   <v>       0.60091019       0.76044738       0.58408308 </v>
   <v>       0.30924344       0.71878076       0.66816616 </v>
   <v>       0.01757669       0.67711395       0.75224924 </v>
   <v>       0.72590995       0.63544720       0.83633232 </v>
   <v>       0.80924320       0.46878046       0.92041534 </v>
   <v>       0.03425656       0.23979878       0.42041528 </v>
   <v>       0.90925658       0.61479878       0.42041531 </v>
   <v>       0.68424350       0.59378076       0.66816616 </v>
   <v>       0.39257681       0.55211401       0.75224924 </v>
   <v>       0.10091007       0.51044720       0.83633232 </v>
   <v>       0.30924308       0.96878046       0.92041528 </v>
   <v>       0.65925658       0.86479867       0.42041528 </v>
   <v>       0.47591022       0.13544750       0.58408308 </v>
   <v>       0.18424344       0.09378076       0.66816616 </v>
   <v>       0.89257681       0.05211401       0.75224924 </v>
   <v>       0.60090995       0.01044726       0.83633232 </v>
   <v>       0.68424320       0.34378040       0.92041534 </v>
   <v>       0.07592334       0.53146553       0.33633217 </v>
   <v>       0.85091025       0.51044738       0.58408308 </v>
   <v>       0.55924350       0.46878067       0.66816616 </v>
   <v>       0.26757681       0.42711392       0.75224918 </v>
   <v>       0.97590995       0.38544717       0.83633226 </v>
   <v>       0.18424308       0.84378052       0.92041534 </v>
   <v>       0.90925658       0.61479878       0.42041531 </v>
   <v>       0.35091019       0.01044750       0.58408308 </v>
   <v>       0.05924344       0.96878070       0.66816616 </v>
   <v>       0.76757669       0.92711407       0.75224924 </v>
   <v>       0.47590992       0.88544726       0.83633232 </v>
   <v>       0.05924308       0.21878040       0.92041534 </v>
   <v>       0.15925664       0.36479878       0.42041531 </v>
   <v>       0.15925664       0.36479878       0.42041531 </v>
   <v>       0.93424344       0.34378070       0.66816616 </v>
   <v>       0.64257669       0.30211401       0.75224918 </v>
   <v>       0.35090995       0.26044726       0.83633232 </v>
   <v>       0.55924320       0.71878052       0.92041534 </v>
   <v>       0.78425658       0.48979867       0.42041528 </v>
   <v>       0.28425661       0.98979878       0.42041531 </v>
   <v>       0.43424356       0.84378076       0.66816616 </v>
   <v>       0.14257669       0.80211401       0.75224924 </v>
   <v>       0.85090995       0.76044726       0.83633232 </v>
  </varray>
 </structure>
</modeling>
