  96  96   0   0
  0.2276159E+02  0.1265123E-08  0.1265123E-08  0.1393391E-08  0.5000000E-15
  1.000000000000000E-004
  CAR 
 Si and Ge interface calculation         
      6.46841299    -10.96724793  301      3.59907231      1.00000000
    -10.967  0.0000E+00  0.0000E+00  0.0000E+00  0.0000E+00
    -10.909  0.0000E+00  0.0000E+00  0.0000E+00  0.0000E+00
    -10.851  0.0000E+00  0.0000E+00  0.0000E+00  0.0000E+00
    -10.793  0.0000E+00  0.0000E+00  0.0000E+00  0.0000E+00
    -10.735  0.0000E+00  0.0000E+00  0.0000E+00  0.0000E+00
    -10.677  0.0000E+00  0.0000E+00  0.0000E+00  0.0000E+00
    -10.619  0.0000E+00  0.0000E+00  0.0000E+00  0.0000E+00
    -10.560  0.0000E+00  0.0000E+00  0.0000E+00  0.0000E+00
    -10.502  0.0000E+00  0.0000E+00  0.0000E+00  0.0000E+00
    -10.444  0.0000E+00  0.0000E+00  0.0000E+00  0.0000E+00
    -10.386  0.0000E+00  0.0000E+00  0.0000E+00  0.0000E+00
    -10.328  0.0000E+00  0.0000E+00  0.0000E+00  0.0000E+00
    -10.270  0.0000E+00  0.0000E+00  0.0000E+00  0.0000E+00
    -10.212  0.1617E-06  0.1732E-10  0.9395E-08  0.1007E-11
    -10.154  0.4459E+01  0.1880E+01  0.2591E+00  0.1093E+00
    -10.095  0.3682E+02  0.3611E+02  0.2399E+01  0.2208E+01
    -10.037  0.2357E+02  0.1905E+02  0.3769E+01  0.3315E+01
     -9.979  0.3978E+01  0.1178E+02  0.4000E+01  0.4000E+01
     -9.921  0.2421E-07  0.6201E-11  0.4000E+01  0.4000E+01
     -9.863  0.1990E+02  0.1171E+02  0.5157E+01  0.4681E+01
     -9.805  0.3042E+01  0.1123E+02  0.5333E+01  0.5333E+01
     -9.747  0.0000E+00  0.0000E+00  0.5333E+01  0.5333E+01
     -9.689  0.0000E+00  0.0000E+00  0.5333E+01  0.5333E+01
     -9.631  0.2729E-07  0.1226E-10  0.5333E+01  0.5333E+01
     -9.572  0.1950E+02  0.1310E+02  0.6467E+01  0.6095E+01
     -9.514  0.3439E+01  0.9844E+01  0.6667E+01  0.6667E+01
     -9.456  0.0000E+00  0.0000E+00  0.6667E+01  0.6667E+01
     -9.398  0.3866E+01  0.3420E+00  0.6891E+01  0.6687E+01
     -9.340  0.1908E+02  0.2260E+02  0.8000E+01  0.8000E+01
     -9.282  0.2319E+01  0.2193E+00  0.8135E+01  0.8013E+01
     -9.224  0.2076E+02  0.2148E+02  0.9342E+01  0.9261E+01
     -9.166  0.2279E+02  0.2386E+02  0.1067E+02  0.1065E+02
     -9.107  0.2178E+01  0.4897E+00  0.1079E+02  0.1068E+02
     -9.049  0.2077E+02  0.2276E+02  0.1200E+02  0.1200E+02
     -8.991  0.0000E+00  0.1121E-01  0.1200E+02  0.1200E+02
     -8.933  0.0000E+00  0.0000E+00  0.1200E+02  0.1200E+02
     -8.875  0.0000E+00  0.0000E+00  0.1200E+02  0.1200E+02
     -8.817  0.4245E-15  0.0000E+00  0.1200E+02  0.1200E+02
     -8.759  0.5130E+01  0.6277E+00  0.1230E+02  0.1204E+02
     -8.701  0.2748E+02  0.3177E+02  0.1390E+02  0.1388E+02
     -8.642  0.1309E+02  0.1188E+02  0.1466E+02  0.1457E+02
     -8.584  0.8953E+01  0.9336E+01  0.1518E+02  0.1512E+02
     -8.526  0.1092E+02  0.9094E+01  0.1581E+02  0.1564E+02
     -8.468  0.2427E+02  0.2637E+02  0.1722E+02  0.1718E+02
     -8.410  0.2335E+02  0.2025E+02  0.1858E+02  0.1835E+02
     -8.352  0.1282E+02  0.1504E+02  0.1932E+02  0.1923E+02
     -8.294  0.1495E+02  0.1382E+02  0.2019E+02  0.2003E+02
     -8.236  0.4136E+02  0.3784E+02  0.2260E+02  0.2223E+02
     -8.178  0.2407E+02  0.2535E+02  0.2400E+02  0.2370E+02
     -8.119  0.1800E+02  0.1742E+02  0.2504E+02  0.2472E+02
     -8.061  0.1790E+02  0.2181E+02  0.2608E+02  0.2598E+02
     -8.003  0.1444E+02  0.1373E+02  0.2692E+02  0.2678E+02
     -7.945  0.1610E+02  0.1599E+02  0.2786E+02  0.2771E+02
     -7.887  0.1643E+02  0.1558E+02  0.2881E+02  0.2862E+02
     -7.829  0.2888E+02  0.2861E+02  0.3049E+02  0.3028E+02
     -7.771  0.1810E+02  0.2045E+02  0.3154E+02  0.3147E+02
     -7.713  0.2018E+02  0.1617E+02  0.3272E+02  0.3241E+02
     -7.654  0.1912E+02  0.2322E+02  0.3383E+02  0.3376E+02
     -7.596  0.2368E+02  0.2243E+02  0.3520E+02  0.3506E+02
     -7.538  0.1784E+02  0.1769E+02  0.3624E+02  0.3609E+02
     -7.480  0.2978E+02  0.2542E+02  0.3797E+02  0.3757E+02
     -7.422  0.3450E+02  0.3412E+02  0.3998E+02  0.3955E+02
     -7.364  0.2705E+02  0.3143E+02  0.4155E+02  0.4138E+02
     -7.306  0.2514E+02  0.2436E+02  0.4301E+02  0.4279E+02
     -7.248  0.2204E+02  0.2070E+02  0.4429E+02  0.4400E+02
     -7.190  0.2850E+02  0.3084E+02  0.4595E+02  0.4579E+02
     -7.131  0.2967E+02  0.2774E+02  0.4767E+02  0.4740E+02
     -7.073  0.2050E+02  0.2094E+02  0.4886E+02  0.4862E+02
     -7.015  0.2181E+02  0.2070E+02  0.5013E+02  0.4982E+02
     -6.957  0.2406E+02  0.2792E+02  0.5153E+02  0.5144E+02
     -6.899  0.2526E+02  0.2134E+02  0.5300E+02  0.5268E+02
     -6.841  0.2896E+02  0.3027E+02  0.5468E+02  0.5444E+02
     -6.783  0.3633E+02  0.3270E+02  0.5679E+02  0.5634E+02
     -6.725  0.2099E+02  0.2420E+02  0.5801E+02  0.5775E+02
     -6.666  0.4042E+02  0.3983E+02  0.6036E+02  0.6006E+02
     -6.608  0.1483E+02  0.1444E+02  0.6122E+02  0.6090E+02
     -6.550  0.2219E+02  0.2661E+02  0.6251E+02  0.6245E+02
     -6.492  0.3731E+02  0.3304E+02  0.6468E+02  0.6437E+02
     -6.434  0.3210E+02  0.3269E+02  0.6655E+02  0.6627E+02
     -6.376  0.2457E+02  0.2733E+02  0.6798E+02  0.6786E+02
     -6.318  0.3088E+02  0.2686E+02  0.6977E+02  0.6942E+02
     -6.260  0.3353E+02  0.3599E+02  0.7172E+02  0.7151E+02
     -6.202  0.1761E+02  0.1854E+02  0.7274E+02  0.7259E+02
     -6.143  0.3072E+02  0.2879E+02  0.7453E+02  0.7426E+02
     -6.085  0.2802E+02  0.2735E+02  0.7616E+02  0.7585E+02
     -6.027  0.2680E+02  0.2716E+02  0.7771E+02  0.7743E+02
     -5.969  0.2210E+02  0.2425E+02  0.7900E+02  0.7884E+02
     -5.911  0.3167E+02  0.2839E+02  0.8084E+02  0.8049E+02
     -5.853  0.1499E+02  0.2024E+02  0.8171E+02  0.8167E+02
     -5.795  0.2285E+02  0.1809E+02  0.8304E+02  0.8272E+02
     -5.737  0.1877E+02  0.2235E+02  0.8413E+02  0.8402E+02
     -5.678  0.1069E+02  0.1111E+02  0.8475E+02  0.8466E+02
     -5.620  0.3681E+02  0.3072E+02  0.8689E+02  0.8645E+02
     -5.562  0.2163E+02  0.2564E+02  0.8815E+02  0.8794E+02
     -5.504  0.2623E+02  0.1914E+02  0.8967E+02  0.8905E+02
     -5.446  0.4133E+02  0.4706E+02  0.9207E+02  0.9179E+02
     -5.388  0.1872E+02  0.2078E+02  0.9316E+02  0.9300E+02
     -5.330  0.2315E+02  0.2305E+02  0.9451E+02  0.9434E+02
     -5.272  0.3849E+02  0.3923E+02  0.9674E+02  0.9662E+02
     -5.213  0.2836E+02  0.2353E+02  0.9839E+02  0.9798E+02
     -5.155  0.1928E+02  0.2324E+02  0.9951E+02  0.9933E+02
     -5.097  0.2372E+02  0.2516E+02  0.1009E+03  0.1008E+03
     -5.039  0.2721E+02  0.2395E+02  0.1025E+03  0.1022E+03
     -4.981  0.3454E+02  0.3551E+02  0.1045E+03  0.1043E+03
     -4.923  0.1466E+02  0.1616E+02  0.1053E+03  0.1052E+03
     -4.865  0.2509E+02  0.2203E+02  0.1068E+03  0.1065E+03
     -4.807  0.3225E+02  0.3333E+02  0.1087E+03  0.1084E+03
     -4.749  0.2725E+02  0.2706E+02  0.1102E+03  0.1100E+03
     -4.690  0.2442E+02  0.2454E+02  0.1117E+03  0.1114E+03
     -4.632  0.1822E+02  0.1898E+02  0.1127E+03  0.1125E+03
     -4.574  0.2947E+02  0.3082E+02  0.1144E+03  0.1143E+03
     -4.516  0.1990E+02  0.1637E+02  0.1156E+03  0.1153E+03
     -4.458  0.2617E+02  0.2884E+02  0.1171E+03  0.1169E+03
     -4.400  0.2728E+02  0.2719E+02  0.1187E+03  0.1185E+03
     -4.342  0.2224E+02  0.2294E+02  0.1200E+03  0.1198E+03
     -4.284  0.1727E+02  0.1958E+02  0.1210E+03  0.1210E+03
     -4.225  0.8738E+01  0.6246E+01  0.1215E+03  0.1213E+03
     -4.167  0.2594E+02  0.2693E+02  0.1230E+03  0.1229E+03
     -4.109  0.2362E+02  0.2261E+02  0.1244E+03  0.1242E+03
     -4.051  0.1777E+02  0.1878E+02  0.1254E+03  0.1253E+03
     -3.993  0.2691E+02  0.2281E+02  0.1270E+03  0.1266E+03
     -3.935  0.2140E+02  0.2207E+02  0.1282E+03  0.1279E+03
     -3.877  0.2271E+02  0.2482E+02  0.1295E+03  0.1294E+03
     -3.819  0.1512E+02  0.1625E+02  0.1304E+03  0.1303E+03
     -3.761  0.3046E+02  0.2717E+02  0.1322E+03  0.1319E+03
     -3.702  0.1752E+02  0.2115E+02  0.1332E+03  0.1331E+03
     -3.644  0.2002E+02  0.1563E+02  0.1344E+03  0.1340E+03
     -3.586  0.2262E+02  0.2596E+02  0.1357E+03  0.1355E+03
     -3.528  0.2369E+02  0.2144E+02  0.1371E+03  0.1368E+03
     -3.470  0.2767E+02  0.2764E+02  0.1387E+03  0.1384E+03
     -3.412  0.2289E+02  0.2369E+02  0.1400E+03  0.1398E+03
     -3.354  0.2243E+02  0.2423E+02  0.1413E+03  0.1412E+03
     -3.296  0.2294E+02  0.2055E+02  0.1426E+03  0.1424E+03
     -3.237  0.3064E+02  0.2750E+02  0.1444E+03  0.1440E+03
     -3.179  0.2188E+02  0.2556E+02  0.1457E+03  0.1455E+03
     -3.121  0.2938E+02  0.2899E+02  0.1474E+03  0.1471E+03
     -3.063  0.2346E+02  0.2429E+02  0.1488E+03  0.1485E+03
     -3.005  0.3717E+02  0.3280E+02  0.1509E+03  0.1505E+03
     -2.947  0.2773E+02  0.3051E+02  0.1525E+03  0.1522E+03
     -2.889  0.3524E+02  0.3762E+02  0.1546E+03  0.1544E+03
     -2.831  0.3840E+02  0.3555E+02  0.1568E+03  0.1565E+03
     -2.772  0.2946E+02  0.2916E+02  0.1585E+03  0.1582E+03
     -2.714  0.3625E+02  0.3622E+02  0.1606E+03  0.1603E+03
     -2.656  0.3637E+02  0.3709E+02  0.1628E+03  0.1624E+03
     -2.598  0.2145E+02  0.2219E+02  0.1640E+03  0.1637E+03
     -2.540  0.2967E+02  0.2889E+02  0.1657E+03  0.1654E+03
     -2.482  0.3176E+02  0.3100E+02  0.1676E+03  0.1672E+03
     -2.424  0.1723E+02  0.1987E+02  0.1686E+03  0.1684E+03
     -2.366  0.1895E+02  0.1843E+02  0.1697E+03  0.1694E+03
     -2.308  0.2789E+02  0.2825E+02  0.1713E+03  0.1711E+03
     -2.249  0.2982E+02  0.2915E+02  0.1730E+03  0.1728E+03
     -2.191  0.2234E+02  0.2391E+02  0.1743E+03  0.1742E+03
     -2.133  0.1676E+02  0.1615E+02  0.1753E+03  0.1751E+03
     -2.075  0.2129E+02  0.2069E+02  0.1765E+03  0.1763E+03
     -2.017  0.2408E+02  0.2638E+02  0.1779E+03  0.1778E+03
     -1.959  0.9026E+01  0.9124E+01  0.1785E+03  0.1784E+03
     -1.901  0.7764E+01  0.7614E+01  0.1789E+03  0.1788E+03
     -1.843  0.2049E+02  0.2074E+02  0.1801E+03  0.1800E+03
     -1.784  0.9536E+01  0.9278E+01  0.1807E+03  0.1805E+03
     -1.726  0.1063E+02  0.9289E+01  0.1813E+03  0.1811E+03
     -1.668  0.1418E+02  0.1597E+02  0.1821E+03  0.1820E+03
     -1.610  0.2450E+02  0.2111E+02  0.1835E+03  0.1832E+03
     -1.552  0.3118E+02  0.3237E+02  0.1853E+03  0.1851E+03
     -1.494  0.1861E+02  0.1622E+02  0.1864E+03  0.1861E+03
     -1.436  0.2919E+02  0.2962E+02  0.1881E+03  0.1878E+03
     -1.378  0.1118E+02  0.1541E+02  0.1888E+03  0.1887E+03
     -1.320  0.1735E+02  0.1767E+02  0.1898E+03  0.1897E+03
     -1.261  0.1537E+02  0.1642E+02  0.1907E+03  0.1907E+03
     -1.203  0.1058E+02  0.6979E+01  0.1913E+03  0.1911E+03
     -1.145  0.1621E+02  0.1826E+02  0.1922E+03  0.1921E+03
     -1.087  0.2198E+02  0.2173E+02  0.1935E+03  0.1934E+03
     -1.029  0.1445E+01  0.2762E+01  0.1936E+03  0.1936E+03
     -0.971  0.1500E+02  0.1476E+02  0.1945E+03  0.1944E+03
     -0.913  0.2386E+02  0.2068E+02  0.1958E+03  0.1956E+03
     -0.855  0.3122E+02  0.3066E+02  0.1977E+03  0.1974E+03
     -0.796  0.3666E+02  0.3413E+02  0.1998E+03  0.1994E+03
     -0.738  0.4100E+02  0.4303E+02  0.2022E+03  0.2019E+03
     -0.680  0.5325E+02  0.4867E+02  0.2053E+03  0.2047E+03
     -0.622  0.5469E+02  0.5493E+02  0.2084E+03  0.2079E+03
     -0.564  0.4221E+02  0.4395E+02  0.2109E+03  0.2105E+03
     -0.506  0.4107E+02  0.4377E+02  0.2133E+03  0.2130E+03
     -0.448  0.3913E+02  0.3644E+02  0.2156E+03  0.2151E+03
     -0.390  0.4656E+02  0.4892E+02  0.2183E+03  0.2180E+03
     -0.331  0.4675E+02  0.4475E+02  0.2210E+03  0.2206E+03
     -0.273  0.4820E+02  0.4924E+02  0.2238E+03  0.2234E+03
     -0.215  0.4134E+02  0.4110E+02  0.2262E+03  0.2258E+03
     -0.157  0.3320E+02  0.3510E+02  0.2281E+03  0.2279E+03
     -0.099  0.4811E+02  0.4803E+02  0.2309E+03  0.2306E+03
     -0.041  0.4236E+02  0.3954E+02  0.2334E+03  0.2329E+03
      0.017  0.4926E+02  0.5110E+02  0.2362E+03  0.2359E+03
      0.075  0.3732E+02  0.3482E+02  0.2384E+03  0.2379E+03
      0.133  0.4312E+02  0.4229E+02  0.2409E+03  0.2404E+03
      0.192  0.5542E+02  0.6013E+02  0.2441E+03  0.2439E+03
      0.250  0.3606E+02  0.3764E+02  0.2462E+03  0.2461E+03
      0.308  0.3659E+02  0.3433E+02  0.2484E+03  0.2481E+03
      0.366  0.4621E+02  0.3951E+02  0.2510E+03  0.2504E+03
      0.424  0.3908E+02  0.4616E+02  0.2533E+03  0.2531E+03
      0.482  0.4428E+02  0.4179E+02  0.2559E+03  0.2555E+03
      0.540  0.4251E+02  0.4356E+02  0.2584E+03  0.2580E+03
      0.598  0.4908E+02  0.5094E+02  0.2612E+03  0.2610E+03
      0.657  0.5024E+02  0.4761E+02  0.2641E+03  0.2637E+03
      0.715  0.6463E+02  0.6053E+02  0.2679E+03  0.2673E+03
      0.773  0.4199E+02  0.4579E+02  0.2703E+03  0.2699E+03
      0.831  0.5489E+02  0.5312E+02  0.2735E+03  0.2730E+03
      0.889  0.5037E+02  0.5182E+02  0.2764E+03  0.2760E+03
      0.947  0.3995E+02  0.4183E+02  0.2788E+03  0.2784E+03
      1.005  0.5874E+02  0.5725E+02  0.2822E+03  0.2818E+03
      1.063  0.3878E+02  0.3601E+02  0.2844E+03  0.2839E+03
      1.121  0.6681E+02  0.6932E+02  0.2883E+03  0.2879E+03
      1.180  0.4187E+02  0.4278E+02  0.2908E+03  0.2904E+03
      1.238  0.5138E+02  0.5264E+02  0.2937E+03  0.2934E+03
      1.296  0.2934E+02  0.3155E+02  0.2954E+03  0.2953E+03
      1.354  0.3643E+02  0.3188E+02  0.2976E+03  0.2971E+03
      1.412  0.4690E+02  0.4576E+02  0.3003E+03  0.2998E+03
      1.470  0.5035E+02  0.5336E+02  0.3032E+03  0.3029E+03
      1.528  0.3378E+02  0.3495E+02  0.3052E+03  0.3049E+03
      1.586  0.4249E+02  0.4094E+02  0.3076E+03  0.3073E+03
      1.645  0.4209E+02  0.4065E+02  0.3101E+03  0.3097E+03
      1.703  0.5152E+02  0.5417E+02  0.3131E+03  0.3128E+03
      1.761  0.3413E+02  0.3399E+02  0.3151E+03  0.3148E+03
      1.819  0.4068E+02  0.3928E+02  0.3174E+03  0.3171E+03
      1.877  0.4585E+02  0.4272E+02  0.3201E+03  0.3196E+03
      1.935  0.4175E+02  0.4593E+02  0.3225E+03  0.3222E+03
      1.993  0.2970E+02  0.3245E+02  0.3243E+03  0.3241E+03
      2.051  0.3130E+02  0.2874E+02  0.3261E+03  0.3258E+03
      2.109  0.4457E+02  0.4127E+02  0.3287E+03  0.3282E+03
      2.168  0.5314E+02  0.5132E+02  0.3318E+03  0.3312E+03
      2.226  0.4268E+02  0.4443E+02  0.3342E+03  0.3337E+03
      2.284  0.3926E+02  0.4395E+02  0.3365E+03  0.3363E+03
      2.342  0.4484E+02  0.3848E+02  0.3391E+03  0.3385E+03
      2.400  0.4085E+02  0.4348E+02  0.3415E+03  0.3411E+03
      2.458  0.2587E+02  0.2631E+02  0.3430E+03  0.3426E+03
      2.516  0.4432E+02  0.4499E+02  0.3456E+03  0.3452E+03
      2.574  0.3008E+02  0.3053E+02  0.3473E+03  0.3470E+03
      2.633  0.3648E+02  0.3412E+02  0.3494E+03  0.3490E+03
      2.691  0.2788E+02  0.3036E+02  0.3511E+03  0.3507E+03
      2.749  0.4032E+02  0.3958E+02  0.3534E+03  0.3530E+03
      2.807  0.3262E+02  0.3342E+02  0.3553E+03  0.3550E+03
      2.865  0.2395E+02  0.2682E+02  0.3567E+03  0.3565E+03
      2.923  0.5227E+02  0.4186E+02  0.3597E+03  0.3590E+03
      2.981  0.2460E+02  0.2771E+02  0.3612E+03  0.3606E+03
      3.039  0.3505E+02  0.3860E+02  0.3632E+03  0.3628E+03
      3.098  0.2807E+02  0.2700E+02  0.3648E+03  0.3644E+03
      3.156  0.4693E+02  0.4766E+02  0.3676E+03  0.3672E+03
      3.214  0.2574E+02  0.2889E+02  0.3691E+03  0.3688E+03
      3.272  0.2993E+02  0.2337E+02  0.3708E+03  0.3702E+03
      3.330  0.2557E+02  0.3248E+02  0.3723E+03  0.3721E+03
      3.388  0.3908E+02  0.3629E+02  0.3746E+03  0.3742E+03
      3.446  0.4684E+02  0.3687E+02  0.3773E+03  0.3763E+03
      3.504  0.4060E+02  0.4404E+02  0.3796E+03  0.3789E+03
      3.562  0.4032E+02  0.4378E+02  0.3820E+03  0.3814E+03
      3.621  0.2995E+02  0.3619E+02  0.3837E+03  0.3835E+03
      3.679  0.4085E+02  0.3720E+02  0.3861E+03  0.3857E+03
      3.737  0.3612E+02  0.3062E+02  0.3882E+03  0.3875E+03
      3.795  0.3901E+02  0.3953E+02  0.3905E+03  0.3898E+03
      3.853  0.4109E+02  0.4053E+02  0.3928E+03  0.3921E+03
      3.911  0.2584E+02  0.3378E+02  0.3944E+03  0.3941E+03
      3.969  0.4779E+02  0.3954E+02  0.3971E+03  0.3964E+03
      4.027  0.3033E+02  0.3780E+02  0.3989E+03  0.3986E+03
      4.086  0.3923E+02  0.4117E+02  0.4012E+03  0.4010E+03
      4.144  0.2947E+02  0.2804E+02  0.4029E+03  0.4026E+03
      4.202  0.3264E+02  0.3067E+02  0.4048E+03  0.4044E+03
      4.260  0.5056E+02  0.5042E+02  0.4077E+03  0.4073E+03
      4.318  0.3742E+02  0.3245E+02  0.4099E+03  0.4092E+03
      4.376  0.4981E+02  0.4815E+02  0.4128E+03  0.4120E+03
      4.434  0.3117E+02  0.3713E+02  0.4146E+03  0.4142E+03
      4.492  0.2978E+02  0.2768E+02  0.4163E+03  0.4158E+03
      4.550  0.3505E+02  0.3793E+02  0.4184E+03  0.4180E+03
      4.609  0.4578E+02  0.4675E+02  0.4210E+03  0.4207E+03
      4.667  0.3093E+02  0.3190E+02  0.4228E+03  0.4226E+03
      4.725  0.5872E+02  0.4525E+02  0.4262E+03  0.4252E+03
      4.783  0.3668E+02  0.4237E+02  0.4284E+03  0.4277E+03
      4.841  0.3225E+02  0.3738E+02  0.4302E+03  0.4298E+03
      4.899  0.3479E+02  0.3531E+02  0.4323E+03  0.4319E+03
      4.957  0.4360E+02  0.4119E+02  0.4348E+03  0.4343E+03
      5.015  0.4504E+02  0.5068E+02  0.4374E+03  0.4372E+03
      5.074  0.4768E+02  0.3644E+02  0.4402E+03  0.4393E+03
      5.132  0.3863E+02  0.4715E+02  0.4424E+03  0.4421E+03
      5.190  0.3831E+02  0.4263E+02  0.4447E+03  0.4446E+03
      5.248  0.5486E+02  0.5130E+02  0.4479E+03  0.4475E+03
      5.306  0.4573E+02  0.4593E+02  0.4505E+03  0.4502E+03
      5.364  0.4488E+02  0.3865E+02  0.4531E+03  0.4525E+03
      5.422  0.3671E+02  0.4239E+02  0.4553E+03  0.4549E+03
      5.480  0.5542E+02  0.5069E+02  0.4585E+03  0.4579E+03
      5.539  0.4001E+02  0.4396E+02  0.4608E+03  0.4604E+03
      5.597  0.3293E+02  0.3201E+02  0.4627E+03  0.4623E+03
      5.655  0.1560E+02  0.1837E+02  0.4636E+03  0.4633E+03
      5.713  0.6584E+01  0.1129E+02  0.4640E+03  0.4640E+03
      5.771  0.0000E+00  0.0000E+00  0.4640E+03  0.4640E+03
      5.829  0.0000E+00  0.0000E+00  0.4640E+03  0.4640E+03
      5.887  0.0000E+00  0.0000E+00  0.4640E+03  0.4640E+03
      5.945  0.0000E+00  0.0000E+00  0.4640E+03  0.4640E+03
      6.003  0.0000E+00  0.0000E+00  0.4640E+03  0.4640E+03
      6.062  0.0000E+00  0.0000E+00  0.4640E+03  0.4640E+03
      6.120  0.0000E+00  0.0000E+00  0.4640E+03  0.4640E+03
      6.178  0.0000E+00  0.0000E+00  0.4640E+03  0.4640E+03
      6.236  0.0000E+00  0.0000E+00  0.4640E+03  0.4640E+03
      6.294  0.0000E+00  0.0000E+00  0.4640E+03  0.4640E+03
      6.352  0.0000E+00  0.0000E+00  0.4640E+03  0.4640E+03
      6.410  0.0000E+00  0.0000E+00  0.4640E+03  0.4640E+03
      6.468  0.0000E+00  0.0000E+00  0.4640E+03  0.4640E+03
