Si and Ge interface calculation         
           1
    13.303180    0.000000    0.000000
     6.651589   14.873406    0.000000
     0.000000    0.000000    8.390059
   Si   C 
    36    84
Direct configuration=     1
   0.98290563  0.65811950  0.00000000
   0.78290558  0.55811930  0.14474380
   0.58290541  0.45811909  0.28948760
   0.98290563  0.32478613  0.00000000
   0.78290558  0.22478597  0.14474380
   0.58290541  0.12478580  0.28948760
   0.98290563  0.99145281  0.00000000
   0.78290558  0.89145267  0.14474380
   0.58290541  0.79145253  0.28948760
   0.63290566  0.69145268  0.07237174
   0.43290559  0.59145248  0.21711555
   0.23290552  0.49145243  0.36185935
   0.63290566  0.35811943  0.07237174
   0.43290559  0.25811928  0.21711555
   0.23290552  0.15811914  0.36185935
   0.63290566  0.02478614  0.07237174
   0.43290559  0.92478597  0.21711555
   0.23290552  0.82478583  0.36185935
   0.48290563  0.65811950  0.00000000
   0.28290555  0.55811930  0.14474380
   0.08290544  0.45811909  0.28948760
   0.48290563  0.32478613  0.00000000
   0.28290555  0.22478595  0.14474380
   0.08290544  0.12478581  0.28948760
   0.48290563  0.99145281  0.00000000
   0.28290555  0.89145267  0.14474380
   0.08290544  0.79145253  0.28948760
   0.13290568  0.69145274  0.07237176
   0.93290555  0.59145248  0.21711555
   0.73290551  0.49145240  0.36185935
   0.13290568  0.35811949  0.07237176
   0.93290555  0.25811928  0.21711555
   0.73290551  0.15811913  0.36185935
   0.13290568  0.02478614  0.07237176
   0.93290555  0.92478597  0.21711555
   0.73290551  0.82478583  0.36185935
   0.42889881  0.04625267  0.56210440
   0.40032721  0.31768128  0.65716469
   0.37175560  0.58910990  0.75222492
   0.57175595  0.18910982  0.56210440
   0.54318440  0.46053842  0.65716469
   0.51461285  0.73196709  0.75222492
   0.71461308  0.33196697  0.56210440
   0.68604147  0.60339558  0.65716469
   0.65746999  0.87482429  0.75222492
   0.85747021  0.47482410  0.56210440
   0.82889867  0.74625278  0.65716469
   0.80032712  0.01768148  0.75222492
   0.00032735  0.61768127  0.56210440
   0.97175574  0.88910985  0.65716469
   0.94318420  0.16053851  0.75222492
   0.14318442  0.76053834  0.56210440
   0.11461294  0.03196699  0.65716469
   0.08604145  0.30339557  0.75222492
   0.28604174  0.90339559  0.56210440
   0.25747013  0.17482419  0.65716469
   0.22889852  0.44625276  0.75222492
   0.52175599  0.78910965  0.60963446
   0.49318442  0.06053824  0.70469469
   0.46461293  0.33196694  0.79975492
   0.66461307  0.93196690  0.60963446
   0.63604152  0.20339556  0.70469469
   0.60746998  0.47482425  0.79975492
   0.80747020  0.07482405  0.60963446
   0.77889866  0.34625274  0.70469469
   0.75032705  0.61768132  0.79975486
   0.95032734  0.21768111  0.60963446
   0.92175579  0.48910976  0.70469469
   0.89318419  0.76053828  0.79975486
   0.09318447  0.36053839  0.60963446
   0.06461287  0.63196701  0.70469469
   0.03604138  0.90339565  0.79975486
   0.23604155  0.50339550  0.60963446
   0.20747006  0.77482414  0.70469469
   0.17889857  0.04625280  0.79975492
   0.37889886  0.64625263  0.60963446
   0.35032725  0.91768128  0.70469469
   0.32175565  0.18910976  0.79975486
   0.50032735  0.61768120  0.56210440
   0.47175580  0.88910985  0.65716469
   0.44318423  0.16053851  0.75222492
   0.64318448  0.76053834  0.56210440
   0.61461294  0.03196699  0.65716469
   0.58604145  0.30339569  0.75222492
   0.78604168  0.90339547  0.56210440
   0.75747013  0.17482419  0.65716469
   0.72889852  0.44625276  0.75222486
   0.92889881  0.04625267  0.56210440
   0.90032721  0.31768128  0.65716469
   0.87175572  0.58910990  0.75222492
   0.07175589  0.18910976  0.56210440
   0.04318440  0.46053839  0.65716469
   0.01461291  0.73196703  0.75222492
   0.21461320  0.33196697  0.56210440
   0.18604159  0.60339558  0.65716469
   0.15746999  0.87482423  0.75222492
   0.35747027  0.47482407  0.56210440
   0.32889867  0.74625272  0.65716469
   0.30032706  0.01768136  0.75222492
   0.45032737  0.21768114  0.60963446
   0.42175579  0.48910976  0.70469469
   0.39318419  0.76053840  0.79975486
   0.59318453  0.36053819  0.60963446
   0.56461298  0.63196683  0.70469469
   0.53604144  0.90339541  0.79975486
   0.73604167  0.50339550  0.60963446
   0.70747006  0.77482408  0.70469469
   0.67889851  0.04625268  0.79975492
   0.87889880  0.64625257  0.60963446
   0.85032725  0.91768116  0.70469469
   0.82175571  0.18910976  0.79975492
   0.02175593  0.78910959  0.60963446
   0.99318439  0.06053824  0.70469469
   0.96461284  0.33196694  0.79975492
   0.16461301  0.93196684  0.60963446
   0.13604140  0.20339556  0.70469469
   0.10746992  0.47482401  0.79975492
   0.30747020  0.07482393  0.60963446
   0.27889860  0.34625250  0.70469469
   0.25032699  0.61768109  0.79975486
