  120  120    1    2
  0.8293659E+01  0.1330318E-08  0.1629300E-08  0.5029925E-09  0.5000000E-15
  1.000000000000000E-004
  CAR 
 Si and Ge interface calculation         
    480     20    288
 
  0.0000000E+00  0.0000000E+00  0.0000000E+00  0.2777778E-01
      1        -11.929415      -11.922519   1.000000   1.000000
      2        -11.605626      -11.599663   1.000000   1.000000
      3        -11.443155      -11.436109   1.000000   1.000000
      4        -11.421632      -11.413107   1.000000   1.000000
      5        -11.391712      -11.384187   1.000000   1.000000
      6        -11.189732      -11.182802   1.000000   1.000000
      7        -10.933281      -10.924472   1.000000   1.000000
      8        -10.627507      -10.620809   1.000000   1.000000
      9        -10.533399      -10.526727   1.000000   1.000000
     10        -10.503436      -10.495463   1.000000   1.000000
     11        -10.326701      -10.318780   1.000000   1.000000
     12        -10.087467      -10.080862   1.000000   1.000000
     13        -10.065847      -10.057708   1.000000   1.000000
     14         -9.704885       -9.697706   1.000000   1.000000
     15         -9.419193       -9.407213   1.000000   1.000000
     16         -9.323013       -9.315502   1.000000   1.000000
     17         -9.196231       -9.188783   1.000000   1.000000
     18         -8.930696       -8.919752   1.000000   1.000000
     19         -8.675263       -8.658799   1.000000   1.000000
     20         -8.550372       -8.542921   1.000000   1.000000
     21         -8.408678       -8.398194   1.000000   1.000000
     22         -8.233502       -8.224971   1.000000   1.000000
     23         -7.871258       -7.861014   1.000000   1.000000
     24         -7.750472       -7.742080   1.000000   1.000000
     25         -7.540061       -7.530223   1.000000   1.000000
     26         -7.537038       -7.529249   1.000000   1.000000
     27         -7.485130       -7.474751   1.000000   1.000000
     28         -7.287448       -7.279356   1.000000   1.000000
     29         -7.279155       -7.270371   1.000000   1.000000
     30         -7.206544       -7.199981   1.000000   1.000000
     31         -6.926635       -6.915932   1.000000   1.000000
     32         -6.853195       -6.845198   1.000000   1.000000
     33         -6.746675       -6.737166   1.000000   1.000000
     34         -6.608898       -6.600649   1.000000   1.000000
     35         -6.522551       -6.515601   1.000000   1.000000
     36         -6.390737       -6.379205   1.000000   1.000000
     37         -6.337097       -6.325212   1.000000   1.000000
     38         -6.179435       -6.164820   1.000000   1.000000
     39         -6.037327       -6.028288   1.000000   1.000000
     40         -5.960686       -5.950248   1.000000   1.000000
     41         -5.654581       -5.642598   1.000000   1.000000
     42         -5.587301       -5.574720   1.000000   1.000000
     43         -5.306115       -5.289045   1.000000   1.000000
     44         -5.294305       -5.283795   1.000000   1.000000
     45         -5.204736       -5.195279   1.000000   1.000000
     46         -5.089590       -5.076948   1.000000   1.000000
     47         -5.046408       -5.034611   1.000000   1.000000
     48         -4.659639       -4.651904   1.000000   1.000000
     49         -4.619459       -4.604045   1.000000   1.000000
     50         -4.463866       -4.450577   1.000000   1.000000
     51         -4.427780       -4.416736   1.000000   1.000000
     52         -4.255810       -4.242762   1.000000   1.000000
     53         -4.203392       -4.193092   1.000000   1.000000
     54         -3.944644       -3.935631   1.000000   1.000000
     55         -3.926887       -3.916277   1.000000   1.000000
     56         -3.863083       -3.850125   1.000000   1.000000
     57         -3.730915       -3.719318   1.000000   1.000000
     58         -3.573944       -3.566089   1.000000   1.000000
     59         -3.462560       -3.447892   1.000000   1.000000
     60         -3.396481       -3.383685   1.000000   1.000000
     61         -3.292416       -3.280919   1.000000   1.000000
     62         -3.279440       -3.270327   1.000000   1.000000
     63         -3.125671       -3.115956   1.000000   1.000000
     64         -2.946513       -2.929318   1.000000   1.000000
     65         -2.915368       -2.906307   1.000000   1.000000
     66         -2.813116       -2.802892   1.000000   1.000000
     67         -2.737784       -2.723690   1.000000   1.000000
     68         -2.660882       -2.654012   1.000000   1.000000
     69         -2.568585       -2.560140   1.000000   1.000000
     70         -2.480756       -2.471894   1.000000   1.000000
     71         -2.410475       -2.392479   1.000000   1.000000
     72         -2.365333       -2.355513   1.000000   1.000000
     73         -2.260209       -2.252397   1.000000   1.000000
     74         -2.245679       -2.236873   1.000000   1.000000
     75         -2.095462       -2.084591   1.000000   1.000000
     76         -2.064185       -2.054711   1.000000   1.000000
     77         -1.942058       -1.933523   1.000000   1.000000
     78         -1.890116       -1.880019   1.000000   1.000000
     79         -1.833703       -1.818458   1.000000   1.000000
     80         -1.817761       -1.808017   1.000000   1.000000
     81         -1.656420       -1.648457   1.000000   1.000000
     82         -1.514787       -1.500873   1.000000   1.000000
     83         -1.466118       -1.454199   1.000000   1.000000
     84         -1.324546       -1.313775   1.000000   1.000000
     85         -1.200171       -1.192184   1.000000   1.000000
     86         -1.189524       -1.180250   1.000000   1.000000
     87         -0.983114       -0.973610   1.000000   1.000000
     88         -0.963070       -0.955764   1.000000   1.000000
     89         -0.901133       -0.888803   1.000000   1.000000
     90         -0.872715       -0.861503   1.000000   1.000000
     91         -0.839101       -0.827755   1.000000   1.000000
     92         -0.766718       -0.759822   1.000000   1.000000
     93         -0.714131       -0.706185   1.000000   1.000000
     94         -0.572862       -0.563517   1.000000   1.000000
     95         -0.490755       -0.480263   1.000000   1.000000
     96         -0.411540       -0.401865   1.000000   1.000000
     97         -0.376786       -0.369246   1.000000   1.000000
     98         -0.293692       -0.284026   1.000000   1.000000
     99         -0.267865       -0.258357   1.000000   1.000000
    100         -0.223818       -0.212967   1.000000   1.000000
    101         -0.124933       -0.116224   1.000000   1.000000
    102         -0.062379       -0.051003   1.000000   1.000000
    103          0.001926        0.010284   1.000000   1.000000
    104          0.011726        0.023788   1.000000   1.000000
    105          0.121528        0.131561   1.000000   1.000000
    106          0.198174        0.207497   1.000000   1.000000
    107          0.242293        0.251699   1.000000   1.000000
    108          0.273144        0.284731   1.000000   1.000000
    109          0.363191        0.372334   1.000000   1.000000
    110          0.501746        0.510207   1.000000   1.000000
    111          0.534815        0.544677   1.000000   1.000000
    112          0.577712        0.586502   1.000000   1.000000
    113          0.587161        0.595972   1.000000   1.000000
    114          0.718458        0.727960   1.000000   1.000000
    115          0.840893        0.853868   1.000000   1.000000
    116          0.874279        0.885504   1.000000   1.000000
    117          0.923316        0.933677   1.000000   1.000000
    118          1.013429        1.022393   1.000000   1.000000
    119          1.074129        1.085174   1.000000   1.000000
    120          1.087598        1.097133   1.000000   1.000000
    121          1.306825        1.317050   1.000000   1.000000
    122          1.427426        1.436405   1.000000   1.000000
    123          1.443809        1.454065   1.000000   1.000000
    124          1.559842        1.571388   1.000000   1.000000
    125          1.572190        1.583623   1.000000   1.000000
    126          1.643552        1.655052   1.000000   1.000000
    127          1.673235        1.683415   1.000000   1.000000
    128          1.735949        1.746959   1.000000   1.000000
    129          1.878462        1.888791   1.000000   1.000000
    130          1.919178        1.931646   1.000000   1.000000
    131          1.955800        1.966576   1.000000   1.000000
    132          2.050946        2.060973   1.000000   1.000000
    133          2.091853        2.102424   1.000000   1.000000
    134          2.107367        2.119402   1.000000   1.000000
    135          2.224898        2.235913   1.000000   1.000000
    136          2.235072        2.247403   1.000000   1.000000
    137          2.284691        2.295648   1.000000   1.000000
    138          2.351903        2.364662   1.000000   1.000000
    139          2.449537        2.459425   1.000000   1.000000
    140          2.481301        2.495569   1.000000   1.000000
    141          2.607731        2.617808   1.000000   1.000000
    142          2.643199        2.655215   1.000000   1.000000
    143          2.714085        2.725958   1.000000   1.000000
    144          2.758934        2.769782   1.000000   1.000000
    145          2.866626        2.879106   1.000000   1.000000
    146          2.895112        2.905261   1.000000   1.000000
    147          2.955210        2.964839   1.000000   1.000000
    148          2.996006        3.007465   1.000000   1.000000
    149          3.117801        3.130029   1.000000   1.000000
    150          3.137512        3.152507   1.000000   1.000000
    151          3.200461        3.213645   1.000000   1.000000
    152          3.284416        3.297795   1.000000   1.000000
    153          3.399626        3.410826   1.000000   1.000000
    154          3.482169        3.492945   1.000000   1.000000
    155          3.580932        3.593981   1.000000   1.000000
    156          3.663373        3.676907   1.000000   1.000000
    157          3.677786        3.687793   1.000000   1.000000
    158          3.734982        3.746087   1.000000   1.000000
    159          3.848772        3.859928   1.000000   1.000000
    160          3.894233        3.914355   1.000000   1.000000
    161          4.001825        4.019518   1.000000   1.000000
    162          4.083480        4.097773   1.000000   1.000000
    163          4.093123        4.105885   1.000000   1.000000
    164          4.115544        4.130111   1.000000   1.000000
    165          4.317216        4.335203   1.000000   1.000000
    166          4.323966        4.338169   1.000000   1.000000
    167          4.352907        4.367162   1.000000   1.000000
    168          4.434738        4.447260   1.000000   1.000000
    169          4.525463        4.537916   1.000000   1.000000
    170          4.538200        4.552225   1.000000   1.000000
    171          4.623265        4.638178   1.000000   1.000000
    172          4.651779        4.662516   1.000000   1.000000
    173          4.703015        4.716303   1.000000   1.000000
    174          4.784178        4.795521   1.000000   1.000000
    175          4.854051        4.874046   1.000000   1.000000
    176          4.949268        4.959316   1.000000   1.000000
    177          5.039569        5.051467   1.000000   1.000000
    178          5.055230        5.073072   1.000000   1.000000
    179          5.191421        5.204910   1.000000   1.000000
    180          5.228368        5.243354   1.000000   1.000000
    181          5.251865        5.262589   1.000000   1.000000
    182          5.366072        5.379437   1.000000   1.000000
    183          5.417264        5.433359   1.000000   1.000000
    184          5.515661        5.528598   1.000000   1.000000
    185          5.596940        5.608396   1.000000   1.000000
    186          5.641685        5.655229   1.000000   1.000000
    187          5.755470        5.766921   1.000000   1.000000
    188          5.817684        5.839983   1.000000   1.000000
    189          5.891546        5.904473   1.000000   1.000000
    190          5.970865        5.990168   1.000000   1.000000
    191          6.072191        6.086114   1.000000   1.000000
    192          6.148753        6.169547   1.000000   1.000000
    193          6.155274        6.175028   1.000000   1.000000
    194          6.373537        6.386253   1.000000   1.000000
    195          6.462528        6.481989   1.000000   1.000000
    196          6.485541        6.498534   1.000000   1.000000
    197          6.493826        6.509294   1.000000   1.000000
    198          6.526870        6.543359   1.000000   1.000000
    199          6.642264        6.657524   1.000000   1.000000
    200          6.777070        6.798649   1.000000   1.000000
    201          6.894713        6.908649   1.000000   1.000000
    202          6.923551        6.941187   1.000000   1.000000
    203          7.011280        7.023556   1.000000   1.000000
    204          7.164478        7.180989   1.000000   1.000000
    205          7.198967        7.218981   1.000000   1.000000
    206          7.310202        7.327773   1.000000   1.000000
    207          7.332761        7.352041   1.000000   1.000000
    208          7.379632        7.400403   1.000000   1.000000
    209          7.518496        7.537947   1.000000   1.000000
    210          7.567731        7.583155   1.000000   1.000000
    211          7.688020        7.702946   1.000000   1.000000
    212          7.747679        7.764456   1.000000   1.000000
    213          7.878421        7.896493   1.000000   1.000000
    214          7.919486        7.932698   1.000000   1.000000
    215          7.927204        7.948755   1.000000   1.000000
    216          8.007361        8.030652   1.000000   1.000000
    217          8.070915        8.089375   1.000000   1.000000
    218          8.086092        8.102577   1.000000   1.000000
    219          8.143007        8.167077   1.000000   1.000000
    220          8.260393        8.282516   1.000000   1.000000
    221          8.346632        8.364187   1.000000   1.000000
    222          8.425070        8.443147   1.000000   1.000000
    223          8.428484        8.451669   1.000000   1.000000
    224          8.500521        8.527665   1.000000   1.000000
    225          8.534801        8.558673   1.000000   1.000000
    226          8.630920        8.647346   1.000000   1.000000
    227          8.648283        8.672233   1.000000   1.000000
    228          8.668074        8.688698   1.000000   1.000000
    229          8.729810        8.752427   1.000000   1.000000
    230          8.866157        8.883156   1.000000   1.000000
    231          8.990176        9.014321   1.000000   1.000000
    232          8.997782        9.021428   1.000000   1.000000
    233          9.108585        9.151900   1.000000   1.000000
    234          9.127186        9.163102   1.000000   1.000000
    235          9.252534        9.290272   1.000000   1.000000
    236          9.293403        9.324760   1.000000   1.000000
    237          9.384272        9.409806   1.000000   1.000000
    238          9.422754        9.445361   1.000000   0.765043
    239          9.512357        9.540167   0.000007   0.000000
    240          9.619934        9.639132   0.000000   0.000000
    241          9.659108        9.696559   0.000000   0.000000
    242          9.687475        9.715830   0.000000   0.000000
    243          9.856308        9.887050   0.000000   0.000000
    244          9.873149        9.892677   0.000000   0.000000
    245          9.950643        9.974254   0.000000   0.000000
    246         10.071089       10.089135   0.000000   0.000000
    247         10.075547       10.092600   0.000000   0.000000
    248         10.222155       10.239383   0.000000   0.000000
    249         10.241495       10.257666   0.000000   0.000000
    250         10.280239       10.303771   0.000000   0.000000
    251         10.310199       10.328624   0.000000   0.000000
    252         10.502397       10.539912   0.000000   0.000000
    253         10.526600       10.542906   0.000000   0.000000
    254         10.613246       10.631411   0.000000   0.000000
    255         10.666688       10.687794   0.000000   0.000000
    256         10.744968       10.768104   0.000000   0.000000
    257         10.788464       10.808150   0.000000   0.000000
    258         10.914649       10.937453   0.000000   0.000000
    259         10.979263       11.000629   0.000000   0.000000
    260         10.987068       11.008785   0.000000   0.000000
    261         11.058520       11.082131   0.000000   0.000000
    262         11.154714       11.179962   0.000000   0.000000
    263         11.236709       11.263143   0.000000   0.000000
    264         11.428940       11.445112   0.000000   0.000000
    265         11.631463       11.650444   0.000000   0.000000
    266         11.634925       11.651225   0.000000   0.000000
    267         11.743600       11.762809   0.000000   0.000000
    268         11.800539       11.819374   0.000000   0.000000
    269         11.900780       11.915818   0.000000   0.000000
    270         11.967320       11.981014   0.000000   0.000000
    271         12.110034       12.122645   0.000000   0.000000
    272         12.113706       12.135696   0.000000   0.000000
    273         12.173567       12.189534   0.000000   0.000000
    274         12.177030       12.190702   0.000000   0.000000
    275         12.409174       12.422648   0.000000   0.000000
    276         12.443445       12.456174   0.000000   0.000000
    277         12.510291       12.526217   0.000000   0.000000
    278         12.537256       12.550412   0.000000   0.000000
    279         12.639958       12.652636   0.000000   0.000000
    280         12.684754       12.698858   0.000000   0.000000
    281         12.723226       12.736910   0.000000   0.000000
    282         12.776042       12.789405   0.000000   0.000000
    283         12.915759       12.930863   0.000000   0.000000
    284         12.943069       12.960820   0.000000   0.000000
    285         13.086360       13.099324   0.000000   0.000000
    286         13.137142       13.150053   0.000000   0.000000
    287         13.195323       13.206640   0.000000   0.000000
    288         13.237513       13.247236   0.000000   0.000000
 
  0.3333333E+00 -0.2133637E-17  0.0000000E+00  0.5555556E-01
      1        -11.869831      -11.863051   1.000000   1.000000
      2        -11.714599      -11.708221   1.000000   1.000000
      3        -11.520136      -11.512431   1.000000   1.000000
      4        -11.491391      -11.483787   1.000000   1.000000
      5        -11.235069      -11.227286   1.000000   1.000000
      6        -11.029885      -11.021987   1.000000   1.000000
      7        -10.929115      -10.922332   1.000000   1.000000
      8        -10.698680      -10.691812   1.000000   1.000000
      9        -10.626243      -10.618654   1.000000   1.000000
     10        -10.409564      -10.401870   1.000000   1.000000
     11        -10.386192      -10.378580   1.000000   1.000000
     12        -10.215332      -10.208330   1.000000   1.000000
     13         -9.929725       -9.921055   1.000000   1.000000
     14         -9.759057       -9.751271   1.000000   1.000000
     15         -9.400696       -9.392355   1.000000   1.000000
     16         -9.320074       -9.312568   1.000000   1.000000
     17         -9.065801       -9.051917   1.000000   1.000000
     18         -9.033002       -9.024899   1.000000   1.000000
     19         -8.713098       -8.698793   1.000000   1.000000
     20         -8.597447       -8.588764   1.000000   1.000000
     21         -8.272142       -8.263365   1.000000   1.000000
     22         -8.202835       -8.192532   1.000000   1.000000
     23         -8.017108       -8.008882   1.000000   1.000000
     24         -7.809822       -7.801427   1.000000   1.000000
     25         -7.504028       -7.493355   1.000000   1.000000
     26         -7.460502       -7.450723   1.000000   1.000000
     27         -7.344872       -7.336617   1.000000   1.000000
     28         -7.326418       -7.317754   1.000000   1.000000
     29         -7.199760       -7.191299   1.000000   1.000000
     30         -7.063356       -7.054864   1.000000   1.000000
     31         -6.992953       -6.984941   1.000000   1.000000
     32         -6.886464       -6.876419   1.000000   1.000000
     33         -6.795320       -6.788285   1.000000   1.000000
     34         -6.685310       -6.673456   1.000000   1.000000
     35         -6.678742       -6.670084   1.000000   1.000000
     36         -6.496165       -6.486256   1.000000   1.000000
     37         -6.280790       -6.270148   1.000000   1.000000
     38         -6.137685       -6.127824   1.000000   1.000000
     39         -6.081080       -6.070050   1.000000   1.000000
     40         -5.950454       -5.938815   1.000000   1.000000
     41         -5.721754       -5.707418   1.000000   1.000000
     42         -5.559305       -5.547166   1.000000   1.000000
     43         -5.318645       -5.307249   1.000000   1.000000
     44         -5.316196       -5.300633   1.000000   1.000000
     45         -5.159035       -5.144995   1.000000   1.000000
     46         -5.106972       -5.096343   1.000000   1.000000
     47         -4.804154       -4.794113   1.000000   1.000000
     48         -4.686142       -4.673712   1.000000   1.000000
     49         -4.643726       -4.635029   1.000000   1.000000
     50         -4.522216       -4.511575   1.000000   1.000000
     51         -4.326895       -4.316634   1.000000   1.000000
     52         -4.299168       -4.286196   1.000000   1.000000
     53         -4.177064       -4.161692   1.000000   1.000000
     54         -3.998966       -3.987279   1.000000   1.000000
     55         -3.946283       -3.937654   1.000000   1.000000
     56         -3.761364       -3.750681   1.000000   1.000000
     57         -3.641907       -3.630666   1.000000   1.000000
     58         -3.544256       -3.534654   1.000000   1.000000
     59         -3.471187       -3.460309   1.000000   1.000000
     60         -3.355529       -3.342111   1.000000   1.000000
     61         -3.350765       -3.340807   1.000000   1.000000
     62         -3.180396       -3.168102   1.000000   1.000000
     63         -3.161769       -3.150856   1.000000   1.000000
     64         -3.106802       -3.092034   1.000000   1.000000
     65         -2.990065       -2.977998   1.000000   1.000000
     66         -2.806646       -2.795348   1.000000   1.000000
     67         -2.746099       -2.738070   1.000000   1.000000
     68         -2.648628       -2.639180   1.000000   1.000000
     69         -2.550864       -2.539589   1.000000   1.000000
     70         -2.469196       -2.458398   1.000000   1.000000
     71         -2.402616       -2.393015   1.000000   1.000000
     72         -2.375742       -2.362241   1.000000   1.000000
     73         -2.264979       -2.254154   1.000000   1.000000
     74         -2.264878       -2.253952   1.000000   1.000000
     75         -2.124058       -2.115345   1.000000   1.000000
     76         -2.074657       -2.064876   1.000000   1.000000
     77         -1.961650       -1.949011   1.000000   1.000000
     78         -1.951707       -1.941761   1.000000   1.000000
     79         -1.899794       -1.890724   1.000000   1.000000
     80         -1.798481       -1.787391   1.000000   1.000000
     81         -1.686022       -1.676711   1.000000   1.000000
     82         -1.651616       -1.641450   1.000000   1.000000
     83         -1.404249       -1.393732   1.000000   1.000000
     84         -1.388816       -1.380032   1.000000   1.000000
     85         -1.167757       -1.157119   1.000000   1.000000
     86         -1.101080       -1.091202   1.000000   1.000000
     87         -1.005612       -0.994059   1.000000   1.000000
     88         -0.992105       -0.981270   1.000000   1.000000
     89         -0.842161       -0.831092   1.000000   1.000000
     90         -0.833488       -0.824848   1.000000   1.000000
     91         -0.785229       -0.775962   1.000000   1.000000
     92         -0.760704       -0.751506   1.000000   1.000000
     93         -0.636721       -0.627804   1.000000   1.000000
     94         -0.620673       -0.609419   1.000000   1.000000
     95         -0.483648       -0.475196   1.000000   1.000000
     96         -0.379102       -0.369823   1.000000   1.000000
     97         -0.349118       -0.338775   1.000000   1.000000
     98         -0.304137       -0.294877   1.000000   1.000000
     99         -0.219103       -0.209686   1.000000   1.000000
    100         -0.199157       -0.189453   1.000000   1.000000
    101         -0.124810       -0.115283   1.000000   1.000000
    102         -0.073641       -0.064184   1.000000   1.000000
    103         -0.010114       -0.000536   1.000000   1.000000
    104          0.021296        0.029827   1.000000   1.000000
    105          0.082336        0.092191   1.000000   1.000000
    106          0.157580        0.166808   1.000000   1.000000
    107          0.327421        0.337352   1.000000   1.000000
    108          0.396806        0.405489   1.000000   1.000000
    109          0.421498        0.431856   1.000000   1.000000
    110          0.485587        0.495089   1.000000   1.000000
    111          0.536621        0.546062   1.000000   1.000000
    112          0.601803        0.610972   1.000000   1.000000
    113          0.723464        0.732203   1.000000   1.000000
    114          0.751894        0.762823   1.000000   1.000000
    115          0.794332        0.803809   1.000000   1.000000
    116          0.881209        0.892529   1.000000   1.000000
    117          0.934355        0.944180   1.000000   1.000000
    118          1.002782        1.013547   1.000000   1.000000
    119          1.074138        1.084773   1.000000   1.000000
    120          1.089688        1.099240   1.000000   1.000000
    121          1.161239        1.172072   1.000000   1.000000
    122          1.305075        1.316511   1.000000   1.000000
    123          1.334538        1.345116   1.000000   1.000000
    124          1.365038        1.377047   1.000000   1.000000
    125          1.536313        1.547393   1.000000   1.000000
    126          1.674097        1.685320   1.000000   1.000000
    127          1.707461        1.719666   1.000000   1.000000
    128          1.764647        1.775448   1.000000   1.000000
    129          1.844618        1.856356   1.000000   1.000000
    130          1.849500        1.860284   1.000000   1.000000
    131          1.897923        1.910711   1.000000   1.000000
    132          1.921301        1.931756   1.000000   1.000000
    133          2.124971        2.135465   1.000000   1.000000
    134          2.137641        2.149814   1.000000   1.000000
    135          2.212315        2.222641   1.000000   1.000000
    136          2.244813        2.256626   1.000000   1.000000
    137          2.407859        2.417358   1.000000   1.000000
    138          2.408406        2.419700   1.000000   1.000000
    139          2.437085        2.449061   1.000000   1.000000
    140          2.508125        2.518613   1.000000   1.000000
    141          2.547073        2.559607   1.000000   1.000000
    142          2.701201        2.713401   1.000000   1.000000
    143          2.732553        2.745311   1.000000   1.000000
    144          2.817281        2.827468   1.000000   1.000000
    145          2.894207        2.905705   1.000000   1.000000
    146          2.904361        2.916697   1.000000   1.000000
    147          3.011588        3.023308   1.000000   1.000000
    148          3.019441        3.031278   1.000000   1.000000
    149          3.153064        3.163565   1.000000   1.000000
    150          3.156371        3.168040   1.000000   1.000000
    151          3.231198        3.243030   1.000000   1.000000
    152          3.309578        3.323595   1.000000   1.000000
    153          3.400351        3.411761   1.000000   1.000000
    154          3.560394        3.572106   1.000000   1.000000
    155          3.581094        3.592880   1.000000   1.000000
    156          3.613451        3.624700   1.000000   1.000000
    157          3.614008        3.626811   1.000000   1.000000
    158          3.714042        3.726625   1.000000   1.000000
    159          3.877628        3.892969   1.000000   1.000000
    160          3.959968        3.974936   1.000000   1.000000
    161          3.975164        3.987234   1.000000   1.000000
    162          4.009753        4.027973   1.000000   1.000000
    163          4.041398        4.055981   1.000000   1.000000
    164          4.093906        4.104385   1.000000   1.000000
    165          4.220810        4.236561   1.000000   1.000000
    166          4.241135        4.258621   1.000000   1.000000
    167          4.338821        4.352421   1.000000   1.000000
    168          4.370873        4.384273   1.000000   1.000000
    169          4.511953        4.525418   1.000000   1.000000
    170          4.517305        4.530554   1.000000   1.000000
    171          4.617990        4.633225   1.000000   1.000000
    172          4.657211        4.669217   1.000000   1.000000
    173          4.858190        4.874941   1.000000   1.000000
    174          4.872042        4.884234   1.000000   1.000000
    175          4.934635        4.946166   1.000000   1.000000