 228 228   0   0
  0.2256881E+02  0.1697340E-08  0.1697340E-08  0.1786100E-08  0.5000000E-15
  1.000000000000000E-004
  CAR 
 Si and Ge interface calculation         
      7.15091411     -8.86527883  301      4.30486090      1.00000000
     -8.865  0.0000E+00  0.0000E+00  0.0000E+00  0.0000E+00
     -8.812  0.0000E+00  0.0000E+00  0.0000E+00  0.0000E+00
     -8.759  0.0000E+00  0.0000E+00  0.0000E+00  0.0000E+00
     -8.705  0.0000E+00  0.0000E+00  0.0000E+00  0.0000E+00
     -8.652  0.0000E+00  0.0000E+00  0.0000E+00  0.0000E+00
     -8.598  0.0000E+00  0.0000E+00  0.0000E+00  0.0000E+00
     -8.545  0.0000E+00  0.0000E+00  0.0000E+00  0.0000E+00
     -8.492  0.0000E+00  0.0000E+00  0.0000E+00  0.0000E+00
     -8.438  0.0000E+00  0.0000E+00  0.0000E+00  0.0000E+00
     -8.385  0.0000E+00  0.0000E+00  0.0000E+00  0.0000E+00
     -8.331  0.0000E+00  0.0000E+00  0.0000E+00  0.0000E+00
     -8.278  0.0000E+00  0.0000E+00  0.0000E+00  0.0000E+00
     -8.225  0.0000E+00  0.0000E+00  0.0000E+00  0.0000E+00
     -8.171  0.3634E-05  0.6574E-06  0.1940E-06  0.3510E-07
     -8.118  0.9032E+01  0.8759E+01  0.4822E+00  0.4676E+00
     -8.064  0.3338E+00  0.6069E+00  0.5000E+00  0.5000E+00
     -8.011  0.3596E+02  0.3480E+02  0.2420E+01  0.2358E+01
     -7.958  0.6162E+01  0.6688E+01  0.2749E+01  0.2715E+01
     -7.904  0.1795E+02  0.1741E+02  0.3707E+01  0.3645E+01
     -7.851  0.1486E+02  0.1602E+02  0.4500E+01  0.4500E+01
     -7.798  0.8309E-08  0.4348E-03  0.4500E+01  0.4500E+01
     -7.744  0.8515E+01  0.7146E+01  0.4955E+01  0.4882E+01
     -7.691  0.1642E+02  0.1698E+02  0.5831E+01  0.5788E+01
     -7.637  0.3556E+02  0.3247E+02  0.7730E+01  0.7521E+01
     -7.584  0.7876E+02  0.8046E+02  0.1193E+02  0.1182E+02
     -7.531  0.3000E+02  0.3181E+02  0.1354E+02  0.1352E+02
     -7.477  0.8939E+01  0.9174E+01  0.1401E+02  0.1400E+02
     -7.424  0.1729E+02  0.1673E+02  0.1494E+02  0.1490E+02
     -7.370  0.7015E+01  0.7030E+01  0.1531E+02  0.1527E+02
     -7.317  0.1824E+02  0.1858E+02  0.1629E+02  0.1627E+02
     -7.264  0.5988E+02  0.5957E+02  0.1948E+02  0.1945E+02
     -7.210  0.3309E+02  0.3107E+02  0.2125E+02  0.2110E+02
     -7.157  0.7998E+02  0.8003E+02  0.2552E+02  0.2538E+02
     -7.103  0.5311E+02  0.5339E+02  0.2835E+02  0.2823E+02
     -7.050  0.5638E+02  0.5302E+02  0.3136E+02  0.3106E+02
     -6.997  0.3486E+02  0.4024E+02  0.3322E+02  0.3321E+02
     -6.943  0.9824E+01  0.1004E+02  0.3375E+02  0.3374E+02
     -6.890  0.6010E+02  0.5577E+02  0.3696E+02  0.3672E+02
     -6.837  0.6614E+02  0.6348E+02  0.4049E+02  0.4011E+02
     -6.783  0.6941E+02  0.7485E+02  0.4419E+02  0.4411E+02
     -6.730  0.3146E+02  0.3101E+02  0.4587E+02  0.4576E+02
     -6.676  0.8185E+02  0.7963E+02  0.5024E+02  0.5001E+02
     -6.623  0.4461E+02  0.4779E+02  0.5263E+02  0.5256E+02
     -6.570  0.5141E+02  0.4830E+02  0.5537E+02  0.5514E+02
     -6.516  0.6222E+02  0.6185E+02  0.5869E+02  0.5844E+02
     -6.463  0.8274E+02  0.7810E+02  0.6311E+02  0.6261E+02
     -6.409  0.8869E+02  0.9415E+02  0.6784E+02  0.6764E+02
     -6.356  0.8543E+02  0.8709E+02  0.7240E+02  0.7229E+02
     -6.303  0.1005E+03  0.9907E+02  0.7777E+02  0.7758E+02
     -6.249  0.8238E+02  0.8337E+02  0.8217E+02  0.8203E+02
     -6.196  0.8173E+02  0.7939E+02  0.8653E+02  0.8627E+02
     -6.143  0.7136E+02  0.7335E+02  0.9034E+02  0.9018E+02
     -6.089  0.3907E+02  0.4033E+02  0.9243E+02  0.9234E+02
     -6.036  0.6808E+02  0.6561E+02  0.9606E+02  0.9584E+02
     -5.982  0.8987E+02  0.8738E+02  0.1009E+03  0.1005E+03
     -5.929  0.6585E+02  0.6930E+02  0.1044E+03  0.1042E+03
     -5.876  0.4921E+02  0.4927E+02  0.1070E+03  0.1068E+03
     -5.822  0.6943E+02  0.6797E+02  0.1107E+03  0.1105E+03
     -5.769  0.7987E+02  0.8014E+02  0.1150E+03  0.1147E+03
     -5.715  0.7983E+02  0.7869E+02  0.1192E+03  0.1189E+03
     -5.662  0.9583E+02  0.9663E+02  0.1243E+03  0.1241E+03
     -5.609  0.4203E+02  0.4502E+02  0.1266E+03  0.1265E+03
     -5.555  0.9656E+02  0.8895E+02  0.1317E+03  0.1313E+03
     -5.502  0.1133E+03  0.1183E+03  0.1378E+03  0.1376E+03
     -5.448  0.8189E+02  0.7972E+02  0.1422E+03  0.1418E+03
     -5.395  0.4655E+02  0.5063E+02  0.1447E+03  0.1445E+03
     -5.342  0.5238E+02  0.5267E+02  0.1475E+03  0.1473E+03
     -5.288  0.8891E+02  0.8702E+02  0.1522E+03  0.1520E+03
     -5.235  0.8739E+02  0.8373E+02  0.1569E+03  0.1565E+03
     -5.182  0.9490E+02  0.9500E+02  0.1619E+03  0.1615E+03
     -5.128  0.5698E+02  0.5979E+02  0.1650E+03  0.1647E+03
     -5.075  0.6600E+02  0.6747E+02  0.1685E+03  0.1683E+03
     -5.021  0.6114E+02  0.5885E+02  0.1718E+03  0.1715E+03
     -4.968  0.6741E+02  0.6662E+02  0.1754E+03  0.1750E+03
     -4.915  0.8299E+02  0.8097E+02  0.1798E+03  0.1793E+03
     -4.861  0.6391E+02  0.6957E+02  0.1832E+03  0.1831E+03
     -4.808  0.4667E+02  0.4430E+02  0.1857E+03  0.1854E+03
     -4.754  0.5226E+02  0.5392E+02  0.1885E+03  0.1883E+03
     -4.701  0.5876E+02  0.5652E+02  0.1916E+03  0.1913E+03
     -4.648  0.6286E+02  0.6594E+02  0.1950E+03  0.1948E+03
     -4.594  0.4590E+02  0.4628E+02  0.1974E+03  0.1973E+03
     -4.541  0.6146E+02  0.6098E+02  0.2007E+03  0.2006E+03
     -4.488  0.6815E+02  0.6722E+02  0.2043E+03  0.2042E+03
     -4.434  0.6227E+02  0.6257E+02  0.2077E+03  0.2075E+03
     -4.381  0.6066E+02  0.5945E+02  0.2109E+03  0.2107E+03
     -4.327  0.5833E+02  0.5881E+02  0.2140E+03  0.2138E+03
     -4.274  0.1827E+02  0.2230E+02  0.2150E+03  0.2150E+03
     -4.221  0.3717E+02  0.3551E+02  0.2170E+03  0.2169E+03
     -4.167  0.5146E+02  0.5035E+02  0.2197E+03  0.2196E+03
     -4.114  0.3933E+02  0.3910E+02  0.2218E+03  0.2217E+03
     -4.060  0.2188E+02  0.2484E+02  0.2230E+03  0.2230E+03
     -4.007  0.4409E+02  0.3727E+02  0.2254E+03  0.2250E+03
     -3.954  0.6986E+02  0.7010E+02  0.2291E+03  0.2287E+03
     -3.900  0.2695E+02  0.3330E+02  0.2305E+03  0.2305E+03
     -3.847  0.3622E+02  0.3261E+02  0.2325E+03  0.2322E+03
     -3.793  0.3359E+02  0.3239E+02  0.2342E+03  0.2340E+03
     -3.740  0.4581E+02  0.4958E+02  0.2367E+03  0.2366E+03
     -3.687  0.1917E+02  0.1968E+02  0.2377E+03  0.2377E+03
     -3.633  0.3503E+02  0.3273E+02  0.2396E+03  0.2394E+03
     -3.580  0.4667E+02  0.4570E+02  0.2421E+03  0.2419E+03
     -3.527  0.1955E+02  0.2207E+02  0.2431E+03  0.2430E+03
     -3.473  0.6905E+02  0.6003E+02  0.2468E+03  0.2462E+03
     -3.420  0.1113E+03  0.1154E+03  0.2527E+03  0.2524E+03
     -3.366  0.9074E+02  0.8969E+02  0.2576E+03  0.2572E+03
     -3.313  0.5588E+02  0.5925E+02  0.2606E+03  0.2604E+03
     -3.260  0.9786E+02  0.9581E+02  0.2658E+03  0.2655E+03
     -3.206  0.6884E+02  0.6661E+02  0.2695E+03  0.2690E+03
     -3.153  0.9113E+02  0.8948E+02  0.2743E+03  0.2738E+03
     -3.099  0.7189E+02  0.7744E+02  0.2782E+03  0.2779E+03
     -3.046  0.8779E+02  0.8615E+02  0.2829E+03  0.2825E+03
     -2.993  0.7678E+02  0.7765E+02  0.2870E+03  0.2867E+03
     -2.939  0.6059E+02  0.6044E+02  0.2902E+03  0.2899E+03
     -2.886  0.8729E+02  0.8829E+02  0.2949E+03  0.2946E+03
     -2.833  0.5487E+02  0.5485E+02  0.2978E+03  0.2976E+03
     -2.779  0.6883E+02  0.6552E+02  0.3015E+03  0.3010E+03
     -2.726  0.8777E+02  0.8931E+02  0.3062E+03  0.3058E+03
     -2.672  0.6365E+02  0.6665E+02  0.3095E+03  0.3094E+03
     -2.619  0.7277E+02  0.7208E+02  0.3134E+03  0.3132E+03
     -2.566  0.6043E+02  0.6173E+02  0.3167E+03  0.3165E+03
     -2.512  0.5034E+02  0.4656E+02  0.3193E+03  0.3190E+03
     -2.459  0.7897E+02  0.8078E+02  0.3236E+03  0.3233E+03
     -2.405  0.6402E+02  0.6544E+02  0.3270E+03  0.3268E+03
     -2.352  0.7306E+02  0.7167E+02  0.3309E+03  0.3306E+03
     -2.299  0.1101E+03  0.1089E+03  0.3368E+03  0.3365E+03
     -2.245  0.6979E+02  0.6772E+02  0.3405E+03  0.3401E+03
     -2.192  0.9792E+02  0.9894E+02  0.3457E+03  0.3454E+03
     -2.138  0.5582E+02  0.6163E+02  0.3487E+03  0.3486E+03
     -2.085  0.5772E+02  0.5377E+02  0.3518E+03  0.3515E+03
     -2.032  0.5699E+02  0.5924E+02  0.3548E+03  0.3547E+03
     -1.978  0.5287E+02  0.5084E+02  0.3576E+03  0.3574E+03
     -1.925  0.7296E+02  0.7054E+02  0.3615E+03  0.3612E+03
     -1.872  0.9710E+02  0.9670E+02  0.3667E+03  0.3663E+03
     -1.818  0.3874E+02  0.4503E+02  0.3688E+03  0.3687E+03
     -1.765  0.3860E+02  0.3863E+02  0.3709E+03  0.3708E+03
     -1.711  0.3074E+02  0.3098E+02  0.3725E+03  0.3724E+03
     -1.658  0.7951E+02  0.7649E+02  0.3767E+03  0.3765E+03
     -1.605  0.3425E+02  0.3655E+02  0.3786E+03  0.3785E+03
     -1.551  0.4955E+02  0.4665E+02  0.3812E+03  0.3810E+03
     -1.498  0.3992E+02  0.4296E+02  0.3833E+03  0.3833E+03
     -1.444  0.3438E+02  0.3163E+02  0.3852E+03  0.3849E+03
     -1.391  0.3820E+02  0.3941E+02  0.3872E+03  0.3871E+03
     -1.338  0.2293E+02  0.2408E+02  0.3884E+03  0.3883E+03
     -1.284  0.4570E+02  0.4366E+02  0.3909E+03  0.3907E+03
     -1.231  0.3651E+02  0.3818E+02  0.3928E+03  0.3927E+03
     -1.178  0.9597E+02  0.9622E+02  0.3980E+03  0.3978E+03
     -1.124  0.4166E+02  0.3969E+02  0.4002E+03  0.4000E+03
     -1.071  0.3344E+02  0.3543E+02  0.4020E+03  0.4019E+03
     -1.017  0.4280E+02  0.4432E+02  0.4042E+03  0.4042E+03
     -0.964  0.2729E+02  0.2659E+02  0.4057E+03  0.4056E+03
     -0.911  0.6081E+02  0.5816E+02  0.4090E+03  0.4087E+03
     -0.857  0.2433E+02  0.2818E+02  0.4103E+03  0.4102E+03
     -0.804  0.3900E+02  0.3674E+02  0.4123E+03  0.4122E+03
     -0.750  0.2765E+02  0.2911E+02  0.4138E+03  0.4138E+03
     -0.697  0.2248E+02  0.2208E+02  0.4150E+03  0.4149E+03
     -0.644  0.5134E+02  0.5242E+02  0.4177E+03  0.4177E+03
     -0.590  0.2178E+02  0.1947E+02  0.4189E+03  0.4188E+03
     -0.537  0.1164E+02  0.1327E+02  0.4195E+03  0.4195E+03
     -0.483  0.3645E+02  0.3583E+02  0.4215E+03  0.4214E+03
     -0.430  0.2385E+02  0.2259E+02  0.4228E+03  0.4226E+03
     -0.377  0.3869E+02  0.3535E+02  0.4248E+03  0.4245E+03
     -0.323  0.3137E+02  0.3704E+02  0.4265E+03  0.4265E+03
     -0.270  0.3112E+02  0.2728E+02  0.4282E+03  0.4279E+03
     -0.217  0.4354E+02  0.4461E+02  0.4305E+03  0.4303E+03
     -0.163  0.6051E+02  0.5910E+02  0.4337E+03  0.4335E+03
     -0.110  0.4073E+02  0.4289E+02  0.4359E+03  0.4358E+03
     -0.056  0.3513E+02  0.3024E+02  0.4378E+03  0.4374E+03
     -0.003  0.7664E+02  0.8255E+02  0.4419E+03  0.4418E+03
      0.050  0.8736E+02  0.8144E+02  0.4465E+03  0.4461E+03
      0.104  0.1122E+03  0.1139E+03  0.4525E+03  0.4522E+03
      0.157  0.5825E+02  0.5977E+02  0.4556E+03  0.4554E+03
      0.211  0.1119E+03  0.1040E+03  0.4616E+03  0.4609E+03
      0.264  0.1459E+03  0.1486E+03  0.4694E+03  0.4689E+03
      0.317  0.1204E+03  0.1152E+03  0.4758E+03  0.4750E+03
      0.371  0.1083E+03  0.1147E+03  0.4816E+03  0.4812E+03
      0.424  0.1425E+03  0.1411E+03  0.4892E+03  0.4887E+03
      0.478  0.6588E+02  0.6977E+02  0.4927E+03  0.4924E+03
      0.531  0.1391E+03  0.1287E+03  0.5001E+03  0.4993E+03
      0.584  0.1570E+03  0.1597E+03  0.5085E+03  0.5078E+03
      0.638  0.1381E+03  0.1374E+03  0.5159E+03  0.5151E+03
      0.691  0.1408E+03  0.1426E+03  0.5234E+03  0.5228E+03
      0.744  0.1531E+03  0.1553E+03  0.5316E+03  0.5311E+03
      0.798  0.1143E+03  0.1150E+03  0.5377E+03  0.5372E+03
      0.851  0.1322E+03  0.1354E+03  0.5448E+03  0.5444E+03
      0.905  0.1483E+03  0.1413E+03  0.5527E+03  0.5520E+03
      0.958  0.1350E+03  0.1388E+03  0.5599E+03  0.5594E+03
      1.011  0.1157E+03  0.1138E+03  0.5661E+03  0.5654E+03
      1.065  0.9825E+02  0.1014E+03  0.5713E+03  0.5709E+03
      1.118  0.1342E+03  0.1335E+03  0.5785E+03  0.5780E+03
      1.172  0.1401E+03  0.1426E+03  0.5859E+03  0.5856E+03
      1.225  0.1454E+03  0.1470E+03  0.5937E+03  0.5935E+03
      1.278  0.1632E+03  0.1567E+03  0.6024E+03  0.6018E+03
      1.332  0.1658E+03  0.1719E+03  0.6113E+03  0.6110E+03
      1.385  0.1161E+03  0.1138E+03  0.6175E+03  0.6171E+03
      1.438  0.1181E+03  0.1185E+03  0.6238E+03  0.6234E+03
      1.492  0.1225E+03  0.1232E+03  0.6303E+03  0.6300E+03
      1.545  0.1574E+03  0.1543E+03  0.6387E+03  0.6382E+03
      1.599  0.1583E+03  0.1534E+03  0.6472E+03  0.6464E+03
      1.652  0.1671E+03  0.1723E+03  0.6561E+03  0.6556E+03
      1.705  0.1181E+03  0.1212E+03  0.6624E+03  0.6621E+03
      1.759  0.1178E+03  0.1155E+03  0.6687E+03  0.6682E+03
      1.812  0.1827E+03  0.1823E+03  0.6784E+03  0.6780E+03
      1.866  0.1067E+03  0.1056E+03  0.6841E+03  0.6836E+03
      1.919  0.1149E+03  0.1175E+03  0.6903E+03  0.6899E+03
      1.972  0.1310E+03  0.1292E+03  0.6973E+03  0.6968E+03
      2.026  0.1118E+03  0.1143E+03  0.7032E+03  0.7029E+03
      2.079  0.8952E+02  0.8883E+02  0.7080E+03  0.7076E+03
      2.133  0.1221E+03  0.1160E+03  0.7145E+03  0.7138E+03
      2.186  0.1958E+03  0.1973E+03  0.7250E+03  0.7244E+03
      2.239  0.1318E+03  0.1350E+03  0.7320E+03  0.7316E+03
      2.293  0.1320E+03  0.1281E+03  0.7391E+03  0.7384E+03
      2.346  0.1159E+03  0.1122E+03  0.7453E+03  0.7444E+03
      2.399  0.1381E+03  0.1433E+03  0.7526E+03  0.7520E+03
      2.453  0.1316E+03  0.1305E+03  0.7597E+03  0.7590E+03
      2.506  0.1137E+03  0.1137E+03  0.7657E+03  0.7651E+03
      2.560  0.1016E+03  0.1052E+03  0.7711E+03  0.7707E+03
      2.613  0.1601E+03  0.1577E+03  0.7797E+03  0.7791E+03
      2.666  0.9301E+02  0.9562E+02  0.7847E+03  0.7842E+03
      2.720  0.1237E+03  0.1204E+03  0.7913E+03  0.7906E+03
      2.773  0.1153E+03  0.1148E+03  0.7974E+03  0.7968E+03
      2.827  0.1151E+03  0.1137E+03  0.8036E+03  0.8028E+03
      2.880  0.1539E+03  0.1597E+03  0.8118E+03  0.8114E+03
      2.933  0.1313E+03  0.1294E+03  0.8188E+03  0.8183E+03
      2.987  0.1206E+03  0.1185E+03  0.8252E+03  0.8246E+03
      3.040  0.6617E+02  0.7025E+02  0.8288E+03  0.8284E+03
      3.093  0.1167E+03  0.1144E+03  0.8350E+03  0.8345E+03
      3.147  0.7404E+02  0.7426E+02  0.8389E+03  0.8384E+03
      3.200  0.7651E+02  0.7974E+02  0.8430E+03  0.8427E+03
      3.254  0.5182E+02  0.5168E+02  0.8458E+03  0.8454E+03
      3.307  0.9589E+02  0.8856E+02  0.8509E+03  0.8502E+03
      3.360  0.8931E+02  0.8909E+02  0.8557E+03  0.8549E+03
      3.414  0.1065E+03  0.1065E+03  0.8614E+03  0.8606E+03
      3.467  0.9229E+02  0.9364E+02  0.8663E+03  0.8656E+03
      3.521  0.5798E+02  0.6213E+02  0.8694E+03  0.8689E+03
      3.574  0.9337E+02  0.9314E+02  0.8744E+03  0.8739E+03
      3.627  0.4465E+02  0.4583E+02  0.8768E+03  0.8764E+03
      3.681  0.3013E+02  0.3606E+02  0.8784E+03  0.8783E+03
      3.734  0.8155E+02  0.7181E+02  0.8827E+03  0.8821E+03
      3.788  0.5812E+02  0.5363E+02  0.8858E+03  0.8850E+03
      3.841  0.6701E+02  0.7837E+02  0.8894E+03  0.8892E+03
      3.894  0.2840E+02  0.2143E+02  0.8909E+03  0.8903E+03
      3.948  0.3957E+02  0.3756E+02  0.8930E+03  0.8923E+03
      4.001  0.7827E+02  0.7750E+02  0.8972E+03  0.8964E+03
      4.054  0.3281E+02  0.3979E+02  0.8990E+03  0.8986E+03
      4.108  0.2582E+02  0.2340E+02  0.9003E+03  0.8998E+03
      4.161  0.4021E+02  0.4335E+02  0.9025E+03  0.9021E+03
      4.215  0.5090E+02  0.4271E+02  0.9052E+03  0.9044E+03
      4.268  0.8160E+02  0.7599E+02  0.9096E+03  0.9085E+03
      4.321  0.4616E+02  0.6239E+02  0.9120E+03  0.9118E+03
      4.375  0.7885E+02  0.6038E+02  0.9162E+03  0.9150E+03
      4.428  0.6300E+02  0.7626E+02  0.9196E+03  0.9191E+03
      4.482  0.5078E+02  0.5491E+02  0.9223E+03  0.9220E+03
      4.535  0.5749E+02  0.5086E+02  0.9254E+03  0.9247E+03
      4.588  0.8391E+02  0.8220E+02  0.9299E+03  0.9291E+03
      4.642  0.4751E+02  0.4793E+02  0.9324E+03  0.9317E+03
      4.695  0.6862E+02  0.7312E+02  0.9361E+03  0.9356E+03
      4.748  0.9514E+02  0.8576E+02  0.9411E+03  0.9402E+03
      4.802  0.5391E+02  0.6361E+02  0.9440E+03  0.9436E+03
      4.855  0.8173E+02  0.7758E+02  0.9484E+03  0.9477E+03
      4.909  0.9533E+02  0.9191E+02  0.9535E+03  0.9526E+03
      4.962  0.7790E+02  0.7978E+02  0.9576E+03  0.9569E+03
      5.015  0.8492E+02  0.8040E+02  0.9622E+03  0.9612E+03
      5.069  0.7512E+02  0.8333E+02  0.9662E+03  0.9656E+03
      5.122  0.1078E+03  0.9998E+02  0.9719E+03  0.9710E+03
      5.176  0.1089E+03  0.1092E+03  0.9777E+03  0.9768E+03
      5.229  0.7874E+02  0.8424E+02  0.9819E+03  0.9813E+03
      5.282  0.7561E+02  0.7041E+02  0.9860E+03  0.9850E+03
      5.336  0.7806E+02  0.8877E+02  0.9901E+03  0.9898E+03
      5.389  0.1004E+03  0.9376E+02  0.9955E+03  0.9948E+03
      5.443  0.7218E+02  0.7974E+02  0.9994E+03  0.9990E+03
      5.496  0.1372E+03  0.1311E+03  0.1007E+04  0.1006E+04
      5.549  0.9510E+02  0.9664E+02  0.1012E+04  0.1011E+04
      5.603  0.9926E+02  0.9756E+02  0.1017E+04  0.1016E+04
      5.656  0.1214E+03  0.1190E+03  0.1024E+04  0.1023E+04
      5.709  0.9789E+02  0.9937E+02  0.1029E+04  0.1028E+04
      5.763  0.8423E+02  0.8731E+02  0.1033E+04  0.1033E+04
      5.816  0.1226E+03  0.1185E+03  0.1040E+04  0.1039E+04
      5.870  0.1033E+03  0.1058E+03  0.1045E+04  0.1045E+04
      5.923  0.1254E+03  0.1216E+03  0.1052E+04  0.1051E+04
      5.976  0.1167E+03  0.1161E+03  0.1058E+04  0.1057E+04
      6.030  0.1110E+03  0.1162E+03  0.1064E+04  0.1064E+04
      6.083  0.1233E+03  0.1221E+03  0.1071E+04  0.1070E+04
      6.137  0.6074E+02  0.6761E+02  0.1074E+04  0.1074E+04
      6.190  0.1154E+03  0.1112E+03  0.1080E+04  0.1080E+04
      6.243  0.8552E+02  0.8314E+02  0.1085E+04  0.1084E+04
      6.297  0.7595E+02  0.7942E+02  0.1089E+04  0.1088E+04
      6.350  0.8273E+02  0.8026E+02  0.1093E+04  0.1093E+04
      6.403  0.4297E+02  0.5150E+02  0.1095E+04  0.1095E+04
      6.457  0.9597E+01  0.1163E+02  0.1096E+04  0.1096E+04
      6.510  0.0000E+00  0.0000E+00  0.1096E+04  0.1096E+04
      6.564  0.0000E+00  0.0000E+00  0.1096E+04  0.1096E+04
      6.617  0.0000E+00  0.0000E+00  0.1096E+04  0.1096E+04
      6.670  0.0000E+00  0.0000E+00  0.1096E+04  0.1096E+04
      6.724  0.0000E+00  0.0000E+00  0.1096E+04  0.1096E+04
      6.777  0.0000E+00  0.0000E+00  0.1096E+04  0.1096E+04
      6.831  0.0000E+00  0.0000E+00  0.1096E+04  0.1096E+04
      6.884  0.0000E+00  0.0000E+00  0.1096E+04  0.1096E+04
      6.937  0.0000E+00  0.0000E+00  0.1096E+04  0.1096E+04
      6.991  0.0000E+00  0.0000E+00  0.1096E+04  0.1096E+04
      7.044  0.0000E+00  0.0000E+00  0.1096E+04  0.1096E+04
      7.098  0.0000E+00  0.0000E+00  0.1096E+04  0.1096E+04
      7.151  0.0000E+00  0.0000E+00  0.1096E+04  0.1096E+04
