Si and Ge interface calculation         
           1
    16.973400    0.000000    0.000000
     0.000000   16.973400    0.000000
     0.000000    0.000000   17.861000
   Ge   Si
   108   120
Direct configuration=     1
   0.99430549  0.66666657  0.00000000
   0.82763886  0.66666657  0.15838417
   0.66097212  0.66666657  0.31676838
   0.99430549  0.33333328  0.00000000
   0.82763886  0.33333328  0.15838417
   0.66097212  0.33333328  0.31676838
   0.99430549  0.00000000  0.00000000
   0.82763886  0.00000000  0.15838417
   0.66097212  0.00000000  0.31676838
   0.32763880  0.66666657  0.00000000
   0.16097215  0.66666657  0.15838417
   0.99430543  0.66666657  0.31676838
   0.32763880  0.33333328  0.00000000
   0.16097215  0.33333328  0.15838417
   0.99430543  0.33333328  0.31676838
   0.32763880  0.00000000  0.00000000
   0.16097215  0.00000000  0.15838417
   0.99430543  0.00000000  0.31676838
   0.66097212  0.66666657  0.00000000
   0.49430543  0.66666657  0.15838417
   0.32763875  0.66666657  0.31676838
   0.66097212  0.33333328  0.00000000
   0.49430543  0.33333328  0.15838417
   0.32763875  0.33333328  0.31676838
   0.66097212  0.00000000  0.00000000
   0.49430543  0.00000000  0.15838417
   0.32763875  0.00000000  0.31676838
   0.07763884  0.91666657  0.07919210
   0.91097212  0.91666657  0.23757629
   0.74430549  0.91666657  0.39596048
   0.07763884  0.58333331  0.07919210
   0.91097212  0.58333331  0.23757629
   0.74430549  0.58333331  0.39596048
   0.07763884  0.24999995  0.07919210
   0.91097212  0.24999995  0.23757629
   0.74430549  0.24999995  0.39596048
   0.41097209  0.91666657  0.07919210
   0.24430542  0.91666657  0.23757629
   0.07763872  0.91666657  0.39596048
   0.41097209  0.58333331  0.07919210
   0.24430542  0.58333331  0.23757629
   0.07763872  0.58333331  0.39596048
   0.41097209  0.24999995  0.07919210
   0.24430542  0.24999995  0.23757629
   0.07763872  0.24999995  0.39596048
   0.74430549  0.91666657  0.07919210
   0.57763875  0.91666657  0.23757629
   0.41097206  0.91666657  0.39596048
   0.74430549  0.58333331  0.07919210
   0.57763875  0.58333331  0.23757629
   0.41097206  0.58333331  0.39596048
   0.74430549  0.24999995  0.07919210
   0.57763875  0.24999995  0.23757629
   0.41097206  0.24999995  0.39596048
   0.16097216  0.83333319  0.00000000
   0.99430549  0.83333319  0.15838417
   0.82763880  0.83333319  0.31676838
   0.16097216  0.49999991  0.00000000
   0.99430549  0.49999991  0.15838417
   0.82763880  0.49999991  0.31676838
   0.16097216  0.16666664  0.00000000
   0.99430549  0.16666664  0.15838417
   0.82763880  0.16666664  0.31676838
   0.49430543  0.83333319  0.00000000
   0.32763875  0.83333319  0.15838417
   0.16097207  0.83333319  0.31676838
   0.49430543  0.49999991  0.00000000
   0.32763875  0.49999991  0.15838417
   0.16097207  0.49999991  0.31676838
   0.49430543  0.16666664  0.00000000
   0.32763875  0.16666664  0.15838417
   0.16097207  0.16666664  0.31676838
   0.82763880  0.83333319  0.00000000
   0.66097212  0.83333319  0.15838417
   0.49430543  0.83333319  0.31676838
   0.82763880  0.49999991  0.00000000
   0.66097212  0.49999991  0.15838417
   0.49430543  0.49999991  0.31676838
   0.82763880  0.16666664  0.00000000
   0.66097212  0.16666664  0.15838417
   0.49430543  0.16666664  0.31676838
   0.24430546  0.74999988  0.07919210
   0.07763878  0.74999988  0.23757629
   0.91097212  0.74999988  0.39596048
   0.24430546  0.41666663  0.07919210
   0.07763878  0.41666663  0.23757629
   0.91097212  0.41666663  0.39596048
   0.24430546  0.08333333  0.07919210
   0.07763878  0.08333333  0.23757629
   0.91097212  0.08333333  0.39596048
   0.57763886  0.74999988  0.07919210
   0.41097215  0.74999988  0.23757629
   0.24430545  0.74999988  0.39596048
   0.57763886  0.41666663  0.07919210
   0.41097215  0.41666663  0.23757629
   0.24430545  0.41666663  0.39596048
   0.57763886  0.08333333  0.07919210
   0.41097215  0.08333333  0.23757629
   0.24430545  0.08333333  0.39596048
   0.91097218  0.74999988  0.07919210
   0.74430549  0.74999988  0.23757629
   0.57763875  0.74999988  0.39596048
   0.91097218  0.41666663  0.07919210
   0.74430549  0.41666663  0.23757629
   0.57763875  0.41666663  0.39596048
   0.91097218  0.08333333  0.07919210
   0.74430549  0.08333333  0.23757629
   0.57763875  0.08333333  0.39596048
   0.74196649  0.25293720  0.50793630
   0.69196653  0.90293711  0.65997148
   0.64196634  0.55293697  0.81200671
   0.84196651  0.95293725  0.50793630
   0.79196650  0.60293716  0.65997148
   0.74196637  0.25293708  0.81200671
   0.94196653  0.65293717  0.50793630
   0.89196646  0.30293712  0.65997148
   0.84196639  0.95293695  0.81200671
   0.04196656  0.35293716  0.50793630
   0.99196643  0.00293708  0.65997148
   0.94196635  0.65293693  0.81200671
   0.14196658  0.05293727  0.50793630
   0.09196651  0.70293713  0.65997148
   0.04196644  0.35293698  0.81200671
   0.24196649  0.75293720  0.50793630
   0.19196641  0.40293711  0.65997148
   0.14196634  0.05293703  0.81200671
   0.34196651  0.45293716  0.50793630
   0.29196644  0.10293710  0.65997148
   0.24196637  0.75293696  0.81200671
   0.44196665  0.15293729  0.50793630
   0.39196658  0.80293715  0.65997148
   0.34196651  0.45293707  0.81200671
   0.54196656  0.85293722  0.50793630
   0.49196649  0.50293714  0.65997148
   0.44196641  0.15293693  0.81200671
   0.64196658  0.55293721  0.50793630
   0.59196663  0.20293713  0.65997148
   0.54196644  0.85293698  0.81200671
   0.74196649  0.50293720  0.58395392
   0.69196641  0.15293706  0.73598909
   0.64196634  0.80293697  0.88802421
   0.84196651  0.20293713  0.58395392
   0.79196644  0.85293704  0.73598909
   0.74196637  0.50293690  0.88802421
   0.94196653  0.90293717  0.58395392
   0.89196646  0.55293703  0.73598909
   0.84196639  0.20293701  0.88802421
   0.04196656  0.60293710  0.58395392
   0.99196649  0.25293708  0.73598909
   0.94196641  0.90293699  0.88802421
   0.14196658  0.30293715  0.58395392
   0.09196639  0.95293707  0.73598909
   0.04196644  0.60293698  0.88802421
   0.24196661  0.00293720  0.58395392
   0.19196653  0.65293706  0.73598909
   0.14196646  0.30293703  0.88802421
   0.34196651  0.70293713  0.58395392
   0.29196644  0.35293701  0.73598909
   0.24196637  0.00293696  0.88802421
   0.44196665  0.40293717  0.58395392
   0.39196658  0.05293703  0.73598909
   0.34196651  0.70293701  0.88802421
   0.54196668  0.10293722  0.58395392
   0.49196649  0.75293708  0.73598909
   0.44196653  0.40293699  0.88802421
   0.64196658  0.80293715  0.58395392
   0.59196651  0.45293707  0.73598909
   0.54196644  0.10293698  0.88802421
   0.74196649  0.75293720  0.50793630
   0.69196653  0.40293711  0.65997148
   0.64196634  0.05293703  0.81200671
   0.84196651  0.45293719  0.50793630
   0.79196644  0.10293710  0.65997148
   0.74196637  0.75293696  0.81200671
   0.94196653  0.15293717  0.50793630
   0.89196646  0.80293709  0.65997148
   0.84196639  0.45293695  0.81200671
   0.04196656  0.85293716  0.50793630
   0.99196649  0.50293708  0.65997148
   0.94196641  0.15293693  0.81200671
   0.14196658  0.55293715  0.50793630
   0.09196651  0.20293713  0.65997148
   0.04196644  0.85293698  0.81200671
   0.24196649  0.25293708  0.50793630
   0.19196653  0.90293706  0.65997148
   0.14196634  0.55293691  0.81200671
   0.34196651  0.95293719  0.50793630
   0.29196644  0.60293710  0.65997148
   0.24196637  0.25293696  0.81200671
   0.44196653  0.65293717  0.50793630
   0.39196646  0.30293706  0.65997148
   0.34196639  0.95293695  0.81200671
   0.54196656  0.35293716  0.50793630
   0.49196649  0.00293708  0.65997148
   0.44196641  0.65293693  0.81200671
   0.64196658  0.05293727  0.50793630
   0.59196663  0.70293713  0.65997148
   0.54196644  0.35293698  0.81200671
   0.74196649  0.00293732  0.58395392
   0.69196641  0.65293711  0.73598909
   0.64196634  0.30293706  0.88802421
   0.84196651  0.70293719  0.58395392
   0.79196644  0.35293707  0.73598909
   0.74196637  0.00293708  0.88802421
   0.94196653  0.40293717  0.58395392
   0.89196646  0.05293703  0.73598909
   0.84196639  0.70293701  0.88802421
   0.04196656  0.10293722  0.58395392
   0.99196649  0.75293708  0.73598909
   0.94196641  0.40293699  0.88802421
   0.14196658  0.80293727  0.58395392
   0.09196651  0.45293716  0.73598909
   0.04196644  0.10293710  0.88802421
   0.24196649  0.50293714  0.58395392
   0.19196653  0.15293706  0.73598909
   0.14196634  0.80293697  0.88802421
   0.34196663  0.20293713  0.58395392
   0.29196644  0.85293710  0.73598909
   0.24196649  0.50293702  0.88802421
   0.44196653  0.90293723  0.58395392
   0.39196658  0.55293709  0.73598909
   0.34196639  0.20293713  0.88802421
   0.54196644  0.60293710  0.58395392
   0.49196649  0.25293708  0.73598909
   0.44196630  0.90293699  0.88802421
   0.64196658  0.30293715  0.58395392
   0.59196639  0.95293707  0.73598909
   0.54196644  0.60293692  0.88802421
