Si and Ge interface calculation         
           1
     7.680594    0.000000    0.000000
     0.000000   16.292999    0.000000
     0.000000    0.000000   16.672993
   Si   Ge
    72    48
Direct configuration=     1
   0.97851729  0.98567820  0.00000000
   0.72851723  0.81901145  0.11516523
   0.47851718  0.65234476  0.23033045
   0.22851723  0.48567814  0.34549564
   0.97851718  0.31901139  0.46066088
   0.72851718  0.15234470  0.57582611
   0.97851729  0.31901154  0.00000000
   0.72851723  0.15234485  0.11516523
   0.47851718  0.98567814  0.23033045
   0.22851723  0.81901151  0.34549564
   0.97851718  0.65234476  0.46066088
   0.72851718  0.48567808  0.57582611
   0.97851729  0.65234494  0.00000000
   0.72851723  0.48567820  0.11516523
   0.47851718  0.31901151  0.23033045
   0.22851723  0.15234487  0.34549564
   0.97851718  0.98567814  0.46066088
   0.72851718  0.81901139  0.57582611
   0.47851729  0.98567820  0.00000000
   0.22851725  0.81901145  0.11516523
   0.97851723  0.65234476  0.23033045
   0.72851729  0.48567814  0.34549561
   0.47851718  0.31901139  0.46066088
   0.22851712  0.15234470  0.57582611
   0.47851729  0.31901154  0.00000000
   0.22851725  0.15234485  0.11516523
   0.97851723  0.98567814  0.23033045
   0.72851729  0.81901151  0.34549561
   0.47851718  0.65234476  0.46066088
   0.22851712  0.48567808  0.57582611
   0.47851729  0.65234494  0.00000000
   0.22851725  0.48567820  0.11516523
   0.97851723  0.31901151  0.23033045
   0.72851729  0.15234487  0.34549561
   0.47851718  0.98567814  0.46066088
   0.22851712  0.81901139  0.57582611
   0.72851735  0.23567820  0.00000000
   0.47851729  0.06901149  0.11516522
   0.22851726  0.90234476  0.23033045
   0.97851729  0.73567814  0.34549564
   0.72851723  0.56901145  0.46066088
   0.47851723  0.40234464  0.57582605
   0.72851735  0.56901163  0.00000000
   0.47851729  0.40234488  0.11516522
   0.22851726  0.23567820  0.23033045
   0.97851729  0.06901154  0.34549564
   0.72851723  0.90234482  0.46066088
   0.47851723  0.73567808  0.57582605
   0.72851735  0.90234494  0.00000000
   0.47851729  0.73567820  0.11516522
   0.22851726  0.56901151  0.23033045
   0.97851729  0.40234485  0.34549564
   0.72851723  0.23567812  0.46066088
   0.47851723  0.06901138  0.57582605
   0.22851729  0.23567820  0.00000000
   0.97851723  0.06901149  0.11516523
   0.72851718  0.90234476  0.23033045
   0.47851729  0.73567814  0.34549561
   0.22851718  0.56901145  0.46066088
   0.97851706  0.40234464  0.57582611
   0.22851729  0.56901163  0.00000000
   0.97851723  0.40234488  0.11516523
   0.72851718  0.23567820  0.23033045
   0.47851729  0.06901154  0.34549561
   0.22851718  0.90234482  0.46066088
   0.97851706  0.73567808  0.57582611
   0.22851729  0.90234494  0.00000000
   0.97851723  0.73567820  0.11516523
   0.72851718  0.56901151  0.23033045
   0.47851729  0.40234485  0.34549561
   0.22851718  0.23567812  0.46066088
   0.97851706  0.06901138  0.57582611
   0.98274255  0.47411382  0.57582611
   0.73274261  0.09911388  0.74549568
   0.48274261  0.72411394  0.91516531
   0.48274255  0.72411382  0.57582611
   0.23274258  0.34911385  0.74549568
   0.98274261  0.97411388  0.91516531
   0.98274261  0.97411388  0.57582611
   0.73274261  0.59911394  0.74549568
   0.48274261  0.22411388  0.91516531
   0.48274252  0.22411384  0.57582611
   0.23274258  0.84911388  0.74549568
   0.98274261  0.47411388  0.91516531
   0.23274253  0.47411382  0.66066086
   0.98274261  0.09911388  0.83033055
   0.73274261  0.72411382  0.00000012
   0.73274255  0.72411382  0.66066086
   0.48274258  0.34911385  0.83033055
   0.23274255  0.97411382  0.00000012
   0.23274259  0.97411388  0.66066086
   0.98274261  0.59911394  0.83033055
   0.73274255  0.22411388  0.00000012
   0.73274249  0.22411384  0.66066086
   0.48274258  0.84911388  0.83033055
   0.23274256  0.47411388  0.00000012
   0.98274261  0.72411388  0.57582611
   0.73274267  0.34911391  0.74549568
   0.48274261  0.97411394  0.91516531
   0.98274261  0.22411385  0.57582611
   0.73274261  0.84911388  0.74549568
   0.48274261  0.47411388  0.91516531
   0.48274258  0.47411385  0.57582611
   0.23274261  0.09911391  0.74549568
   0.98274261  0.72411394  0.91516531
   0.48274255  0.97411388  0.57582611
   0.23274258  0.59911388  0.74549568
   0.98274255  0.22411394  0.91516531
   0.23274262  0.72411388  0.66066086
   0.98274261  0.34911391  0.83033055
   0.73274255  0.97411388  0.00000012
   0.23274258  0.22411387  0.66066086
   0.98274261  0.84911388  0.83033055
   0.73274255  0.47411388  0.00000012
   0.73274255  0.47411382  0.66066086
   0.48274255  0.09911384  0.83033055
   0.23274250  0.72411382  0.00000012
   0.73274255  0.97411388  0.66066086
   0.48274258  0.59911394  0.83033055
   0.23274255  0.22411388  0.00000012
