 vasp.6.4.3 19Mar24 (build Oct 22 2024 11:23:12) complex                        
  
 executed on             LinuxIFC date 2025.06.09  14:47:02
 running   64 mpi-ranks, on    4 nodes
 distrk:  each k-point on   64 cores,    1 groups
 distr:  one band on NCORE=  16 cores,    4 groups


--------------------------------------------------------------------------------------------------------


 INCAR:
   SYSTEM = Si and Ge interface calculation
   ISTART = 0
   ICHARG = 2
   LWAVE = .FALSE.
   LREAL = AUTO
   ENCUT = 700
   ENAUG = 900
   ADDGRID = .TRUE.
   LMAXMIX = 6
   LASPH = .TRUE.
   LMIXTAU = .TRUE.
   NCORE = 16
   NELM = 100
   NBANDS = 548
   EDIFF = 1d-7
   AMIX = 0.6
   ISMEAR = 0
   SIGMA = 0.01
   NELECT = 912
   ISPIN = 2
   NUPDOWN = 1
   LVTOT = .FALSE.
   LVHAR = .TRUE.

 POTCAR:    PAW_PBE Ge 05Jan2001                  
 POTCAR:    PAW_PBE Si 05Jan2001                  
 -----------------------------------------------------------------------------
|                                                                             |
|           W    W    AA    RRRRR   N    N  II  N    N   GGGG   !!!           |
|           W    W   A  A   R    R  NN   N  II  NN   N  G    G  !!!           |
|           W    W  A    A  R    R  N N  N  II  N N  N  G       !!!           |
|           W WW W  AAAAAA  RRRRR   N  N N  II  N  N N  G  GGG   !            |
|           WW  WW  A    A  R   R   N   NN  II  N   NN  G    G                |
|           W    W  A    A  R    R  N    N  II  N    N   GGGG   !!!           |
|                                                                             |
|     You use a magnetic or noncollinear calculation, but did not specify     |
|     the initial magnetic moment with the MAGMOM tag. Note that a            |
|     default of 4.386e-3 will be used for all atoms. This ferromagnetic      |
|     setup may break the symmetry of the crystal, in particular it may       |
|     rule out finding an antiferromagnetic solution. Thence, we              |
|     recommend setting the initial magnetic moment manually or verifying     |
|     carefully that this magnetic setup is desired.                          |
|                                                                             |
 -----------------------------------------------------------------------------

 POTCAR:    PAW_PBE Ge 05Jan2001                  
   VRHFIN =Ge: s2p2                                                                                 
   LEXCH  = PE                                                                                      
   EATOM  =   104.9960 eV,    7.7170 Ry                                                             
                                                                                                    
   TITEL  = PAW_PBE Ge 05Jan2001                                                                    
   LULTRA =        F    use ultrasoft PP ?                                                          
   IUNSCR =        1    unscreen: 0-lin 1-nonlin 2-no                                               
   RPACOR =    2.170    partial core radius                                                         
   POMASS =   72.610; ZVAL   =    4.000    mass and valenz                                          
   RCORE  =    2.300    outmost cutoff radius                                                       
   RWIGS  =    2.300; RWIGS  =    1.217    wigner-seitz radius (au A)                               
   ENMAX  =  173.807; ENMIN  =  130.355 eV                                                          
   ICORE  =        3    local potential                                                             
   LCOR   =        T    correct aug charges                                                         
   LPAW   =        T    paw PP                                                                      
   EAUG   =  385.843                                                                                
   DEXC   =    0.000                                                                                
   RMAX   =    2.342    core radius for proj-oper                                                   
   RAUG   =    1.300    factor for augmentation sphere                                              
   RDEP   =    2.318    radius for radial grids                                                     
   RDEPT  =    2.103    core radius for aug-charge                                                  
                                                                                                    
   Atomic configuration                                                                             
   10 entries                                                                                       
     n  l   j            E        occ.                                                              
     1  0  0.50    -10959.8463   2.0000                                                             
     2  0  0.50     -1371.6056   2.0000                                                             
     2  1  1.50     -1198.4791   6.0000                                                             
     3  0  0.50      -168.4733   2.0000                                                             
     3  1  1.50      -115.6019   6.0000                                                             
     3  2  2.50       -29.3106  10.0000                                                             
     4  0  0.50       -11.7309   2.0000                                                             
     4  1  0.50        -3.8952   2.0000                                                             
     4  2  1.50        -4.0817   0.0000                                                             
     4  3  2.50        -4.0817   0.0000                                                             
   Description                                                                                      
     l       E           TYP  RCUT    TYP  RCUT                                                     
     0    -11.7309493     23  2.300                                                                 
     0     -7.4578696     23  2.300                                                                 
     1     -3.8952261     23  2.300                                                                 
     1      6.1178114     23  2.300                                                                 
     2     -4.0817478     23  2.300                                                                 
     3     -1.3605826      7  2.300                                                                 
  local pseudopotential read in
  partial core-charges read in
  partial kinetic energy density read in
  atomic valenz-charges read in
  non local Contribution for L=           0  read in
    real space projection operators read in
  non local Contribution for L=           0  read in
    real space projection operators read in
  non local Contribution for L=           1  read in
    real space projection operators read in
  non local Contribution for L=           1  read in
    real space projection operators read in
  non local Contribution for L=           2  read in
    real space projection operators read in
    PAW grid and wavefunctions read in
 
   number of l-projection  operators is LMAX  =           5
   number of lm-projection operators is LMMAX =          13
 
 POTCAR:    PAW_PBE Si 05Jan2001                  
   VRHFIN =Si: s2p2                                                                                 
   LEXCH  = PE                                                                                      
   EATOM  =   103.0669 eV,    7.5752 Ry                                                             
                                                                                                    
   TITEL  = PAW_PBE Si 05Jan2001                                                                    
   LULTRA =        F    use ultrasoft PP ?                                                          
   IUNSCR =        1    unscreen: 0-lin 1-nonlin 2-no                                               
   RPACOR =    1.500    partial core radius                                                         
   POMASS =   28.085; ZVAL   =    4.000    mass and valenz                                          
   RCORE  =    1.900    outmost cutoff radius                                                       
   RWIGS  =    2.480; RWIGS  =    1.312    wigner-seitz radius (au A)                               
   ENMAX  =  245.345; ENMIN  =  184.009 eV                                                          
   ICORE  =        2    local potential                                                             
   LCOR   =        T    correct aug charges                                                         
   LPAW   =        T    paw PP                                                                      
   EAUG   =  322.069                                                                                
   DEXC   =    0.000                                                                                
   RMAX   =    1.950    core radius for proj-oper                                                   
   RAUG   =    1.300    factor for augmentation sphere                                              
   RDEP   =    1.993    radius for radial grids                                                     
   RDEPT  =    1.837    core radius for aug-charge                                                  
                                                                                                    
   Atomic configuration                                                                             
    6 entries                                                                                       
     n  l   j            E        occ.                                                              
     1  0  0.50     -1785.8828   2.0000                                                             
     2  0  0.50      -139.4969   2.0000                                                             
     2  1  1.50       -95.5546   6.0000                                                             
     3  0  0.50       -10.8127   2.0000                                                             
     3  1  0.50        -4.0811   2.0000                                                             
     3  2  1.50        -4.0817   0.0000                                                             
   Description                                                                                      
     l       E           TYP  RCUT    TYP  RCUT                                                     
     0    -10.8127223     23  1.900                                                                 
     0     -7.6451159     23  1.900                                                                 
     1     -4.0811372     23  1.900                                                                 
     1      2.4879257     23  1.900                                                                 
     2     -4.0817478      7  1.900                                                                 
  local pseudopotential read in
  partial core-charges read in
  partial kinetic energy density read in
  atomic valenz-charges read in
  non local Contribution for L=           0  read in
    real space projection operators read in
  non local Contribution for L=           0  read in
    real space projection operators read in
  non local Contribution for L=           1  read in
    real space projection operators read in
  non local Contribution for L=           1  read in
    real space projection operators read in
    PAW grid and wavefunctions read in
 
   number of l-projection  operators is LMAX  =           4
   number of lm-projection operators is LMMAX =           8
 
 Optimization of the real space projectors (new method)

 maximal supplied QI-value         = 16.25
 optimisation between [QCUT,QGAM] = [ 13.49, 26.98] = [ 50.95,203.80] Ry 
 Optimized for a Real-space Cutoff    1.25 Angstroem

   l    n(q)    QCUT    max X(q) W(low)/X(q) W(high)/X(q)  e(spline) 
   0     10    13.489    65.336    0.91E-04    0.11E-03    0.34E-06
   0     10    13.489    52.220    0.89E-04    0.11E-03    0.34E-06
   1     10    13.489    36.409    0.22E-03    0.27E-03    0.14E-06
   1     10    13.489    21.334    0.21E-03    0.27E-03    0.14E-06
   2      9    13.489     4.673    0.11E-03    0.12E-03    0.19E-06
 Optimization of the real space projectors (new method)

 maximal supplied QI-value         = 19.84
 optimisation between [QCUT,QGAM] = [ 13.49, 26.99] = [ 50.98,203.92] Ry 
 Optimized for a Real-space Cutoff    1.07 Angstroem

   l    n(q)    QCUT    max X(q) W(low)/X(q) W(high)/X(q)  e(spline) 
   0      9    13.493   159.560    0.22E-03    0.15E-03    0.72E-07
   0      9    13.493   115.863    0.21E-03    0.15E-03    0.71E-07
   1      8    13.493    88.339    0.15E-03    0.11E-03    0.13E-06
   1      8    13.493    48.592    0.15E-03    0.10E-03    0.13E-06
  PAW_PBE Ge 05Jan2001                  :
 energy of atom  1       EATOM= -104.9960
 kinetic energy error for atom=    0.0001 (will be added to EATOM!!)
  PAW_PBE Si 05Jan2001                  :
 energy of atom  2       EATOM= -103.0669
 kinetic energy error for atom=    0.0003 (will be added to EATOM!!)
 
 
 POSCAR: Ge+Si
  positions in direct lattice
  No initial velocities read in


 exchange-correlation table for PE
   RHO(1)=    0.500       N(1)  =     2000
   RHO(2)=  100.500       N(2)  =     4000
 


--------------------------------------------------------------------------------------------------------


 ion  position               nearest neighbor table
   1  0.994  0.667  0.000- 228 2.40  31 2.45 100 2.45
   2  0.828  0.667  0.158-  32 2.45 100 2.45  49 2.45 101 2.45
   3  0.661  0.667  0.317-  50 2.45  33 2.45 101 2.45 102 2.45
   4  0.994  0.333  0.000- 103 2.45  34 2.45 165 2.51
   5  0.828  0.333  0.158-  35 2.45 103 2.45  52 2.45 104 2.45
   6  0.661  0.333  0.317-  53 2.45 104 2.45  36 2.45 105 2.45
   7  0.994  0.000  0.000- 106 2.45  28 2.45 225 2.76 168 2.76
   8  0.828  0.000  0.158- 106 2.45  29 2.45 107 2.45  46 2.45
   9  0.661  0.000  0.317- 107 2.45 108 2.45  47 2.45  30 2.45
  10  0.328  0.667  0.000- 207 2.10  40 2.45  82 2.45
  11  0.161  0.667  0.158-  31 2.45  41 2.45  82 2.45  83 2.45
  12  0.994  0.667  0.317-  42 2.45  32 2.45  84 2.45  83 2.45
  13  0.328  0.333  0.000-  43 2.45  85 2.45 147 2.99 210 2.99
  14  0.161  0.333  0.158-  34 2.45  44 2.45  85 2.45  86 2.45
  15  0.994  0.333  0.317-  45 2.45  35 2.45  87 2.45  86 2.45
  16  0.328  0.000  0.000-  88 2.45  37 2.45 204 2.50
  17  0.161  0.000  0.158-  88 2.45  89 2.45  28 2.45  38 2.45
  18  0.994  0.000  0.317-  90 2.45  89 2.45  39 2.45  29 2.45
  19  0.661  0.667  0.000-  91 2.45  49 2.45
  20  0.494  0.667  0.158-  40 2.45  50 2.45  92 2.45  91 2.45
  21  0.328  0.667  0.317-  41 2.45  51 2.45  93 2.45  92 2.45
  22  0.661  0.333  0.000- 156 2.10  94 2.45  52 2.45
  23  0.494  0.333  0.158-  95 2.45  43 2.45  53 2.45  94 2.45
  24  0.328  0.333  0.317-  96 2.45  44 2.45  54 2.45  95 2.45
  25  0.661  0.000  0.000- 159 2.40  97 2.45  46 2.45
  26  0.494  0.000  0.158-  98 2.45  97 2.45  37 2.45  47 2.45
  27  0.328  0.000  0.317-  99 2.45  98 2.45  38 2.45  48 2.45
  28  0.078  0.917  0.079-  55 2.45  56 2.45  17 2.45   7 2.45
  29  0.911  0.917  0.238-  57 2.45   8 2.45  18 2.45  56 2.45
  30  0.744  0.917  0.396-  57 2.45   9 2.45 187 2.64
  31  0.078  0.583  0.079-  11 2.45   1 2.45  58 2.45  59 2.45
  32  0.911  0.583  0.238-   2 2.45  12 2.45  60 2.45  59 2.45
  33  0.744  0.583  0.396-   3 2.45  60 2.45 181 2.73
  34  0.078  0.250  0.079-  14 2.45  61 2.45  62 2.45   4 2.45
  35  0.911  0.250  0.238-   5 2.45  63 2.45  15 2.45  62 2.45
  36  0.744  0.250  0.396- 184 2.00  63 2.45   6 2.45
  37  0.411  0.917  0.079-  65 2.45  64 2.45  16 2.45  26 2.45
  38  0.244  0.917  0.238-  66 2.45  65 2.45  17 2.45  27 2.45
  39  0.078  0.917  0.396- 133 2.37  66 2.45  18 2.45
  40  0.411  0.583  0.079-  10 2.45  20 2.45  68 2.45  67 2.45
  41  0.244  0.583  0.238-  11 2.45  21 2.45  69 2.45  68 2.45
  42  0.078  0.583  0.396- 136 2.31  12 2.45  69 2.45
  43  0.411  0.250  0.079-  13 2.45  71 2.45  23 2.45  70 2.45
  44  0.244  0.250  0.238-  14 2.45  72 2.45  24 2.45  71 2.45
  45  0.078  0.250  0.396-  15 2.45  72 2.45 193 2.74
  46  0.744  0.917  0.079-  73 2.45  74 2.45   8 2.45  25 2.45
  47  0.578  0.917  0.238-  75 2.45  74 2.45  26 2.45   9 2.45
  48  0.411  0.917  0.396- 112 2.42  75 2.45  27 2.45
  49  0.744  0.583  0.079-   2 2.45  19 2.45  76 2.45  77 2.45
  50  0.578  0.583  0.238-  20 2.45   3 2.45  78 2.45  77 2.45
  51  0.411  0.583  0.396- 115 2.37  21 2.45  78 2.45
  52  0.744  0.250  0.079-  79 2.45  80 2.45   5 2.45  22 2.45
  53  0.578  0.250  0.238-  81 2.45  23 2.45   6 2.45  80 2.45
  54  0.411  0.250  0.396-  24 2.45  81 2.45 175 2.63
  55  0.161  0.833  0.000- 141 2.10  82 2.45  28 2.45
  56  0.994  0.833  0.158- 100 2.45  83 2.45  28 2.45  29 2.45
  57  0.828  0.833  0.317- 101 2.45  84 2.45  29 2.45  30 2.45
  58  0.161  0.500  0.000- 144 2.40  85 2.45  31 2.45
  59  0.994  0.500  0.158- 103 2.45  86 2.45  31 2.45  32 2.45
  60  0.828  0.500  0.317- 104 2.45  87 2.45  32 2.45  33 2.45
  61  0.161  0.167  0.000-  88 2.45  34 2.45
  62  0.994  0.167  0.158- 106 2.45  89 2.45  34 2.45  35 2.45
  63  0.828  0.167  0.317-  35 2.45 107 2.45  90 2.45  36 2.45
  64  0.494  0.833  0.000-  37 2.45  91 2.45 150 2.51
  65  0.328  0.833  0.158-  82 2.45  37 2.45  38 2.45  92 2.45
  66  0.161  0.833  0.317-  83 2.45  93 2.45  38 2.45  39 2.45
  67  0.494  0.500  0.000-  94 2.45  40 2.45 210 2.76 153 2.76
  68  0.328  0.500  0.158-  85 2.45  95 2.45  40 2.45  41 2.45
  69  0.161  0.500  0.317-  86 2.45  96 2.45  41 2.45  42 2.45
  70  0.494  0.167  0.000- 213 2.40  43 2.45  97 2.45
  71  0.328  0.167  0.158-  88 2.45  43 2.45  44 2.45  98 2.45
  72  0.161  0.167  0.317-  89 2.45  44 2.45  45 2.45  99 2.45
  73  0.828  0.833  0.000- 100 2.45  46 2.45 162 2.99 225 2.99
  74  0.661  0.833  0.158-  91 2.45 101 2.45  46 2.45  47 2.45
  75  0.494  0.833  0.317-  92 2.45 102 2.45  47 2.45  48 2.45
  76  0.828  0.500  0.000- 103 2.45  49 2.45 219 2.50
  77  0.661  0.500  0.158-  94 2.45 104 2.45  49 2.45  50 2.45
  78  0.494  0.500  0.317-  95 2.45 105 2.45  50 2.45  51 2.45
  79  0.828  0.167  0.000- 222 2.10  52 2.45 106 2.45
  80  0.661  0.167  0.158-  97 2.45  52 2.45  53 2.45 107 2.45
  81  0.494  0.167  0.317-  98 2.45  53 2.45 108 2.45  54 2.45
  82  0.244  0.750  0.079-  65 2.45  11 2.45  55 2.45  10 2.45
  83  0.078  0.750  0.238-  66 2.45  56 2.45  12 2.45  11 2.45
  84  0.911  0.750  0.396-  57 2.45  12 2.45 190 2.63
  85  0.244  0.417  0.079-  68 2.45  58 2.45  14 2.45  13 2.45
  86  0.078  0.417  0.238-  69 2.45  59 2.45  15 2.45  14 2.45
  87  0.911  0.417  0.396- 127 2.42  60 2.45  15 2.45
  88  0.244  0.083  0.079-  71 2.45  61 2.45  17 2.45  16 2.45
  89  0.078  0.083  0.238-  72 2.45  62 2.45  18 2.45  17 2.45
  90  0.911  0.083  0.396- 130 2.37  63 2.45  18 2.45
  91  0.578  0.750  0.079-  74 2.45  19 2.45  20 2.45  64 2.45
  92  0.411  0.750  0.238-  75 2.45  20 2.45  21 2.45  65 2.45
  93  0.244  0.750  0.396- 169 2.00  21 2.45  66 2.45
  94  0.578  0.417  0.079-  77 2.45  22 2.45  67 2.45  23 2.45
  95  0.411  0.417  0.238-  78 2.45  23 2.45  68 2.45  24 2.45
  96  0.244  0.417  0.396-  24 2.45  69 2.45 172 2.64
  97  0.578  0.083  0.079-  80 2.45  25 2.45  26 2.45  70 2.45
  98  0.411  0.083  0.238-  81 2.45  26 2.45  27 2.45  71 2.45
  99  0.244  0.083  0.396-  27 2.45  72 2.45 196 2.73
 100  0.911  0.750  0.079-  56 2.45   2 2.45   1 2.45  73 2.45
 101  0.744  0.750  0.238-  57 2.45   3 2.45  74 2.45   2 2.45
 102  0.578  0.750  0.396-  75 2.45   3 2.45 178 2.74
 103  0.911  0.417  0.079-  59 2.45   5 2.45   4 2.45  76 2.45
 104  0.744  0.417  0.238-  60 2.45  77 2.45   6 2.45   5 2.45
 105  0.578  0.417  0.396- 118 2.37  78 2.45   6 2.45
 106  0.911  0.083  0.079-  62 2.45   8 2.45   7 2.45  79 2.45
 107  0.744  0.083  0.238-  63 2.45   9 2.45  80 2.45   8 2.45
 108  0.578  0.083  0.396- 121 2.31  81 2.45   9 2.45
 109  0.239  0.253  0.508- 226 2.33 142 2.33
 110  0.189  0.903  0.660- 166 2.33 227 2.33 143 2.33 199 2.33
 111  0.139  0.553  0.812- 167 2.33 228 2.33 144 2.33 200 2.33
 112  0.339  0.953  0.508- 145 2.33 199 2.33  48 2.42
 113  0.289  0.603  0.660- 139 2.33 202 2.33 200 2.33 146 2.33
 114  0.239  0.253  0.812- 201 2.33 147 2.33 140 2.33 203 2.33
 115  0.439  0.653  0.508- 202 2.33 148 2.33  51 2.37
 116  0.389  0.303  0.660- 142 2.33 203 2.33 149 2.33 205 2.33
 117  0.339  0.953  0.812- 150 2.33 143 2.33 204 2.33 206 2.33
 118  0.539  0.353  0.508- 205 2.33 151 2.33 105 2.37
 119  0.489  0.003  0.660- 145 2.33 206 2.33 152 2.33 208 2.33
 120  0.439  0.653  0.812- 146 2.33 153 2.33 207 2.33 209 2.33
 121  0.639  0.053  0.508- 108 2.31 208 2.33 154 2.33
 122  0.589  0.703  0.660- 148 2.33 209 2.33 155 2.33 211 2.33
 123  0.539  0.353  0.812- 149 2.33 210 2.33 156 2.33 212 2.33
 124  0.739  0.753  0.508- 211 2.33 157 2.33
 125  0.689  0.403  0.660- 151 2.33 212 2.33 214 2.33 158 2.33
 126  0.639  0.053  0.812- 213 2.33 152 2.33 159 2.33 215 2.33
 127  0.839  0.453  0.508- 214 2.33 160 2.33  87 2.42
 128  0.789  0.103  0.660- 154 2.33 215 2.33 217 2.33 161 2.33
 129  0.739  0.753  0.812- 155 2.33 216 2.33 162 2.33 218 2.33
 130  0.939  0.153  0.508- 163 2.33 217 2.33  90 2.37
 131  0.889  0.803  0.660- 164 2.33 157 2.33 220 2.33 218 2.33
 132  0.839  0.453  0.812- 165 2.33 219 2.33 221 2.33 158 2.33
 133  0.039  0.853  0.508- 220 2.33 166 2.33  39 2.37
 134  0.989  0.503  0.660- 160 2.33 223 2.33 221 2.33 167 2.33
 135  0.939  0.153  0.812- 161 2.33 168 2.33 222 2.33 224 2.33
 136  0.139  0.553  0.508-  42 2.31 139 2.33 223 2.33
 137  0.089  0.203  0.660- 163 2.33 140 2.33 226 2.33 224 2.33
 138  0.039  0.853  0.812- 141 2.33 164 2.33 225 2.33 227 2.33
 139  0.239  0.503  0.584- 113 2.33 136 2.33 172 2.33 170 2.33
 140  0.189  0.153  0.736- 137 2.33 173 2.33 114 2.33 171 2.33
 141  0.139  0.803  0.888-  55 2.10 138 2.33 174 2.33
 142  0.339  0.203  0.584- 116 2.33 173 2.33 109 2.33 175 2.33
 143  0.289  0.853  0.736- 117 2.33 176 2.33 110 2.33 174 2.33
 144  0.239  0.503  0.888- 177 2.33 111 2.33  58 2.40
 145  0.439  0.903  0.584- 119 2.33 178 2.33 112 2.33 176 2.33
 146  0.389  0.553  0.736- 120 2.33 179 2.33 113 2.33 177 2.33
 147  0.339  0.203  0.888- 114 2.33 180 2.33  13 2.99
 148  0.539  0.603  0.584- 122 2.33 181 2.33 179 2.33 115 2.33
 149  0.489  0.253  0.736- 123 2.33 182 2.33 116 2.33 180 2.33
 150  0.439  0.903  0.888- 117 2.33 183 2.33  64 2.51
 151  0.639  0.303  0.584- 125 2.33 184 2.33 182 2.33 118 2.33
 152  0.589  0.953  0.736- 126 2.33 119 2.33 185 2.33 183 2.33
 153  0.539  0.603  0.888- 120 2.33 186 2.33  67 2.76
 154  0.739  0.003  0.584- 128 2.33 187 2.33 121 2.33 185 2.33
 155  0.689  0.653  0.736- 129 2.33 188 2.33 122 2.33 186 2.33
 156  0.639  0.303  0.888-  22 2.10 189 2.33 123 2.33
 157  0.839  0.703  0.584- 190 2.33 124 2.33 188 2.33 131 2.33
 158  0.789  0.353  0.736- 191 2.33 125 2.33 132 2.33 189 2.33
 159  0.739  0.003  0.888- 192 2.33 126 2.33  25 2.40
 160  0.939  0.403  0.584- 134 2.33 193 2.33 127 2.33 191 2.33
 161  0.889  0.053  0.736- 135 2.33 194 2.33 128 2.33 192 2.33
 162  0.839  0.703  0.888- 195 2.33 129 2.33  73 2.99
 163  0.039  0.103  0.584- 137 2.33 130 2.33 196 2.33 194 2.33
 164  0.989  0.753  0.736- 138 2.33 197 2.33 131 2.33 195 2.33
 165  0.939  0.403  0.888- 132 2.33 198 2.33   4 2.51
 166  0.139  0.803  0.584- 110 2.33 169 2.33 197 2.33 133 2.33
 167  0.089  0.453  0.736- 111 2.33 170 2.33 134 2.33 198 2.33
 168  0.039  0.103  0.888- 171 2.33 135 2.33   7 2.76
 169  0.239  0.753  0.508-  93 2.00 166 2.33 202 2.33
 170  0.189  0.403  0.660- 167 2.33 226 2.33 203 2.33 139 2.33
 171  0.139  0.053  0.812- 168 2.33 204 2.33 227 2.33 140 2.33
 172  0.339  0.453  0.508- 139 2.33 205 2.33  96 2.64
 173  0.289  0.103  0.660- 199 2.33 140 2.33 142 2.33 206 2.33
 174  0.239  0.753  0.812- 200 2.33 207 2.33 141 2.33 143 2.33
 175  0.439  0.153  0.508- 208 2.33 142 2.33  54 2.63
 176  0.389  0.803  0.660- 202 2.33 143 2.33 209 2.33 145 2.33
 177  0.339  0.453  0.812- 203 2.33 210 2.33 144 2.33 146 2.33
 178  0.539  0.853  0.508- 211 2.33 145 2.33 102 2.74
 179  0.489  0.503  0.660- 205 2.33 146 2.33 212 2.33 148 2.33
 180  0.439  0.153  0.812- 213 2.33 206 2.33 147 2.33 149 2.33
 181  0.639  0.553  0.508- 214 2.33 148 2.33  33 2.73
 182  0.589  0.203  0.660- 208 2.33 215 2.33 149 2.33 151 2.33
 183  0.539  0.853  0.812- 216 2.33 209 2.33 150 2.33 152 2.33
 184  0.739  0.253  0.508-  36 2.00 217 2.33 151 2.33
 185  0.689  0.903  0.660- 211 2.33 218 2.33 152 2.33 154 2.33
 186  0.639  0.553  0.812- 212 2.33 219 2.33 153 2.33 155 2.33
 187  0.839  0.953  0.508- 154 2.33 220 2.33  30 2.64
 188  0.789  0.603  0.660- 155 2.33 214 2.33 157 2.33 221 2.33
 189  0.739  0.253  0.812- 156 2.33 215 2.33 222 2.33 158 2.33
 190  0.939  0.653  0.508- 157 2.33 223 2.33  84 2.63
 191  0.889  0.303  0.660- 217 2.33 224 2.33 158 2.33 160 2.33
 192  0.839  0.953  0.812- 218 2.33 225 2.33 159 2.33 161 2.33
 193  0.039  0.353  0.508- 226 2.33 160 2.33  45 2.74
 194  0.989  0.003  0.660- 220 2.33 161 2.33 227 2.33 163 2.33
 195  0.939  0.653  0.812- 221 2.33 162 2.33 228 2.33 164 2.33
 196  0.139  0.053  0.508- 199 2.33 163 2.33  99 2.73
 197  0.089  0.703  0.660- 200 2.33 164 2.33 166 2.33 223 2.33
 198  0.039  0.353  0.812- 201 2.33 165 2.33 224 2.33 167 2.33
 199  0.239  0.003  0.584- 173 2.33 196 2.33 112 2.33 110 2.33
 200  0.189  0.653  0.736- 174 2.33 197 2.33 113 2.33 111 2.33
 201  0.139  0.303  0.888- 198 2.33 114 2.33
 202  0.339  0.703  0.584- 176 2.33 113 2.33 169 2.33 115 2.33
 203  0.289  0.353  0.736- 177 2.33 116 2.33 170 2.33 114 2.33
 204  0.239  0.003  0.888- 171 2.33 117 2.33  16 2.50
 205  0.439  0.403  0.584- 179 2.33 118 2.33 172 2.33 116 2.33
 206  0.389  0.053  0.736- 180 2.33 119 2.33 173 2.33 117 2.33
 207  0.339  0.703  0.888-  10 2.10 174 2.33 120 2.33
 208  0.539  0.103  0.584- 182 2.33 175 2.33 121 2.33 119 2.33
 209  0.489  0.753  0.736- 183 2.33 122 2.33 176 2.33 120 2.33
 210  0.439  0.403  0.888- 177 2.33 123 2.33  67 2.76  13 2.99
 211  0.639  0.803  0.584- 185 2.33 178 2.33 124 2.33 122 2.33
 212  0.589  0.453  0.736- 186 2.33 125 2.33 179 2.33 123 2.33
 213  0.539  0.103  0.888- 180 2.33 126 2.33  70 2.40
 214  0.739  0.503  0.584- 188 2.33 127 2.33 181 2.33 125 2.33
 215  0.689  0.153  0.736- 189 2.33 128 2.33 182 2.33 126 2.33
 216  0.639  0.803  0.888- 183 2.33 129 2.33
 217  0.839  0.203  0.584- 191 2.33 130 2.33 184 2.33 128 2.33
 218  0.789  0.853  0.736- 192 2.33 185 2.33 131 2.33 129 2.33
 219  0.739  0.503  0.888- 186 2.33 132 2.33  76 2.50
 220  0.939  0.903  0.584- 194 2.33 133 2.33 131 2.33 187 2.33
 221  0.889  0.553  0.736- 195 2.33 134 2.33 132 2.33 188 2.33
 222  0.839  0.203  0.888-  79 2.10 189 2.33 135 2.33
 223  0.039  0.603  0.584- 134 2.33 190 2.33 197 2.33 136 2.33
 224  0.989  0.253  0.736- 198 2.33 191 2.33 137 2.33 135 2.33
 225  0.939  0.903  0.888- 192 2.33 138 2.33   7 2.76  73 2.99
 226  0.139  0.303  0.584- 170 2.33 193 2.33 137 2.33 109 2.33
 227  0.089  0.953  0.736- 171 2.33 194 2.33 110 2.33 138 2.33
 228  0.039  0.603  0.888- 195 2.33 111 2.33   1 2.40
 
  LATTYP: Found a simple tetragonal cell.
 ALAT       =    16.9734001160
 C/A-ratio  =     1.0522935852
  
  Lattice vectors:
  
 A1 = (  16.9734001160,   0.0000000000,   0.0000000000)
 A2 = (   0.0000000000,  16.9734001160,   0.0000000000)
 A3 = (   0.0000000000,   0.0000000000,  17.8610000610)


Analysis of symmetry for initial positions (statically):
=====================================================================
 Subroutine PRICEL returns following result:
 
  LATTYP: Found a simple tetragonal cell.
 ALAT       =    12.0020066819
 C/A-ratio  =     1.4881678151
  
  Lattice vectors:
  
 A1 = (   8.4866990566,  -8.4867015686,   0.0000000000)
 A2 = (   8.4866990566,   8.4866985474,   0.0000000000)
 A3 = (   0.0000000000,   0.0000000000,  17.8610000610)
 
   2 primitive cells build up your supercell.
 

 Routine SETGRP: Setting up the symmetry group for a 
 simple tetragonal supercell.


 Subroutine GETGRP returns: Found  1 space group operations
 (whereof  1 operations were pure point group operations)
 out of a pool of 16 trial point group operations.


The static configuration has the point symmetry C_1 .


Analysis of symmetry for dynamics (positions and initial velocities):
=====================================================================
 Subroutine PRICEL returns following result:
 
  LATTYP: Found a simple tetragonal cell.
 ALAT       =    12.0020066819
 C/A-ratio  =     1.4881678151
  
  Lattice vectors:
  
 A1 = (   8.4866990566,  -8.4867015686,   0.0000000000)
 A2 = (   8.4866990566,   8.4866985474,   0.0000000000)
 A3 = (   0.0000000000,   0.0000000000,  17.8610000610)
 
   2 primitive cells build up your supercell.
 

 Routine SETGRP: Setting up the symmetry group for a 
 simple tetragonal supercell.


 Subroutine GETGRP returns: Found  1 space group operations
 (whereof  1 operations were pure point group operations)
 out of a pool of 16 trial point group operations.


The dynamic configuration has the point symmetry C_1 .


Analysis of structural, dynamic, and magnetic symmetry:
=====================================================================
 Subroutine PRICEL returns following result:
 
  LATTYP: Found a simple tetragonal cell.
 ALAT       =    12.0020066819
 C/A-ratio  =     1.4881678151
  
  Lattice vectors:
  
 A1 = (   8.4866990566,  -8.4867015686,   0.0000000000)
 A2 = (   8.4866990566,   8.4866985474,   0.0000000000)
 A3 = (   0.0000000000,   0.0000000000,  17.8610000610)
 
   2 primitive cells build up your supercell.
 

 Routine SETGRP: Setting up the symmetry group for a 
 simple tetragonal supercell.


 Subroutine GETGRP returns: Found  1 space group operations
 (whereof  1 operations were pure point group operations)
 out of a pool of 16 trial point group operations.


The overall configuration has the point symmetry C_1 .


 Subroutine INISYM returns: Found  1 space group operations
 (whereof  1 operations are pure point group operations),
 and found     2 'primitive' translations


----------------------------------------------------------------------------------------

                                     Primitive cell                                     

  volume of cell :    2572.8438

  direct lattice vectors                    reciprocal lattice vectors
     8.486699057 -8.486701569  0.000000000     0.058915711 -0.058915715  0.000000000
     8.486699057  8.486698547  0.000000000     0.058915732  0.058915715  0.000000000
     0.000000000  0.000000000 17.861000061     0.000000000  0.000000000  0.055987906

  length of vectors
    12.002006682 12.002004546 17.861000061     0.083319400  0.083319415  0.055987906

  position of ions in fractional coordinates (direct lattice)
     0.327638864  0.660972352  0.000000000
     0.160972248  0.494305677  0.158384174
     0.994305511  0.327638881  0.316768378
     0.660972147  0.327639069  0.000000000
     0.494305531  0.160972036  0.158384174
     0.327638870  0.994305316  0.316768378
     0.994305431  0.994305785  0.000000000
     0.827638814  0.827638753  0.158384174
     0.660972153  0.660972033  0.316768378
     0.660972218  0.994305469  0.000000000
     0.494305571  0.827638763  0.158384174
     0.327638805  0.660972293  0.316768378
     0.994305561  0.660972244  0.000000000
     0.827638854  0.494305480  0.158384174
     0.660972088  0.327639010  0.316768378
     0.327638844  0.327638961  0.000000000
     0.160972167  0.160972225  0.158384174
     0.994305372  0.994305726  0.316768378
     0.994305511  0.327638881  0.000000000
     0.827638789  0.160972427  0.158384174
     0.660972158  0.994305409  0.316768378
     0.327638959  0.994305405  0.000000000
     0.160972237  0.827638979  0.158384174
     0.994305561  0.660972244  0.316768378
     0.660972242  0.660972122  0.000000000
     0.494305520  0.494305696  0.158384174
     0.327638844  0.327638961  0.316768378
     0.160972270  0.994305432  0.079192095
     0.994305496  0.827638955  0.237576291
     0.827638805  0.660972146  0.395960480
     0.494305524  0.660972178  0.079192095
     0.327638750  0.494305701  0.237576291
     0.160972133  0.327639024  0.395960480
     0.827638882  0.327638820  0.079192095
     0.660972108  0.160972343  0.237576291
     0.494305551  0.994305400  0.395960480
     0.494305496  0.327639075  0.079192095
     0.327638835  0.160972056  0.237576291
     0.160972151  0.994305313  0.395960480
     0.827638751  0.994305524  0.079192095
     0.660972089  0.827638802  0.237576291
     0.494305405  0.660972059  0.395960480
     0.160972242  0.660972329  0.079192095
     0.994305565  0.494305592  0.237576291
     0.827638763  0.327638701  0.395960480
     0.827638820  0.660972161  0.079192095
     0.660972151  0.494305433  0.237576291
     0.494305436  0.327639015  0.395960480
     0.160972133  0.327639024  0.079192095
     0.994305397  0.160972229  0.237576291
     0.827638721  0.994305494  0.395960480
     0.494305566  0.994305415  0.079192095
     0.327638897  0.827638687  0.237576291
     0.160972182  0.660972269  0.395960480
     0.986070708  0.491945367  0.507936299
     0.286070753  0.091945048  0.659971476
     0.586070828  0.691944819  0.812006712
     0.386070708  0.291945318  0.507936299
     0.686070723  0.891945150  0.659971476
     0.986070828  0.491945009  0.812006712
     0.786070768  0.091945272  0.507936299
     0.086070783  0.691945399  0.659971476
     0.386070797  0.291945229  0.812006712
     0.186070797  0.891945255  0.507936299
     0.486070693  0.491945321  0.659971476
     0.786070828  0.091944854  0.812006712
     0.586070827  0.691945296  0.507936299
     0.886070753  0.291945214  0.659971476
     0.186070917  0.891944897  0.812006712
     0.736070738  0.741945219  0.583953917
     0.036070902  0.341945257  0.735989094
     0.336070828  0.941944819  0.888024211
     0.136070738  0.541945288  0.583953917
     0.436070783  0.141944972  0.735989094
     0.736070917  0.741944802  0.888024211
     0.536070827  0.341945509  0.583953917
     0.836070842  0.941945220  0.735989094
     0.136070857  0.541945169  0.888024211
     0.936070797  0.141945255  0.583953917
     0.236070813  0.741945321  0.735989094
     0.536070827  0.341945151  0.888024211
     0.336070887  0.941945236  0.583953917
     0.636070902  0.541945067  0.735989094
     0.936070917  0.141944897  0.888024211
     0.486070738  0.991945219  0.507936299
     0.786070753  0.591945048  0.659971476
     0.086070857  0.191944908  0.812006712
     0.886070678  0.791945348  0.507936299
     0.186070694  0.391945179  0.659971476
     0.486070858  0.991944861  0.812006712
     0.286070708  0.591945390  0.507936299
     0.586070752  0.191945190  0.659971476
     0.886070798  0.791944990  0.812006712
     0.686070857  0.391945195  0.507936299
     0.986070753  0.991945261  0.659971476
     0.286070828  0.591945032  0.812006712
     0.086070798  0.191945325  0.507936299
     0.386070843  0.791945126  0.659971476
     0.686070917  0.391944897  0.812006712
     0.236070768  0.241945307  0.583953917
     0.536070753  0.841945048  0.735989094
     0.836070798  0.441944967  0.888024211
     0.636070738  0.041945230  0.583953917
     0.936070753  0.641945238  0.735989094
     0.236070768  0.241945069  0.888024211
     0.036070709  0.841945509  0.583953917
     0.336070783  0.441945279  0.735989094
     0.636070798  0.041944932  0.888024211
     0.436070798  0.641945016  0.583953917
     0.736070694  0.241945202  0.735989094
     0.036070708  0.841945032  0.888024211
     0.836070679  0.441945444  0.583953917
     0.136070782  0.041944947  0.735989094
     0.436070857  0.641944719  0.888024211

  ion indices of the primitive-cell ions
   primitive index   ion index
                 1           1
                 2           2
                 3           3
                 4           4
                 5          65
                 6          66
                 7           7
                 8          68
                 9          69
                10          10
                11          11
                12          12
                13          73
                14          14
                15          15
                16          76
                17          77
                18          18
                19          19
                20          62
                21          21
                22          55
                23          56
                24          57
                25          58
                26          59
                27          60
                28          28
                29          29
                30          96
                31          31
                32          32
                33          33
                34          34
                35          35
                36          93
                37         103
                38          38
                39          39
                40          40
                41          41
                42          42
                43         100
                44         101
                45          45
                46          85
                47          86
                48          87
                49          49
                50          50
                51          51
                52          82
                53          83
                54          84
                55         124
                56         110
                57         111
                58         127
                59         113
                60         129
                61         115
                62         131
                63         132
                64         133
                65         134
                66         120
                67         136
                68         122
                69         138
                70         139
                71         155
                72         141
                73         157
                74         143
                75         144
                76         160
                77         161
                78         162
                79         163
                80         164
                81         165
                82         166
                83         167
                84         168
                85         169
                86         170
                87         186
                88         187
                89         188
                90         174
                91         190
                92         191
                93         192
                94         193
                95         194
                96         195
                97         181
                98         197
                99         198
               100         214
               101         200
               102         216
               103         202
               104         218
               105         219
               106         220
               107         221
               108         207
               109         223
               110         224
               111         225
               112         211
               113         227
               114         228

----------------------------------------------------------------------------------------

 
 
 KPOINTS: Automatic KPOINTS generated             

Automatic generation of k-mesh.
 Grid dimensions read from file:
 generate k-points for:    2    2    2

 Generating k-lattice:

  Cartesian coordinates                     Fractional coordinates (reciprocal lattice)
     0.029457857  0.000000000  0.000000000     0.500000000  0.000000000  0.000000000
     0.000000000  0.029457857  0.000000000     0.000000000  0.500000000  0.000000000
     0.000000000  0.000000000  0.027993953     0.000000000  0.000000000  0.500000000

  Length of vectors
     0.029457857  0.029457857  0.027993953

  Shift w.r.t. Gamma in fractional coordinates (k-lattice)
     0.000000000  0.000000000  0.000000000

 
 Subroutine IBZKPT returns following result:
 ===========================================
 
 Found      8 irreducible k-points:
 
 Following reciprocal coordinates:
            Coordinates               Weight
  0.000000  0.000000  0.000000      1.000000
  0.500000  0.000000  0.000000      1.000000
  0.000000  0.500000  0.000000      1.000000
  0.500000  0.500000  0.000000      1.000000
  0.000000  0.000000  0.500000      1.000000
  0.500000  0.000000  0.500000      1.000000
  0.000000  0.500000  0.500000      1.000000
  0.500000  0.500000  0.500000      1.000000
 
 Following cartesian coordinates:
            Coordinates               Weight
  0.000000  0.000000  0.000000      1.000000
  0.029458  0.000000  0.000000      1.000000
  0.000000  0.029458  0.000000      1.000000
  0.029458  0.029458  0.000000      1.000000
  0.000000  0.000000  0.027994      1.000000
  0.029458  0.000000  0.027994      1.000000
  0.000000  0.029458  0.027994      1.000000
  0.029458  0.029458  0.027994      1.000000
 


--------------------------------------------------------------------------------------------------------




 Dimension of arrays:
   k-points           NKPTS =      8   k-points in BZ     NKDIM =      8   number of bands    NBANDS=    548
   number of dos      NEDOS =    301   number of ions     NIONS =    228
   non local maximal  LDIM  =      5   non local SUM 2l+1 LMDIM =     13
   total plane-waves  NPLWV = ******
   max r-space proj   IRMAX =   2420   max aug-charges    IRDMAX= 127378
   dimension x,y,z NGX =   112 NGY =  112 NGZ =  120
   dimension x,y,z NGXF=   224 NGYF=  224 NGZF=  240
   support grid    NGXF=   448 NGYF=  448 NGZF=  480
   ions per type =             108 120
   NGX,Y,Z   is equivalent  to a cutoff of  10.97, 10.97, 11.17 a.u.
   NGXF,Y,Z  is equivalent  to a cutoff of  21.94, 21.94, 22.34 a.u.

 SYSTEM =  Si and Ge interface calculation         
 POSCAR =  Ge+Si                                   

 Startparameter for this run:
   NWRITE =      2    write-flag & timer
   PREC   = normal    normal or accurate (medium, high low for compatibility)
   ISTART =      0    job   : 0-new  1-cont  2-samecut
   ICHARG =      2    charge: 1-file 2-atom 10-const
   ISPIN  =      2    spin polarized calculation?
   LNONCOLLINEAR =      F non collinear calculations
   LSORBIT =      F    spin-orbit coupling
   INIWAV =      1    electr: 0-lowe 1-rand  2-diag
   LASPH  =      T    aspherical Exc in radial PAW
 Electronic Relaxation 1
   ENCUT  =  700.0 eV  51.45 Ry    7.17 a.u.  36.62 36.62 38.53*2*pi/ulx,y,z
   ENINI  =  700.0     initial cutoff
   ENAUG  =  900.0 eV  augmentation charge cutoff
   NELM   =    100;   NELMIN=  2; NELMDL= -5     # of ELM steps 
   EDIFF  = 0.1E-06   stopping-criterion for ELM
   LREAL  =      T    real-space projection
   NLSPLINE    = F    spline interpolate recip. space projectors
   LCOMPAT=      F    compatible to vasp.4.4
   GGA_COMPAT  = T    GGA compatible to vasp.4.4-vasp.4.6
   LMAXPAW     = -100 max onsite density
   LMAXMIX     =    6 max onsite mixed and CHGCAR
   VOSKOWN=      0    Vosko Wilk Nusair interpolation
   ROPT   =   -0.00050  -0.00050
 Ionic relaxation
   EDIFFG = 0.1E-05   stopping-criterion for IOM
   NSW    =      0    number of steps for IOM
   NBLOCK =      1;   KBLOCK =      1    inner block; outer block 
   IBRION =     -1    ionic relax: 0-MD 1-quasi-New 2-CG
   NFREE  =      0    steps in history (QN), initial steepest desc. (CG)
   ISIF   =      2    stress and relaxation
   IWAVPR =     10    prediction:  0-non 1-charg 2-wave 3-comb
   ISYM   =      2    0-nonsym 1-usesym 2-fastsym
   LCORR  =      T    Harris-Foulkes like correction to forces

   POTIM  = 0.5000    time-step for ionic-motion
   TEIN   =    0.0    initial temperature
   TEBEG  =    0.0;   TEEND  =   0.0 temperature during run
   SMASS  =  -3.00    Nose mass-parameter (am)
   estimated Nose-frequenzy (Omega)   =  0.10E-29 period in steps = 0.13E+47 mass=  -0.658E-26a.u.
   SCALEE = 1.0000    scale energy and forces
   NPACO  =    256;   APACO  = 10.0  distance and # of slots for P.C.
   PSTRESS=    0.0 pullay stress

  Mass of Ions in am
   POMASS =  72.61 28.09
  Ionic Valenz
   ZVAL   =   4.00  4.00
  Atomic Wigner-Seitz radii
   RWIGS  =  -1.00 -1.00
  virtual crystal weights 
   VCA    =   1.00  1.00
   NELECT =     912.0000    total number of electrons
   NUPDOWN=       1.0000    fix difference up-down

 DOS related values:
   EMIN   =  10.00;   EMAX   =-10.00  energy-range for DOS
   EFERMI =   0.00;   METHOD = LEGACY      
   ISMEAR =     0;   SIGMA  =   0.01  broadening in eV -4-tet -1-fermi 0-gaus

 Electronic relaxation 2 (details)
   IALGO  =     38    algorithm
   LDIAG  =      T    sub-space diagonalisation (order eigenvalues)
   LSUBROT=      F    optimize rotation matrix (better conditioning)
   TURBO    =      0    0=normal 1=particle mesh
   IRESTART =      0    0=no restart 2=restart with 2 vectors
   NREBOOT  =      0    no. of reboots
   NMIN     =      0    reboot dimension
   EREF     =   0.00    reference energy to select bands
   IMIX   =      4    mixing-type and parameters
     AMIX     =   0.60;   BMIX     =  1.00
     AMIX_MAG =   2.40;   BMIX_MAG =  1.00
     AMIN     =   0.10
     WC   =   100.;   INIMIX=   1;  MIXPRE=   1;  MAXMIX= -45

 Intra band minimization:
   WEIMIN = 0.0000     energy-eigenvalue tresh-hold
   EBREAK =  0.46E-10  absolut break condition
   DEPER  =   0.30     relativ break condition  

   TIME   =   0.40     timestep for ELM

  volume/ion in A,a.u.               =      22.57       152.30
  Fermi-wavevector in a.u.,A,eV,Ry     =   0.919585  1.737764 11.505588  0.845637
  Thomas-Fermi vector in A             =   2.044795
 
 Write flags
   LWAVE        =      F    write WAVECAR
   LDOWNSAMPLE  =      F    k-point downsampling of WAVECAR
   LCHARG       =      T    write CHGCAR
   LVTOT        =      F    write LOCPOT, total local potential
   LVHAR        =      T    write LOCPOT, Hartree potential only
   WRT_POTENTIAL=  hartree ionic  ! write potential to hdf5 file
   LELF         =      F    write electronic localiz. function (ELF)
   LORBIT       =      0    0 simple, 1 ext, 2 COOP (PROOUT), +10 PAW based schemes


 Dipole corrections
   LMONO      =      F    monopole corrections only (constant potential shift)
   LDIPOL     =      F    correct potential (dipole corrections)
   IDIPOL     =      0    1-x, 2-y, 3-z, 4-all directions 
   EPSILON    =  1.0000000 bulk dielectric constant
   LVACPOTAV  =      F  vacuum potentials using an averaging scheme for the charge density
   VACPOTFLAT =  0.1000000 required flatness to determine vacuum potential
 Exchange correlation treatment:
   GGA     = PE    functional components
   XC_C    = 1    coefficients multiplying the functional components
   LIBXC   =     F    Libxc                    
   VOSKOWN =     0    Vosko Wilk Nusair interpolation
   LHFCALC =     F    Hartree Fock is set to
   LHFONE  =     F    Hartree Fock one center treatment
   AEXX    =    0.0000 exact exchange contribution

 Parameters of functionals:
   PE:
     No parameter
 
 Van der Waals corrections
   IVDW    =     0    specifies the selected vdW correction

 Linear response parameters
   LEPSILON=     F    determine dielectric tensor
   LRPA    =     F    only Hartree local field effects (RPA)
   LNABLA  =     F    use nabla operator in PAW spheres
   LVEL    =     F    velocity operator in full k-point grid
   CSHIFT  =0.1000    complex shift for real part using Kramers Kronig
   OMEGAMAX=  -1.0    maximum frequency
   DEG_THRESHOLD= 0.2000000E-02 threshold for treating states as degnerate
   RTIME   =   -0.100 relaxation time in fs
  (WPLASMAI=    0.000 imaginary part of plasma frequency in eV, 0.658/RTIME)
   DFIELD  = 0.0000000 0.0000000 0.0000000 field for delta impulse in time
 
  Optional k-point grid parameters
   LKPOINTS_OPT  =     F    use optional k-point grid
   KPOINTS_OPT_MODE=     1    mode for optional k-point grid
 
 Orbital magnetization related:
   ORBITALMAG=     F  switch on orbital magnetization
   LCHIMAG   =     F  perturbation theory with respect to B field
   DQ        =  0.001000  dq finite difference perturbation B field
   LLRAUG    =     F  two centre corrections for induced B field
   LBONE     =     F  B-component reconstruction in AE one-centre
   LVGVCALC  =     T  calculate vGv susceptibility
   LVGVAPPL  =     F  apply vGv susceptibility instead of pGv for G=0

 Random number generation:
   RANDOM_GENERATOR = DEFAULT
   PCG_SEED         = not used


--------------------------------------------------------------------------------------------------------


 Static calculation
 charge density and potential will be updated during run
 spin polarized calculation
 Variant of blocked Davidson
 Davidson routine will perform the subspace rotation
 perform sub-space diagonalisation
    after iterative eigenvector-optimisation
 modified Broyden-mixing scheme, WC =      100.0
 initial mixing is a Kerker type mixing with AMIX =  0.6000 and BMIX =      1.0000
 Hartree-type preconditioning will be used
 using additional bands           92
 real space projection scheme for non local part
 use partial core corrections
 calculate Harris-corrections to forces 
   (improved forces if not selfconsistent)
 use gradient corrections 
 use of overlap-Matrix (Vanderbilt PP)
 Gauss-broadening in eV      SIGMA  =   0.01


--------------------------------------------------------------------------------------------------------


  energy-cutoff  :      700.00
  volume of cell :     5145.69
      direct lattice vectors                 reciprocal lattice vectors
    16.973400116  0.000000000  0.000000000     0.058915715  0.000000000  0.000000000
     0.000000000 16.973400116  0.000000000     0.000000000  0.058915715  0.000000000
     0.000000000  0.000000000 17.861000061     0.000000000  0.000000000  0.055987906

  length of vectors
    16.973400116 16.973400116 17.861000061     0.058915715  0.058915715  0.055987906


 
 k-points in units of 2pi/SCALE and weight: Automatic KPOINTS generated             
   0.00000000  0.00000000  0.00000000       0.125
   0.02945786  0.00000000  0.00000000       0.125
   0.00000000  0.02945786  0.00000000       0.125
   0.02945786  0.02945786  0.00000000       0.125
   0.00000000  0.00000000  0.02799395       0.125
   0.02945786  0.00000000  0.02799395       0.125
   0.00000000  0.02945786  0.02799395       0.125
   0.02945786  0.02945786  0.02799395       0.125
 
 k-points in reciprocal lattice and weights: Automatic KPOINTS generated             
   0.00000000  0.00000000  0.00000000       0.125
   0.50000000  0.00000000  0.00000000       0.125
   0.00000000  0.50000000  0.00000000       0.125
   0.50000000  0.50000000  0.00000000       0.125
   0.00000000  0.00000000  0.50000000       0.125
   0.50000000  0.00000000  0.50000000       0.125
   0.00000000  0.50000000  0.50000000       0.125
   0.50000000  0.50000000  0.50000000       0.125
 
 position of ions in fractional coordinates (direct lattice) 
   0.99430549  0.66666657  0.00000000
   0.82763886  0.66666657  0.15838417
   0.66097212  0.66666657  0.31676838
   0.99430549  0.33333328  0.00000000
   0.82763886  0.33333328  0.15838417
   0.66097212  0.33333328  0.31676838
   0.99430549  0.00000000  0.00000000
   0.82763886  0.00000000  0.15838417
   0.66097212  0.00000000  0.31676838
   0.32763880  0.66666657  0.00000000
   0.16097215  0.66666657  0.15838417
   0.99430543  0.66666657  0.31676838
   0.32763880  0.33333328  0.00000000
   0.16097215  0.33333328  0.15838417
   0.99430543  0.33333328  0.31676838
   0.32763880  0.00000000  0.00000000
   0.16097215  0.00000000  0.15838417
   0.99430543  0.00000000  0.31676838
   0.66097212  0.66666657  0.00000000
   0.49430543  0.66666657  0.15838417
   0.32763875  0.66666657  0.31676838
   0.66097212  0.33333328  0.00000000
   0.49430543  0.33333328  0.15838417
   0.32763875  0.33333328  0.31676838
   0.66097212  0.00000000  0.00000000
   0.49430543  0.00000000  0.15838417
   0.32763875  0.00000000  0.31676838
   0.07763884  0.91666657  0.07919210
   0.91097212  0.91666657  0.23757629
   0.74430549  0.91666657  0.39596048
   0.07763884  0.58333331  0.07919210
   0.91097212  0.58333331  0.23757629
   0.74430549  0.58333331  0.39596048
   0.07763884  0.24999995  0.07919210
   0.91097212  0.24999995  0.23757629
   0.74430549  0.24999995  0.39596048
   0.41097209  0.91666657  0.07919210
   0.24430542  0.91666657  0.23757629
   0.07763872  0.91666657  0.39596048
   0.41097209  0.58333331  0.07919210
   0.24430542  0.58333331  0.23757629
   0.07763872  0.58333331  0.39596048
   0.41097209  0.24999995  0.07919210
   0.24430542  0.24999995  0.23757629
   0.07763872  0.24999995  0.39596048
   0.74430549  0.91666657  0.07919210
   0.57763875  0.91666657  0.23757629
   0.41097206  0.91666657  0.39596048
   0.74430549  0.58333331  0.07919210
   0.57763875  0.58333331  0.23757629
   0.41097206  0.58333331  0.39596048
   0.74430549  0.24999995  0.07919210
   0.57763875  0.24999995  0.23757629
   0.41097206  0.24999995  0.39596048
   0.16097216  0.83333319  0.00000000
   0.99430549  0.83333319  0.15838417
   0.82763880  0.83333319  0.31676838
   0.16097216  0.49999991  0.00000000
   0.99430549  0.49999991  0.15838417
   0.82763880  0.49999991  0.31676838
   0.16097216  0.16666664  0.00000000
   0.99430549  0.16666664  0.15838417
   0.82763880  0.16666664  0.31676838
   0.49430543  0.83333319  0.00000000
   0.32763875  0.83333319  0.15838417
   0.16097207  0.83333319  0.31676838
   0.49430543  0.49999991  0.00000000
   0.32763875  0.49999991  0.15838417
   0.16097207  0.49999991  0.31676838
   0.49430543  0.16666664  0.00000000
   0.32763875  0.16666664  0.15838417
   0.16097207  0.16666664  0.31676838
   0.82763880  0.83333319  0.00000000
   0.66097212  0.83333319  0.15838417
   0.49430543  0.83333319  0.31676838
   0.82763880  0.49999991  0.00000000
   0.66097212  0.49999991  0.15838417
   0.49430543  0.49999991  0.31676838
   0.82763880  0.16666664  0.00000000
   0.66097212  0.16666664  0.15838417
   0.49430543  0.16666664  0.31676838
   0.24430546  0.74999988  0.07919210
   0.07763878  0.74999988  0.23757629
   0.91097212  0.74999988  0.39596048
   0.24430546  0.41666663  0.07919210
   0.07763878  0.41666663  0.23757629
   0.91097212  0.41666663  0.39596048
   0.24430546  0.08333333  0.07919210
   0.07763878  0.08333333  0.23757629
   0.91097212  0.08333333  0.39596048
   0.57763886  0.74999988  0.07919210
   0.41097215  0.74999988  0.23757629
   0.24430545  0.74999988  0.39596048
   0.57763886  0.41666663  0.07919210
   0.41097215  0.41666663  0.23757629
   0.24430545  0.41666663  0.39596048
   0.57763886  0.08333333  0.07919210
   0.41097215  0.08333333  0.23757629
   0.24430545  0.08333333  0.39596048
   0.91097218  0.74999988  0.07919210
   0.74430549  0.74999988  0.23757629
   0.57763875  0.74999988  0.39596048
   0.91097218  0.41666663  0.07919210
   0.74430549  0.41666663  0.23757629
   0.57763875  0.41666663  0.39596048
   0.91097218  0.08333333  0.07919210
   0.74430549  0.08333333  0.23757629
   0.57763875  0.08333333  0.39596048
   0.23900795  0.25293720  0.50793630
   0.18900788  0.90293711  0.65997148
   0.13900781  0.55293697  0.81200671
   0.33900797  0.95293725  0.50793630
   0.28900790  0.60293716  0.65997148
   0.23900783  0.25293708  0.81200671
   0.43900797  0.65293717  0.50793630
   0.38900790  0.30293712  0.65997148
   0.33900783  0.95293695  0.81200671
   0.53900796  0.35293716  0.50793630
   0.48900786  0.00293708  0.65997148
   0.43900779  0.65293693  0.81200671
   0.63900799  0.05293727  0.50793630
   0.58900791  0.70293713  0.65997148
   0.53900784  0.35293698  0.81200671
   0.73900795  0.75293720  0.50793630
   0.68900788  0.40293711  0.65997148
   0.63900781  0.05293703  0.81200671
   0.83900791  0.45293716  0.50793630
   0.78900784  0.10293710  0.65997148
   0.73900783  0.75293696  0.81200671
   0.93900806  0.15293729  0.50793630
   0.88900799  0.80293715  0.65997148
   0.83900791  0.45293707  0.81200671
   0.03900802  0.85293722  0.50793630
   0.98900789  0.50293714  0.65997148
   0.93900782  0.15293693  0.81200671
   0.13900804  0.55293721  0.50793630
   0.08900797  0.20293713  0.65997148
   0.03900790  0.85293698  0.81200671
   0.23900795  0.50293720  0.58395392
   0.18900788  0.15293706  0.73598909
   0.13900781  0.80293697  0.88802421
   0.33900791  0.20293713  0.58395392
   0.28900784  0.85293704  0.73598909
   0.23900783  0.50293690  0.88802421
   0.43900797  0.90293717  0.58395392
   0.38900790  0.55293703  0.73598909
   0.33900783  0.20293701  0.88802421
   0.53900796  0.60293710  0.58395392
   0.48900789  0.25293708  0.73598909
   0.43900782  0.90293699  0.88802421
   0.63900799  0.30293715  0.58395392
   0.58900785  0.95293707  0.73598909
   0.53900778  0.60293698  0.88802421
   0.73900807  0.00293720  0.58395392
   0.68900800  0.65293706  0.73598909
   0.63900793  0.30293703  0.88802421
   0.83900791  0.70293713  0.58395392
   0.78900784  0.35293701  0.73598909
   0.73900783  0.00293696  0.88802421
   0.93900806  0.40293717  0.58395392
   0.88900793  0.05293703  0.73598909
   0.83900791  0.70293701  0.88802421
   0.03900802  0.10293722  0.58395392
   0.98900795  0.75293708  0.73598909
   0.93900788  0.40293699  0.88802421
   0.13900804  0.80293715  0.58395392
   0.08900797  0.45293707  0.73598909
   0.03900790  0.10293698  0.88802421
   0.23900795  0.75293720  0.50793630
   0.18900788  0.40293711  0.65997148
   0.13900781  0.05293703  0.81200671
   0.33900794  0.45293719  0.50793630
   0.28900787  0.10293710  0.65997148
   0.23900783  0.75293696  0.81200671
   0.43900797  0.15293717  0.50793630
   0.38900787  0.80293709  0.65997148
   0.33900783  0.45293695  0.81200671
   0.53900796  0.85293716  0.50793630
   0.48900789  0.50293708  0.65997148
   0.43900782  0.15293693  0.81200671
   0.63900799  0.55293715  0.50793630
   0.58900791  0.20293713  0.65997148
   0.53900784  0.85293698  0.81200671
   0.73900795  0.25293708  0.50793630
   0.68900788  0.90293706  0.65997148
   0.63900781  0.55293691  0.81200671
   0.83900791  0.95293719  0.50793630
   0.78900784  0.60293710  0.65997148
   0.73900777  0.25293696  0.81200671
   0.93900794  0.65293717  0.50793630
   0.88900787  0.30293706  0.65997148
   0.83900780  0.95293695  0.81200671
   0.03900802  0.35293716  0.50793630
   0.98900789  0.00293708  0.65997148
   0.93900782  0.65293693  0.81200671
   0.13900804  0.05293727  0.50793630
   0.08900797  0.70293713  0.65997148
   0.03900790  0.35293698  0.81200671
   0.23900795  0.00293732  0.58395392
   0.18900788  0.65293711  0.73598909
   0.13900781  0.30293706  0.88802421
   0.33900794  0.70293719  0.58395392
   0.28900787  0.35293707  0.73598909
   0.23900783  0.00293708  0.88802421
   0.43900797  0.40293717  0.58395392
   0.38900790  0.05293703  0.73598909
   0.33900783  0.70293701  0.88802421
   0.53900796  0.10293722  0.58395392
   0.48900789  0.75293708  0.73598909
   0.43900782  0.40293699  0.88802421
   0.63900799  0.80293727  0.58395392
   0.58900791  0.45293716  0.73598909
   0.53900784  0.10293710  0.88802421
   0.73900795  0.50293714  0.58395392
   0.68900788  0.15293706  0.73598909
   0.63900781  0.80293697  0.88802421
   0.83900797  0.20293713  0.58395392
   0.78900790  0.85293710  0.73598909
   0.73900783  0.50293702  0.88802421
   0.93900800  0.90293723  0.58395392
   0.88900793  0.55293709  0.73598909
   0.83900785  0.20293713  0.88802421
   0.03900790  0.60293710  0.58395392
   0.98900783  0.25293708  0.73598909
   0.93900776  0.90293699  0.88802421
   0.13900793  0.30293715  0.58395392
   0.08900785  0.95293707  0.73598909
   0.03900778  0.60293692  0.88802421
 
 position of ions in cartesian coordinates  (Angst):
  16.87674494 11.31559839  0.00000000
  14.04784561 11.31559839  2.82889974
  11.21894422 11.31559839  5.65780002
  16.87674494  5.65779920  0.00000000
  14.04784561  5.65779920  2.82889974
  11.21894422  5.65779920  5.65780002
  16.87674494  0.00000000  0.00000000
  14.04784561  0.00000000  2.82889974
  11.21894422  0.00000000  5.65780002
   5.56114453 11.31559839  0.00000000
   2.73224468 11.31559839  2.82889974
  16.87674393 11.31559839  5.65780002
   5.56114453  5.65779920  0.00000000
   2.73224468  5.65779920  2.82889974
  16.87674393  5.65779920  5.65780002
   5.56114453  0.00000000  0.00000000
   2.73224468  0.00000000  2.82889974
  16.87674393  0.00000000  5.65780002
  11.21894422 11.31559839  0.00000000
   8.39004388 11.31559839  2.82889974
   5.56114351 11.31559839  5.65780002
  11.21894422  5.65779920  0.00000000
   8.39004388  5.65779920  2.82889974
   5.56114351  5.65779920  5.65780002
  11.21894422  0.00000000  0.00000000
   8.39004388  0.00000000  2.82889974
   5.56114351  0.00000000  5.65780002
   1.31779513 15.55894841  1.41445001
  15.46229425 15.55894841  4.24335015
  12.63339491 15.55894841  7.07225016
   1.31779513  9.90114972  1.41445001
  15.46229425  9.90114972  4.24335015
  12.63339491  9.90114972  7.07225016
   1.31779513  4.24334927  1.41445001
  15.46229425  4.24334927  4.24335015
  12.63339491  4.24334927  7.07225016
   6.97559370 15.55894841  1.41445001
   4.14669359 15.55894841  4.24335015
   1.31779311 15.55894841  7.07225016
   6.97559370  9.90114972  1.41445001
   4.14669359  9.90114972  4.24335015
   1.31779311  9.90114972  7.07225016
   6.97559370  4.24334927  1.41445001
   4.14669359  4.24334927  4.24335015
   1.31779311  4.24334927  7.07225016
  12.63339491 15.55894841  1.41445001
   9.80449354 15.55894841  4.24335015
   6.97559319 15.55894841  7.07225016
  12.63339491  9.90114972  1.41445001
   9.80449354  9.90114972  4.24335015
   6.97559319  9.90114972  7.07225016
  12.63339491  4.24334927  1.41445001
   9.80449354  4.24334927  4.24335015
   6.97559319  4.24334927  7.07225016
   2.73224493 14.14449773  0.00000000
  16.87674494 14.14449773  2.82889974
  14.04784459 14.14449773  5.65780002
   2.73224493  8.48669855  0.00000000
  16.87674494  8.48669855  2.82889974
  14.04784459  8.48669855  5.65780002
   2.73224493  2.82889960  0.00000000
  16.87674494  2.82889960  2.82889974
  14.04784459  2.82889960  5.65780002
   8.39004388 14.14449773  0.00000000
   5.56114351 14.14449773  2.82889974
   2.73224342 14.14449773  5.65780002
   8.39004388  8.48669855  0.00000000
   5.56114351  8.48669855  2.82889974
   2.73224342  8.48669855  5.65780002
   8.39004388  2.82889960  0.00000000
   5.56114351  2.82889960  2.82889974
   2.73224342  2.82889960  5.65780002
  14.04784459 14.14449773  0.00000000
  11.21894422 14.14449773  2.82889974
   8.39004388 14.14449773  5.65780002
  14.04784459  8.48669855  0.00000000
  11.21894422  8.48669855  2.82889974
   8.39004388  8.48669855  5.65780002
  14.04784459  2.82889960  0.00000000
  11.21894422  2.82889960  2.82889974
   8.39004388  2.82889960  5.65780002
   4.14669436 12.73004807  1.41445001
   1.31779413 12.73004807  4.24335015
  15.46229425 12.73004807  7.07225016
   4.14669436  7.07224938  1.41445001
   1.31779413  7.07224938  4.24335015
  15.46229425  7.07224938  7.07225016
   4.14669436  1.41444992  1.41445001
   1.31779413  1.41444992  4.24335015
  15.46229425  1.41444992  7.07225016
   9.80449558 12.73004807  1.41445001
   6.97559470 12.73004807  4.24335015
   4.14669410 12.73004807  7.07225016
   9.80449558  7.07224938  1.41445001
   6.97559470  7.07224938  4.24335015
   4.14669410  7.07224938  7.07225016
   9.80449558  1.41444992  1.41445001
   6.97559470  1.41444992  4.24335015
   4.14669410  1.41444992  7.07225016
  15.46229527 12.73004807  1.41445001
  12.63339491 12.73004807  4.24335015
   9.80449354 12.73004807  7.07225016
  15.46229527  7.07224938  1.41445001
  12.63339491  7.07224938  4.24335015
   9.80449354  7.07224938  7.07225016
  15.46229527  1.41444992  1.41445001
  12.63339491  1.41444992  4.24335015
   9.80449354  1.41444992  7.07225016
   4.05677757  4.29320427  9.07225027
   3.20810634 15.32591292 11.78775057
   2.35943513  9.38522045 14.50325193
   5.75411799 16.17458514  9.07225027
   4.90544676 10.23389370 11.78775057
   4.05677555  4.29320223 14.50325193
   7.45145789 11.08256390  9.07225027
   6.60278667  5.14187295 11.78775057
   5.75411546 16.17458009 14.50325193
   9.14879780  5.99054367  9.07225027
   8.30012607  0.04985220 11.78775057
   7.45145486 11.08255985 14.50325193
  10.84613822  0.89852545  9.07225027
   9.99746700 11.93123310 11.78775057
   9.14879578  5.99054063 14.50325193
  12.54347762 12.77990432  9.07225027
  11.69480640  6.83921286 11.78775057
  10.84613519  0.89852141 14.50325193
  14.24081702  7.68788358  9.07225027
  13.39214581  1.74719262 11.78775057
  12.54347560 12.77990027 14.50325193
  15.93815946  2.59586587  9.07225027
  15.08948825 13.62857351 11.78775057
  14.24081702  7.68788207 14.50325193
   0.66209875 14.47724474  9.07225027
  16.78682663  8.53655328 11.78775057
  15.93815542  2.59585979 14.50325193
   2.35943917  9.38522450  9.07225027
   1.51076796  3.44453304 11.78775057
   0.66209673 14.47724069 14.50325193
   4.05677757  8.53655429 10.43000095
   3.20810634  2.59586183 13.14550125
   2.35943513 13.62857048 15.86100049
   5.75411697  3.44453304 10.43000095
   4.90544576 14.47724170 13.14550125
   4.05677555  8.53654924 15.86100049
   7.45145789 15.32591393 10.43000095
   6.60278667  9.38522147 13.14550125
   5.75411546  3.44453102 15.86100049
   9.14879780 10.23389268 10.43000095
   8.30012658  4.29320223 13.14550125
   7.45145537 15.32591090 15.86100049
  10.84613822  5.14187346 10.43000095
   9.99746598 16.17458212 13.14550125
   9.14879477 10.23389066 15.86100049
  12.54347964  0.04985424 10.43000095
  11.69480843 11.08256189 13.14550125
  10.84613721  5.14187144 15.86100049
  14.24081702 11.93123310 10.43000095
  13.39214581  5.99054114 13.14550125
  12.54347560  0.04985018 15.86100049
  15.93815946  6.83921388 10.43000095
  15.08948723  0.89852141 13.14550125
  14.24081702 11.93123108 15.86100049
   0.66209875  1.74719466 10.43000095
  16.78682765 12.77990229 13.14550125
  15.93815643  6.83921084 15.86100049
   2.35943917 13.62857351 10.43000095
   1.51076796  7.68788207 13.14550125
   0.66209673  1.74719060 15.86100049
   4.05677757 12.77990432  9.07225027
   3.20810634  6.83921286 11.78775057
   2.35943513  0.89852141 14.50325193
   5.75411748  7.68788409  9.07225027
   4.90544625  1.74719262 11.78775057
   4.05677555 12.77990027 14.50325193
   7.45145789  2.59586385  9.07225027
   6.60278616 13.62857250 11.78775057
   5.75411546  7.68788003 14.50325193
   9.14879780 14.47724372  9.07225027
   8.30012658  8.53655226 11.78775057
   7.45145537  2.59585979 14.50325193
  10.84613822  9.38522349  9.07225027
   9.99746700  3.44453304 11.78775057
   9.14879578 14.47724069 14.50325193
  12.54347762  4.29320223  9.07225027
  11.69480640 15.32591191 11.78775057
  10.84613519  9.38521945 14.50325193
  14.24081702 16.17458414  9.07225027
  13.39214581 10.23389268 11.78775057
  12.54347459  4.29320021 14.50325193
  15.93815744 11.08256390  9.07225027
  15.08948622  5.14187195 11.78775057
  14.24081500 16.17458009 14.50325193
   0.66209875  5.99054367  9.07225027
  16.78682663  0.04985220 11.78775057
  15.93815542 11.08255985 14.50325193
   2.35943917  0.89852545  9.07225027
   1.51076796 11.93123310 11.78775057
   0.66209673  5.99054063 14.50325193
   4.05677757  0.04985626 10.43000095
   3.20810634 11.08256289 13.14550125
   2.35943513  5.14187195 15.86100049
   5.75411748 11.93123411 10.43000095
   4.90544625  5.99054216 13.14550125
   4.05677555  0.04985220 15.86100049
   7.45145789  6.83921388 10.43000095
   6.60278667  0.89852141 13.14550125
   5.75411546 11.93123108 15.86100049
   9.14879780  1.74719466 10.43000095
   8.30012658 12.77990229 13.14550125
   7.45145537  6.83921084 15.86100049
  10.84613822 13.62857553 10.43000095
   9.99746700  7.68788358 13.14550125
   9.14879578  1.74719262 15.86100049
  12.54347762  8.53655328 10.43000095
  11.69480640  2.59586183 13.14550125
  10.84613519 13.62857048 15.86100049
  14.24081804  3.44453304 10.43000095
  13.39214682 14.47724271 13.14550125
  12.54347560  8.53655126 15.86100049
  15.93815846 15.32591494 10.43000095
  15.08948723  9.38522247 13.14550125
  14.24081601  3.44453304 15.86100049
   0.66209673 10.23389268 10.43000095
  16.78682563  4.29320223 13.14550125
  15.93815441 15.32591090 15.86100049
   2.35943715  5.14187346 10.43000095
   1.51076592 16.17458212 13.14550125
   0.66209471 10.23388966 15.86100049
 


--------------------------------------------------------------------------------------------------------


 k-point     1 :   0.0000 0.0000 0.0000  plane waves:  216521
 k-point     2 :   0.5000 0.0000 0.0000  plane waves:  216418
 k-point     3 :   0.0000 0.5000 0.0000  plane waves:  216418
 k-point     4 :   0.5000 0.5000 0.0000  plane waves:  216296
 k-point     5 :   0.0000 0.0000 0.5000  plane waves:  216310
 k-point     6 :   0.5000 0.0000 0.5000  plane waves:  216392
 k-point     7 :   0.0000 0.5000 0.5000  plane waves:  216392
 k-point     8 :   0.5000 0.5000 0.5000  plane waves:  216352

 maximum and minimum number of plane-waves per node :     13598    13447

 maximum number of plane-waves:    216521
 maximum index in each direction: 
   IXMAX=   36   IYMAX=   36   IZMAX=   38
   IXMIN=  -37   IYMIN=  -37   IZMIN=  -39


 real space projection operators:
  total allocation   :      36343.27 KBytes
  max/ min on nodes  :       2280.19       2264.33


 parallel 3D FFT for wavefunctions:
    minimum data exchange during FFTs selected (reduces bandwidth)
 parallel 3D FFT for charge:
    minimum data exchange during FFTs selected (reduces bandwidth)


 total amount of memory used by VASP MPI-rank0   577876. kBytes
=======================================================================

   base      :      30000. kBytes
   nonlr-proj:      12083. kBytes
   fftplans  :      30616. kBytes
   grid      :      24869. kBytes
   one-center:        243. kBytes
   wavefun   :     480065. kBytes
 
     INWAV:  cpu time      0.0000: real time      0.0002
 Broyden mixing: mesh for mixing (old mesh)
   NGX = 73   NGY = 73   NGZ = 77
  (NGX  =224   NGY  =224   NGZ  =240)
  gives a total of 410333 points

 initial charge density was supplied:
 charge density of overlapping atoms calculated
 number of electron     912.0000000 magnetization       1.0000000
 keeping initial charge density in first step


--------------------------------------------------------------------------------------------------------


 Maximum index for non-local projection operator          217
 Maximum index for augmentation-charges         2999 (set IRDMAX)


--------------------------------------------------------------------------------------------------------


 First call to EWALD:  gamma=   0.103
 Maximum number of real-space cells 3x 3x 3
 Maximum number of reciprocal cells 3x 3x 3

    FEWALD:  cpu time      0.0068: real time      0.0068


--------------------------------------- Ionic step        1  -------------------------------------------




--------------------------------------- Iteration      1(   1)  ---------------------------------------


    POTLOK:  cpu time      0.4111: real time      0.4368
    SETDIJ:  cpu time      2.2564: real time      2.2671
     EDDAV:  cpu time    113.1624: real time    114.1820
       DOS:  cpu time      0.0039: real time      0.0039
    --------------------------------------------
      LOOP:  cpu time    115.8337: real time    116.8898

 eigenvalue-minimisations  : 17536
 total energy-change (2. order) : 0.3807887E+04  (-0.4038603E+05)
 number of electron     912.0000000 magnetization       1.0000000
 augmentation part      912.0000000 magnetization       1.0000000

 Free energy of the ion-electron system (eV)
  ---------------------------------------------------
  alpha Z        PSCENC =      1093.62735331
  Ewald energy   TEWEN  =    -24081.08434948
  -Hartree energ DENC   =     -2281.42120501
  -exchange      EXHF   =         0.00000000
  -V(xc)+E(xc)   XCENC  =     -1946.90890077
  PAW double counting   =     20094.53666134   -16418.68521354
  entropy T*S    EENTRO =        -0.00339022
  eigenvalues    EBANDS =      3640.27333448
  atomic energy  EATOM  =     23707.55310521
  Solvation  Ediel_sol  =         0.00000000
  ---------------------------------------------------
  free energy    TOTEN  =      3807.88739534 eV

  energy without entropy =     3807.89078555  energy(sigma->0) =     3807.88909045


--------------------------------------------------------------------------------------------------------




--------------------------------------- Iteration      1(   2)  ---------------------------------------


     EDDAV:  cpu time    127.4053: real time    128.5976
       DOS:  cpu time      0.0030: real time      0.0030
    --------------------------------------------
      LOOP:  cpu time    127.4083: real time    128.6006

 eigenvalue-minimisations  : 20432
 total energy-change (2. order) :-0.4447234E+04  (-0.4291613E+04)
 number of electron     912.0000000 magnetization       1.0000000
 augmentation part      912.0000000 magnetization       1.0000000

 Free energy of the ion-electron system (eV)
  ---------------------------------------------------
  alpha Z        PSCENC =      1093.62735331
  Ewald energy   TEWEN  =    -24081.08434948
  -Hartree energ DENC   =     -2281.42120501
  -exchange      EXHF   =         0.00000000
  -V(xc)+E(xc)   XCENC  =     -1946.90890077
  PAW double counting   =     20094.53666134   -16418.68521354
  entropy T*S    EENTRO =        -0.00243415
  eigenvalues    EBANDS =      -806.96132483
  atomic energy  EATOM  =     23707.55310521
  Solvation  Ediel_sol  =         0.00000000
  ---------------------------------------------------
  free energy    TOTEN  =      -639.34630790 eV

  energy without entropy =     -639.34387376  energy(sigma->0) =     -639.34509083


--------------------------------------------------------------------------------------------------------




--------------------------------------- Iteration      1(   3)  ---------------------------------------


     EDDAV:  cpu time    133.7584: real time    135.0220
       DOS:  cpu time      0.0030: real time      0.0031
    --------------------------------------------
      LOOP:  cpu time    133.7614: real time    135.0250

 eigenvalue-minimisations  : 21688
 total energy-change (2. order) :-0.4271044E+03  (-0.4129287E+03)
 number of electron     912.0000000 magnetization       1.0000000
 augmentation part      912.0000000 magnetization       1.0000000

 Free energy of the ion-electron system (eV)
  ---------------------------------------------------
  alpha Z        PSCENC =      1093.62735331
  Ewald energy   TEWEN  =    -24081.08434948
  -Hartree energ DENC   =     -2281.42120501
  -exchange      EXHF   =         0.00000000
  -V(xc)+E(xc)   XCENC  =     -1946.90890077
  PAW double counting   =     20094.53666134   -16418.68521354
  entropy T*S    EENTRO =        -0.00370300
  eigenvalues    EBANDS =     -1234.06445143
  atomic energy  EATOM  =     23707.55310521
  Solvation  Ediel_sol  =         0.00000000
  ---------------------------------------------------
  free energy    TOTEN  =     -1066.45070336 eV

  energy without entropy =    -1066.44700035  energy(sigma->0) =    -1066.44885186


--------------------------------------------------------------------------------------------------------




--------------------------------------- Iteration      1(   4)  ---------------------------------------


     EDDAV:  cpu time    128.5559: real time    129.7791
       DOS:  cpu time      0.0101: real time      0.0104
    --------------------------------------------
      LOOP:  cpu time    128.5659: real time    129.7895

 eigenvalue-minimisations  : 20632
 total energy-change (2. order) :-0.1646133E+02  (-0.1615874E+02)
 number of electron     912.0000000 magnetization       1.0000000
 augmentation part      912.0000000 magnetization       1.0000000

 Free energy of the ion-electron system (eV)
  ---------------------------------------------------
  alpha Z        PSCENC =      1093.62735331
  Ewald energy   TEWEN  =    -24081.08434948
  -Hartree energ DENC   =     -2281.42120501
  -exchange      EXHF   =         0.00000000
  -V(xc)+E(xc)   XCENC  =     -1946.90890077
  PAW double counting   =     20094.53666134   -16418.68521354
  entropy T*S    EENTRO =        -0.00451279
  eigenvalues    EBANDS =     -1250.52497226
  atomic energy  EATOM  =     23707.55310521
  Solvation  Ediel_sol  =         0.00000000
  ---------------------------------------------------
  free energy    TOTEN  =     -1082.91203397 eV

  energy without entropy =    -1082.90752119  energy(sigma->0) =    -1082.90977758


--------------------------------------------------------------------------------------------------------




--------------------------------------- Iteration      1(   5)  ---------------------------------------


     EDDAV:  cpu time    143.6413: real time    145.2734
       DOS:  cpu time      0.0030: real time      0.0031
    CHARGE:  cpu time      4.5085: real time      4.5521
    MIXING:  cpu time      0.0167: real time      0.0168
    --------------------------------------------
      LOOP:  cpu time    148.1696: real time    149.8455

 eigenvalue-minimisations  : 23704
 total energy-change (2. order) :-0.6607721E+00  (-0.6564533E+00)
 number of electron     911.9999993 magnetization       1.0000000
 augmentation part      -99.5477134 magnetization      -0.0555947

 Broyden mixing:
  rms(total) = 0.42257E+01    rms(broyden)= 0.42257E+01
  rms(prec ) = 0.45657E+01
  weight for this iteration     100.00

 Free energy of the ion-electron system (eV)
  ---------------------------------------------------
  alpha Z        PSCENC =      1093.62735331
  Ewald energy   TEWEN  =    -24081.08434948
  -Hartree energ DENC   =     -2281.42120501
  -exchange      EXHF   =         0.00000000
  -V(xc)+E(xc)   XCENC  =     -1946.90890077
  PAW double counting   =     20094.53666134   -16418.68521354
  entropy T*S    EENTRO =        -0.00463505
  eigenvalues    EBANDS =     -1251.18562212
  atomic energy  EATOM  =     23707.55310521
  Solvation  Ediel_sol  =         0.00000000
  ---------------------------------------------------
  free energy    TOTEN  =     -1083.57280610 eV

  energy without entropy =    -1083.56817105  energy(sigma->0) =    -1083.57048858


--------------------------------------------------------------------------------------------------------




--------------------------------------- Iteration      1(   6)  ---------------------------------------


    POTLOK:  cpu time      0.4035: real time      0.4062
    SETDIJ:  cpu time      2.1491: real time      2.1607
     EDDAV:  cpu time    133.7840: real time    135.0508
       DOS:  cpu time      0.0032: real time      0.0032
    CHARGE:  cpu time      4.6075: real time      4.6517
    MIXING:  cpu time      0.0111: real time      0.0112
    --------------------------------------------
      LOOP:  cpu time    140.9583: real time    142.2837

 eigenvalue-minimisations  : 21648
 total energy-change (2. order) : 0.1866097E+02  (-0.4234393E+01)
 number of electron     911.9999993 magnetization       1.0000000
 augmentation part      -99.3518177 magnetization      -0.0543817

 Broyden mixing:
[...]
      2.73224      0.00000      2.82890         0.025192     -0.015273      0.054898
     16.87674      0.00000      5.65780         0.053245     -0.016781      0.393075
     11.21894     11.31560      0.00000        -0.573873      0.572395     -1.825975
      8.39004     11.31560      2.82890        -0.020940      0.055551      0.080947
      5.56114     11.31560      5.65780        -0.110810     -0.046827      0.353332
     11.21894      5.65780      0.00000         0.656199      0.995387      2.890023
      8.39004      5.65780      2.82890         0.064411     -0.057759      0.047819
      5.56114      5.65780      5.65780        -0.303327      0.197172     -0.050575
     11.21894      0.00000      0.00000         0.225934     -0.874078     -0.596014
      8.39004      0.00000      2.82890        -0.006499     -0.004325      0.088405
      5.56114      0.00000      5.65780         0.133802     -0.308364     -0.273933
      1.31780     15.55895      1.41445         0.189710      0.000039     -0.360666
     15.46229     15.55895      4.24335        -0.034422     -0.034461     -0.032378
     12.63339     15.55895      7.07225         0.600609     -0.786699      1.576665
      1.31780      9.90115      1.41445        -0.035887      0.494285      0.098506
     15.46229      9.90115      4.24335        -0.040852      0.011939     -0.096952
     12.63339      9.90115      7.07225        -0.553734      0.704924      1.596983
      1.31780      4.24335      1.41445         0.125958     -0.332363      0.145640
     15.46229      4.24335      4.24335        -0.021565      0.069146     -0.122918
     12.63339      4.24335      7.07225         0.169480     -0.063250     -5.557940
      6.97559     15.55895      1.41445         0.001710     -0.450378      0.265120
      4.14669     15.55895      4.24335        -0.022555     -0.005233     -0.084069
      1.31779     15.55895      7.07225         0.263080      0.556883      0.891100
      6.97559      9.90115      1.41445        -0.091874     -0.062941     -0.374624
      4.14669      9.90115      4.24335        -0.005610      0.020260     -0.074987
      1.31779      9.90115      7.07225         0.076551     -0.581439     -0.054742
      6.97559      4.24335      1.41445        -0.151110      0.346377     -0.010185
      4.14669      4.24335      4.24335        -0.006133     -0.014361     -0.070066
      1.31779      4.24335      7.07225        -0.538751      0.462100      1.539759
     12.63339     15.55895      1.41445        -0.277012      0.191257      0.127953
      9.80449     15.55895      4.24335         0.039339     -0.034931     -0.067473
      6.97559     15.55895      7.07225        -0.193626      0.619651      0.567597
     12.63339      9.90115      1.41445         0.200124     -0.159005      0.237963
      9.80449      9.90115      4.24335         0.031235      0.041065     -0.046572
      6.97559      9.90115      7.07225        -0.479870     -0.407951      0.900496
     12.63339      4.24335      1.41445         0.016638     -0.043085     -0.382603
      9.80449      4.24335      4.24335         0.051690     -0.070434     -0.116462
      6.97559      4.24335      7.07225         0.730228     -0.511636      1.505926
      2.73224     14.14450      0.00000         0.656199      0.995387      2.890023
     16.87674     14.14450      2.82890         0.064411     -0.057759      0.047819
     14.04784     14.14450      5.65780        -0.303327      0.197172     -0.050575
      2.73224      8.48670      0.00000         0.225934     -0.874078     -0.596014
     16.87674      8.48670      2.82890        -0.006499     -0.004325      0.088405
     14.04784      8.48670      5.65780         0.133802     -0.308364     -0.273933
      2.73224      2.82890      0.00000        -0.573873      0.572395     -1.825975
     16.87674      2.82890      2.82890        -0.020940      0.055551      0.080947
     14.04784      2.82890      5.65780        -0.110810     -0.046827      0.353332
      8.39004     14.14450      0.00000        -0.383928      0.426112     -0.931229
      5.56114     14.14450      2.82890        -0.051289      0.036787      0.135047
      2.73224     14.14450      5.65780         0.160421     -0.055492      0.356624
      8.39004      8.48670      0.00000        -0.164199      0.096795     -2.237548
      5.56114      8.48670      2.82890        -0.039548      0.037311      0.029545
      2.73224      8.48670      5.65780        -0.164232      0.360993     -0.132896
      8.39004      2.82890      0.00000         0.466512     -0.407681     -0.516690
      5.56114      2.82890      2.82890        -0.011532     -0.032227      0.074193
      2.73224      2.82890      5.65780         0.228919     -0.156732     -0.173683
     14.04784     14.14450      0.00000         0.742754     -0.642437     -1.927043
     11.21894     14.14450      2.82890         0.004623     -0.021308      0.067787
      8.39004     14.14450      5.65780         0.005646     -0.462652     -0.216479
     14.04784      8.48670      0.00000        -0.305215      0.817757     -0.978985
     11.21894      8.48670      2.82890         0.025192     -0.015273      0.054898
      8.39004      8.48670      5.65780         0.053245     -0.016781      0.393075
     14.04784      2.82890      0.00000        -0.548574     -1.006975      2.848376
     11.21894      2.82890      2.82890         0.045419     -0.014505      0.115693
      8.39004      2.82890      5.65780         0.000276      0.457032     -0.037252
      4.14669     12.73005      1.41445         0.016638     -0.043085     -0.382603
      1.31779     12.73005      4.24335         0.051690     -0.070434     -0.116462
     15.46229     12.73005      7.07225         0.730228     -0.511636      1.505926
      4.14669      7.07225      1.41445        -0.277012      0.191257      0.127953
      1.31779      7.07225      4.24335         0.039339     -0.034931     -0.067473
     15.46229      7.07225      7.07225        -0.193626      0.619651      0.567597
      4.14669      1.41445      1.41445         0.200124     -0.159005      0.237963
      1.31779      1.41445      4.24335         0.031235      0.041065     -0.046572
     15.46229      1.41445      7.07225        -0.479870     -0.407951      0.900496
      9.80450     12.73005      1.41445         0.125958     -0.332363      0.145640
      6.97559     12.73005      4.24335        -0.021565      0.069146     -0.122918
      4.14669     12.73005      7.07225         0.169480     -0.063250     -5.557940
      9.80450      7.07225      1.41445         0.189710      0.000039     -0.360666
      6.97559      7.07225      4.24335        -0.034422     -0.034461     -0.032378
      4.14669      7.07225      7.07225         0.600609     -0.786699      1.576665
      9.80450      1.41445      1.41445        -0.035887      0.494285      0.098506
      6.97559      1.41445      4.24335        -0.040852      0.011939     -0.096952
      4.14669      1.41445      7.07225        -0.553734      0.704924      1.596983
     15.46230     12.73005      1.41445        -0.151110      0.346377     -0.010185
     12.63339     12.73005      4.24335        -0.006133     -0.014361     -0.070066
      9.80449     12.73005      7.07225        -0.538751      0.462100      1.539759
     15.46230      7.07225      1.41445         0.001710     -0.450378      0.265120
     12.63339      7.07225      4.24335        -0.022555     -0.005233     -0.084069
      9.80449      7.07225      7.07225         0.263080      0.556883      0.891100
     15.46230      1.41445      1.41445        -0.091874     -0.062941     -0.374624
     12.63339      1.41445      4.24335        -0.005610      0.020260     -0.074987
      9.80449      1.41445      7.07225         0.076551     -0.581439     -0.054742
      4.05678      4.29320      9.07225        -0.146910      0.056859     -0.882241
      3.20811     15.32591     11.78775         0.098754     -0.016331      0.044685
      2.35944      9.38522     14.50325         0.450280      0.125854      0.219877
      5.75412     16.17459      9.07225         0.777596     -0.146083      0.013221
      4.90545     10.23389     11.78775        -0.082706      0.005026      0.030313
      4.05678      4.29320     14.50325         0.037731     -0.003142      0.082510
      7.45146     11.08256      9.07225         0.719346      0.233479     -0.324299
      6.60279      5.14187     11.78775         0.004610     -0.001174      0.056508
      5.75412     16.17458     14.50325        -0.432893     -0.146971      0.077961
      9.14880      5.99054      9.07225        -0.546585     -0.317685     -0.392105
      8.30013      0.04985     11.78775        -0.029245      0.003126      0.030080
      7.45145     11.08256     14.50325        -0.060808      0.015852      0.449362
     10.84614      0.89853      9.07225        -0.605180      0.100440      0.568479
      9.99747     11.93123     11.78775         0.009192     -0.002325      0.054537
      9.14880      5.99054     14.50325         0.010806     -0.034979      0.481608
     12.54348     12.77990      9.07225        -0.146910      0.056859     -0.882241
     11.69481      6.83921     11.78775         0.098754     -0.016331      0.044685
     10.84614      0.89852     14.50325         0.450280      0.125854      0.219877
     14.24082      7.68788      9.07225         0.777596     -0.146083      0.013221
     13.39215      1.74719     11.78775        -0.082706      0.005026      0.030313
     12.54348     12.77990     14.50325         0.037731     -0.003142      0.082510
     15.93816      2.59587      9.07225         0.719346      0.233479     -0.324299
     15.08949     13.62857     11.78775         0.004610     -0.001174      0.056508
     14.24082      7.68788     14.50325        -0.432893     -0.146971      0.077961
      0.66210     14.47724      9.07225        -0.546585     -0.317685     -0.392105
     16.78683      8.53655     11.78775        -0.029245      0.003126      0.030080
     15.93816      2.59586     14.50325        -0.060808      0.015852      0.449362
      2.35944      9.38522      9.07225        -0.605180      0.100440      0.568479
      1.51077      3.44453     11.78775         0.009192     -0.002325      0.054537
      0.66210     14.47724     14.50325         0.010806     -0.034979      0.481608
      4.05678      8.53655     10.43000         0.382800      0.061518     -0.346688
      3.20811      2.59586     13.14550         0.031280     -0.011661     -0.055739
      2.35944     13.62857     15.86100        -0.730058     -0.940833     -3.190827
      5.75412      3.44453     10.43000         0.016954     -0.095563     -0.056096
      4.90545     14.47724     13.14550         0.081668      0.005218     -0.067942
      4.05678      8.53655     15.86100        -0.644776      0.407950      0.147925
      7.45146     15.32591     10.43000        -0.292006     -0.014435      0.041406
      6.60279      9.38522     13.14550        -0.096851      0.026515      0.001413
      5.75412      3.44453     15.86100        -0.569270      0.141323      0.910327
      9.14880     10.23389     10.43000        -0.134447      0.075468     -0.407922
      8.30013      4.29320     13.14550        -0.009317      0.013571     -0.054619
      7.45146     15.32591     15.86100         0.812087     -0.039933      0.222930
     10.84614      5.14187     10.43000         0.003434      0.025390     -0.538182
      9.99747     16.17458     13.14550        -0.093065      0.014883     -0.042686
      9.14879     10.23389     15.86100         0.753848     -0.404407      1.558402
     12.54348      0.04985     10.43000         0.382800      0.061518     -0.346688
     11.69481     11.08256     13.14550         0.031280     -0.011661     -0.055739
     10.84614      5.14187     15.86100        -0.730058     -0.940833     -3.190827
     14.24082     11.93123     10.43000         0.016954     -0.095563     -0.056096
     13.39215      5.99054     13.14550         0.081668      0.005218     -0.067942
     12.54348      0.04985     15.86100        -0.644776      0.407950      0.147925
     15.93816      6.83921     10.43000        -0.292006     -0.014435      0.041406
     15.08949      0.89852     13.14550        -0.096851      0.026515      0.001413
     14.24082     11.93123     15.86100        -0.569270      0.141323      0.910327
      0.66210      1.74719     10.43000        -0.134447      0.075468     -0.407922
     16.78683     12.77990     13.14550        -0.009317      0.013571     -0.054619
     15.93816      6.83921     15.86100         0.812087     -0.039933      0.222930
      2.35944     13.62857     10.43000         0.003434      0.025390     -0.538182
      1.51077      7.68788     13.14550        -0.093065      0.014883     -0.042686
      0.66210      1.74719     15.86100         0.753848     -0.404407      1.558402
      4.05678     12.77990      9.07225        -0.140700      0.093077      5.804638
      3.20811      6.83921     11.78775        -0.086377      0.019321      0.063441
      2.35944      0.89852     14.50325        -0.294601      0.032198      0.360404
      5.75412      7.68788      9.07225        -0.728568      0.524316     -1.307875
      4.90545      1.74719     11.78775         0.075826     -0.028423      0.053819
      4.05678     12.77990     14.50325        -0.055112      0.006214      0.566783
      7.45146      2.59586      9.07225        -0.890152      0.137161     -0.652324
      6.60279     13.62857     11.78775         0.080584     -0.000140      0.075522
      5.75412      7.68788     14.50325         0.262152     -0.041400      0.422081
      9.14880     14.47724      9.07225         0.608971     -0.121022     -0.662231
      8.30013      8.53655     11.78775        -0.007033      0.007342     -0.012229
      7.45146      2.59586     14.50325         0.151985     -0.091048      0.032109
     10.84614      9.38522      9.07225         0.863228     -0.502352     -1.277216
      9.99747      3.44453     11.78775        -0.056453      0.004909      0.062007
      9.14880     14.47724     14.50325        -0.065274      0.126849     -0.053654
     12.54348      4.29320      9.07225        -0.140700      0.093077      5.804638
     11.69481     15.32591     11.78775        -0.086377      0.019321      0.063441
     10.84614      9.38522     14.50325        -0.294601      0.032198      0.360404
     14.24082     16.17458      9.07225        -0.728568      0.524316     -1.307875
     13.39215     10.23389     11.78775         0.075826     -0.028423      0.053819
     12.54347      4.29320     14.50325        -0.055112      0.006214      0.566783
     15.93816     11.08256      9.07225        -0.890152      0.137161     -0.652324
     15.08949      5.14187     11.78775         0.080584     -0.000140      0.075522
     14.24082     16.17458     14.50325         0.262152     -0.041400      0.422081
      0.66210      5.99054      9.07225         0.608971     -0.121022     -0.662231
     16.78683      0.04985     11.78775        -0.007033      0.007342     -0.012229
     15.93816     11.08256     14.50325         0.151985     -0.091048      0.032109
      2.35944      0.89853      9.07225         0.863228     -0.502352     -1.277216
      1.51077     11.93123     11.78775        -0.056453      0.004909      0.062007
      0.66210      5.99054     14.50325        -0.065274      0.126849     -0.053654
      4.05678      0.04986     10.43000        -0.415967     -0.095063     -0.244383
      3.20811     11.08256     13.14550        -0.059675      0.002509     -0.049457
      2.35944      5.14187     15.86100         0.249045     -0.067244      0.837109
      5.75412     11.93123     10.43000        -0.096436     -0.031227     -0.517779
      4.90545      5.99054     13.14550        -0.030767      0.011646     -0.059167
      4.05678      0.04985     15.86100         0.839688     -0.356284      0.467653
      7.45146      6.83921     10.43000         0.094048     -0.071487     -0.450900
      6.60279      0.89852     13.14550         0.056189     -0.007103     -0.026027
      5.75412     11.93123     15.86100         0.660562      0.982816     -3.159248
      9.14880      1.74719     10.43000         0.366205      0.047912     -0.089298
      8.30013     12.77990     13.14550         0.039941     -0.009520     -0.057699
      7.45146      6.83921     15.86100        -0.570203      0.357535      1.727011
     10.84614     13.62858     10.43000         0.050387      0.100552     -0.020305
      9.99747      7.68788     13.14550         0.099880     -0.019800     -0.005648
      9.14880      1.74719     15.86100        -0.890383     -0.038823     -0.097866
     12.54348      8.53655     10.43000        -0.415967     -0.095063     -0.244383
     11.69481      2.59586     13.14550        -0.059675      0.002509     -0.049457
     10.84614     13.62857     15.86100         0.249045     -0.067244      0.837109
     14.24082      3.44453     10.43000        -0.096436     -0.031227     -0.517779
     13.39215     14.47724     13.14550        -0.030767      0.011646     -0.059167
     12.54348      8.53655     15.86100         0.839688     -0.356284      0.467653
     15.93816     15.32591     10.43000         0.094048     -0.071487     -0.450900
     15.08949      9.38522     13.14550         0.056189     -0.007103     -0.026027
     14.24082      3.44453     15.86100         0.660562      0.982816     -3.159248
      0.66210     10.23389     10.43000         0.366205      0.047912     -0.089298
     16.78683      4.29320     13.14550         0.039941     -0.009520     -0.057699
     15.93815     15.32591     15.86100        -0.570203      0.357535      1.727011
      2.35944      5.14187     10.43000         0.050387      0.100552     -0.020305
      1.51077     16.17458     13.14550         0.099880     -0.019800     -0.005648
      0.66209     10.23389     15.86100        -0.890383     -0.038823     -0.097866
 -----------------------------------------------------------------------------------
    total drift:                                0.019830     -0.165486      0.033063


--------------------------------------------------------------------------------------------------------



  FREE ENERGIE OF THE ION-ELECTRON SYSTEM (eV)
  ---------------------------------------------------
  free  energy   TOTEN  =     -1063.55836264 eV

  energy  without entropy=    -1063.55440519  energy(sigma->0) =    -1063.55638391
 


--------------------------------------------------------------------------------------------------------


    POTLOK:  cpu time      2.5242: real time      2.5363


--------------------------------------------------------------------------------------------------------


     LOOP+:  cpu time   3019.6739: real time   3047.2524
    4ORBIT:  cpu time      0.0000: real time      0.0000

 total amount of memory used by VASP MPI-rank0   577876. kBytes
=======================================================================

   base      :      30000. kBytes
   nonlr-proj:      12083. kBytes
   fftplans  :      30616. kBytes
   grid      :      24869. kBytes
   one-center:        243. kBytes
   wavefun   :     480065. kBytes
 
  
  
 General timing and accounting informations for this job:
 ========================================================
  
                  Total CPU time used (sec):     3211.273
                            User time (sec):     3055.193
                          System time (sec):      156.080
                         Elapsed time (sec):     3244.584
  
                   Maximum memory used (kb):      867700.
                   Average memory used (kb):          N/A
  
                          Minor page faults:       514188
                          Major page faults:           41
                 Voluntary context switches:         1875
