 264 264   0   0
  0.2774202E+02  0.1958175E-08  0.1958175E-08  0.1910025E-08  0.5000000E-15
  1.000000000000000E-004
  CAR 
 Si and Ge interface calculation         
      6.62578511     -9.08856222  301      4.05794537      1.00000000
     -9.089  0.0000E+00  0.0000E+00  0.0000E+00  0.0000E+00
     -9.036  0.0000E+00  0.0000E+00  0.0000E+00  0.0000E+00
     -8.984  0.0000E+00  0.0000E+00  0.0000E+00  0.0000E+00
     -8.931  0.0000E+00  0.0000E+00  0.0000E+00  0.0000E+00
     -8.879  0.0000E+00  0.0000E+00  0.0000E+00  0.0000E+00
     -8.827  0.0000E+00  0.0000E+00  0.0000E+00  0.0000E+00
     -8.774  0.0000E+00  0.0000E+00  0.0000E+00  0.0000E+00
     -8.722  0.0000E+00  0.0000E+00  0.0000E+00  0.0000E+00
     -8.670  0.0000E+00  0.0000E+00  0.0000E+00  0.0000E+00
     -8.617  0.0000E+00  0.0000E+00  0.0000E+00  0.0000E+00
     -8.565  0.0000E+00  0.0000E+00  0.0000E+00  0.0000E+00
     -8.512  0.0000E+00  0.0000E+00  0.0000E+00  0.0000E+00
     -8.460  0.0000E+00  0.0000E+00  0.0000E+00  0.0000E+00
     -8.408  0.1148E-04  0.3951E-05  0.6013E-06  0.2070E-06
     -8.355  0.1169E+02  0.1106E+02  0.6126E+00  0.5795E+00
     -8.303  0.2649E+02  0.2712E+02  0.2000E+01  0.2000E+01
     -8.250  0.7629E-01  0.3931E-01  0.2004E+01  0.2002E+01
     -8.198  0.1892E+02  0.1886E+02  0.2995E+01  0.2990E+01
     -8.146  0.1673E+02  0.1596E+02  0.3871E+01  0.3826E+01
     -8.093  0.1680E+02  0.1682E+02  0.4751E+01  0.4707E+01
     -8.041  0.4745E+01  0.5598E+01  0.5000E+01  0.5000E+01
     -7.989  0.7067E+01  0.5835E+01  0.5370E+01  0.5306E+01
     -7.936  0.2767E+02  0.2800E+02  0.6820E+01  0.6772E+01
     -7.884  0.2081E+02  0.2096E+02  0.7910E+01  0.7871E+01
     -7.831  0.2007E+02  0.1906E+02  0.8961E+01  0.8869E+01
     -7.779  0.1217E+02  0.1327E+02  0.9599E+01  0.9564E+01
     -7.727  0.1725E+02  0.1790E+02  0.1050E+02  0.1050E+02
     -7.674  0.1900E+02  0.1899E+02  0.1150E+02  0.1150E+02
     -7.622  0.3867E-01  0.7372E-01  0.1150E+02  0.1150E+02
     -7.570  0.3473E+02  0.3290E+02  0.1332E+02  0.1322E+02
     -7.517  0.2325E+02  0.2471E+02  0.1454E+02  0.1452E+02
     -7.465  0.1976E+02  0.1882E+02  0.1557E+02  0.1550E+02
     -7.412  0.1808E+02  0.1922E+02  0.1652E+02  0.1651E+02
     -7.360  0.9176E+01  0.9356E+01  0.1700E+02  0.1700E+02
     -7.308  0.2588E+02  0.2454E+02  0.1836E+02  0.1829E+02
     -7.255  0.1734E+02  0.1707E+02  0.1926E+02  0.1918E+02
     -7.203  0.4024E+02  0.4095E+02  0.2137E+02  0.2133E+02
     -7.150  0.4282E+02  0.4108E+02  0.2361E+02  0.2348E+02
     -7.098  0.2465E+02  0.2449E+02  0.2491E+02  0.2476E+02
     -7.046  0.2900E+02  0.3003E+02  0.2642E+02  0.2633E+02
     -6.993  0.2299E+02  0.2178E+02  0.2763E+02  0.2747E+02
     -6.941  0.3352E+02  0.3534E+02  0.2938E+02  0.2932E+02
     -6.889  0.4469E+02  0.4472E+02  0.3173E+02  0.3167E+02
     -6.836  0.3507E+02  0.3475E+02  0.3356E+02  0.3349E+02
     -6.784  0.5166E+02  0.5148E+02  0.3627E+02  0.3618E+02
     -6.731  0.4628E+02  0.4574E+02  0.3869E+02  0.3858E+02
     -6.679  0.5648E+02  0.5547E+02  0.4165E+02  0.4149E+02
     -6.627  0.3018E+02  0.3190E+02  0.4323E+02  0.4316E+02
     -6.574  0.1745E+02  0.1783E+02  0.4415E+02  0.4409E+02
     -6.522  0.6301E+02  0.6323E+02  0.4745E+02  0.4740E+02
     -6.470  0.3060E+02  0.2960E+02  0.4905E+02  0.4895E+02
     -6.417  0.3232E+02  0.3049E+02  0.5074E+02  0.5055E+02
     -6.365  0.6487E+02  0.6570E+02  0.5414E+02  0.5399E+02
     -6.312  0.4500E+02  0.4551E+02  0.5650E+02  0.5637E+02
     -6.260  0.6188E+02  0.6220E+02  0.5974E+02  0.5963E+02
     -6.208  0.6132E+02  0.5960E+02  0.6295E+02  0.6276E+02
     -6.155  0.4737E+02  0.4824E+02  0.6543E+02  0.6528E+02
     -6.103  0.6967E+02  0.7019E+02  0.6908E+02  0.6896E+02
     -6.050  0.6124E+02  0.6124E+02  0.7229E+02  0.7217E+02
     -5.998  0.7278E+02  0.7158E+02  0.7610E+02  0.7592E+02
     -5.946  0.7408E+02  0.7373E+02  0.7998E+02  0.7978E+02
     -5.893  0.4749E+02  0.4974E+02  0.8247E+02  0.8238E+02
     -5.841  0.9169E+02  0.8897E+02  0.8727E+02  0.8704E+02
     -5.789  0.6116E+02  0.6328E+02  0.9048E+02  0.9036E+02
     -5.736  0.7011E+02  0.6798E+02  0.9415E+02  0.9392E+02
     -5.684  0.8652E+02  0.8513E+02  0.9868E+02  0.9838E+02
     -5.631  0.1068E+03  0.1083E+03  0.1043E+03  0.1041E+03
     -5.579  0.6502E+02  0.6633E+02  0.1077E+03  0.1075E+03
     -5.527  0.5110E+02  0.5180E+02  0.1104E+03  0.1102E+03
     -5.474  0.6280E+02  0.6195E+02  0.1136E+03  0.1135E+03
     -5.422  0.7664E+02  0.7598E+02  0.1177E+03  0.1175E+03
     -5.370  0.9014E+02  0.8594E+02  0.1224E+03  0.1220E+03
     -5.317  0.9809E+02  0.1018E+03  0.1275E+03  0.1273E+03
     -5.265  0.6679E+02  0.6688E+02  0.1310E+03  0.1308E+03
     -5.212  0.7447E+02  0.7582E+02  0.1349E+03  0.1348E+03
     -5.160  0.6107E+02  0.6050E+02  0.1381E+03  0.1379E+03
     -5.108  0.6929E+02  0.6877E+02  0.1417E+03  0.1415E+03
     -5.055  0.7698E+02  0.7632E+02  0.1458E+03  0.1455E+03
     -5.003  0.8666E+02  0.8682E+02  0.1503E+03  0.1501E+03
     -4.950  0.6313E+02  0.6418E+02  0.1536E+03  0.1535E+03
     -4.898  0.5449E+02  0.5368E+02  0.1565E+03  0.1563E+03
     -4.846  0.7626E+02  0.7700E+02  0.1605E+03  0.1603E+03
     -4.793  0.1054E+03  0.1016E+03  0.1660E+03  0.1656E+03
     -4.741  0.1205E+03  0.1207E+03  0.1723E+03  0.1719E+03
     -4.689  0.1224E+03  0.1227E+03  0.1787E+03  0.1784E+03
     -4.636  0.1246E+03  0.1239E+03  0.1852E+03  0.1849E+03
     -4.584  0.1065E+03  0.1087E+03  0.1908E+03  0.1906E+03
     -4.531  0.9844E+02  0.9958E+02  0.1960E+03  0.1958E+03
     -4.479  0.1013E+03  0.9785E+02  0.2013E+03  0.2009E+03
     -4.427  0.8902E+02  0.9120E+02  0.2060E+03  0.2057E+03
     -4.374  0.9788E+02  0.9768E+02  0.2111E+03  0.2108E+03
     -4.322  0.8031E+02  0.8489E+02  0.2153E+03  0.2152E+03
     -4.269  0.5466E+02  0.4970E+02  0.2182E+03  0.2178E+03
     -4.217  0.8753E+02  0.8862E+02  0.2227E+03  0.2225E+03
     -4.165  0.9985E+02  0.9893E+02  0.2280E+03  0.2277E+03
     -4.112  0.8626E+02  0.9007E+02  0.2325E+03  0.2324E+03
     -4.060  0.5252E+02  0.5068E+02  0.2352E+03  0.2350E+03
     -4.008  0.7030E+02  0.7241E+02  0.2389E+03  0.2388E+03
     -3.955  0.5516E+02  0.5197E+02  0.2418E+03  0.2415E+03
     -3.903  0.3140E+02  0.3363E+02  0.2435E+03  0.2433E+03
     -3.850  0.5731E+02  0.5418E+02  0.2465E+03  0.2461E+03
     -3.798  0.5905E+02  0.6201E+02  0.2495E+03  0.2494E+03
     -3.746  0.6043E+02  0.5958E+02  0.2527E+03  0.2525E+03
     -3.693  0.8177E+02  0.7842E+02  0.2570E+03  0.2566E+03
     -3.641  0.5302E+02  0.5783E+02  0.2598E+03  0.2597E+03
     -3.589  0.7913E+02  0.7791E+02  0.2639E+03  0.2637E+03
     -3.536  0.4414E+02  0.4340E+02  0.2662E+03  0.2660E+03
     -3.484  0.7713E+02  0.7920E+02  0.2703E+03  0.2702E+03
     -3.431  0.7112E+02  0.6839E+02  0.2740E+03  0.2737E+03
     -3.379  0.7714E+02  0.7455E+02  0.2780E+03  0.2776E+03
     -3.327  0.8870E+02  0.9322E+02  0.2827E+03  0.2825E+03
     -3.274  0.7317E+02  0.7032E+02  0.2865E+03  0.2862E+03
     -3.222  0.7928E+02  0.7949E+02  0.2907E+03  0.2904E+03
     -3.169  0.6587E+02  0.6668E+02  0.2941E+03  0.2939E+03
     -3.117  0.7906E+02  0.7820E+02  0.2983E+03  0.2980E+03
     -3.065  0.7032E+02  0.7260E+02  0.3019E+03  0.3018E+03
     -3.012  0.7671E+02  0.7550E+02  0.3060E+03  0.3057E+03
     -2.960  0.6448E+02  0.6457E+02  0.3093E+03  0.3091E+03
     -2.908  0.1089E+03  0.1064E+03  0.3150E+03  0.3147E+03
     -2.855  0.9756E+02  0.9948E+02  0.3202E+03  0.3199E+03
     -2.803  0.9088E+02  0.9153E+02  0.3249E+03  0.3247E+03
     -2.750  0.1166E+03  0.1152E+03  0.3310E+03  0.3307E+03
     -2.698  0.8177E+02  0.8240E+02  0.3353E+03  0.3350E+03
     -2.646  0.9508E+02  0.9431E+02  0.3403E+03  0.3400E+03
     -2.593  0.1132E+03  0.1115E+03  0.3462E+03  0.3458E+03
     -2.541  0.1343E+03  0.1326E+03  0.3532E+03  0.3528E+03
     -2.489  0.9792E+02  0.1038E+03  0.3584E+03  0.3582E+03
     -2.436  0.9140E+02  0.8856E+02  0.3632E+03  0.3628E+03
     -2.384  0.1035E+03  0.1026E+03  0.3686E+03  0.3682E+03
     -2.331  0.9145E+02  0.9445E+02  0.3734E+03  0.3732E+03
     -2.279  0.1018E+03  0.9963E+02  0.3787E+03  0.3784E+03
     -2.227  0.7257E+02  0.7500E+02  0.3825E+03  0.3823E+03
     -2.174  0.3777E+02  0.3991E+02  0.3845E+03  0.3844E+03
     -2.122  0.4377E+02  0.3870E+02  0.3868E+03  0.3864E+03
     -2.069  0.7262E+02  0.7431E+02  0.3906E+03  0.3903E+03
     -2.017  0.8766E+02  0.8570E+02  0.3952E+03  0.3948E+03
     -1.965  0.8944E+02  0.9212E+02  0.3999E+03  0.3996E+03
     -1.912  0.1096E+03  0.1062E+03  0.4056E+03  0.4052E+03
     -1.860  0.6510E+02  0.7061E+02  0.4090E+03  0.4089E+03
     -1.808  0.6748E+02  0.6514E+02  0.4125E+03  0.4123E+03
     -1.755  0.1054E+03  0.1044E+03  0.4181E+03  0.4178E+03
     -1.703  0.1086E+03  0.1095E+03  0.4238E+03  0.4235E+03
     -1.650  0.7573E+02  0.7700E+02  0.4277E+03  0.4275E+03
     -1.598  0.9168E+02  0.8703E+02  0.4325E+03  0.4321E+03
     -1.546  0.8143E+02  0.8694E+02  0.4368E+03  0.4367E+03
     -1.493  0.5444E+02  0.5265E+02  0.4396E+03  0.4394E+03
     -1.441  0.4789E+02  0.4910E+02  0.4422E+03  0.4420E+03
     -1.389  0.6170E+02  0.5891E+02  0.4454E+03  0.4451E+03
     -1.336  0.8084E+02  0.8182E+02  0.4496E+03  0.4494E+03
     -1.284  0.2867E+02  0.3065E+02  0.4511E+03  0.4510E+03
     -1.231  0.6049E+02  0.5924E+02  0.4543E+03  0.4541E+03
     -1.179  0.5046E+02  0.5261E+02  0.4569E+03  0.4568E+03
     -1.127  0.6045E+02  0.5857E+02  0.4601E+03  0.4599E+03
     -1.074  0.4822E+02  0.4898E+02  0.4626E+03  0.4625E+03
     -1.022  0.5578E+02  0.5425E+02  0.4655E+03  0.4653E+03
     -0.969  0.3813E+02  0.4069E+02  0.4675E+03  0.4674E+03
     -0.917  0.3019E+02  0.2985E+02  0.4691E+03  0.4690E+03
     -0.865  0.7262E+02  0.6931E+02  0.4729E+03  0.4726E+03
     -0.812  0.7544E+02  0.7861E+02  0.4769E+03  0.4767E+03
     -0.760  0.4207E+02  0.4083E+02  0.4791E+03  0.4789E+03
     -0.708  0.6363E+02  0.6102E+02  0.4824E+03  0.4821E+03
     -0.655  0.7184E+02  0.7549E+02  0.4862E+03  0.4860E+03
     -0.603  0.3416E+02  0.3385E+02  0.4880E+03  0.4878E+03
     -0.550  0.2633E+02  0.2838E+02  0.4893E+03  0.4893E+03
     -0.498  0.1975E+02  0.1951E+02  0.4904E+03  0.4903E+03
     -0.446  0.3087E+02  0.3177E+02  0.4920E+03  0.4920E+03
     -0.393  0.3095E+02  0.2945E+02  0.4936E+03  0.4935E+03
     -0.341  0.5660E+02  0.5449E+02  0.4966E+03  0.4964E+03
     -0.289  0.7553E+02  0.7633E+02  0.5005E+03  0.5004E+03
     -0.236  0.8261E+02  0.8162E+02  0.5049E+03  0.5046E+03
     -0.184  0.9125E+02  0.9091E+02  0.5096E+03  0.5094E+03
     -0.131  0.1129E+03  0.1110E+03  0.5156E+03  0.5152E+03
     -0.079  0.1327E+03  0.1328E+03  0.5225E+03  0.5222E+03
     -0.027  0.1024E+03  0.1044E+03  0.5279E+03  0.5276E+03
      0.026  0.1137E+03  0.1112E+03  0.5338E+03  0.5335E+03
      0.078  0.1389E+03  0.1410E+03  0.5411E+03  0.5409E+03
      0.131  0.1088E+03  0.1080E+03  0.5468E+03  0.5465E+03
      0.183  0.9999E+02  0.1026E+03  0.5520E+03  0.5519E+03
      0.235  0.7295E+02  0.7122E+02  0.5559E+03  0.5556E+03
      0.288  0.8869E+02  0.8639E+02  0.5605E+03  0.5601E+03
      0.340  0.9045E+02  0.9345E+02  0.5652E+03  0.5650E+03
      0.392  0.7966E+02  0.7495E+02  0.5694E+03  0.5690E+03
      0.445  0.1163E+03  0.1210E+03  0.5755E+03  0.5753E+03
      0.497  0.7025E+02  0.7063E+02  0.5792E+03  0.5790E+03
      0.550  0.1247E+03  0.1208E+03  0.5857E+03  0.5853E+03
      0.602  0.1185E+03  0.1198E+03  0.5919E+03  0.5916E+03
      0.654  0.1101E+03  0.1090E+03  0.5977E+03  0.5973E+03
      0.707  0.1768E+03  0.1751E+03  0.6070E+03  0.6065E+03
      0.759  0.1181E+03  0.1196E+03  0.6131E+03  0.6128E+03
      0.811  0.1279E+03  0.1306E+03  0.6198E+03  0.6196E+03
      0.864  0.8952E+02  0.8563E+02  0.6245E+03  0.6241E+03
      0.916  0.1301E+03  0.1328E+03  0.6314E+03  0.6310E+03
      0.969  0.1035E+03  0.1055E+03  0.6368E+03  0.6366E+03
      1.021  0.1080E+03  0.1048E+03  0.6424E+03  0.6421E+03
      1.073  0.1558E+03  0.1535E+03  0.6506E+03  0.6501E+03
      1.126  0.1716E+03  0.1727E+03  0.6596E+03  0.6591E+03
      1.178  0.1686E+03  0.1690E+03  0.6684E+03  0.6680E+03
      1.231  0.1938E+03  0.1929E+03  0.6786E+03  0.6781E+03
      1.283  0.1716E+03  0.1711E+03  0.6876E+03  0.6871E+03
      1.335  0.2037E+03  0.2029E+03  0.6982E+03  0.6977E+03
      1.388  0.1646E+03  0.1678E+03  0.7069E+03  0.7065E+03
      1.440  0.1339E+03  0.1343E+03  0.7139E+03  0.7135E+03
      1.492  0.1977E+03  0.1913E+03  0.7242E+03  0.7235E+03
      1.545  0.1888E+03  0.1920E+03  0.7341E+03  0.7336E+03
      1.597  0.2008E+03  0.2003E+03  0.7446E+03  0.7441E+03
      1.650  0.1711E+03  0.1729E+03  0.7536E+03  0.7531E+03
      1.702  0.1815E+03  0.1798E+03  0.7631E+03  0.7625E+03
      1.754  0.2043E+03  0.2035E+03  0.7738E+03  0.7732E+03
      1.807  0.1683E+03  0.1679E+03  0.7826E+03  0.7820E+03
      1.859  0.1504E+03  0.1553E+03  0.7905E+03  0.7901E+03
      1.911  0.1851E+03  0.1799E+03  0.8002E+03  0.7996E+03
      1.964  0.2133E+03  0.2131E+03  0.8114E+03  0.8107E+03
      2.016  0.1433E+03  0.1465E+03  0.8189E+03  0.8184E+03
      2.069  0.1827E+03  0.1802E+03  0.8284E+03  0.8278E+03
      2.121  0.2130E+03  0.2149E+03  0.8396E+03  0.8391E+03
      2.173  0.1718E+03  0.1723E+03  0.8486E+03  0.8481E+03
      2.226  0.1402E+03  0.1368E+03  0.8559E+03  0.8553E+03
      2.278  0.1726E+03  0.1733E+03  0.8650E+03  0.8644E+03
      2.331  0.1620E+03  0.1635E+03  0.8735E+03  0.8729E+03
      2.383  0.1901E+03  0.1863E+03  0.8834E+03  0.8827E+03
      2.435  0.1626E+03  0.1658E+03  0.8919E+03  0.8914E+03
      2.488  0.1368E+03  0.1363E+03  0.8991E+03  0.8985E+03
      2.540  0.1262E+03  0.1302E+03  0.9057E+03  0.9053E+03
      2.592  0.1398E+03  0.1360E+03  0.9131E+03  0.9124E+03
      2.645  0.1378E+03  0.1400E+03  0.9203E+03  0.9198E+03
      2.697  0.1123E+03  0.1118E+03  0.9261E+03  0.9256E+03
      2.750  0.1800E+03  0.1746E+03  0.9356E+03  0.9348E+03
      2.802  0.1239E+03  0.1255E+03  0.9421E+03  0.9414E+03
      2.854  0.1471E+03  0.1492E+03  0.9498E+03  0.9492E+03
      2.907  0.1407E+03  0.1427E+03  0.9571E+03  0.9566E+03
      2.959  0.1007E+03  0.1026E+03  0.9624E+03  0.9620E+03
      3.011  0.1302E+03  0.1256E+03  0.9692E+03  0.9686E+03
      3.064  0.1277E+03  0.1322E+03  0.9759E+03  0.9755E+03
      3.116  0.1033E+03  0.1015E+03  0.9813E+03  0.9808E+03
      3.169  0.1025E+03  0.1042E+03  0.9867E+03  0.9863E+03
      3.221  0.1296E+03  0.1289E+03  0.9935E+03  0.9931E+03
      3.273  0.9359E+02  0.8988E+02  0.9984E+03  0.9978E+03
      3.326  0.1159E+03  0.1206E+03  0.1004E+04  0.1004E+04
      3.378  0.9858E+02  0.1011E+03  0.1010E+04  0.1009E+04
      3.431  0.6285E+02  0.6134E+02  0.1013E+04  0.1013E+04
      3.483  0.9959E+02  0.9526E+02  0.1018E+04  0.1018E+04
      3.535  0.8690E+02  0.8322E+02  0.1023E+04  0.1022E+04
      3.588  0.8710E+02  0.9198E+02  0.1027E+04  0.1027E+04
      3.640  0.7432E+02  0.7605E+02  0.1031E+04  0.1031E+04
      3.692  0.6123E+02  0.6162E+02  0.1034E+04  0.1034E+04
      3.745  0.5441E+02  0.5859E+02  0.1037E+04  0.1037E+04
      3.797  0.5417E+02  0.4981E+02  0.1040E+04  0.1040E+04
      3.850  0.4956E+02  0.4866E+02  0.1043E+04  0.1042E+04
      3.902  0.4443E+02  0.4327E+02  0.1045E+04  0.1044E+04
      3.954  0.4750E+02  0.4590E+02  0.1047E+04  0.1047E+04
      4.007  0.7018E+02  0.7259E+02  0.1051E+04  0.1051E+04
      4.059  0.1050E+03  0.8585E+02  0.1057E+04  0.1055E+04
      4.111  0.1152E+03  0.1214E+03  0.1063E+04  0.1062E+04
      4.164  0.9225E+02  0.1004E+03  0.1067E+04  0.1067E+04
      4.216  0.8144E+02  0.8177E+02  0.1072E+04  0.1071E+04
      4.269  0.1222E+03  0.1159E+03  0.1078E+04  0.1077E+04
      4.321  0.1113E+03  0.1133E+03  0.1084E+04  0.1083E+04
      4.373  0.1122E+03  0.1078E+03  0.1090E+04  0.1089E+04
      4.426  0.1177E+03  0.1259E+03  0.1096E+04  0.1095E+04
      4.478  0.1204E+03  0.1175E+03  0.1102E+04  0.1101E+04
      4.531  0.1045E+03  0.1095E+03  0.1108E+04  0.1107E+04
      4.583  0.1054E+03  0.1059E+03  0.1113E+04  0.1113E+04
      4.635  0.1140E+03  0.1120E+03  0.1119E+04  0.1119E+04
      4.688  0.1031E+03  0.1041E+03  0.1125E+04  0.1124E+04
      4.740  0.1241E+03  0.1234E+03  0.1131E+04  0.1131E+04
      4.792  0.1111E+03  0.1087E+03  0.1137E+04  0.1136E+04
      4.845  0.1339E+03  0.1345E+03  0.1144E+04  0.1143E+04
      4.897  0.1113E+03  0.1165E+03  0.1150E+04  0.1149E+04
      4.950  0.1144E+03  0.1075E+03  0.1156E+04  0.1155E+04
      5.002  0.1108E+03  0.1115E+03  0.1162E+04  0.1161E+04
      5.054  0.1518E+03  0.1570E+03  0.1170E+04  0.1169E+04
      5.107  0.1092E+03  0.1122E+03  0.1175E+04  0.1175E+04
      5.159  0.1280E+03  0.1187E+03  0.1182E+04  0.1181E+04
      5.211  0.9124E+02  0.1008E+03  0.1187E+04  0.1186E+04
      5.264  0.1052E+03  0.1029E+03  0.1192E+04  0.1192E+04
      5.316  0.1058E+03  0.1020E+03  0.1198E+04  0.1197E+04
      5.369  0.1293E+03  0.1299E+03  0.1205E+04  0.1204E+04
      5.421  0.1412E+03  0.1416E+03  0.1212E+04  0.1211E+04
      5.473  0.1570E+03  0.1544E+03  0.1220E+04  0.1219E+04
      5.526  0.1565E+03  0.1622E+03  0.1228E+04  0.1228E+04
      5.578  0.1483E+03  0.1431E+03  0.1236E+04  0.1235E+04
      5.631  0.1188E+03  0.1271E+03  0.1242E+04  0.1242E+04
      5.683  0.1105E+03  0.1073E+03  0.1248E+04  0.1248E+04
      5.735  0.1119E+03  0.1101E+03  0.1254E+04  0.1254E+04
      5.788  0.1243E+03  0.1257E+03  0.1261E+04  0.1260E+04
      5.840  0.1227E+03  0.1289E+03  0.1267E+04  0.1267E+04
      5.892  0.7615E+02  0.7497E+02  0.1271E+04  0.1271E+04
      5.945  0.1840E+02  0.2304E+02  0.1272E+04  0.1272E+04
      5.997  0.0000E+00  0.0000E+00  0.1272E+04  0.1272E+04
      6.050  0.0000E+00  0.0000E+00  0.1272E+04  0.1272E+04
      6.102  0.0000E+00  0.0000E+00  0.1272E+04  0.1272E+04
      6.154  0.0000E+00  0.0000E+00  0.1272E+04  0.1272E+04
      6.207  0.0000E+00  0.0000E+00  0.1272E+04  0.1272E+04
      6.259  0.0000E+00  0.0000E+00  0.1272E+04  0.1272E+04
      6.311  0.0000E+00  0.0000E+00  0.1272E+04  0.1272E+04
      6.364  0.0000E+00  0.0000E+00  0.1272E+04  0.1272E+04
      6.416  0.0000E+00  0.0000E+00  0.1272E+04  0.1272E+04
      6.469  0.0000E+00  0.0000E+00  0.1272E+04  0.1272E+04
      6.521  0.0000E+00  0.0000E+00  0.1272E+04  0.1272E+04
      6.573  0.0000E+00  0.0000E+00  0.1272E+04  0.1272E+04
      6.626  0.0000E+00  0.0000E+00  0.1272E+04  0.1272E+04
