 vasp.6.4.3 19Mar24 (build Oct 22 2024 11:23:12) complex                        
  
 executed on             LinuxIFC date 2025.04.30  02:42:57
 running   16 mpi-ranks, on    1 nodes
 distrk:  each k-point on   16 cores,    1 groups
 distr:  one band on NCORE=  16 cores,    1 groups


--------------------------------------------------------------------------------------------------------


 INCAR:
   SYSTEM = Si122 and Ge001 interface calculation
   ISTART = 0
   ICHARG = 2
   LWAVE = .FALSE.
   LREAL = AUTO
   ENCUT = 700
   ENAUG = 900
   ADDGRID = .TRUE.
   LMAXMIX = 6
   LASPH = .TRUE.
   LMIXTAU = .TRUE.
   NCORE = 16
   NELM = 100
   NBANDS = 188
   EDIFF = 1d-7
   AMIX = 0.6
   ISMEAR = 0
   SIGMA = 0.01
   NELECT = 312
   ISPIN = 2
   NUPDOWN = 1
   LVTOT = .FALSE.
   LVHAR = .TRUE.

 POTCAR:    PAW_PBE Si 05Jan2001                  
 POTCAR:    PAW_PBE Ge 05Jan2001                  
 -----------------------------------------------------------------------------
|                                                                             |
|           W    W    AA    RRRRR   N    N  II  N    N   GGGG   !!!           |
|           W    W   A  A   R    R  NN   N  II  NN   N  G    G  !!!           |
|           W    W  A    A  R    R  N N  N  II  N N  N  G       !!!           |
|           W WW W  AAAAAA  RRRRR   N  N N  II  N  N N  G  GGG   !            |
|           WW  WW  A    A  R   R   N   NN  II  N   NN  G    G                |
|           W    W  A    A  R    R  N    N  II  N    N   GGGG   !!!           |
|                                                                             |
|     You use a magnetic or noncollinear calculation, but did not specify     |
|     the initial magnetic moment with the MAGMOM tag. Note that a            |
|     default of 0.013 will be used for all atoms. This ferromagnetic         |
|     setup may break the symmetry of the crystal, in particular it may       |
|     rule out finding an antiferromagnetic solution. Thence, we              |
|     recommend setting the initial magnetic moment manually or verifying     |
|     carefully that this magnetic setup is desired.                          |
|                                                                             |
 -----------------------------------------------------------------------------

 -----------------------------------------------------------------------------
|                                                                             |
|           W    W    AA    RRRRR   N    N  II  N    N   GGGG   !!!           |
|           W    W   A  A   R    R  NN   N  II  NN   N  G    G  !!!           |
|           W    W  A    A  R    R  N N  N  II  N N  N  G       !!!           |
|           W WW W  AAAAAA  RRRRR   N  N N  II  N  N N  G  GGG   !            |
|           WW  WW  A    A  R   R   N   NN  II  N   NN  G    G                |
|           W    W  A    A  R    R  N    N  II  N    N   GGGG   !!!           |
|                                                                             |
|     For optimal performance we recommend to set                             |
|       NCORE = 2 up to number-of-cores-per-socket                            |
|     NCORE specifies how many cores store one orbital (NPAR=cpu/NCORE).      |
|     This setting can greatly improve the performance of VASP for DFT.       |
|     The default, NCORE=1 might be grossly inefficient on modern             |
|     multi-core architectures or massively parallel machines. Do your        |
|     own testing! More info at https://www.vasp.at/wiki/index.php/NCORE      |
|     Unfortunately you need to use the default for GW and RPA                |
|     calculations (for HF NCORE is supported but not extensively tested      |
|     yet).                                                                   |
|                                                                             |
 -----------------------------------------------------------------------------

 POTCAR:    PAW_PBE Si 05Jan2001                  
   VRHFIN =Si: s2p2                                                                                 
   LEXCH  = PE                                                                                      
   EATOM  =   103.0669 eV,    7.5752 Ry                                                             
                                                                                                    
   TITEL  = PAW_PBE Si 05Jan2001                                                                    
   LULTRA =        F    use ultrasoft PP ?                                                          
   IUNSCR =        1    unscreen: 0-lin 1-nonlin 2-no                                               
   RPACOR =    1.500    partial core radius                                                         
   POMASS =   28.085; ZVAL   =    4.000    mass and valenz                                          
   RCORE  =    1.900    outmost cutoff radius                                                       
   RWIGS  =    2.480; RWIGS  =    1.312    wigner-seitz radius (au A)                               
   ENMAX  =  245.345; ENMIN  =  184.009 eV                                                          
   ICORE  =        2    local potential                                                             
   LCOR   =        T    correct aug charges                                                         
   LPAW   =        T    paw PP                                                                      
   EAUG   =  322.069                                                                                
   DEXC   =    0.000                                                                                
   RMAX   =    1.950    core radius for proj-oper                                                   
   RAUG   =    1.300    factor for augmentation sphere                                              
   RDEP   =    1.993    radius for radial grids                                                     
   RDEPT  =    1.837    core radius for aug-charge                                                  
                                                                                                    
   Atomic configuration                                                                             
    6 entries                                                                                       
     n  l   j            E        occ.                                                              
     1  0  0.50     -1785.8828   2.0000                                                             
     2  0  0.50      -139.4969   2.0000                                                             
     2  1  1.50       -95.5546   6.0000                                                             
     3  0  0.50       -10.8127   2.0000                                                             
     3  1  0.50        -4.0811   2.0000                                                             
     3  2  1.50        -4.0817   0.0000                                                             
   Description                                                                                      
     l       E           TYP  RCUT    TYP  RCUT                                                     
     0    -10.8127223     23  1.900                                                                 
     0     -7.6451159     23  1.900                                                                 
     1     -4.0811372     23  1.900                                                                 
     1      2.4879257     23  1.900                                                                 
     2     -4.0817478      7  1.900                                                                 
  local pseudopotential read in
  partial core-charges read in
  partial kinetic energy density read in
  atomic valenz-charges read in
  non local Contribution for L=           0  read in
    real space projection operators read in
  non local Contribution for L=           0  read in
    real space projection operators read in
  non local Contribution for L=           1  read in
    real space projection operators read in
  non local Contribution for L=           1  read in
    real space projection operators read in
    PAW grid and wavefunctions read in
 
   number of l-projection  operators is LMAX  =           4
   number of lm-projection operators is LMMAX =           8
 
 POTCAR:    PAW_PBE Ge 05Jan2001                  
   VRHFIN =Ge: s2p2                                                                                 
   LEXCH  = PE                                                                                      
   EATOM  =   104.9960 eV,    7.7170 Ry                                                             
                                                                                                    
   TITEL  = PAW_PBE Ge 05Jan2001                                                                    
   LULTRA =        F    use ultrasoft PP ?                                                          
   IUNSCR =        1    unscreen: 0-lin 1-nonlin 2-no                                               
   RPACOR =    2.170    partial core radius                                                         
   POMASS =   72.610; ZVAL   =    4.000    mass and valenz                                          
   RCORE  =    2.300    outmost cutoff radius                                                       
   RWIGS  =    2.300; RWIGS  =    1.217    wigner-seitz radius (au A)                               
   ENMAX  =  173.807; ENMIN  =  130.355 eV                                                          
   ICORE  =        3    local potential                                                             
   LCOR   =        T    correct aug charges                                                         
   LPAW   =        T    paw PP                                                                      
   EAUG   =  385.843                                                                                
   DEXC   =    0.000                                                                                
   RMAX   =    2.342    core radius for proj-oper                                                   
   RAUG   =    1.300    factor for augmentation sphere                                              
   RDEP   =    2.318    radius for radial grids                                                     
   RDEPT  =    2.103    core radius for aug-charge                                                  
                                                                                                    
   Atomic configuration                                                                             
   10 entries                                                                                       
     n  l   j            E        occ.                                                              
     1  0  0.50    -10959.8463   2.0000                                                             
     2  0  0.50     -1371.6056   2.0000                                                             
     2  1  1.50     -1198.4791   6.0000                                                             
     3  0  0.50      -168.4733   2.0000                                                             
     3  1  1.50      -115.6019   6.0000                                                             
     3  2  2.50       -29.3106  10.0000                                                             
     4  0  0.50       -11.7309   2.0000                                                             
     4  1  0.50        -3.8952   2.0000                                                             
     4  2  1.50        -4.0817   0.0000                                                             
     4  3  2.50        -4.0817   0.0000                                                             
   Description                                                                                      
     l       E           TYP  RCUT    TYP  RCUT                                                     
     0    -11.7309493     23  2.300                                                                 
     0     -7.4578696     23  2.300                                                                 
     1     -3.8952261     23  2.300                                                                 
     1      6.1178114     23  2.300                                                                 
     2     -4.0817478     23  2.300                                                                 
     3     -1.3605826      7  2.300                                                                 
  local pseudopotential read in
  partial core-charges read in
  partial kinetic energy density read in
  atomic valenz-charges read in
  non local Contribution for L=           0  read in
    real space projection operators read in
  non local Contribution for L=           0  read in
    real space projection operators read in
  non local Contribution for L=           1  read in
    real space projection operators read in
  non local Contribution for L=           1  read in
    real space projection operators read in
  non local Contribution for L=           2  read in
    real space projection operators read in
    PAW grid and wavefunctions read in
 
   number of l-projection  operators is LMAX  =           5
   number of lm-projection operators is LMMAX =          13
 
 Optimization of the real space projectors (new method)

 maximal supplied QI-value         = 19.84
 optimisation between [QCUT,QGAM] = [ 13.49, 26.99] = [ 50.98,203.92] Ry 
 Optimized for a Real-space Cutoff    1.07 Angstroem

   l    n(q)    QCUT    max X(q) W(low)/X(q) W(high)/X(q)  e(spline) 
   0      9    13.493   159.560    0.22E-03    0.15E-03    0.72E-07
   0      9    13.493   115.863    0.21E-03    0.15E-03    0.71E-07
   1      8    13.493    88.339    0.15E-03    0.11E-03    0.13E-06
   1      8    13.493    48.592    0.15E-03    0.10E-03    0.13E-06
 Optimization of the real space projectors (new method)

 maximal supplied QI-value         = 16.25
 optimisation between [QCUT,QGAM] = [ 13.49, 26.98] = [ 50.95,203.80] Ry 
 Optimized for a Real-space Cutoff    1.25 Angstroem

   l    n(q)    QCUT    max X(q) W(low)/X(q) W(high)/X(q)  e(spline) 
   0     10    13.489    65.336    0.91E-04    0.11E-03    0.34E-06
   0     10    13.489    52.220    0.89E-04    0.11E-03    0.34E-06
   1     10    13.489    36.409    0.22E-03    0.27E-03    0.14E-06
   1     10    13.489    21.334    0.21E-03    0.27E-03    0.14E-06
   2      9    13.489     4.673    0.11E-03    0.12E-03    0.19E-06
  PAW_PBE Si 05Jan2001                  :
 energy of atom  1       EATOM= -103.0669
 kinetic energy error for atom=    0.0003 (will be added to EATOM!!)
  PAW_PBE Ge 05Jan2001                  :
 energy of atom  2       EATOM= -104.9960
 kinetic energy error for atom=    0.0001 (will be added to EATOM!!)
 
 
 POSCAR: fcc Si+fcc Ge
  positions in direct lattice
  No initial velocities read in


 exchange-correlation table for PE
   RHO(1)=    0.500       N(1)  =     2000
   RHO(2)=  100.500       N(2)  =     4000
 


--------------------------------------------------------------------------------------------------------


 ion  position               nearest neighbor table
   1  0.000  0.000  0.000-  78 2.37   7 2.37   8 2.37  10 2.37  60 2.83
   2  0.111  0.278  0.049-  66 2.14   9 2.37   8 2.37  11 2.37
   3  0.222  0.556  0.098-   9 2.37  12 2.37  73 2.48  49 2.52
   4  0.500  0.000  0.000-  60 2.37  10 2.37  11 2.37   7 2.37  78 2.83
   5  0.611  0.278  0.049-  48 2.14  12 2.37  11 2.37   8 2.37
   6  0.722  0.556  0.098-   9 2.37  12 2.37  55 2.48  67 2.52
   7  0.806  0.889  0.025-  78 1.59   1 2.37   4 2.37
   8  0.917  0.167  0.074-   2 2.37   1 2.37   5 2.37  43 2.43  48 3.02
   9  0.028  0.444  0.123-  67 2.08   2 2.37   6 2.37   3 2.37  49 2.59  23 2.62
  10  0.306  0.889  0.025-  60 1.59   4 2.37   1 2.37
  11  0.417  0.167  0.074-   5 2.37   4 2.37   2 2.37  61 2.43  66 3.02
  12  0.528  0.444  0.123-  49 2.08   5 2.37   6 2.37   3 2.37  67 2.59  38 2.62
  13  0.430  0.720  0.258-  74 2.40  73 2.40  55 2.40  44 2.40
  14  0.763  0.553  0.409-  45 2.40  56 2.40  74 2.40  75 2.40
  15  0.096  0.387  0.561-  57 2.40  75 2.40  46 2.40  76 2.40
  16  0.430  0.220  0.713-  58 2.40  76 2.40  77 2.40  47 2.40
  17  0.763  0.053  0.865-  48 2.40  59 2.40  77 2.40  78 2.40
  18  0.763  0.053  0.258-  50 2.40  43 2.40  61 2.40  62 2.40
  19  0.096  0.887  0.409-  44 2.40  62 2.40  51 2.40  63 2.40
  20  0.430  0.720  0.561-  64 2.40  63 2.40  45 2.40  52 2.40
  21  0.763  0.553  0.713-  46 2.40  64 2.40  53 2.40  65 2.40
  22  0.096  0.387  0.865-  47 2.40  65 2.40  54 2.40  66 2.40
  23  0.096  0.387  0.258-  49 2.40  67 2.40  56 2.40  68 2.40   9 2.62
  24  0.430  0.220  0.409-  69 2.40  68 2.40  50 2.40  57 2.40
  25  0.763  0.053  0.561-  58 2.40  51 2.40  69 2.40  70 2.40
  26  0.096  0.887  0.713-  52 2.40  70 2.40  59 2.40  71 2.40
  27  0.430  0.720  0.865-  72 2.40  71 2.40  53 2.40  60 2.40
  28  0.930  0.720  0.258-  56 2.40  55 2.40  73 2.40  62 2.40
  29  0.263  0.553  0.409-  63 2.40  56 2.40  74 2.40  57 2.40
  30  0.596  0.387  0.561-  57 2.40  75 2.40  64 2.40  58 2.40
  31  0.930  0.220  0.713-  58 2.40  76 2.40  59 2.40  65 2.40
  32  0.263  0.053  0.865-  66 2.40  59 2.40  77 2.40  60 2.40
  33  0.263  0.053  0.258-  68 2.40  61 2.40  43 2.40  44 2.40
  34  0.596  0.887  0.409-  44 2.40  62 2.40  45 2.40  69 2.40
  35  0.930  0.720  0.561-  46 2.40  45 2.40  63 2.40  70 2.40
  36  0.263  0.553  0.713-  46 2.40  64 2.40  71 2.40  47 2.40
  37  0.596  0.387  0.865-  47 2.40  65 2.40  48 2.40  72 2.40
  38  0.596  0.387  0.258-  49 2.40  67 2.40  50 2.40  74 2.40  12 2.62
  39  0.930  0.220  0.409-  51 2.40  50 2.40  68 2.40  75 2.40
  40  0.263  0.053  0.561-  76 2.40  69 2.40  51 2.40  52 2.40
  41  0.596  0.887  0.713-  52 2.40  70 2.40  53 2.40  77 2.40
  42  0.930  0.720  0.865-  54 2.40  53 2.40  71 2.40  78 2.40
  43  0.013  0.053  0.182-  18 2.40  33 2.40   8 2.43
  44  0.346  0.887  0.333-  19 2.40  34 2.40  33 2.40  13 2.40
  45  0.680  0.720  0.485-  14 2.40  20 2.40  35 2.40  34 2.40
  46  0.013  0.553  0.637-  35 2.40  21 2.40  36 2.40  15 2.40
  47  0.346  0.387  0.789-  22 2.40  37 2.40  36 2.40  16 2.40
  48  0.680  0.220  0.941-   5 2.14  17 2.40  37 2.40   8 3.02
  49  0.346  0.387  0.182-  12 2.08  23 2.40  38 2.40   3 2.52   9 2.59
  50  0.680  0.220  0.333-  18 2.40  24 2.40  39 2.40  38 2.40
  51  0.013  0.053  0.485-  39 2.40  25 2.40  40 2.40  19 2.40
  52  0.346  0.887  0.637-  26 2.40  41 2.40  40 2.40  20 2.40
  53  0.680  0.720  0.789-  27 2.40  42 2.40  21 2.40  41 2.40
  54  0.013  0.553  0.941-  42 2.40  22 2.40
  55  0.680  0.720  0.182-  13 2.40  28 2.40   6 2.48
  56  0.013  0.553  0.333-  28 2.40  14 2.40  29 2.40  23 2.40
  57  0.346  0.387  0.485-  15 2.40  30 2.40  29 2.40  24 2.40
  58  0.680  0.220  0.637-  25 2.40  16 2.40  31 2.40  30 2.40
  59  0.013  0.053  0.789-  17 2.40  32 2.40  31 2.40  26 2.40
  60  0.346  0.887  0.941-  10 1.59   4 2.37  27 2.40  32 2.40   1 2.83
  61  0.513  0.053  0.182-  18 2.40  33 2.40  11 2.43
  62  0.846  0.887  0.333-  19 2.40  34 2.40  28 2.40  18 2.40
  63  0.180  0.720  0.485-  29 2.40  20 2.40  35 2.40  19 2.40
  64  0.513  0.553  0.637-  20 2.40  21 2.40  36 2.40  30 2.40
  65  0.846  0.387  0.789-  22 2.40  37 2.40  31 2.40  21 2.40
  66  0.180  0.220  0.941-   2 2.14  32 2.40  22 2.40  11 3.02
  67  0.846  0.387  0.182-   9 2.08  23 2.40  38 2.40   6 2.52  12 2.59
  68  0.180  0.220  0.333-  33 2.40  24 2.40  39 2.40  23 2.40
  69  0.513  0.053  0.485-  24 2.40  25 2.40  40 2.40  34 2.40
  70  0.846  0.887  0.637-  26 2.40  41 2.40  35 2.40  25 2.40
  71  0.180  0.720  0.789-  27 2.40  42 2.40  36 2.40  26 2.40
  72  0.513  0.553  0.941-  27 2.40  37 2.40
  73  0.180  0.720  0.182-  13 2.40  28 2.40   3 2.48
  74  0.513  0.553  0.333-  13 2.40  14 2.40  29 2.40  38 2.40
  75  0.846  0.387  0.485-  15 2.40  30 2.40  14 2.40  39 2.40
  76  0.180  0.220  0.637-  40 2.40  31 2.40  16 2.40  15 2.40
  77  0.513  0.053  0.789-  17 2.40  32 2.40  16 2.40  41 2.40
  78  0.846  0.887  0.941-   7 1.59   1 2.37  17 2.40  42 2.40   4 2.83
 
  LATTYP: Found a base centered orthorhombic cell.
 ALAT       =     7.7498903220
 B/A-ratio  =     3.0000000000
 C/A-ratio  =     2.4043351014
  
  Lattice vectors:
  
 A1 = (   3.8749451610, -11.6248354830,   0.0000000000)
 A2 = (   3.8749451610,  11.6248354830,   0.0000000000)
 A3 = (   0.0000000000,   0.0000000000,  18.6333333330)


Analysis of symmetry for initial positions (statically):
=====================================================================
 Subroutine PRICEL returns following result:
 
  LATTYP: Found a simple orthorhombic cell.
 ALAT       =     3.8749451610
 B/A-ratio  =     3.0000000000
 C/A-ratio  =     4.8086702028
  
  Lattice vectors:
  
 A1 = (   3.8749451610,   0.0000000000,   0.0000000000)
 A2 = (   0.0000000000,  11.6248354830,   0.0000000000)
 A3 = (   0.0000000000,   0.0000000000,  18.6333333330)
 
   2 primitive cells build up your supercell.
 

 Routine SETGRP: Setting up the symmetry group for a 
 base centered orthorhombic supercell.


 Subroutine GETGRP returns: Found  1 space group operations
 (whereof  1 operations were pure point group operations)
 out of a pool of  8 trial point group operations.


The static configuration has the point symmetry C_1 .


Analysis of symmetry for dynamics (positions and initial velocities):
=====================================================================
 Subroutine PRICEL returns following result:
 
  LATTYP: Found a simple orthorhombic cell.
 ALAT       =     3.8749451610
 B/A-ratio  =     3.0000000000
 C/A-ratio  =     4.8086702028
  
  Lattice vectors:
  
 A1 = (   3.8749451610,   0.0000000000,   0.0000000000)
 A2 = (   0.0000000000,  11.6248354830,   0.0000000000)
 A3 = (   0.0000000000,   0.0000000000,  18.6333333330)
 
   2 primitive cells build up your supercell.
 

 Routine SETGRP: Setting up the symmetry group for a 
 base centered orthorhombic supercell.


 Subroutine GETGRP returns: Found  1 space group operations
 (whereof  1 operations were pure point group operations)
 out of a pool of  8 trial point group operations.


The dynamic configuration has the point symmetry C_1 .


Analysis of structural, dynamic, and magnetic symmetry:
=====================================================================
 Subroutine PRICEL returns following result:
 
  LATTYP: Found a simple orthorhombic cell.
 ALAT       =     3.8749451610
 B/A-ratio  =     3.0000000000
 C/A-ratio  =     4.8086702028
  
  Lattice vectors:
  
 A1 = (   3.8749451610,   0.0000000000,   0.0000000000)
 A2 = (   0.0000000000,  11.6248354830,   0.0000000000)
 A3 = (   0.0000000000,   0.0000000000,  18.6333333330)
 
   2 primitive cells build up your supercell.
 

 Routine SETGRP: Setting up the symmetry group for a 
 base centered orthorhombic supercell.


 Subroutine GETGRP returns: Found  1 space group operations
 (whereof  1 operations were pure point group operations)
 out of a pool of  8 trial point group operations.


The overall configuration has the point symmetry C_1 .


 Subroutine INISYM returns: Found  1 space group operations
 (whereof  1 operations are pure point group operations),
 and found     2 'primitive' translations


----------------------------------------------------------------------------------------

                                     Primitive cell                                     

  volume of cell :     839.3497

  direct lattice vectors                    reciprocal lattice vectors
     3.874945161  0.000000000  0.000000000     0.258068168  0.000000000  0.000000000
     0.000000000 11.624835483  0.000000000     0.000000000  0.086022723  0.000000000
     0.000000000  0.000000000 18.633333333     0.000000000  0.000000000  0.053667263

  length of vectors
     3.874945161 11.624835483 18.633333333     0.258068168  0.086022723  0.053667263

  position of ions in fractional coordinates (direct lattice)
     0.000000000  0.000000000  0.000000000
     0.500000000  0.277777778  0.049016100
     0.000000000  0.555555556  0.098032200
     0.500000001  0.888888889  0.024508050
     0.000000001  0.166666667  0.073524150
     0.500000000  0.444444444  0.122540250
     0.579594477  0.719945355  0.257513417
     0.079594479  0.553278689  0.409391771
     0.579594478  0.386612022  0.561270125
     0.079594477  0.219945355  0.713148479
     0.579594479  0.053278689  0.865026834
     0.579594479  0.053278689  0.257513417
     0.079594478  0.886612022  0.409391771
     0.579594477  0.719945355  0.561270125
     0.079594479  0.553278689  0.713148479
     0.579594478  0.386612022  0.865026834
     0.579594478  0.386612022  0.257513417
     0.079594477  0.219945355  0.409391771
     0.579594479  0.053278689  0.561270125
     0.079594478  0.886612022  0.713148479
     0.579594477  0.719945355  0.865026834
     0.079594479  0.053278689  0.181574240
     0.579594478  0.886612022  0.333452594
     0.079594477  0.719945355  0.485330948
     0.579594479  0.553278689  0.637209302
     0.079594478  0.386612022  0.789087657
     0.579594477  0.219945355  0.940966011
     0.079594478  0.386612022  0.181574240
     0.579594477  0.219945355  0.333452594
     0.079594479  0.053278689  0.485330948
     0.579594478  0.886612022  0.637209302
     0.079594477  0.719945355  0.789087657
     0.579594479  0.553278689  0.940966011
     0.079594477  0.719945355  0.181574240
     0.579594479  0.553278689  0.333452594
     0.079594478  0.386612022  0.485330948
     0.579594477  0.219945355  0.637209302
     0.079594479  0.053278689  0.789087657
     0.579594478  0.886612022  0.940966011

  ion indices of the primitive-cell ions
   primitive index   ion index
                 1           1
                 2           2
                 3           3
                 4           7
                 5           8
                 6           9
                 7          28
                 8          14
                 9          15
                10          31
                11          17
                12          18
                13          19
                14          35
                15          21
                16          22
                17          23
                18          39
                19          25
                20          26
                21          42
                22          43
                23          62
                24          63
                25          46
                26          65
                27          66
                28          67
                29          68
                30          51
                31          70
                32          71
                33          54
                34          73
                35          56
                36          75
                37          76
                38          59
                39          78

----------------------------------------------------------------------------------------

 
 
 KPOINTS: Automatic KPOINTS generated             

Automatic generation of k-mesh.
 Grid dimensions read from file:
 generate k-points for:    4    3    2

 Generating k-lattice:

  Cartesian coordinates                     Fractional coordinates (reciprocal lattice)
     0.032258521 -0.010752840  0.000000000     0.250000000 -0.000000000  0.000000000
     0.000000000  0.028674241  0.000000000     0.000000000  0.333333333  0.000000000
     0.000000000  0.000000000  0.026833631     0.000000000  0.000000000  0.500000000

  Length of vectors
     0.034003467  0.028674241  0.026833631

  Shift w.r.t. Gamma in fractional coordinates (k-lattice)
     0.000000000  0.000000000  0.000000000

 -----------------------------------------------------------------------------
|                                                                             |
|           W    W    AA    RRRRR   N    N  II  N    N   GGGG   !!!           |
|           W    W   A  A   R    R  NN   N  II  NN   N  G    G  !!!           |
|           W    W  A    A  R    R  N N  N  II  N N  N  G       !!!           |
|           W WW W  AAAAAA  RRRRR   N  N N  II  N  N N  G  GGG   !            |
|           WW  WW  A    A  R   R   N   NN  II  N   NN  G    G                |
|           W    W  A    A  R    R  N    N  II  N    N   GGGG   !!!           |
|                                                                             |
|     Your reciprocal lattice and k-lattice belong to different lattice       |
|     classes:                                                                |
|                                                                             |
|        The reciprocal lattice is base centered orthorhombic,                |
|        whereas your k-lattice is simple monoclinic.                         |
|                                                                             |
|     Results are often still useful ...                                      |
|                                                                             |
 -----------------------------------------------------------------------------

 WARNING: IBZKPT: internal override: KBLOWUP is changed to .FALSE.
      ... skipping the blow-up phase ...

 
 Subroutine IBZKPT returns following result:
 ===========================================
 
 Found     14 irreducible k-points:
 
 Following reciprocal coordinates:
            Coordinates               Weight
  0.000000  0.000000  0.000000      1.000000
  0.250000 -0.000000  0.000000      2.000000
  0.500000 -0.000000  0.000000      1.000000
  0.000000  0.333333  0.000000      2.000000
  0.250000  0.333333  0.000000      2.000000
  0.500000  0.333333  0.000000      2.000000
 -0.250000  0.333333  0.000000      2.000000
  0.000000  0.000000  0.500000      1.000000
  0.250000 -0.000000  0.500000      2.000000
  0.500000 -0.000000  0.500000      1.000000
  0.000000  0.333333  0.500000      2.000000
  0.250000  0.333333  0.500000      2.000000
  0.500000  0.333333  0.500000      2.000000
 -0.250000  0.333333  0.500000      2.000000
 
 Following cartesian coordinates:
            Coordinates               Weight
  0.000000  0.000000  0.000000      1.000000
  0.032259 -0.010753  0.000000      2.000000
  0.064517 -0.021506  0.000000      1.000000
  0.000000  0.028674  0.000000      2.000000
  0.032259  0.017921  0.000000      2.000000
  0.064517  0.007169  0.000000      2.000000
 -0.032259  0.039427  0.000000      2.000000
  0.000000  0.000000  0.026834      1.000000
  0.032259 -0.010753  0.026834      2.000000
  0.064517 -0.021506  0.026834      1.000000
  0.000000  0.028674  0.026834      2.000000
  0.032259  0.017921  0.026834      2.000000
  0.064517  0.007169  0.026834      2.000000
 -0.032259  0.039427  0.026834      2.000000
 


--------------------------------------------------------------------------------------------------------




 Dimension of arrays:
   k-points           NKPTS =     14   k-points in BZ     NKDIM =     14   number of bands    NBANDS=    188
   number of dos      NEDOS =    301   number of ions     NIONS =     78
   non local maximal  LDIM  =      5   non local SUM 2l+1 LMDIM =     13
   total plane-waves  NPLWV = 504000
   max r-space proj   IRMAX =   2483   max aug-charges    IRDMAX= 130726
   dimension x,y,z NGX =    50 NGY =   80 NGZ =  126
   dimension x,y,z NGXF=   100 NGYF=  160 NGZF=  252
   support grid    NGXF=   200 NGYF=  320 NGZF=  504
   ions per type =              12  66
   NGX,Y,Z   is equivalent  to a cutoff of  10.73, 10.85, 11.24 a.u.
   NGXF,Y,Z  is equivalent  to a cutoff of  21.45, 21.71, 22.48 a.u.

 SYSTEM =  Si122 and Ge001 interface calculation   
 POSCAR =  fcc Si+fcc Ge                           

 Startparameter for this run:
   NWRITE =      2    write-flag & timer
   PREC   = normal    normal or accurate (medium, high low for compatibility)
   ISTART =      0    job   : 0-new  1-cont  2-samecut
   ICHARG =      2    charge: 1-file 2-atom 10-const
   ISPIN  =      2    spin polarized calculation?
   LNONCOLLINEAR =      F non collinear calculations
   LSORBIT =      F    spin-orbit coupling
   INIWAV =      1    electr: 0-lowe 1-rand  2-diag
   LASPH  =      T    aspherical Exc in radial PAW
 Electronic Relaxation 1
   ENCUT  =  700.0 eV  51.45 Ry    7.17 a.u.  16.72 26.43 40.20*2*pi/ulx,y,z
   ENINI  =  700.0     initial cutoff
   ENAUG  =  900.0 eV  augmentation charge cutoff
   NELM   =    100;   NELMIN=  2; NELMDL= -5     # of ELM steps 
   EDIFF  = 0.1E-06   stopping-criterion for ELM
   LREAL  =      T    real-space projection
   NLSPLINE    = F    spline interpolate recip. space projectors
   LCOMPAT=      F    compatible to vasp.4.4
   GGA_COMPAT  = T    GGA compatible to vasp.4.4-vasp.4.6
   LMAXPAW     = -100 max onsite density
   LMAXMIX     =    6 max onsite mixed and CHGCAR
   VOSKOWN=      0    Vosko Wilk Nusair interpolation
   ROPT   =   -0.00050  -0.00050
 Ionic relaxation
   EDIFFG = 0.1E-05   stopping-criterion for IOM
   NSW    =      0    number of steps for IOM
   NBLOCK =      1;   KBLOCK =      1    inner block; outer block 
   IBRION =     -1    ionic relax: 0-MD 1-quasi-New 2-CG
   NFREE  =      0    steps in history (QN), initial steepest desc. (CG)
   ISIF   =      2    stress and relaxation
   IWAVPR =     10    prediction:  0-non 1-charg 2-wave 3-comb
   ISYM   =      2    0-nonsym 1-usesym 2-fastsym
   LCORR  =      T    Harris-Foulkes like correction to forces

   POTIM  = 0.5000    time-step for ionic-motion
   TEIN   =    0.0    initial temperature
   TEBEG  =    0.0;   TEEND  =   0.0 temperature during run
   SMASS  =  -3.00    Nose mass-parameter (am)
   estimated Nose-frequenzy (Omega)   =  0.10E-29 period in steps = 0.13E+47 mass=  -0.137E-26a.u.
   SCALEE = 1.0000    scale energy and forces
   NPACO  =    256;   APACO  = 10.0  distance and # of slots for P.C.
   PSTRESS=    0.0 pullay stress

  Mass of Ions in am
   POMASS =  28.09 72.61
  Ionic Valenz
   ZVAL   =   4.00  4.00
  Atomic Wigner-Seitz radii
   RWIGS  =  -1.00 -1.00
  virtual crystal weights 
   VCA    =   1.00  1.00
   NELECT =     312.0000    total number of electrons
   NUPDOWN=       1.0000    fix difference up-down

 DOS related values:
   EMIN   =  10.00;   EMAX   =-10.00  energy-range for DOS
   EFERMI =   0.00;   METHOD = LEGACY      
   ISMEAR =     0;   SIGMA  =   0.01  broadening in eV -4-tet -1-fermi 0-gaus

 Electronic relaxation 2 (details)
   IALGO  =     38    algorithm
   LDIAG  =      T    sub-space diagonalisation (order eigenvalues)
   LSUBROT=      F    optimize rotation matrix (better conditioning)
   TURBO    =      0    0=normal 1=particle mesh
   IRESTART =      0    0=no restart 2=restart with 2 vectors
   NREBOOT  =      0    no. of reboots
   NMIN     =      0    reboot dimension
   EREF     =   0.00    reference energy to select bands
   IMIX   =      4    mixing-type and parameters
     AMIX     =   0.60;   BMIX     =  1.00
     AMIX_MAG =   2.40;   BMIX_MAG =  1.00
     AMIN     =   0.10
     WC   =   100.;   INIMIX=   1;  MIXPRE=   1;  MAXMIX= -45

 Intra band minimization:
   WEIMIN = 0.0000     energy-eigenvalue tresh-hold
   EBREAK =  0.13E-09  absolut break condition
   DEPER  =   0.30     relativ break condition  

   TIME   =   0.40     timestep for ELM

  volume/ion in A,a.u.               =      21.52       145.24
  Fermi-wavevector in a.u.,A,eV,Ry     =   0.934262  1.765499 11.875786  0.872846
  Thomas-Fermi vector in A             =   2.061049
 
 Write flags
   LWAVE        =      F    write WAVECAR
   LDOWNSAMPLE  =      F    k-point downsampling of WAVECAR
   LCHARG       =      T    write CHGCAR
   LVTOT        =      F    write LOCPOT, total local potential
   LVHAR        =      T    write LOCPOT, Hartree potential only
   WRT_POTENTIAL=  hartree ionic  ! write potential to hdf5 file
   LELF         =      F    write electronic localiz. function (ELF)
   LORBIT       =      0    0 simple, 1 ext, 2 COOP (PROOUT), +10 PAW based schemes


 Dipole corrections
   LMONO      =      F    monopole corrections only (constant potential shift)
   LDIPOL     =      F    correct potential (dipole corrections)
   IDIPOL     =      0    1-x, 2-y, 3-z, 4-all directions 
   EPSILON    =  1.0000000 bulk dielectric constant
   LVACPOTAV  =      F  vacuum potentials using an averaging scheme for the charge density
   VACPOTFLAT =  0.1000000 required flatness to determine vacuum potential
 Exchange correlation treatment:
   GGA     = PE    functional components
   XC_C    = 1    coefficients multiplying the functional components
   LIBXC   =     F    Libxc                    
   VOSKOWN =     0    Vosko Wilk Nusair interpolation
   LHFCALC =     F    Hartree Fock is set to
   LHFONE  =     F    Hartree Fock one center treatment
   AEXX    =    0.0000 exact exchange contribution

 Parameters of functionals:
   PE:
     No parameter
 
 Van der Waals corrections
   IVDW    =     0    specifies the selected vdW correction

 Linear response parameters
   LEPSILON=     F    determine dielectric tensor
   LRPA    =     F    only Hartree local field effects (RPA)
   LNABLA  =     F    use nabla operator in PAW spheres
   LVEL    =     F    velocity operator in full k-point grid
   CSHIFT  =0.1000    complex shift for real part using Kramers Kronig
   OMEGAMAX=  -1.0    maximum frequency
   DEG_THRESHOLD= 0.2000000E-02 threshold for treating states as degnerate
   RTIME   =   -0.100 relaxation time in fs
  (WPLASMAI=    0.000 imaginary part of plasma frequency in eV, 0.658/RTIME)
   DFIELD  = 0.0000000 0.0000000 0.0000000 field for delta impulse in time
 
  Optional k-point grid parameters
   LKPOINTS_OPT  =     F    use optional k-point grid
   KPOINTS_OPT_MODE=     1    mode for optional k-point grid
 
 Orbital magnetization related:
   ORBITALMAG=     F  switch on orbital magnetization
   LCHIMAG   =     F  perturbation theory with respect to B field
   DQ        =  0.001000  dq finite difference perturbation B field
   LLRAUG    =     F  two centre corrections for induced B field
   LBONE     =     F  B-component reconstruction in AE one-centre
   LVGVCALC  =     T  calculate vGv susceptibility
   LVGVAPPL  =     F  apply vGv susceptibility instead of pGv for G=0

 Random number generation:
   RANDOM_GENERATOR = DEFAULT
   PCG_SEED         = not used


--------------------------------------------------------------------------------------------------------


 Static calculation
 charge density and potential will be updated during run
 spin polarized calculation
 Variant of blocked Davidson
 Davidson routine will perform the subspace rotation
 perform sub-space diagonalisation
    after iterative eigenvector-optimisation
 modified Broyden-mixing scheme, WC =      100.0
 initial mixing is a Kerker type mixing with AMIX =  0.6000 and BMIX =      1.0000
 Hartree-type preconditioning will be used
 using additional bands           32
 real space projection scheme for non local part
 use partial core corrections
 calculate Harris-corrections to forces 
   (improved forces if not selfconsistent)
 use gradient corrections 
 use of overlap-Matrix (Vanderbilt PP)
 Gauss-broadening in eV      SIGMA  =   0.01


--------------------------------------------------------------------------------------------------------


  energy-cutoff  :      700.00
  volume of cell :     1678.70
      direct lattice vectors                 reciprocal lattice vectors
     7.749890322  0.000000000  0.000000000     0.129034084 -0.043011361  0.000000000
     3.874945161 11.624835483  0.000000000     0.000000000  0.086022723  0.000000000
     0.000000000  0.000000000 18.633333333     0.000000000  0.000000000  0.053667263

  length of vectors
     7.749890322 12.253652517 18.633333333     0.136013867  0.086022723  0.053667263


 
 k-points in units of 2pi/SCALE and weight: Automatic KPOINTS generated             
   0.00000000  0.00000000  0.00000000       0.042
   0.03225852 -0.01075284  0.00000000       0.083
   0.06451704 -0.02150568  0.00000000       0.042
   0.00000000  0.02867424  0.00000000       0.083
   0.03225852  0.01792140  0.00000000       0.083
   0.06451704  0.00716856  0.00000000       0.083
  -0.03225852  0.03942708  0.00000000       0.083
   0.00000000  0.00000000  0.02683363       0.042
   0.03225852 -0.01075284  0.02683363       0.083
   0.06451704 -0.02150568  0.02683363       0.042
   0.00000000  0.02867424  0.02683363       0.083
   0.03225852  0.01792140  0.02683363       0.083
   0.06451704  0.00716856  0.02683363       0.083
  -0.03225852  0.03942708  0.02683363       0.083
 
 k-points in reciprocal lattice and weights: Automatic KPOINTS generated             
   0.00000000  0.00000000  0.00000000       0.042
   0.25000000 -0.00000000  0.00000000       0.083
   0.50000000 -0.00000000  0.00000000       0.042
   0.00000000  0.33333333  0.00000000       0.083
   0.25000000  0.33333333  0.00000000       0.083
   0.50000000  0.33333333  0.00000000       0.083
  -0.25000000  0.33333333  0.00000000       0.083
   0.00000000  0.00000000  0.50000000       0.042
   0.25000000 -0.00000000  0.50000000       0.083
   0.50000000 -0.00000000  0.50000000       0.042
   0.00000000  0.33333333  0.50000000       0.083
   0.25000000  0.33333333  0.50000000       0.083
   0.50000000  0.33333333  0.50000000       0.083
  -0.25000000  0.33333333  0.50000000       0.083
 
 position of ions in fractional coordinates (direct lattice) 
   0.00000000  0.00000000  0.00000000
   0.11111111  0.27777778  0.04901610
   0.22222222  0.55555556  0.09803220
   0.50000000  0.00000000  0.00000000
   0.61111111  0.27777778  0.04901610
   0.72222222  0.55555556  0.09803220
   0.80555556  0.88888889  0.02450805
   0.91666667  0.16666667  0.07352415
   0.02777778  0.44444444  0.12254025
   0.30555556  0.88888889  0.02450805
   0.41666667  0.16666667  0.07352415
   0.52777778  0.44444444  0.12254025
   0.42982456  0.71994536  0.25751342
   0.76315789  0.55327869  0.40939177
   0.09649123  0.38661202  0.56127013
   0.42982456  0.21994536  0.71314848
   0.76315789  0.05327869  0.86502683
   0.76315789  0.05327869  0.25751342
   0.09649123  0.88661202  0.40939177
   0.42982456  0.71994536  0.56127013
   0.76315789  0.55327869  0.71314848
   0.09649123  0.38661202  0.86502683
   0.09649123  0.38661202  0.25751342
   0.42982456  0.21994536  0.40939177
   0.76315789  0.05327869  0.56127013
   0.09649123  0.88661202  0.71314848
   0.42982456  0.71994536  0.86502683
   0.92982456  0.71994536  0.25751342
   0.26315789  0.55327869  0.40939177
   0.59649123  0.38661202  0.56127013
   0.92982456  0.21994536  0.71314848
   0.26315789  0.05327869  0.86502683
   0.26315789  0.05327869  0.25751342
   0.59649123  0.88661202  0.40939177
   0.92982456  0.71994536  0.56127013
   0.26315789  0.55327869  0.71314848
   0.59649123  0.38661202  0.86502683
   0.59649123  0.38661202  0.25751342
   0.92982456  0.21994536  0.40939177
   0.26315789  0.05327869  0.56127013
   0.59649123  0.88661202  0.71314848
   0.92982456  0.71994536  0.86502683
   0.01315789  0.05327869  0.18157424
   0.34649123  0.88661202  0.33345259
   0.67982456  0.71994536  0.48533095
   0.01315789  0.55327869  0.63720930
   0.34649123  0.38661202  0.78908766
   0.67982456  0.21994536  0.94096601
   0.34649123  0.38661202  0.18157424
   0.67982456  0.21994536  0.33345259
   0.01315789  0.05327869  0.48533095
   0.34649123  0.88661202  0.63720930
   0.67982456  0.71994536  0.78908766
   0.01315789  0.55327869  0.94096601
   0.67982456  0.71994536  0.18157424
   0.01315789  0.55327869  0.33345259
   0.34649123  0.38661202  0.48533095
   0.67982456  0.21994536  0.63720930
   0.01315789  0.05327869  0.78908766
   0.34649123  0.88661202  0.94096601
   0.51315789  0.05327869  0.18157424
   0.84649123  0.88661202  0.33345259
   0.17982456  0.71994536  0.48533095
   0.51315789  0.55327869  0.63720930
   0.84649123  0.38661202  0.78908766
   0.17982456  0.21994536  0.94096601
   0.84649123  0.38661202  0.18157424
   0.17982456  0.21994536  0.33345259
   0.51315789  0.05327869  0.48533095
   0.84649123  0.88661202  0.63720930
   0.17982456  0.71994536  0.78908766
   0.51315789  0.55327869  0.94096601
   0.17982456  0.71994536  0.18157424
   0.51315789  0.55327869  0.33345259
   0.84649123  0.38661202  0.48533095
   0.17982456  0.21994536  0.63720930
   0.51315789  0.05327869  0.78908766
   0.84649123  0.88661202  0.94096601
 
 position of ions in cartesian coordinates  (Angst):
   0.00000000  0.00000000  0.00000000
   1.93747258  3.22912097  0.91333333
   3.87494516  6.45824194  1.82666666
   3.87494516  0.00000000  0.00000000
   5.81241774  3.22912097  0.91333333
   7.74989032  6.45824194  1.82666666
   9.68736291 10.33318710  0.45666666
   7.74989033  1.93747258  1.36999999
   1.93747258  5.16659354  2.28333332
   5.81241775 10.33318710  0.45666666
   3.87494516  1.93747258  1.36999999
   5.81241774  5.16659354  2.28333332
   6.12084197  8.36924631  4.79833334
   8.05831456  6.43177374  7.62833333
   2.24589682  4.49430115 10.45833333
   4.18336939  2.55682857 13.28833333
   6.12084198  0.61935599 16.11833334
   6.12084198  0.61935599  4.79833334
   4.18336940 10.30671889  7.62833333
   6.12084197  8.36924631 10.45833333
   8.05831456  6.43177374 13.28833333
   2.24589682  4.49430115 16.11833334
   2.24589682  4.49430115  4.79833334
   4.18336939  2.55682857  7.62833333
   6.12084198  0.61935599 10.45833333
   4.18336940 10.30671889 13.28833333
   6.12084197  8.36924631 16.11833334
   9.99578714  8.36924631  4.79833334
   4.18336940  6.43177374  7.62833333
   6.12084198  4.49430115 10.45833333
   8.05831456  2.55682857 13.28833333
   2.24589682  0.61935599 16.11833334
   2.24589682  0.61935599  4.79833334
   8.05831456 10.30671889  7.62833333
   9.99578714  8.36924631 10.45833333
   4.18336940  6.43177374 13.28833333
   6.12084198  4.49430115 16.11833334
   6.12084198  4.49430115  4.79833334
   8.05831456  2.55682857  7.62833333
   2.24589682  0.61935599 10.45833333
   8.05831456 10.30671889 13.28833333
   9.99578714  8.36924631 16.11833334
   0.30842424  0.61935599  3.38333334
   6.12084198 10.30671889  6.21333333
   8.05831456  8.36924631  9.04333333
   2.24589682  6.43177374 11.87333333
   4.18336940  4.49430115 14.70333334
   6.12084197  2.55682857 17.53333334
   4.18336940  4.49430115  3.38333334
   6.12084197  2.55682857  6.21333333
   0.30842424  0.61935599  9.04333333
   6.12084198 10.30671889 11.87333333
   8.05831456  8.36924631 14.70333334
   2.24589682  6.43177374 17.53333334
   8.05831456  8.36924631  3.38333334
   2.24589682  6.43177374  6.21333333
   4.18336940  4.49430115  9.04333333
   6.12084197  2.55682857 11.87333333
   0.30842424  0.61935599 14.70333334
   6.12084198 10.30671889 17.53333334
   4.18336940  0.61935599  3.38333334
   9.99578714 10.30671889  6.21333333
   4.18336939  8.36924631  9.04333333
   6.12084198  6.43177374 11.87333333
   8.05831456  4.49430115 14.70333334
   2.24589681  2.55682857 17.53333334
   8.05831456  4.49430115  3.38333334
   2.24589681  2.55682857  6.21333333
   4.18336940  0.61935599  9.04333333
   9.99578714 10.30671889 11.87333333
   4.18336939  8.36924631 14.70333334
   6.12084198  6.43177374 17.53333334
   4.18336939  8.36924631  3.38333334
   6.12084198  6.43177374  6.21333333
   8.05831456  4.49430115  9.04333333
   2.24589681  2.55682857 11.87333333
   4.18336940  0.61935599 14.70333334
   9.99578714 10.30671889 17.53333334
 


--------------------------------------------------------------------------------------------------------


 k-point     1 :   0.0000 0.0000 0.0000  plane waves:   70675
 k-point     2 :   0.2500-0.0000 0.0000  plane waves:   70541
 k-point     3 :   0.5000-0.0000 0.0000  plane waves:   70618
 k-point     4 :   0.0000 0.3333 0.0000  plane waves:   70590
 k-point     5 :   0.2500 0.3333 0.0000  plane waves:   70565
 k-point     6 :   0.5000 0.3333 0.0000  plane waves:   70597
 k-point     7 :  -0.2500 0.3333 0.0000  plane waves:   70579
 k-point     8 :   0.0000 0.0000 0.5000  plane waves:   70612
 k-point     9 :   0.2500-0.0000 0.5000  plane waves:   70594
 k-point    10 :   0.5000-0.0000 0.5000  plane waves:   70624
 k-point    11 :   0.0000 0.3333 0.5000  plane waves:   70582
 k-point    12 :   0.2500 0.3333 0.5000  plane waves:   70616
 k-point    13 :   0.5000 0.3333 0.5000  plane waves:   70614
 k-point    14 :  -0.2500 0.3333 0.5000  plane waves:   70562

 maximum and minimum number of plane-waves per node :      4440     4385

 maximum number of plane-waves:     70675
 maximum index in each direction: 
   IXMAX=   16   IYMAX=   26   IZMAX=   40
   IXMIN=  -17   IYMIN=  -26   IZMIN=  -40


 real space projection operators:
  total allocation   :      16967.47 KBytes
  max/ min on nodes  :       1375.15        987.89


 parallel 3D FFT for wavefunctions:
    minimum data exchange during FFTs selected (reduces bandwidth)
 parallel 3D FFT for charge:
    minimum data exchange during FFTs selected (reduces bandwidth)


 total amount of memory used by VASP MPI-rank0   478191. kBytes
=======================================================================

   base      :      30000. kBytes
   nonlr-proj:       4952. kBytes
   fftplans  :      39456. kBytes
   grid      :      25958. kBytes
   one-center:         81. kBytes
   wavefun   :     377744. kBytes
 
     INWAV:  cpu time      0.0000: real time      0.0002
 Broyden mixing: mesh for mixing (old mesh)
   NGX = 33   NGY = 53   NGZ = 81
  (NGX  =100   NGY  =160   NGZ  =252)
  gives a total of 141669 points

 initial charge density was supplied:
 charge density of overlapping atoms calculated
 number of electron     312.0000000 magnetization       1.0000000
 keeping initial charge density in first step


--------------------------------------------------------------------------------------------------------


 Maximum index for non-local projection operator          403
 Maximum index for augmentation-charges         9406 (set IRDMAX)


--------------------------------------------------------------------------------------------------------


 First call to EWALD:  gamma=   0.149
 Maximum number of real-space cells 4x 3x 2
 Maximum number of reciprocal cells 2x 3x 4

    FEWALD:  cpu time      0.0028: real time      0.0029


--------------------------------------- Ionic step        1  -------------------------------------------




--------------------------------------- Iteration      1(   1)  ---------------------------------------


    POTLOK:  cpu time      0.4190: real time      0.4224
    SETDIJ:  cpu time      3.5061: real time      3.5226
     EDDAV:  cpu time     52.2312: real time     52.7308
       DOS:  cpu time      0.0032: real time      0.0032
    --------------------------------------------
      LOOP:  cpu time     56.1595: real time     56.6790

 eigenvalue-minimisations  : 10528
 total energy-change (2. order) : 0.1541256E+04  (-0.1390031E+05)
 number of electron     312.0000000 magnetization       1.0000000
 augmentation part      312.0000000 magnetization       1.0000000

 Free energy of the ion-electron system (eV)
  ---------------------------------------------------
  alpha Z        PSCENC =       604.90751195
  Ewald energy   TEWEN  =     -8388.38812189
  -Hartree energ DENC   =      -704.50769170
  -exchange      EXHF   =         0.00000000
  -V(xc)+E(xc)   XCENC  =      -601.23144067
  PAW double counting   =      6875.06741709    -5707.76819619
  entropy T*S    EENTRO =        -0.00064576
  eigenvalues    EBANDS =      1296.64739416
  atomic energy  EATOM  =      8166.52953475
  Solvation  Ediel_sol  =         0.00000000
  ---------------------------------------------------
  free energy    TOTEN  =      1541.25576174 eV

  energy without entropy =     1541.25640750  energy(sigma->0) =     1541.25608462


--------------------------------------------------------------------------------------------------------




--------------------------------------- Iteration      1(   2)  ---------------------------------------


     EDDAV:  cpu time     58.9402: real time     59.4711
       DOS:  cpu time      0.0040: real time      0.0040
    --------------------------------------------
      LOOP:  cpu time     58.9442: real time     59.4750

 eigenvalue-minimisations  : 12256
 total energy-change (2. order) :-0.1692539E+04  (-0.1637427E+04)
 number of electron     312.0000000 magnetization       1.0000000
 augmentation part      312.0000000 magnetization       1.0000000

 Free energy of the ion-electron system (eV)
  ---------------------------------------------------
  alpha Z        PSCENC =       604.90751195
  Ewald energy   TEWEN  =     -8388.38812189
  -Hartree energ DENC   =      -704.50769170
  -exchange      EXHF   =         0.00000000
  -V(xc)+E(xc)   XCENC  =      -601.23144067
  PAW double counting   =      6875.06741709    -5707.76819619
  entropy T*S    EENTRO =        -0.00088907
  eigenvalues    EBANDS =      -395.89121364
  atomic energy  EATOM  =      8166.52953475
  Solvation  Ediel_sol  =         0.00000000
  ---------------------------------------------------
  free energy    TOTEN  =      -151.28308936 eV

  energy without entropy =     -151.28220030  energy(sigma->0) =     -151.28264483


--------------------------------------------------------------------------------------------------------




--------------------------------------- Iteration      1(   3)  ---------------------------------------


     EDDAV:  cpu time     61.2759: real time     61.8305
       DOS:  cpu time      0.0029: real time      0.0029
    --------------------------------------------
      LOOP:  cpu time     61.2788: real time     61.8335

 eigenvalue-minimisations  : 12840
 total energy-change (2. order) :-0.1678702E+03  (-0.1630983E+03)
 number of electron     312.0000000 magnetization       1.0000000
 augmentation part      312.0000000 magnetization       1.0000000

 Free energy of the ion-electron system (eV)
  ---------------------------------------------------
  alpha Z        PSCENC =       604.90751195
  Ewald energy   TEWEN  =     -8388.38812189
  -Hartree energ DENC   =      -704.50769170
  -exchange      EXHF   =         0.00000000
  -V(xc)+E(xc)   XCENC  =      -601.23144067
  PAW double counting   =      6875.06741709    -5707.76819619
  entropy T*S    EENTRO =        -0.00112775
  eigenvalues    EBANDS =      -563.76113075
  atomic energy  EATOM  =      8166.52953475
  Solvation  Ediel_sol  =         0.00000000
  ---------------------------------------------------
  free energy    TOTEN  =      -319.15324515 eV

  energy without entropy =     -319.15211740  energy(sigma->0) =     -319.15268128


--------------------------------------------------------------------------------------------------------




--------------------------------------- Iteration      1(   4)  ---------------------------------------


     EDDAV:  cpu time     60.1491: real time     60.6995
       DOS:  cpu time      0.0045: real time      0.0045
    --------------------------------------------
      LOOP:  cpu time     60.1536: real time     60.7040

 eigenvalue-minimisations  : 12456
 total energy-change (2. order) :-0.6015833E+01  (-0.5940025E+01)
 number of electron     312.0000000 magnetization       1.0000000
 augmentation part      312.0000000 magnetization       1.0000000

 Free energy of the ion-electron system (eV)
  ---------------------------------------------------
  alpha Z        PSCENC =       604.90751195
  Ewald energy   TEWEN  =     -8388.38812189
  -Hartree energ DENC   =      -704.50769170
  -exchange      EXHF   =         0.00000000
  -V(xc)+E(xc)   XCENC  =      -601.23144067
  PAW double counting   =      6875.06741709    -5707.76819619
  entropy T*S    EENTRO =        -0.00156647
  eigenvalues    EBANDS =      -569.77652516
  atomic energy  EATOM  =      8166.52953475
  Solvation  Ediel_sol  =         0.00000000
  ---------------------------------------------------
  free energy    TOTEN  =      -325.16907829 eV

  energy without entropy =     -325.16751181  energy(sigma->0) =     -325.16829505


--------------------------------------------------------------------------------------------------------




--------------------------------------- Iteration      1(   5)  ---------------------------------------


     EDDAV:  cpu time     66.0197: real time     66.6131
       DOS:  cpu time      0.0040: real time      0.0040
    CHARGE:  cpu time      3.1701: real time      3.2134
    MIXING:  cpu time      0.0129: real time      0.0130
    --------------------------------------------
      LOOP:  cpu time     69.2066: real time     69.8435

 eigenvalue-minimisations  : 14032
 total energy-change (2. order) :-0.2314374E+00  (-0.2306689E+00)
 number of electron     311.9999997 magnetization       1.0000000
 augmentation part      -46.8169618 magnetization      -0.0775608

 Broyden mixing:
  rms(total) = 0.23278E+01    rms(broyden)= 0.23278E+01
  rms(prec ) = 0.24983E+01
  weight for this iteration     100.00

 Free energy of the ion-electron system (eV)
  ---------------------------------------------------
  alpha Z        PSCENC =       604.90751195
  Ewald energy   TEWEN  =     -8388.38812189
  -Hartree energ DENC   =      -704.50769170
  -exchange      EXHF   =         0.00000000
  -V(xc)+E(xc)   XCENC  =      -601.23144067
  PAW double counting   =      6875.06741709    -5707.76819619
  entropy T*S    EENTRO =        -0.00157523
  eigenvalues    EBANDS =      -570.00795378
  atomic energy  EATOM  =      8166.52953475
  Solvation  Ediel_sol  =         0.00000000
  ---------------------------------------------------
  free energy    TOTEN  =      -325.40051567 eV

  energy without entropy =     -325.39894044  energy(sigma->0) =     -325.39972805


--------------------------------------------------------------------------------------------------------




--------------------------------------- Iteration      1(   6)  ---------------------------------------


    POTLOK:  cpu time      0.4144: real time      0.4177
    SETDIJ:  cpu time      3.5182: real time      3.5338
     EDDAV:  cpu time     60.0125: real time     60.5518
       DOS:  cpu time      0.0039: real time      0.0039
    CHARGE:  cpu time      3.1927: real time      3.2102
    MIXING:  cpu time      0.0123: real time      0.0124
    --------------------------------------------
      LOOP:  cpu time     67.1540: real time     67.7298

 eigenvalue-minimisations  : 12608
 total energy-change (2. order) : 0.6625183E+01  (-0.2778568E+01)
 number of electron     311.9999997 magnetization       1.0000000
 augmentation part      -46.3854529 magnetization      -0.0689205

 Broyden mixing:
  rms(total) = 0.11174E+01    rms(broyden)= 0.11174E+01
  rms(prec ) = 0.12736E+01
  weight for this iteration     100.00

 eigenvalues of (default mixing * dielectric matrix)
  average eigenvalue GAMMA=   1.5013
  1.5013

 Free energy of the ion-electron system (eV)
  ---------------------------------------------------
  alpha Z        PSCENC =       604.90751195
  Ewald energy   TEWEN  =     -8388.38812189
  -Hartree energ DENC   =      -791.00641511
  -exchange      EXHF   =         0.00000000
  -V(xc)+E(xc)   XCENC  =      -588.88666760
  PAW double counting   =     13105.56026373   -11946.51462910
  entropy T*S    EENTRO =        -0.00123786
  eigenvalues    EBANDS =      -480.97557182
  atomic energy  EATOM  =      8166.52953475
  Solvation  Ediel_sol  =         0.00000000
  ---------------------------------------------------
  free energy    TOTEN  =      -318.77533296 eV

  energy without entropy =     -318.77409510  energy(sigma->0) =     -318.77471403


--------------------------------------------------------------------------------------------------------




--------------------------------------- Iteration      1(   7)  ---------------------------------------


    POTLOK:  cpu time      0.4149: real time      0.4183
    SETDIJ:  cpu time      3.5206: real time      3.5364
     EDDAV:  cpu time     59.7870: real time     60.3085
       DOS:  cpu time      0.0035: real time      0.0035
    CHARGE:  cpu time      3.1747: real time      3.1918
    MIXING:  cpu time      0.0130: real time      0.0131
    --------------------------------------------
      LOOP:  cpu time     66.9136: real time     67.4716

 eigenvalue-minimisations  : 12536
 total energy-change (2. order) :-0.3400338E+00  (-0.2573234E+01)
 number of electron     311.9999998 magnetization       1.0000000
 augmentation part      -46.1969905 magnetization      -0.0797883

 Broyden mixing:
  rms(total) = 0.69165E+00    rms(broyden)= 0.69165E+00
  rms(prec ) = 0.92585E+00
  weight for this iteration     100.00

 eigenvalues of (default mixing * dielectric matrix)
  average eigenvalue GAMMA=   1.1462
  1.7768  0.5156

 Free energy of the ion-electron system (eV)
  ---------------------------------------------------
  alpha Z        PSCENC =       604.90751195
  Ewald energy   TEWEN  =     -8388.38812189
  -Hartree energ DENC   =      -811.43602632
  -exchange      EXHF   =         0.00000000
  -V(xc)+E(xc)   XCENC  =      -582.90638563
  PAW double counting   =     17675.71747214   -16520.63693972
  entropy T*S    EENTRO =        -0.00080505
  eigenvalues    EBANDS =      -462.90160695
  atomic energy  EATOM  =      8166.52953475
  Solvation  Ediel_sol  =         0.00000000
  ---------------------------------------------------
  free energy    TOTEN  =      -319.11536672 eV

  energy without entropy =     -319.11456167  energy(sigma->0) =     -319.11496420


--------------------------------------------------------------------------------------------------------




--------------------------------------- Iteration      1(   8)  ---------------------------------------


    POTLOK:  cpu time      0.4130: real time      0.4173
    SETDIJ:  cpu time      3.5182: real time      3.5339
     EDDAV:  cpu time     60.8199: real time     61.3463
       DOS:  cpu time      0.0037: real time      0.0037
    CHARGE:  cpu time      3.1889: real time      3.2062
    MIXING:  cpu time      0.0124: real time      0.0125
    --------------------------------------------
      LOOP:  cpu time     67.9561: real time     68.5200

 eigenvalue-minimisations  : 12792
 total energy-change (2. order) : 0.1349919E+01  (-0.5181486E+00)
 number of electron     311.9999998 magnetization       1.0000000
 augmentation part      -46.0896508 magnetization      -0.0740454

 Broyden mixing:
  rms(total) = 0.21048E+00    rms(broyden)= 0.21048E+00
  rms(prec ) = 0.27991E+00
  weight for this iteration     100.00

 eigenvalues of (default mixing * dielectric matrix)
  average eigenvalue GAMMA=   1.0692
  1.8298  0.7545  0.6233

 Free energy of the ion-electron system (eV)
  ---------------------------------------------------
  alpha Z        PSCENC =       604.90751195
  Ewald energy   TEWEN  =     -8388.38812189
  -Hartree energ DENC   =      -828.10908304
  -exchange      EXHF   =         0.00000000
  -V(xc)+E(xc)   XCENC  =      -579.51849007
  PAW double counting   =     21006.35542881   -19853.60844619
  entropy T*S    EENTRO =        -0.00112310
  eigenvalues    EBANDS =      -445.93265873
  atomic energy  EATOM  =      8166.52953475
  Solvation  Ediel_sol  =         0.00000000
  ---------------------------------------------------
  free energy    TOTEN  =      -317.76544751 eV

  energy without entropy =     -317.76432442  energy(sigma->0) =     -317.76488596


--------------------------------------------------------------------------------------------------------




--------------------------------------- Iteration      1(   9)  ---------------------------------------


    POTLOK:  cpu time      0.4181: real time      0.4212
    SETDIJ:  cpu time      3.5203: real time      3.5369
     EDDAV:  cpu time     59.8228: real time     60.3485
       DOS:  cpu time      0.0053: real time      0.0054
    CHARGE:  cpu time      3.1695: real time      3.1868
    MIXING:  cpu time      0.0135: real time      0.0136
    --------------------------------------------
      LOOP:  cpu time     66.9496: real time     67.5124

 eigenvalue-minimisations  : 12528
 total energy-change (2. order) : 0.2961634E-01  (-0.2118768E+00)
 number of electron     311.9999998 magnetization       1.0000000
 augmentation part      -46.0588340 magnetization      -0.0792193

 Broyden mixing:
  rms(total) = 0.13301E+00    rms(broyden)= 0.13301E+00
  rms(prec ) = 0.18651E+00
  weight for this iteration     100.00

 eigenvalues of (default mixing * dielectric matrix)
  average eigenvalue GAMMA=   1.0008
  1.7946  1.1189  0.5449  0.5449

 Free energy of the ion-electron system (eV)
  ---------------------------------------------------
  alpha Z        PSCENC =       604.90751195
  Ewald energy   TEWEN  =     -8388.38812189
  -Hartree energ DENC   =      -830.39762882
  -exchange      EXHF   =         0.00000000
  -V(xc)+E(xc)   XCENC  =      -579.15606579
  PAW double counting   =     21665.32289112   -20512.91338093
  entropy T*S    EENTRO =        -0.00051061
  eigenvalues    EBANDS =      -443.64006095
  atomic energy  EATOM  =      8166.52953475
  Solvation  Ediel_sol  =         0.00000000
  ---------------------------------------------------
  free energy    TOTEN  =      -317.73583117 eV

  energy without entropy =     -317.73532056  energy(sigma->0) =     -317.73557587


--------------------------------------------------------------------------------------------------------




--------------------------------------- Iteration      1(  10)  ---------------------------------------


    POTLOK:  cpu time      0.4173: real time      0.4218
    SETDIJ:  cpu time      3.5208: real time      3.5365
     EDDAV:  cpu time     59.7979: real time     60.3154
       DOS:  cpu time      0.0034: real time      0.0034
    CHARGE:  cpu time      3.2130: real time      3.2302
    MIXING:  cpu time      0.0145: real time      0.0146
    --------------------------------------------
      LOOP:  cpu time     66.9669: real time     67.5221

 eigenvalue-minimisations  : 12432
 total energy-change (2. order) : 0.4195971E-01  (-0.3781221E-01)
 number of electron     311.9999998 magnetization       1.0000000
 augmentation part      -46.1105287 magnetization      -0.0786713

 Broyden mixing:
  rms(total) = 0.71300E-01    rms(broyden)= 0.71300E-01
  rms(prec ) = 0.81945E-01
  weight for this iteration     100.00

 eigenvalues of (default mixing * dielectric matrix)
  average eigenvalue GAMMA=   1.0137
  1.7409  1.4553  0.8210  0.5435  0.5076

 Free energy of the ion-electron system (eV)
  ---------------------------------------------------
  alpha Z        PSCENC =       604.90751195
  Ewald energy   TEWEN  =     -8388.38812189
  -Hartree energ DENC   =      -827.34163081
  -exchange      EXHF   =         0.00000000
  -V(xc)+E(xc)   XCENC  =      -579.27393084
  PAW double counting   =     21843.61164533   -20691.18873979
  entropy T*S    EENTRO =        -0.00116358
  eigenvalues    EBANDS =      -446.54897658
  atomic energy  EATOM  =      8166.52953475
  Solvation  Ediel_sol  =         0.00000000
  ---------------------------------------------------
  free energy    TOTEN  =      -317.69387146 eV

  energy without entropy =     -317.69270788  energy(sigma->0) =     -317.69328967


--------------------------------------------------------------------------------------------------------




--------------------------------------- Iteration      1(  11)  ---------------------------------------


    POTLOK:  cpu time      0.4132: real time      0.4179
    SETDIJ:  cpu time      3.5176: real time      3.5334
     EDDAV:  cpu time     59.6230: real time     60.1388
       DOS:  cpu time      0.0033: real time      0.0033
    CHARGE:  cpu time      3.1631: real time      3.1804
    MIXING:  cpu time      0.0148: real time      0.0149
    --------------------------------------------
      LOOP:  cpu time     66.7350: real time     67.2887

 eigenvalue-minimisations  : 12448
 total energy-change (2. order) : 0.4532112E-03  (-0.9875094E-02)
 number of electron     311.9999998 magnetization       1.0000000
 augmentation part      -46.1193242 magnetization      -0.0780603

 Broyden mixing:
  rms(total) = 0.40559E-01    rms(broyden)= 0.40559E-01
  rms(prec ) = 0.44956E-01
  weight for this iteration     100.00

 eigenvalues of (default mixing * dielectric matrix)
  average eigenvalue GAMMA=   1.0083
  1.6983  1.4743  1.2425  0.5978  0.5978  0.4392

 Free energy of the ion-electron system (eV)
  ---------------------------------------------------
  alpha Z        PSCENC =       604.90751195
  Ewald energy   TEWEN  =     -8388.38812189
  -Hartree energ DENC   =      -825.67948681
  -exchange      EXHF   =         0.00000000
  -V(xc)+E(xc)   XCENC  =      -579.36343352
  PAW double counting   =     21989.81629776   -20837.39328186
  entropy T*S    EENTRO =        -0.00143705
  eigenvalues    EBANDS =      -448.12100158
  atomic energy  EATOM  =      8166.52953475
  Solvation  Ediel_sol  =         0.00000000
  ---------------------------------------------------
  free energy    TOTEN  =      -317.69341825 eV

  energy without entropy =     -317.69198120  energy(sigma->0) =     -317.69269973


--------------------------------------------------------------------------------------------------------




--------------------------------------- Iteration      1(  12)  ---------------------------------------


    POTLOK:  cpu time      0.4123: real time      0.4168
    SETDIJ:  cpu time      3.5175: real time      3.5339
     EDDAV:  cpu time     59.0237: real time     59.5334
       DOS:  cpu time      0.0036: real time      0.0036
    CHARGE:  cpu time      3.1803: real time      3.1974
    MIXING:  cpu time      0.0157: real time      0.0161
    --------------------------------------------
      LOOP:  cpu time     66.1532: real time     66.7013

 eigenvalue-minimisations  : 12368
 total energy-change (2. order) :-0.6268052E-03  (-0.2201952E-02)
 number of electron     311.9999998 magnetization       1.0000000
 augmentation part      -46.1201535 magnetization      -0.0785832

 Broyden mixing:
  rms(total) = 0.20445E-01    rms(broyden)= 0.20445E-01
  rms(prec ) = 0.23486E-01
  weight for this iteration     100.00

 eigenvalues of (default mixing * dielectric matrix)
  average eigenvalue GAMMA=   1.0208
  1.6902  1.5634  1.5634  0.6588  0.6588  0.4975  0.5138

 Free energy of the ion-electron system (eV)
  ---------------------------------------------------
  alpha Z        PSCENC =       604.90751195
  Ewald energy   TEWEN  =     -8388.38812189
  -Hartree energ DENC   =      -825.62076622
  -exchange      EXHF   =         0.00000000
  -V(xc)+E(xc)   XCENC  =      -579.37027647
  PAW double counting   =     22037.75592597   -20885.35238253
  entropy T*S    EENTRO =        -0.00124665
  eigenvalues    EBANDS =      -448.15422396
  atomic energy  EATOM  =      8166.52953475
  Solvation  Ediel_sol  =         0.00000000
  ---------------------------------------------------
  free energy    TOTEN  =      -317.69404506 eV

  energy without entropy =     -317.69279841  energy(sigma->0) =     -317.69342174


--------------------------------------------------------------------------------------------------------




--------------------------------------- Iteration      1(  13)  ---------------------------------------


    POTLOK:  cpu time      0.4132: real time      0.4184
    SETDIJ:  cpu time      3.5151: real time      3.5315
     EDDAV:  cpu time     58.9437: real time     59.4530
       DOS:  cpu time      0.0034: real time      0.0034
    CHARGE:  cpu time      3.2044: real time      3.2223
    MIXING:  cpu time      0.0173: real time      0.0175
    --------------------------------------------
      LOOP:  cpu time     66.0972: real time     66.6460

 eigenvalue-minimisations  : 12280
 total energy-change (2. order) : 0.2581572E-03  (-0.5194881E-03)
 number of electron     311.9999998 magnetization       1.0000000
 augmentation part      -46.1192047 magnetization      -0.0784180

 Broyden mixing:
  rms(total) = 0.10439E-01    rms(broyden)= 0.10439E-01
  rms(prec ) = 0.11613E-01
  weight for this iteration     100.00

 eigenvalues of (default mixing * dielectric matrix)
  average eigenvalue GAMMA=   1.0273
  1.7611  1.7611  1.5969  0.7018  0.7018  0.7180  0.5190  0.4586

 Free energy of the ion-electron system (eV)
  ---------------------------------------------------
  alpha Z        PSCENC =       604.90751195
  Ewald energy   TEWEN  =     -8388.38812189
  -Hartree energ DENC   =      -825.94966231
  -exchange      EXHF   =         0.00000000
  -V(xc)+E(xc)   XCENC  =      -579.36067690
  PAW double counting   =     22027.81359402   -20875.42479784
  entropy T*S    EENTRO =        -0.00123508
  eigenvalues    EBANDS =      -447.81993359
  atomic energy  EATOM  =      8166.52953475
  Solvation  Ediel_sol  =         0.00000000
  ---------------------------------------------------
  free energy    TOTEN  =      -317.69378690 eV

  energy without entropy =     -317.69255182  energy(sigma->0) =     -317.69316936


--------------------------------------------------------------------------------------------------------




--------------------------------------- Iteration      1(  14)  ---------------------------------------


    POTLOK:  cpu time      0.4157: real time      0.4195
    SETDIJ:  cpu time      3.5163: real time      3.5324
     EDDAV:  cpu time     58.5722: real time     59.0722
       DOS:  cpu time      0.0036: real time      0.0037
    CHARGE:  cpu time      3.2136: real time      3.2315
    MIXING:  cpu time      0.0165: real time      0.0167
    --------------------------------------------
      LOOP:  cpu time     65.7379: real time     66.2758

 eigenvalue-minimisations  : 12112
 total energy-change (2. order) :-0.9918834E-04  (-0.1123165E-03)
 number of electron     311.9999998 magnetization       1.0000000
 augmentation part      -46.1193806 magnetization      -0.0784887

 Broyden mixing:
  rms(total) = 0.52285E-02    rms(broyden)= 0.52285E-02
  rms(prec ) = 0.55153E-02
  weight for this iteration     100.00

 eigenvalues of (default mixing * dielectric matrix)
  average eigenvalue GAMMA=   1.0368
  1.9754  1.9754  1.2143  1.2143  0.6876  0.6876  0.5936  0.4547  0.5288

 Free energy of the ion-electron system (eV)
  ---------------------------------------------------
  alpha Z        PSCENC =       604.90751195
  Ewald energy   TEWEN  =     -8388.38812189
  -Hartree energ DENC   =      -825.94595575
  -exchange      EXHF   =         0.00000000
  -V(xc)+E(xc)   XCENC  =      -579.35759788
  PAW double counting   =     22033.62199518   -20881.24146155
  entropy T*S    EENTRO =        -0.00133959
  eigenvalues    EBANDS =      -447.81845130
  atomic energy  EATOM  =      8166.52953475
  Solvation  Ediel_sol  =         0.00000000
  ---------------------------------------------------
  free energy    TOTEN  =      -317.69388609 eV

  energy without entropy =     -317.69254650  energy(sigma->0) =     -317.69321629


--------------------------------------------------------------------------------------------------------




--------------------------------------- Iteration      1(  15)  ---------------------------------------


    POTLOK:  cpu time      0.4133: real time      0.4170
    SETDIJ:  cpu time      3.5200: real time      3.5359
     EDDAV:  cpu time     58.7160: real time     59.2195
       DOS:  cpu time      0.0031: real time      0.0031
    CHARGE:  cpu time      3.1964: real time      3.2136
    MIXING:  cpu time      0.0175: real time      0.0176
    --------------------------------------------
      LOOP:  cpu time     65.8664: real time     66.4068

 eigenvalue-minimisations  : 12168
 total energy-change (2. order) :-0.4632791E-04  (-0.2722417E-04)
 number of electron     311.9999998 magnetization       1.0000000
 augmentation part      -46.1191934 magnetization      -0.0784492

 Broyden mixing:
  rms(total) = 0.27453E-02    rms(broyden)= 0.27453E-02
  rms(prec ) = 0.29680E-02
  weight for this iteration     100.00

 eigenvalues of (default mixing * dielectric matrix)
  average eigenvalue GAMMA=   1.0196
  2.0081  2.0081  1.2822  1.2822  0.7988  0.6567  0.6567  0.4505  0.5265  0.5265

 Free energy of the ion-electron system (eV)
  ---------------------------------------------------
  alpha Z        PSCENC =       604.90751195
  Ewald energy   TEWEN  =     -8388.38812189
  -Hartree energ DENC   =      -825.93456815
  -exchange      EXHF   =         0.00000000
  -V(xc)+E(xc)   XCENC  =      -579.35288855
  PAW double counting   =     22040.01264115   -20887.63633134
  entropy T*S    EENTRO =        -0.00132306
  eigenvalues    EBANDS =      -447.83038727
  atomic energy  EATOM  =      8166.52953475
  Solvation  Ediel_sol  =         0.00000000
  ---------------------------------------------------
  free energy    TOTEN  =      -317.69393242 eV

  energy without entropy =     -317.69260935  energy(sigma->0) =     -317.69327089


--------------------------------------------------------------------------------------------------------




--------------------------------------- Iteration      1(  16)  ---------------------------------------


    POTLOK:  cpu time      0.4156: real time      0.4192
    SETDIJ:  cpu time      3.5151: real time      3.5320
     EDDAV:  cpu time     58.5769: real time     59.1081
       DOS:  cpu time      0.0044: real time      0.0045
    CHARGE:  cpu time      3.1673: real time      3.1855
    MIXING:  cpu time      0.0175: real time      0.0177
    --------------------------------------------
      LOOP:  cpu time     65.6968: real time     66.2670

 eigenvalue-minimisations  : 12176
 total energy-change (2. order) :-0.1635453E-04  (-0.7862653E-05)
 number of electron     311.9999998 magnetization       1.0000000
 augmentation part      -46.1189776 magnetization      -0.0784491

 Broyden mixing:
  rms(total) = 0.16166E-02    rms(broyden)= 0.16166E-02
  rms(prec ) = 0.16771E-02
  weight for this iteration     100.00

 eigenvalues of (default mixing * dielectric matrix)
  average eigenvalue GAMMA=   1.0222
  2.2136  1.7564  1.4237  1.4237  0.9519  0.6798  0.6798  0.6436  0.5468  0.4624
  0.4624

 Free energy of the ion-electron system (eV)
  ---------------------------------------------------
  alpha Z        PSCENC =       604.90751195
  Ewald energy   TEWEN  =     -8388.38812189
  -Hartree energ DENC   =      -825.96863431
  -exchange      EXHF   =         0.00000000
  -V(xc)+E(xc)   XCENC  =      -579.34763347
  PAW double counting   =     22041.09756679   -20888.72338325
  entropy T*S    EENTRO =        -0.00130347
  eigenvalues    EBANDS =      -447.79948587
  atomic energy  EATOM  =      8166.52953475
  Solvation  Ediel_sol  =         0.00000000
  ---------------------------------------------------
  free energy    TOTEN  =      -317.69394877 eV

  energy without entropy =     -317.69264531  energy(sigma->0) =     -317.69329704


--------------------------------------------------------------------------------------------------------




--------------------------------------- Iteration      1(  17)  ---------------------------------------


    POTLOK:  cpu time      0.4125: real time      0.4161
    SETDIJ:  cpu time      3.5153: real time      3.5326
     EDDAV:  cpu time     59.1027: real time     59.6318
       DOS:  cpu time      0.0046: real time      0.0046
[...]
  in kB     105.66820    84.28014   215.79619     2.05275    -3.18537   -30.82835
  external pressure =      135.25 kB  Pullay stress =        0.00 kB


 VOLUME and BASIS-vectors are now :
 -----------------------------------------------------------------------------
  energy-cutoff  :      700.00
  volume of cell :     1678.70
      direct lattice vectors                 reciprocal lattice vectors
     7.749890322  0.000000000  0.000000000     0.129034084 -0.043011361  0.000000000
     3.874945161 11.624835483  0.000000000     0.000000000  0.086022723  0.000000000
     0.000000000  0.000000000 18.633333333     0.000000000  0.000000000  0.053667263

  length of vectors
     7.749890322 12.253652517 18.633333333     0.136013867  0.086022723  0.053667263


 FORCES acting on ions
    electron-ion (+dipol)            ewald-force                    non-local-force                 convergence-correction
 -----------------------------------------------------------------------------------------------
   -.822E+01 0.109E+02 -.176E+02   0.939E+01 -.970E+01 0.202E+02   -.298E+00 -.307E+00 -.128E+01   0.126E-04 -.247E-03 0.258E-03
   0.356E+01 -.233E+02 0.388E+01   -.346E+01 0.218E+02 -.437E+01   -.467E+00 0.167E+01 0.333E+01   -.970E-05 0.332E-03 0.339E-03
   0.339E+01 -.608E+02 0.527E+02   -.250E+01 0.593E+02 -.531E+02   -.643E+00 0.250E+01 -.245E+00   0.278E-04 0.978E-04 0.288E-03
   -.822E+01 0.109E+02 -.176E+02   0.939E+01 -.970E+01 0.202E+02   -.298E+00 -.307E+00 -.128E+01   0.437E-05 -.248E-03 0.256E-03
   0.356E+01 -.233E+02 0.388E+01   -.346E+01 0.218E+02 -.437E+01   -.467E+00 0.167E+01 0.333E+01   -.552E-05 0.334E-03 0.339E-03
   0.339E+01 -.608E+02 0.527E+02   -.250E+01 0.593E+02 -.531E+02   -.643E+00 0.250E+01 -.245E+00   0.209E-04 0.958E-04 0.285E-03
   0.120E+02 0.580E+02 -.103E+03   -.139E+02 -.590E+02 0.109E+03   -.538E+01 0.157E+01 0.316E+02   -.317E-05 -.313E-03 0.276E-03
   0.623E+00 0.104E+02 -.183E+02   -.590E+00 -.989E+01 0.180E+02   0.859E-01 -.516E+00 0.107E+01   -.110E-05 0.107E-03 0.403E-03
   -.133E+02 -.337E+02 0.338E+02   0.120E+02 0.347E+02 -.358E+02   0.416E+01 0.979E+00 -.209E+01   -.229E-04 0.305E-03 0.304E-03
   0.120E+02 0.580E+02 -.103E+03   -.139E+02 -.590E+02 0.109E+03   -.538E+01 0.157E+01 0.316E+02   -.913E-05 -.315E-03 0.278E-03
   0.623E+00 0.104E+02 -.183E+02   -.590E+00 -.989E+01 0.180E+02   0.859E-01 -.516E+00 0.107E+01   -.659E-06 0.110E-03 0.403E-03
   -.133E+02 -.337E+02 0.338E+02   0.120E+02 0.347E+02 -.358E+02   0.416E+01 0.979E+00 -.209E+01   -.250E-04 0.306E-03 0.303E-03
   0.424E+00 -.167E+02 0.213E+02   -.156E+00 0.166E+02 -.217E+02   -.216E+00 0.121E+00 0.163E+00   -.368E-05 -.146E-03 0.756E-04
   -.448E-01 -.408E+01 0.264E+01   -.447E-02 0.400E+01 -.267E+01   0.625E-02 -.173E-02 0.108E+00   0.190E-05 -.140E-04 -.141E-03
   -.259E-01 -.890E+00 -.122E+01   0.675E-04 0.875E+00 0.134E+01   0.172E-01 0.458E-02 -.103E+00   -.223E-06 0.419E-04 -.261E-03
   -.224E-01 -.320E+01 -.267E+01   0.267E-02 0.335E+01 0.282E+01   0.122E-01 -.131E+00 -.268E+00   0.172E-05 0.932E-04 -.308E-03
   0.120E+01 -.408E+01 0.115E+02   -.131E+01 0.304E+01 -.118E+02   0.106E+00 0.113E+01 -.233E+00   0.122E-05 -.783E-04 -.209E-03
   0.505E+00 0.156E+02 0.132E+02   -.178E+00 -.156E+02 -.137E+02   -.241E+00 -.124E+00 0.135E+00   0.331E-06 -.336E-04 0.280E-03
   0.103E+00 0.561E+00 0.923E+01   0.623E-03 -.565E+00 -.932E+01   -.754E-01 -.239E-02 0.734E-01   -.122E-05 -.707E-04 -.746E-04
   0.466E-02 -.479E-01 0.493E-01   0.590E-06 0.154E-01 0.224E-01   -.730E-02 -.538E-02 -.478E-01   0.128E-05 -.296E-04 -.232E-03
   0.417E-01 -.774E+00 -.912E+01   -.629E-03 0.682E+00 0.931E+01   0.380E-01 0.774E-01 -.233E+00   -.121E-05 0.397E-04 -.140E-03
   -.140E+00 -.156E+02 -.123E+02   0.187E+00 0.160E+02 0.126E+02   0.607E-01 -.336E+00 -.511E+00   -.145E-05 0.381E-03 -.326E-04
   -.148E+01 0.489E+01 -.160E+02   0.142E+01 -.472E+01 0.171E+02   0.412E+00 -.924E-01 0.149E+00   -.758E-05 0.169E-03 0.215E-03
   -.320E-01 0.351E+01 0.304E+01   -.249E-02 -.341E+01 -.293E+01   0.261E-01 0.220E-01 -.785E-01   -.490E-06 0.852E-04 -.712E-04
   0.213E-02 0.942E+00 0.146E+01   -.683E-04 -.890E+00 -.136E+01   -.100E-01 0.162E-01 -.108E+00   -.104E-05 -.100E-04 -.246E-03
   -.182E-01 0.383E+01 -.267E+01   0.426E-02 -.407E+01 0.278E+01   -.200E-02 0.270E+00 -.215E+00   0.328E-05 -.127E-03 -.289E-03
   0.108E+00 0.159E+02 -.214E+02   0.154E+00 -.164E+02 0.215E+02   0.111E+00 0.306E+00 -.705E+00   -.346E-05 -.287E-03 0.350E-04
   0.424E+00 -.167E+02 0.213E+02   -.156E+00 0.166E+02 -.217E+02   -.216E+00 0.121E+00 0.163E+00   0.323E-05 -.145E-03 0.766E-04
   -.448E-01 -.408E+01 0.264E+01   -.447E-02 0.400E+01 -.267E+01   0.625E-02 -.173E-02 0.108E+00   0.345E-05 -.134E-04 -.142E-03
   -.259E-01 -.890E+00 -.122E+01   0.675E-04 0.875E+00 0.134E+01   0.172E-01 0.458E-02 -.103E+00   0.155E-06 0.420E-04 -.262E-03
   -.224E-01 -.320E+01 -.267E+01   0.267E-02 0.335E+01 0.282E+01   0.122E-01 -.131E+00 -.268E+00   0.231E-05 0.936E-04 -.307E-03
   0.120E+01 -.408E+01 0.115E+02   -.131E+01 0.304E+01 -.118E+02   0.106E+00 0.113E+01 -.233E+00   -.202E-05 -.802E-04 -.208E-03
   0.505E+00 0.156E+02 0.132E+02   -.178E+00 -.156E+02 -.137E+02   -.241E+00 -.124E+00 0.135E+00   -.422E-05 -.346E-04 0.280E-03
   0.103E+00 0.561E+00 0.923E+01   0.623E-03 -.565E+00 -.932E+01   -.754E-01 -.239E-02 0.734E-01   -.864E-06 -.703E-04 -.735E-04
   0.466E-02 -.479E-01 0.493E-01   0.590E-06 0.154E-01 0.224E-01   -.730E-02 -.538E-02 -.478E-01   0.113E-05 -.306E-04 -.233E-03
   0.417E-01 -.774E+00 -.912E+01   -.629E-03 0.682E+00 0.931E+01   0.380E-01 0.774E-01 -.233E+00   0.414E-06 0.397E-04 -.141E-03
   -.140E+00 -.156E+02 -.123E+02   0.187E+00 0.160E+02 0.126E+02   0.607E-01 -.336E+00 -.511E+00   -.508E-08 0.385E-03 -.302E-04
   -.148E+01 0.489E+01 -.160E+02   0.142E+01 -.472E+01 0.171E+02   0.412E+00 -.924E-01 0.149E+00   -.923E-05 0.169E-03 0.214E-03
   -.320E-01 0.351E+01 0.304E+01   -.249E-02 -.341E+01 -.293E+01   0.261E-01 0.220E-01 -.785E-01   -.231E-05 0.852E-04 -.716E-04
   0.213E-02 0.942E+00 0.146E+01   -.683E-04 -.890E+00 -.136E+01   -.100E-01 0.162E-01 -.108E+00   -.211E-06 -.110E-04 -.245E-03
   -.182E-01 0.383E+01 -.267E+01   0.426E-02 -.407E+01 0.278E+01   -.200E-02 0.270E+00 -.215E+00   -.542E-06 -.128E-03 -.290E-03
   0.108E+00 0.159E+02 -.214E+02   0.154E+00 -.164E+02 0.215E+02   0.111E+00 0.306E+00 -.705E+00   -.401E-05 -.284E-03 0.326E-04
   -.239E+01 0.351E+02 0.568E+01   0.215E+01 -.346E+02 -.627E+01   0.704E-01 -.641E+00 0.211E+00   0.231E-05 -.966E-04 0.392E-03
   -.703E-01 0.118E+01 0.165E+02   -.427E-02 -.128E+01 -.165E+02   -.316E-01 0.652E-01 0.425E-01   0.179E-06 -.126E-03 0.303E-04
   0.509E-02 -.127E+01 0.339E+01   -.919E-05 0.134E+01 -.335E+01   -.535E-02 -.338E-01 -.149E-01   -.162E-05 -.618E-04 -.190E-03
   -.608E-01 -.567E+00 -.459E+01   0.702E-04 0.582E+00 0.466E+01   0.455E-01 -.920E-02 -.635E-01   0.704E-07 0.175E-04 -.229E-03
   -.633E-01 -.787E+01 -.109E+02   -.139E-01 0.781E+01 0.110E+02   0.635E-01 0.496E-01 -.196E+00   0.646E-06 0.205E-03 -.118E-03
   -.180E+01 -.147E+02 0.168E+02   0.151E+01 0.156E+02 -.170E+02   0.669E+00 -.122E+01 -.269E+01   -.109E-04 0.284E-03 0.494E-04
   0.119E+02 0.164E+02 -.144E+02   -.125E+02 -.182E+02 0.136E+02   -.298E+01 -.965E+00 0.324E+01   0.134E-04 0.265E-03 0.319E-03
   0.125E-01 0.718E+01 0.332E+01   0.174E-01 -.747E+01 -.323E+01   -.248E-01 0.137E+00 -.250E-01   0.184E-05 0.128E-03 0.912E-04
   -.106E-02 0.158E+01 0.391E+01   0.565E-04 -.179E+01 -.379E+01   0.120E-01 0.136E+00 -.119E+00   0.464E-06 0.841E-05 -.161E-03
   0.233E-01 0.188E+01 -.105E+01   -.433E-03 -.187E+01 0.114E+01   -.784E-02 0.179E-01 -.893E-01   -.662E-06 -.677E-04 -.269E-03
   -.228E+00 0.765E+01 -.134E+02   -.107E-01 -.763E+01 0.135E+02   0.180E+00 -.342E-01 -.173E+00   0.210E-05 -.159E-03 -.775E-04
   0.270E+00 -.140E+02 -.317E+02   -.351E+00 0.139E+02 0.337E+02   0.156E+00 0.697E-01 -.443E+00   -.194E-05 0.742E-04 0.101E-03
   -.179E+01 -.348E+02 0.376E+02   0.151E+01 0.352E+02 -.380E+02   0.678E-01 -.115E+00 -.644E+00   -.292E-05 -.164E-03 0.257E-03
   -.105E-02 -.881E+01 0.238E+01   0.421E-01 0.908E+01 -.239E+01   -.153E-01 -.194E+00 0.125E+00   -.166E-05 0.847E-05 -.271E-04
   -.128E-01 -.387E+00 0.316E+00   -.753E-03 0.449E+00 -.260E+00   0.210E-01 -.431E-01 -.521E-01   0.381E-08 0.526E-04 -.225E-03
   0.996E-02 -.129E+01 -.145E+01   -.301E-03 0.128E+01 0.160E+01   -.800E-02 -.154E-01 -.139E+00   -.252E-05 0.484E-04 -.302E-03
   -.389E-01 0.104E+00 0.247E+01   0.108E+00 0.156E+00 -.239E+01   -.139E+00 -.216E-01 -.327E+00   -.387E-05 -.477E-04 -.336E-03
   -.483E+01 0.479E+02 0.290E+02   0.656E+01 -.486E+02 -.438E+02   0.461E+01 -.962E+00 -.212E+02   -.124E-04 -.377E-03 0.102E-03
   -.239E+01 0.351E+02 0.568E+01   0.215E+01 -.346E+02 -.627E+01   0.704E-01 -.641E+00 0.211E+00   0.294E-05 -.950E-04 0.395E-03
   -.703E-01 0.118E+01 0.165E+02   -.427E-02 -.128E+01 -.165E+02   -.316E-01 0.652E-01 0.425E-01   0.285E-05 -.126E-03 0.301E-04
   0.509E-02 -.127E+01 0.339E+01   -.919E-05 0.134E+01 -.335E+01   -.535E-02 -.338E-01 -.149E-01   -.244E-06 -.619E-04 -.190E-03
   -.608E-01 -.567E+00 -.459E+01   0.702E-04 0.582E+00 0.466E+01   0.455E-01 -.920E-02 -.635E-01   0.113E-05 0.188E-04 -.229E-03
   -.633E-01 -.787E+01 -.109E+02   -.139E-01 0.781E+01 0.110E+02   0.635E-01 0.496E-01 -.196E+00   -.172E-05 0.205E-03 -.118E-03
   -.180E+01 -.147E+02 0.168E+02   0.151E+01 0.156E+02 -.170E+02   0.669E+00 -.122E+01 -.269E+01   -.149E-04 0.280E-03 0.469E-04
   0.119E+02 0.164E+02 -.144E+02   -.125E+02 -.182E+02 0.136E+02   -.298E+01 -.965E+00 0.324E+01   0.873E-05 0.263E-03 0.319E-03
   0.125E-01 0.718E+01 0.332E+01   0.174E-01 -.747E+01 -.323E+01   -.248E-01 0.137E+00 -.250E-01   0.107E-05 0.127E-03 0.919E-04
   -.106E-02 0.158E+01 0.391E+01   0.565E-04 -.179E+01 -.379E+01   0.120E-01 0.136E+00 -.119E+00   0.754E-06 0.831E-05 -.161E-03
   0.233E-01 0.188E+01 -.105E+01   -.433E-03 -.187E+01 0.114E+01   -.784E-02 0.179E-01 -.893E-01   -.148E-05 -.673E-04 -.270E-03
   -.228E+00 0.765E+01 -.134E+02   -.107E-01 -.763E+01 0.135E+02   0.180E+00 -.342E-01 -.173E+00   0.648E-05 -.159E-03 -.768E-04
   0.270E+00 -.140E+02 -.317E+02   -.351E+00 0.139E+02 0.337E+02   0.156E+00 0.697E-01 -.443E+00   -.320E-05 0.748E-04 0.102E-03
   -.179E+01 -.348E+02 0.376E+02   0.151E+01 0.352E+02 -.380E+02   0.678E-01 -.115E+00 -.644E+00   -.368E-06 -.162E-03 0.255E-03
   -.104E-02 -.881E+01 0.238E+01   0.421E-01 0.908E+01 -.239E+01   -.153E-01 -.194E+00 0.125E+00   -.333E-05 0.730E-05 -.273E-04
   -.128E-01 -.387E+00 0.316E+00   -.753E-03 0.449E+00 -.260E+00   0.210E-01 -.431E-01 -.521E-01   -.185E-06 0.525E-04 -.224E-03
   0.996E-02 -.129E+01 -.145E+01   -.301E-03 0.128E+01 0.160E+01   -.800E-02 -.154E-01 -.139E+00   -.328E-05 0.483E-04 -.302E-03
   -.389E-01 0.104E+00 0.247E+01   0.108E+00 0.156E+00 -.239E+01   -.139E+00 -.216E-01 -.327E+00   -.880E-05 -.487E-04 -.336E-03
   -.483E+01 0.479E+02 0.290E+02   0.656E+01 -.486E+02 -.438E+02   0.461E+01 -.962E+00 -.212E+02   -.781E-05 -.376E-03 0.100E-03
 -----------------------------------------------------------------------------------------------
   -.610E+00 -.672E+01 -.159E+02   0.320E-13 0.497E-13 -.284E-12   0.762E+00 0.674E+01 0.158E+02   -.738E-04 0.576E-03 -.257E-03
 
 
 POSITION                                       TOTAL-FORCE (eV/Angst)
 -----------------------------------------------------------------------------------
      0.00000      0.00000      0.00000         0.872183      0.907985      1.248688
      1.93747      3.22912      0.91333        -0.370348      0.149766      2.845121
      3.87495      6.45824      1.82667         0.238548      0.955091     -0.597202
      3.87495      0.00000      0.00000         0.872183      0.907985      1.248688
      5.81242      3.22912      0.91333        -0.370348      0.149766      2.845121
      7.74989      6.45824      1.82667         0.238548      0.955091     -0.597202
      9.68736     10.33319      0.45667        -7.321909      0.605134     37.209882
      7.74989      1.93747      1.37000         0.116685     -0.035921      0.687310
      1.93747      5.16659      2.28333         2.880201      2.021048     -4.090617
      5.81242     10.33319      0.45667        -7.321909      0.605134     37.209882
      3.87495      1.93747      1.37000         0.116685     -0.035921      0.687310
      5.81242      5.16659      2.28333         2.880201      2.021048     -4.090617
      6.12084      8.36925      4.79833         0.050162      0.012088     -0.279767
      8.05831      6.43177      7.62833        -0.044941     -0.076177      0.079480
      2.24590      4.49430     10.45833        -0.010604     -0.011291      0.016374
      4.18337      2.55683     13.28833        -0.009469      0.019850     -0.120410
      6.12084      0.61936     16.11833        -0.008541      0.085158     -0.558146
      6.12084      0.61936      4.79833         0.083609     -0.120731     -0.413502
      4.18337     10.30672      7.62833         0.026063     -0.006715     -0.011519
      6.12084      8.36925     10.45833        -0.004587     -0.038272      0.024827
      8.05831      6.43177     13.28833         0.077197     -0.014692     -0.042301
      2.24590      4.49430     16.11833         0.106033     -0.010689     -0.203239
      2.24590      4.49430      4.79833         0.349957      0.083661      1.280461
      4.18337      2.55683      7.62833        -0.010391      0.126243      0.028313
      6.12084      0.61936     10.45833        -0.009898      0.067676     -0.005580
      4.18337     10.30672     13.28833        -0.017918      0.031954     -0.105185
      6.12084      8.36925     16.11833         0.371655     -0.166494     -0.601208
      9.99579      8.36925      4.79833         0.050162      0.012088     -0.279767
      4.18337      6.43177      7.62833        -0.044941     -0.076177      0.079480
      6.12084      4.49430     10.45833        -0.010604     -0.011291      0.016374
      8.05831      2.55683     13.28833        -0.009469      0.019850     -0.120410
      2.24590      0.61936     16.11833        -0.008541      0.085158     -0.558146
      2.24590      0.61936      4.79833         0.083609     -0.120731     -0.413502
      8.05831     10.30672      7.62833         0.026063     -0.006715     -0.011519
      9.99579      8.36925     10.45833        -0.004587     -0.038272      0.024827
      4.18337      6.43177     13.28833         0.077197     -0.014692     -0.042301
      6.12084      4.49430     16.11833         0.106033     -0.010689     -0.203239
      6.12084      4.49430      4.79833         0.349957      0.083661      1.280461
      8.05831      2.55683      7.62833        -0.010391      0.126243      0.028313
      2.24590      0.61936     10.45833        -0.009898      0.067676     -0.005580
      8.05831     10.30672     13.28833        -0.017918      0.031954     -0.105185
      9.99579      8.36925     16.11833         0.371655     -0.166494     -0.601208
      0.30842      0.61936      3.38333        -0.164743     -0.187390     -0.376935
      6.12084     10.30672      6.21333        -0.108127     -0.037840      0.062274
      8.05831      8.36925      9.04333        -0.002213      0.038139      0.024949
      2.24590      6.43177     11.87333        -0.017166      0.005676      0.007835
      4.18337      4.49430     14.70333        -0.015698     -0.014682     -0.112337
      6.12084      2.55683     17.53333         0.371876     -0.302109     -2.949512
      4.18337      4.49430      3.38333        -3.556382     -2.822454      2.413511
      6.12084      2.55683      6.21333         0.003198     -0.148514      0.064875
      0.30842      0.61936      9.04333         0.009064     -0.071069     -0.003079
      6.12084     10.30672     11.87333         0.013077      0.024133      0.004055
      8.05831      8.36925     14.70333        -0.060350     -0.009771     -0.092498
      2.24590      6.43177     17.53333         0.071886      0.025416      1.638735
      8.05831      8.36925      3.38333        -0.213300      0.275938     -1.030837
      2.24590      6.43177      6.21333         0.023824      0.071664      0.118677
      4.18337      4.49430      9.04333         0.005469      0.019155      0.004772
      6.12084      2.55683     11.87333        -0.000288     -0.018363      0.017542
      0.30842      0.61936     14.70333        -0.072169      0.238497     -0.244947
      6.12084     10.30672     17.53333         6.348358     -1.671100    -35.938858
      4.18337      0.61936      3.38333        -0.164743     -0.187390     -0.376935
      9.99579     10.30672      6.21333        -0.108127     -0.037840      0.062274
      4.18337      8.36925      9.04333        -0.002213      0.038139      0.024949
      6.12084      6.43177     11.87333        -0.017166      0.005676      0.007835
      8.05831      4.49430     14.70333        -0.015698     -0.014682     -0.112337
      2.24590      2.55683     17.53333         0.371876     -0.302109     -2.949512
      8.05831      4.49430      3.38333        -3.556382     -2.822454      2.413511
      2.24590      2.55683      6.21333         0.003198     -0.148514      0.064875
      4.18337      0.61936      9.04333         0.009064     -0.071069     -0.003079
      9.99579     10.30672     11.87333         0.013077      0.024133      0.004055
      4.18337      8.36925     14.70333        -0.060350     -0.009771     -0.092498
      6.12084      6.43177     17.53333         0.071886      0.025416      1.638735
      4.18337      8.36925      3.38333        -0.213300      0.275938     -1.030837
      6.12084      6.43177      6.21333         0.023824      0.071664      0.118677
      8.05831      4.49430      9.04333         0.005469      0.019155      0.004772
      2.24590      2.55683     11.87333        -0.000288     -0.018363      0.017542
      4.18337      0.61936     14.70333        -0.072169      0.238497     -0.244947
      9.99579     10.30672     17.53333         6.348358     -1.671100    -35.938858
 -----------------------------------------------------------------------------------
    total drift:                                0.151806      0.024152     -0.084073


--------------------------------------------------------------------------------------------------------



  FREE ENERGIE OF THE ION-ELECTRON SYSTEM (eV)
  ---------------------------------------------------
  free  energy   TOTEN  =      -317.69396206 eV

  energy  without entropy=     -317.69265328  energy(sigma->0) =     -317.69330767
 


--------------------------------------------------------------------------------------------------------


    POTLOK:  cpu time      3.8959: real time      3.9142


--------------------------------------------------------------------------------------------------------


     LOOP+:  cpu time   1485.1346: real time   1498.3034
    4ORBIT:  cpu time      0.0000: real time      0.0000

 total amount of memory used by VASP MPI-rank0   478191. kBytes
=======================================================================

   base      :      30000. kBytes
   nonlr-proj:       4952. kBytes
   fftplans  :      39456. kBytes
   grid      :      25958. kBytes
   one-center:         81. kBytes
   wavefun   :     377744. kBytes
 
  
  
 General timing and accounting informations for this job:
 ========================================================
  
                  Total CPU time used (sec):     1529.345
                            User time (sec):     1423.384
                          System time (sec):      105.961
                         Elapsed time (sec):     1545.862
  
                   Maximum memory used (kb):      735804.
                   Average memory used (kb):          N/A
  
                          Minor page faults:       332055
                          Major page faults:           44
                 Voluntary context switches:         1396
