Si and Ge interface calculation         
           1
    17.174332    0.000000    0.000000
     0.000000   17.174330    0.000000
     0.000000    0.000000   17.861000
   Si   Ge
   120   108
Direct configuration=     1
   0.99640435  0.97483069  0.00000000
   0.94640434  0.62483060  0.15203516
   0.89640427  0.27483046  0.30407038
   0.09640440  0.67483074  0.00000000
   0.04640434  0.32483065  0.15203516
   0.99640423  0.97483051  0.30407038
   0.19640441  0.37483066  0.00000000
   0.14640434  0.02483060  0.15203516
   0.09640426  0.67483044  0.30407038
   0.29640439  0.07483066  0.00000000
   0.24640430  0.72483063  0.15203516
   0.19640423  0.37483042  0.30407038
   0.39640445  0.77483070  0.00000000
   0.34640437  0.42483059  0.15203516
   0.29640430  0.07483046  0.30407038
   0.49640438  0.47483069  0.00000000
   0.44640431  0.12483060  0.15203516
   0.39640424  0.77483046  0.30407038
   0.59640437  0.17483065  0.00000000
   0.54640430  0.82483059  0.15203516
   0.49640426  0.47483045  0.30407038
   0.69640452  0.87483078  0.00000000
   0.64640445  0.52483064  0.15203516
   0.59640437  0.17483054  0.30407038
   0.79640442  0.57483071  0.00000000
   0.74640435  0.22483061  0.15203516
   0.69640428  0.87483048  0.30407038
   0.89640450  0.27483070  0.00000000
   0.84640443  0.92483062  0.15203516
   0.79640436  0.57483047  0.30407038
   0.99640441  0.22483067  0.07601761
   0.94640428  0.87483054  0.22805277
   0.89640427  0.52483046  0.38008791
   0.09640437  0.92483062  0.07601761
   0.04640429  0.57483053  0.22805277
   0.99640423  0.22483039  0.38008791
   0.19640441  0.62483066  0.07601761
   0.14640434  0.27483055  0.22805277
   0.09640426  0.92483050  0.38008791
   0.29640442  0.32483062  0.07601761
   0.24640434  0.97483051  0.22805277
   0.19640426  0.62483048  0.38008791
   0.39640441  0.02483064  0.07601761
   0.34640431  0.67483056  0.22805277
   0.29640424  0.32483047  0.38008791
   0.49640450  0.72483069  0.07601761
   0.44640443  0.37483057  0.22805277
   0.39640436  0.02483052  0.38008791
   0.59640437  0.42483059  0.07601761
   0.54640430  0.07483050  0.22805277
   0.49640426  0.72483045  0.38008791
   0.69640452  0.12483066  0.07601761
   0.64640439  0.77483058  0.22805277
   0.59640437  0.42483050  0.38008791
   0.79640448  0.82483071  0.07601761
   0.74640441  0.47483057  0.22805277
   0.69640434  0.12483048  0.38008791
   0.89640445  0.52483064  0.07601761
   0.84640437  0.17483054  0.22805277
   0.79640430  0.82483047  0.38008791
   0.99640441  0.47483069  0.00000000
   0.94640434  0.12483060  0.15203516
   0.89640427  0.77483046  0.30407038
   0.09640438  0.17483066  0.00000000
   0.04640431  0.82483059  0.15203516
   0.99640423  0.47483045  0.30407038
   0.19640441  0.87483066  0.00000000
   0.14640433  0.52483058  0.15203516
   0.09640426  0.17483044  0.30407038
   0.29640442  0.57483065  0.00000000
   0.24640432  0.22483060  0.15203516
   0.19640425  0.87483048  0.30407038
   0.39640445  0.27483067  0.00000000
   0.34640437  0.92483062  0.15203516
   0.29640430  0.57483047  0.30407038
   0.49640441  0.97483063  0.00000000
   0.44640434  0.62483054  0.15203516
   0.39640424  0.27483040  0.30407038
   0.59640437  0.67483068  0.00000000
   0.54640430  0.32483059  0.15203516
   0.49640423  0.97483045  0.30407038
   0.69640440  0.37483063  0.00000000
   0.64640433  0.02483056  0.15203516
   0.59640425  0.67483044  0.30407038
   0.79640442  0.07483064  0.00000000
   0.74640435  0.72483051  0.15203516
   0.69640428  0.37483042  0.30407038
   0.89640450  0.77483070  0.00000000
   0.84640443  0.42483062  0.15203516
   0.79640436  0.07483048  0.30407038
   0.99640435  0.72483075  0.07601761
   0.94640428  0.37483060  0.22805277
   0.89640427  0.02483054  0.38008791
   0.09640439  0.42483068  0.07601761
   0.04640431  0.07483057  0.22805277
   0.99640423  0.72483051  0.38008791
   0.19640441  0.12483066  0.07601761
   0.14640434  0.77483058  0.22805277
   0.09640427  0.42483050  0.38008791
   0.29640439  0.82483071  0.07601761
   0.24640432  0.47483057  0.22805277
   0.19640425  0.12483048  0.38008791
   0.39640441  0.52483076  0.07601761
   0.34640434  0.17483065  0.22805277
   0.29640427  0.82483059  0.38008791
   0.49640441  0.22483064  0.07601761
   0.44640434  0.87483054  0.22805277
   0.39640424  0.52483046  0.38008791
   0.59640443  0.92483068  0.07601761
   0.54640436  0.57483059  0.22805277
   0.49640429  0.22483051  0.38008791
   0.69640446  0.62483072  0.07601761
   0.64640439  0.27483058  0.22805277
   0.59640431  0.92483056  0.38008791
   0.79640436  0.32483062  0.07601761
   0.74640429  0.97483051  0.22805277
   0.69640422  0.62483048  0.38008791
   0.89640439  0.02483063  0.07601761
   0.84640431  0.67483056  0.22805277
   0.79640424  0.32483041  0.38008791
   0.28670311  0.66666657  0.49206373
   0.12003648  0.66666657  0.65044791
   0.95336974  0.66666657  0.80883211
   0.28670311  0.33333328  0.49206373
   0.12003648  0.33333328  0.65044791
   0.95336974  0.33333328  0.80883211
   0.28670311  0.00000000  0.49206373
   0.12003648  0.00000000  0.65044791
   0.95336974  0.00000000  0.80883211
   0.62003648  0.66666657  0.49206373
   0.45336980  0.66666657  0.65044791
   0.28670311  0.66666657  0.80883211
   0.62003648  0.33333328  0.49206373
   0.45336980  0.33333328  0.65044791
   0.28670311  0.33333328  0.80883211
   0.62003648  0.00000000  0.49206373
   0.45336980  0.00000000  0.65044791
   0.28670311  0.00000000  0.80883211
   0.95336974  0.66666657  0.49206373
   0.78670311  0.66666657  0.65044791
   0.62003636  0.66666657  0.80883211
   0.95336974  0.33333328  0.49206373
   0.78670311  0.33333328  0.65044791
   0.62003636  0.33333328  0.80883211
   0.95336974  0.00000000  0.49206373
   0.78670311  0.00000000  0.65044791
   0.62003636  0.00000000  0.80883211
   0.37003648  0.91666657  0.57125580
   0.20336974  0.91666657  0.72964001
   0.03670311  0.91666657  0.88802415
   0.37003648  0.58333331  0.57125580
   0.20336974  0.58333331  0.72964001
   0.03670311  0.58333331  0.88802415
   0.37003648  0.24999995  0.57125580
   0.20336974  0.24999995  0.72964001
   0.03670311  0.24999995  0.88802415
   0.70336974  0.91666657  0.57125580
   0.53670305  0.91666657  0.72964001
   0.37003636  0.91666657  0.88802415
   0.70336974  0.58333331  0.57125580
   0.53670305  0.58333331  0.72964001
   0.37003636  0.58333331  0.88802415
   0.70336974  0.24999995  0.57125580
   0.53670305  0.24999995  0.72964001
   0.37003636  0.24999995  0.88802415
   0.03670311  0.91666657  0.57125580
   0.87003636  0.91666657  0.72964001
   0.70336974  0.91666657  0.88802415
   0.03670311  0.58333331  0.57125580
   0.87003636  0.58333331  0.72964001
   0.70336974  0.58333331  0.88802415
   0.03670311  0.24999995  0.57125580
   0.87003636  0.24999995  0.72964001
   0.70336974  0.24999995  0.88802415
   0.45336980  0.83333319  0.49206373
   0.28670311  0.83333319  0.65044791
   0.12003648  0.83333319  0.80883211
   0.45336980  0.49999991  0.49206373
   0.28670311  0.49999991  0.65044791
   0.12003648  0.49999991  0.80883211
   0.45336980  0.16666664  0.49206373
   0.28670311  0.16666664  0.65044791
   0.12003648  0.16666664  0.80883211
   0.78670311  0.83333319  0.49206373
   0.62003636  0.83333319  0.65044791
   0.45336974  0.83333319  0.80883211
   0.78670311  0.49999991  0.49206373
   0.62003636  0.49999991  0.65044791
   0.45336974  0.49999991  0.80883211
   0.78670311  0.16666664  0.49206373
   0.62003636  0.16666664  0.65044791
   0.45336974  0.16666664  0.80883211
   0.12003648  0.83333319  0.49206373
   0.95336974  0.83333319  0.65044791
   0.78670311  0.83333319  0.80883211
   0.12003648  0.49999991  0.49206373
   0.95336974  0.49999991  0.65044791
   0.78670311  0.49999991  0.80883211
   0.12003648  0.16666664  0.49206373
   0.95336974  0.16666664  0.65044791
   0.78670311  0.16666664  0.80883211
   0.53670311  0.74999988  0.57125580
   0.37003642  0.74999988  0.72964001
   0.20336974  0.74999988  0.88802415
   0.53670311  0.41666663  0.57125580
   0.37003642  0.41666663  0.72964001
   0.20336974  0.41666663  0.88802415
   0.53670311  0.08333333  0.57125580
   0.37003642  0.08333333  0.72964001
   0.20336974  0.08333333  0.88802415
   0.87003648  0.74999988  0.57125580
   0.70336980  0.74999988  0.72964001
   0.53670311  0.74999988  0.88802415
   0.87003648  0.41666663  0.57125580
   0.70336980  0.41666663  0.72964001
   0.53670311  0.41666663  0.88802415
   0.87003648  0.08333333  0.57125580
   0.70336980  0.08333333  0.72964001
   0.53670311  0.08333333  0.88802415
   0.20336986  0.74999988  0.57125580
   0.03670311  0.74999988  0.72964001
   0.87003636  0.74999988  0.88802415
   0.20336986  0.41666663  0.57125580
   0.03670311  0.41666663  0.72964001
   0.87003636  0.41666663  0.88802415
   0.20336986  0.08333333  0.57125580
   0.03670311  0.08333333  0.72964001
   0.87003636  0.08333333  0.88802415
