<?xml version="1.0" encoding="ISO-8859-1"?>
<modeling>
 <generator>
  <i name="program" type="string">vasp </i>
  <i name="version" type="string">6.4.3  </i>
  <i name="subversion" type="string">19Mar24 (build Oct 22 2024 11:23:12) complex                          parallel </i>
  <i name="platform" type="string">LinuxIFC </i>
  <i name="date" type="string">2025 06 12 </i>
  <i name="time" type="string">02:48:23 </i>
 </generator>
 <incar>
  <i type="string" name="SYSTEM">Si and Ge interface calculation</i>
  <i type="int" name="ISTART">     0</i>
  <i type="logical" name="ADDGRID"> T  </i>
  <i type="int" name="ISPIN">     2</i>
  <i name="AMIX">      0.60000000</i>
  <i type="int" name="ICHARG">     2</i>
  <i type="int" name="NELM">   100</i>
  <i name="EDIFF">      0.00000010</i>
  <i name="ENCUT">    700.00000000</i>
  <i name="ENAUG">    900.00000000</i>
  <i type="int" name="NBANDS">   634</i>
  <i name="NUPDOWN">      1.00000000</i>
  <i name="NELECT">   1056.00000000</i>
  <i type="string" name="LREAL">AUTO</i>
  <i type="int" name="ISMEAR">     0</i>
  <i name="SIGMA">      0.01000000</i>
  <i type="int" name="LMAXMIX">     6</i>
  <i type="logical" name="LWAVE"> F  </i>
  <i type="logical" name="LVTOT"> F  </i>
  <i type="logical" name="LVHAR"> T  </i>
  <i type="logical" name="LASPH"> T  </i>
  <i type="logical" name="LMIXTAU"> T  </i>
 </incar>
 <primitive_cell>
  <structure name="primitive_cell" >
   <crystal>
    <varray name="basis" >
     <v>      19.46759987       0.00000000       0.00000000 </v>
     <v>       0.00000000      19.46759987       0.00000000 </v>
     <v>       0.00000000       0.00000000      19.30025291 </v>
    </varray>
    <i name="volume">   7314.55353316 </i>
    <varray name="rec_basis" >
     <v>       0.05136740       0.00000000       0.00000000 </v>
     <v>       0.00000000       0.05136740       0.00000000 </v>
     <v>       0.00000000       0.00000000       0.05181279 </v>
    </varray>
   </crystal>
   <varray name="positions" >
    <v>       0.99503511       0.66666669       0.00000000 </v>
    <v>       0.82836843       0.66666669       0.16811179 </v>
    <v>       0.91936642       0.85444313       0.53426754 </v>
    <v>       0.99503511       0.33333334       0.00000000 </v>
    <v>       0.66936624       0.10444319       0.88601178 </v>
    <v>       0.15013567       0.70059687       0.53426754 </v>
    <v>       0.59244329       0.48905852       0.88601178 </v>
    <v>       0.82836843       0.00000000       0.16811179 </v>
    <v>       0.26552033       0.12367377       0.53426754 </v>
    <v>       0.32836846       0.66666669       0.00000000 </v>
    <v>       0.16170174       0.66666669       0.16811179 </v>
    <v>       0.86167425       0.14290453       0.60461640 </v>
    <v>       0.32836846       0.33333334       0.00000000 </v>
    <v>       0.16170174       0.33333334       0.16811179 </v>
    <v>       0.99503511       0.33333334       0.33622354 </v>
    <v>       0.09244316       0.98905855       0.88601178 </v>
    <v>       0.16170174       0.00000000       0.16811179 </v>
    <v>       0.99503511       0.00000000       0.33622354 </v>
    <v>       0.93859696       0.75828928       0.88601178 </v>
    <v>       0.49503511       0.66666669       0.16811179 </v>
    <v>       0.32836846       0.66666669       0.33622354 </v>
    <v>       0.05398166       0.18136621       0.88601178 </v>
    <v>       0.13090470       0.79675090       0.88601178 </v>
    <v>       0.32836846       0.33333334       0.33622354 </v>
    <v>       0.66170180       0.00000000       0.00000000 </v>
    <v>       0.01552010       0.37367386       0.88601178 </v>
    <v>       0.32836846       0.00000000       0.33622354 </v>
    <v>       0.07836843       0.91666675       0.08405589 </v>
    <v>       0.91170180       0.91666675       0.25216761 </v>
    <v>       0.74503505       0.91666675       0.42027944 </v>
    <v>       0.24628940       0.21982789       0.88601178 </v>
    <v>       0.91170180       0.58333343       0.25216761 </v>
    <v>       0.74503505       0.58333343       0.42027944 </v>
    <v>       0.07836843       0.25000000       0.08405589 </v>
    <v>       0.91170180       0.25000000       0.25216761 </v>
    <v>       0.34244341       0.73905850       0.53426754 </v>
    <v>       0.41170177       0.91666675       0.08405589 </v>
    <v>       0.24503510       0.91666675       0.25216761 </v>
    <v>       0.07836838       0.91666675       0.42027944 </v>
    <v>       0.41170177       0.58333343       0.08405589 </v>
    <v>       0.88090491       0.04675078       0.53426754 </v>
    <v>       0.07836838       0.58333343       0.42027944 </v>
    <v>       0.41170177       0.25000000       0.08405589 </v>
    <v>       0.76552027       0.62367380       0.53426754 </v>
    <v>       0.84244347       0.23905837       0.53426754 </v>
    <v>       0.74503517       0.91666675       0.08405589 </v>
    <v>       0.57836855       0.91666675       0.25216761 </v>
    <v>       0.68859720       0.00828922       0.53426754 </v>
    <v>       0.74503517       0.58333343       0.08405589 </v>
    <v>       0.41936651       0.35444304       0.53426754 </v>
    <v>       0.80398190       0.43136618       0.53426754 </v>
    <v>       0.74503517       0.25000000       0.08405589 </v>
    <v>       0.57836855       0.25000000       0.25216761 </v>
    <v>       0.41170180       0.25000000       0.42027944 </v>
    <v>       0.16170177       0.83333331       0.00000000 </v>
    <v>       0.45782784       0.16213548       0.81566292 </v>
    <v>       0.99628961       0.46982759       0.53426754 </v>
    <v>       0.16170177       0.50000000       0.00000000 </v>
    <v>       0.47705862       0.06598163       0.88601178 </v>
    <v>       0.82836843       0.50000000       0.33622354 </v>
    <v>       0.97705853       0.56598157       0.88601178 </v>
    <v>       0.78475076       0.52752006       0.88601178 </v>
    <v>       0.82836843       0.16666667       0.33622354 </v>
    <v>       0.49503511       0.83333331       0.00000000 </v>
    <v>       0.32836843       0.83333331       0.16811179 </v>
    <v>       0.16170175       0.83333331       0.33622354 </v>
    <v>       0.49503511       0.50000000       0.00000000 </v>
    <v>       0.32836843       0.50000000       0.16811179 </v>
    <v>       0.16170175       0.50000000       0.33622354 </v>
    <v>       0.82321233       0.33521238       0.88601178 </v>
    <v>       0.32836843       0.16666667       0.16811179 </v>
    <v>       0.16170175       0.16666667       0.33622354 </v>
    <v>       0.82836855       0.83333331       0.00000000 </v>
    <v>       0.90013546       0.95059699       0.88601178 </v>
    <v>       0.49503520       0.83333331       0.33622354 </v>
    <v>       0.82836855       0.50000000       0.00000000 </v>
    <v>       0.86167389       0.14290464       0.88601178 </v>
    <v>       0.49503520       0.50000000       0.33622354 </v>
    <v>       0.82836855       0.16666667       0.00000000 </v>
    <v>       0.66170186       0.16666667       0.16811179 </v>
    <v>       0.49503520       0.16666667       0.33622354 </v>
    <v>       0.24503510       0.75000006       0.08405589 </v>
    <v>       0.07836843       0.75000006       0.25216761 </v>
    <v>       0.91170174       0.75000006       0.42027944 </v>
    <v>       0.11167400       0.89290476       0.81566292 </v>
    <v>       0.07836843       0.41666672       0.25216761 </v>
    <v>       0.72705871       0.81598151       0.53426754 </v>
    <v>       0.24503510       0.08333334       0.08405589 </v>
    <v>       0.07836843       0.08333334       0.25216761 </v>
    <v>       0.91170174       0.08333334       0.42027944 </v>
    <v>       0.57836848       0.75000006       0.08405589 </v>
    <v>       0.61167419       0.39290458       0.53426754 </v>
    <v>       0.24503513       0.75000006       0.42027944 </v>
    <v>       0.57836848       0.41666672       0.08405589 </v>
    <v>       0.41170186       0.41666672       0.25216761 </v>
    <v>       0.57321262       0.58521235       0.53426754 </v>
    <v>       0.57836848       0.08333334       0.08405589 </v>
    <v>       0.65013564       0.20059687       0.53426754 </v>
    <v>       0.24503513       0.08333334       0.42027944 </v>
    <v>       0.51552010       0.87367392       0.88601178 </v>
    <v>       0.22705877       0.31598148       0.53426754 </v>
    <v>       0.57836837       0.75000006       0.42027944 </v>
    <v>       0.16936630       0.60444313       0.88601178 </v>
    <v>       0.53475112       0.77751988       0.53426754 </v>
    <v>       0.57836837       0.41666672       0.42027944 </v>
    <v>       0.40013558       0.45059699       0.88601178 </v>
    <v>       0.20782799       0.41213533       0.60461640 </v>
    <v>       0.57836837       0.08333334       0.42027944 </v>
    <v>       0.07836838       0.25000000       0.42027944 </v>
    <v>       0.72705877       0.31598151       0.67496520 </v>
    <v>       0.61167407       0.39290467       0.81566292 </v>
    <v>       0.82836843       0.83333331       0.33622354 </v>
    <v>       0.88090491       0.54675066       0.67496520 </v>
    <v>       0.76552022       0.62367386       0.81566292 </v>
    <v>       0.45782804       0.16213530       0.53426754 </v>
    <v>       0.34244335       0.23905843       0.67496520 </v>
    <v>       0.22705865       0.31598157       0.81566292 </v>
    <v>       0.41170186       0.75000006       0.25216761 </v>
    <v>       0.49628949       0.46982771       0.67496520 </v>
    <v>       0.38090479       0.54675084       0.81566292 </v>
    <v>       0.24503510       0.25000000       0.25216761 </v>
    <v>       0.65013558       0.70059693       0.67496520 </v>
    <v>       0.53475088       0.77752006       0.81566292 </v>
    <v>       0.66170174       0.66666669       0.33622354 </v>
    <v>       0.80398172       0.93136627       0.67496520 </v>
    <v>       0.68859702       0.00828934       0.81566292 </v>
    <v>       0.07321262       0.08521221       0.53426754 </v>
    <v>       0.95782787       0.16213533       0.67496520 </v>
    <v>       0.84244317       0.23905846       0.81566292 </v>
    <v>       0.74503505       0.75000006       0.25216761 </v>
    <v>       0.11167407       0.39290461       0.67496520 </v>
    <v>       0.99628931       0.46982774       0.81566292 </v>
    <v>       0.38090494       0.54675072       0.53426754 </v>
    <v>       0.26552022       0.62367386       0.67496520 </v>
    <v>       0.15013552       0.70059699       0.81566292 </v>
    <v>       0.74503505       0.41666672       0.25216761 </v>
    <v>       0.41936642       0.85444301       0.67496520 </v>
    <v>       0.30398169       0.93136615       0.81566292 </v>
    <v>       0.41170180       0.91666675       0.42027944 </v>
    <v>       0.57321250       0.08521234       0.67496520 </v>
    <v>       0.99503505       0.83333331       0.16811179 </v>
    <v>       0.66170174       0.33333334       0.33622354 </v>
    <v>       0.03475094       0.77752000       0.67496520 </v>
    <v>       0.91936624       0.85444319       0.81566292 </v>
    <v>       0.30398187       0.93136609       0.53426754 </v>
    <v>       0.18859717       0.00828910       0.67496520 </v>
    <v>       0.07321238       0.08521234       0.81566292 </v>
    <v>       0.05398178       0.18136609       0.60461640 </v>
    <v>       0.93859708       0.25828922       0.74531406 </v>
    <v>       0.49503511       0.16666667       0.00000000 </v>
    <v>       0.66936642       0.10444307       0.60461640 </v>
    <v>       0.55398178       0.18136621       0.74531406 </v>
    <v>       0.43859702       0.25828934       0.88601178 </v>
    <v>       0.82321268       0.33521223       0.60461640 </v>
    <v>       0.70782799       0.41213539       0.74531406 </v>
    <v>       0.99503511       0.00000000       0.00000000 </v>
    <v>       0.97705877       0.56598145       0.60461640 </v>
    <v>       0.86167407       0.64290464       0.74531406 </v>
    <v>       0.74628931       0.71982777       0.88601178 </v>
    <v>       0.43859726       0.25828916       0.60461640 </v>
    <v>       0.32321256       0.33521229       0.74531406 </v>
    <v>       0.20782784       0.41213542       0.88601178 </v>
    <v>       0.59244335       0.48905846       0.60461640 </v>
    <v>       0.47705868       0.56598157       0.74531406 </v>
    <v>       0.36167395       0.64290476       0.88601178 </v>
    <v>       0.74628949       0.71982765       0.60461640 </v>
    <v>       0.63090479       0.79675078       0.74531406 </v>
    <v>       0.91170174       0.75000006       0.08405589 </v>
    <v>       0.90013564       0.95059693       0.60461640 </v>
    <v>       0.78475094       0.02752006       0.74531406 </v>
    <v>       0.82836843       0.33333334       0.16811179 </v>
    <v>       0.74503505       0.08333334       0.25216761 </v>
    <v>       0.09244330       0.48905843       0.74531406 </v>
    <v>       0.16170177       0.16666667       0.00000000 </v>
    <v>       0.36167413       0.64290464       0.60461640 </v>
    <v>       0.24628943       0.71982771       0.74531406 </v>
    <v>       0.49503511       0.33333334       0.16811179 </v>
    <v>       0.51552027       0.87367380       0.60461640 </v>
    <v>       0.40013558       0.95059693       0.74531406 </v>
    <v>       0.28475085       0.02752006       0.88601178 </v>
    <v>       0.13090490       0.79675072       0.60461640 </v>
    <v>       0.01552022       0.87367392       0.74531406 </v>
    <v>       0.66170186       0.83333331       0.16811179 </v>
    <v>       0.28475106       0.02751994       0.60461640 </v>
    <v>       0.16936633       0.10444307       0.74531406 </v>
    <v>       0.66170180       0.33333334       0.00000000 </v>
    <v>       0.03475106       0.27751997       0.53426754 </v>
    <v>       0.91936636       0.35444310       0.67496520 </v>
    <v>       0.80398166       0.43136627       0.81566292 </v>
    <v>       0.41170186       0.08333334       0.25216761 </v>
    <v>       0.53475094       0.27752000       0.67496520 </v>
    <v>       0.41936627       0.35444313       0.81566292 </v>
    <v>       0.41170180       0.58333343       0.42027944 </v>
    <v>       0.68859714       0.50828928       0.67496520 </v>
    <v>       0.57321250       0.58521247       0.81566292 </v>
    <v>       0.95782804       0.66213542       0.53426754 </v>
    <v>       0.84244329       0.73905855       0.67496520 </v>
    <v>       0.72705859       0.81598169       0.81566292 </v>
    <v>       0.66170174       0.00000000       0.33622354 </v>
    <v>       0.15013564       0.20059690       0.67496520 </v>
    <v>       0.03475094       0.27752003       0.81566292 </v>
    <v>       0.57836855       0.58333343       0.25216761 </v>
    <v>       0.30398181       0.43136618       0.67496520 </v>
    <v>       0.18859708       0.50828928       0.81566292 </v>
    <v>       0.24503513       0.41666672       0.42027944 </v>
    <v>       0.45782793       0.66213548       0.67496520 </v>
    <v>       0.34244323       0.73905861       0.81566292 </v>
    <v>       0.91170174       0.41666672       0.42027944 </v>
    <v>       0.61167401       0.89290464       0.67496520 </v>
    <v>       0.49628934       0.96982777       0.81566292 </v>
    <v>       0.24503510       0.58333343       0.25216761 </v>
    <v>       0.76552022       0.12367391       0.67496520 </v>
    <v>       0.65013552       0.20059705       0.81566292 </v>
    <v>       0.18859723       0.50828922       0.53426754 </v>
    <v>       0.07321250       0.58521235       0.67496520 </v>
    <v>       0.95782781       0.66213548       0.81566292 </v>
    <v>       0.74503505       0.25000000       0.42027944 </v>
    <v>       0.22705871       0.81598163       0.67496520 </v>
    <v>       0.24503510       0.41666672       0.08405589 </v>
    <v>       0.49628958       0.96982771       0.53426754 </v>
    <v>       0.38090485       0.04675078       0.67496520 </v>
    <v>       0.26552015       0.12367391       0.81566292 </v>
    <v>       0.11167413       0.89290458       0.53426754 </v>
    <v>       0.99628943       0.96982771       0.67496520 </v>
    <v>       0.88090467       0.04675078       0.81566292 </v>
    <v>       0.99503511       0.66666669       0.33622354 </v>
    <v>       0.74628949       0.21982768       0.74531406 </v>
    <v>       0.63090479       0.29675081       0.88601178 </v>
    <v>       0.01552022       0.37367377       0.60461640 </v>
    <v>       0.90013552       0.45059693       0.74531406 </v>
    <v>       0.99503505       0.16666667       0.16811179 </v>
    <v>       0.63090497       0.29675070       0.60461640 </v>
    <v>       0.51552027       0.37367383       0.74531406 </v>
    <v>       0.91170174       0.08333334       0.08405589 </v>
    <v>       0.78475118       0.52751994       0.60461640 </v>
    <v>       0.66936648       0.60444307       0.74531406 </v>
    <v>       0.55398178       0.68136621       0.88601178 </v>
    <v>       0.93859738       0.75828922       0.60461640 </v>
    <v>       0.82321268       0.83521235       0.74531406 </v>
    <v>       0.70782793       0.91213548       0.88601178 </v>
    <v>       0.24628955       0.21982756       0.60461640 </v>
    <v>       0.13090484       0.29675070       0.74531406 </v>
    <v>       0.49503511       0.00000000       0.16811179 </v>
    <v>       0.40013573       0.45059687       0.60461640 </v>
    <v>       0.28475103       0.52752000       0.74531406 </v>
    <v>       0.91170174       0.41666672       0.08405589 </v>
    <v>       0.55398184       0.68136609       0.60461640 </v>
    <v>       0.43859717       0.75828922       0.74531406 </v>
    <v>       0.32321242       0.83521235       0.88601178 </v>
    <v>       0.70782804       0.91213542       0.60461640 </v>
    <v>       0.59244335       0.98905855       0.74531406 </v>
    <v>       0.99503505       0.50000000       0.16811179 </v>
    <v>       0.16936642       0.60444301       0.60461640 </v>
    <v>       0.05398178       0.68136615       0.74531406 </v>
    <v>       0.66170180       0.66666669       0.00000000 </v>
    <v>       0.32321259       0.83521223       0.60461640 </v>
    <v>       0.20782790       0.91213536       0.74531406 </v>
    <v>       0.32836846       0.00000000       0.00000000 </v>
    <v>       0.47705883       0.06598151       0.60461640 </v>
    <v>       0.36167413       0.14290476       0.74531406 </v>
    <v>       0.07836843       0.58333343       0.08405589 </v>
    <v>       0.09244336       0.98905837       0.60461640 </v>
    <v>       0.97705859       0.06598151       0.74531406 </v>
    <v>       0.66170186       0.50000000       0.16811179 </v>
   </varray>
  </structure>
  <varray name="primitive_index" >
   <v type="int" >        1 </v>
   <v type="int" >        2 </v>
   <v type="int" >        3 </v>
   <v type="int" >        4 </v>
   <v type="int" >        5 </v>
   <v type="int" >        6 </v>
   <v type="int" >        7 </v>
   <v type="int" >        8 </v>
   <v type="int" >        9 </v>
   <v type="int" >       10 </v>
   <v type="int" >       11 </v>
   <v type="int" >       12 </v>
   <v type="int" >       13 </v>
   <v type="int" >       14 </v>
   <v type="int" >       15 </v>
   <v type="int" >       16 </v>
   <v type="int" >       17 </v>
   <v type="int" >       18 </v>
   <v type="int" >       19 </v>
   <v type="int" >       20 </v>
   <v type="int" >       21 </v>
   <v type="int" >       22 </v>
   <v type="int" >       23 </v>
   <v type="int" >       24 </v>
   <v type="int" >       25 </v>
   <v type="int" >       26 </v>
   <v type="int" >       27 </v>
   <v type="int" >       28 </v>
   <v type="int" >       29 </v>
   <v type="int" >       30 </v>
   <v type="int" >       31 </v>
   <v type="int" >       32 </v>
   <v type="int" >       33 </v>
   <v type="int" >       34 </v>
   <v type="int" >       35 </v>
   <v type="int" >       36 </v>
   <v type="int" >       37 </v>
   <v type="int" >       38 </v>
   <v type="int" >       39 </v>
   <v type="int" >       40 </v>
   <v type="int" >       41 </v>
   <v type="int" >       42 </v>
   <v type="int" >       43 </v>
   <v type="int" >       44 </v>
   <v type="int" >       45 </v>
   <v type="int" >       46 </v>
   <v type="int" >       47 </v>
   <v type="int" >       48 </v>
   <v type="int" >       49 </v>
   <v type="int" >       50 </v>
   <v type="int" >       51 </v>
   <v type="int" >       52 </v>
   <v type="int" >       53 </v>
   <v type="int" >       54 </v>
   <v type="int" >       55 </v>
   <v type="int" >       56 </v>
   <v type="int" >       57 </v>
   <v type="int" >       58 </v>
   <v type="int" >       59 </v>
   <v type="int" >       60 </v>
   <v type="int" >       61 </v>
   <v type="int" >       62 </v>
   <v type="int" >       63 </v>
   <v type="int" >       64 </v>
   <v type="int" >       65 </v>
   <v type="int" >       66 </v>
   <v type="int" >       67 </v>
   <v type="int" >       68 </v>
   <v type="int" >       69 </v>
   <v type="int" >       70 </v>
   <v type="int" >       71 </v>
   <v type="int" >       72 </v>
   <v type="int" >       73 </v>
   <v type="int" >       74 </v>
   <v type="int" >       75 </v>
   <v type="int" >       76 </v>
   <v type="int" >       77 </v>
   <v type="int" >       78 </v>
   <v type="int" >       79 </v>
   <v type="int" >       80 </v>
   <v type="int" >       81 </v>
   <v type="int" >       82 </v>
   <v type="int" >       83 </v>
   <v type="int" >       84 </v>
   <v type="int" >       85 </v>
   <v type="int" >       86 </v>
   <v type="int" >       87 </v>
   <v type="int" >       88 </v>
   <v type="int" >       89 </v>
   <v type="int" >       90 </v>
   <v type="int" >       91 </v>
   <v type="int" >       92 </v>
   <v type="int" >       93 </v>
   <v type="int" >       94 </v>
   <v type="int" >       95 </v>
   <v type="int" >       96 </v>
   <v type="int" >       97 </v>
   <v type="int" >       98 </v>
   <v type="int" >       99 </v>
   <v type="int" >      100 </v>
   <v type="int" >      101 </v>
   <v type="int" >      102 </v>
   <v type="int" >      103 </v>
   <v type="int" >      104 </v>
   <v type="int" >      105 </v>
   <v type="int" >      106 </v>
   <v type="int" >      107 </v>
   <v type="int" >      108 </v>
   <v type="int" >      109 </v>
   <v type="int" >      110 </v>
   <v type="int" >      111 </v>
   <v type="int" >      112 </v>
   <v type="int" >      113 </v>
   <v type="int" >      114 </v>
   <v type="int" >      115 </v>
   <v type="int" >      116 </v>
   <v type="int" >      117 </v>
   <v type="int" >      118 </v>
   <v type="int" >      119 </v>
   <v type="int" >      120 </v>
   <v type="int" >      121 </v>
   <v type="int" >      122 </v>
   <v type="int" >      123 </v>
   <v type="int" >      124 </v>
   <v type="int" >      125 </v>
   <v type="int" >      126 </v>
   <v type="int" >      127 </v>
   <v type="int" >      128 </v>
   <v type="int" >      129 </v>
   <v type="int" >      130 </v>
   <v type="int" >      131 </v>
   <v type="int" >      132 </v>
   <v type="int" >      133 </v>
   <v type="int" >      134 </v>
   <v type="int" >      135 </v>
   <v type="int" >      136 </v>
   <v type="int" >      137 </v>
   <v type="int" >      138 </v>
   <v type="int" >      139 </v>
   <v type="int" >      140 </v>
   <v type="int" >      141 </v>
   <v type="int" >      142 </v>
   <v type="int" >      143 </v>
   <v type="int" >      144 </v>
   <v type="int" >      145 </v>
   <v type="int" >      146 </v>
   <v type="int" >      147 </v>
   <v type="int" >      148 </v>
   <v type="int" >      149 </v>
   <v type="int" >      150 </v>
   <v type="int" >      151 </v>
   <v type="int" >      152 </v>
   <v type="int" >      153 </v>
   <v type="int" >      154 </v>
   <v type="int" >      155 </v>
   <v type="int" >      156 </v>
   <v type="int" >      157 </v>
   <v type="int" >      158 </v>
   <v type="int" >      159 </v>
   <v type="int" >      160 </v>
   <v type="int" >      161 </v>
   <v type="int" >      162 </v>
   <v type="int" >      163 </v>
   <v type="int" >      164 </v>
   <v type="int" >      165 </v>
   <v type="int" >      166 </v>
   <v type="int" >      167 </v>
   <v type="int" >      168 </v>
   <v type="int" >      169 </v>
   <v type="int" >      170 </v>
   <v type="int" >      171 </v>
   <v type="int" >      172 </v>
   <v type="int" >      173 </v>
   <v type="int" >      174 </v>
   <v type="int" >      175 </v>
   <v type="int" >      176 </v>
   <v type="int" >      177 </v>
   <v type="int" >      178 </v>
   <v type="int" >      179 </v>
   <v type="int" >      180 </v>
   <v type="int" >      181 </v>
   <v type="int" >      182 </v>
   <v type="int" >      183 </v>
   <v type="int" >      184 </v>
   <v type="int" >      185 </v>
   <v type="int" >      186 </v>
   <v type="int" >      187 </v>
   <v type="int" >      188 </v>
   <v type="int" >      189 </v>
   <v type="int" >      190 </v>
   <v type="int" >      191 </v>
   <v type="int" >      192 </v>
   <v type="int" >      193 </v>
   <v type="int" >      194 </v>
   <v type="int" >      195 </v>
   <v type="int" >      196 </v>
   <v type="int" >      197 </v>
   <v type="int" >      198 </v>
   <v type="int" >      199 </v>
   <v type="int" >      200 </v>
   <v type="int" >      201 </v>
   <v type="int" >      202 </v>
   <v type="int" >      203 </v>
   <v type="int" >      204 </v>
   <v type="int" >      205 </v>
   <v type="int" >      206 </v>
   <v type="int" >      207 </v>
   <v type="int" >      208 </v>
   <v type="int" >      209 </v>
   <v type="int" >      210 </v>
   <v type="int" >      211 </v>
   <v type="int" >      212 </v>
   <v type="int" >      213 </v>
   <v type="int" >      214 </v>
   <v type="int" >      215 </v>
   <v type="int" >      216 </v>
   <v type="int" >      217 </v>
   <v type="int" >      218 </v>
   <v type="int" >      219 </v>
   <v type="int" >      220 </v>
   <v type="int" >      221 </v>
   <v type="int" >      222 </v>
   <v type="int" >      223 </v>
   <v type="int" >      224 </v>
   <v type="int" >      225 </v>
   <v type="int" >      226 </v>
   <v type="int" >      227 </v>
   <v type="int" >      228 </v>
   <v type="int" >      229 </v>
   <v type="int" >      230 </v>
   <v type="int" >      231 </v>
   <v type="int" >      232 </v>
   <v type="int" >      233 </v>
   <v type="int" >      234 </v>
   <v type="int" >      235 </v>
   <v type="int" >      236 </v>
   <v type="int" >      237 </v>
   <v type="int" >      238 </v>
   <v type="int" >      239 </v>
   <v type="int" >      240 </v>
   <v type="int" >      241 </v>
   <v type="int" >      242 </v>
   <v type="int" >      243 </v>
   <v type="int" >      244 </v>
   <v type="int" >      245 </v>
   <v type="int" >      246 </v>
   <v type="int" >      247 </v>
   <v type="int" >      248 </v>
   <v type="int" >      249 </v>
   <v type="int" >      250 </v>
   <v type="int" >      251 </v>
   <v type="int" >      252 </v>
   <v type="int" >      253 </v>
   <v type="int" >      254 </v>
   <v type="int" >      255 </v>
   <v type="int" >      256 </v>
   <v type="int" >      257 </v>
   <v type="int" >      258 </v>
   <v type="int" >      259 </v>
   <v type="int" >      260 </v>
   <v type="int" >      261 </v>
   <v type="int" >      262 </v>
   <v type="int" >      263 </v>
   <v type="int" >      264 </v>
  </varray>
 </primitive_cell>
 <kpoints>
  <generation param="Gamma">
   <v type="int" name="divisions">       2        2        2 </v>
   <v name="usershift">      0.00000000       0.00000000       0.00000000 </v>
   <v name="genvec1">      0.50000000       0.00000000       0.00000000 </v>
   <v name="genvec2">      0.00000000       0.50000000       0.00000000 </v>
   <v name="genvec3">      0.00000000       0.00000000       0.50000000 </v>
   <v name="shift">      0.00000000       0.00000000       0.00000000 </v>
  </generation>
  <varray name="kpointlist" >
   <v>       0.00000000       0.00000000       0.00000000 </v>
   <v>       0.50000000       0.00000000       0.00000000 </v>
   <v>       0.00000000       0.50000000       0.00000000 </v>
   <v>       0.50000000       0.50000000       0.00000000 </v>
   <v>       0.00000000       0.00000000       0.50000000 </v>
   <v>       0.50000000       0.00000000       0.50000000 </v>
   <v>       0.00000000       0.50000000       0.50000000 </v>
   <v>       0.50000000       0.50000000       0.50000000 </v>
  </varray>
  <varray name="weights" >
   <v>       0.12500000 </v>
   <v>       0.12500000 </v>
   <v>       0.12500000 </v>
   <v>       0.12500000 </v>
   <v>       0.12500000 </v>
   <v>       0.12500000 </v>
   <v>       0.12500000 </v>
   <v>       0.12500000 </v>
  </varray>
 </kpoints>
 <parameters>
  <separator name="general" >
   <i type="string" name="SYSTEM">Si and Ge interface calculation</i>
   <i type="logical" name="LCOMPAT"> F  </i>
  </separator>
  <separator name="electronic" >
   <i type="string" name="PREC">normal</i>
   <i name="ENMAX">    700.00000000</i>
   <i name="ENAUG">    900.00000000</i>
   <i name="EDIFF">      0.00000010</i>
   <i type="int" name="IALGO">    38</i>
   <i type="int" name="IWAVPR">    10</i>
   <i type="int" name="NBANDS">   636</i>
   <i type="int" name="NBANDSLOW">    -1</i>
   <i type="int" name="NBANDSHIGH">    -1</i>
   <i name="NELECT">   1056.00000000</i>
   <i type="int" name="TURBO">     0</i>
   <i type="int" name="IRESTART">     0</i>
   <i type="int" name="NREBOOT">     0</i>
   <i type="int" name="NMIN">     0</i>
   <i name="EREF">      0.00000000</i>
   <separator name="electronic smearing" >
    <i type="int" name="ISMEAR">     0</i>
    <i name="SIGMA">      0.01000000</i>
    <i name="KSPACING">      0.50000000</i>
    <i type="logical" name="KGAMMA"> T  </i>
    <i type="logical" name="KBLOWUP"> T  </i>
   </separator>
   <separator name="electronic projectors" >
    <i type="logical" name="LREAL"> T  </i>
    <v name="ROPT">     -0.00050000     -0.00050000</v>
    <i type="int" name="LMAXPAW">  -100</i>
    <i type="int" name="LMAXMIX">     6</i>
    <i type="logical" name="NLSPLINE"> F  </i>
   </separator>
   <separator name="electronic startup" >
    <i type="int" name="ISTART">     0</i>
    <i type="int" name="ICHARG">     2</i>
    <i type="int" name="INIWAV">     1</i>
   </separator>
   <separator name="electronic spin" >
    <i type="int" name="ISPIN">     2</i>
    <i type="logical" name="LNONCOLLINEAR"> F  </i>
    <v name="MAGMOM">      0.00378788      0.00378788      0.00378788      0.00378788      0.00378788      0.00378788      0.00378788      0.00378788      0.00378788      0.00378788      0.00378788      0.00378788      0.00378788      0.00378788      0.00378788      0.00378788      0.00378788      0.00378788      0.00378788      0.00378788
      0.00378788      0.00378788      0.00378788      0.00378788      0.00378788      0.00378788      0.00378788      0.00378788      0.00378788      0.00378788      0.00378788      0.00378788      0.00378788      0.00378788      0.00378788      0.00378788      0.00378788      0.00378788      0.00378788      0.00378788
      0.00378788      0.00378788      0.00378788      0.00378788      0.00378788      0.00378788      0.00378788      0.00378788      0.00378788      0.00378788      0.00378788      0.00378788      0.00378788      0.00378788      0.00378788      0.00378788      0.00378788      0.00378788      0.00378788      0.00378788
      0.00378788      0.00378788      0.00378788      0.00378788      0.00378788      0.00378788      0.00378788      0.00378788      0.00378788      0.00378788      0.00378788      0.00378788      0.00378788      0.00378788      0.00378788      0.00378788      0.00378788      0.00378788      0.00378788      0.00378788
      0.00378788      0.00378788      0.00378788      0.00378788      0.00378788      0.00378788      0.00378788      0.00378788      0.00378788      0.00378788      0.00378788      0.00378788      0.00378788      0.00378788      0.00378788      0.00378788      0.00378788      0.00378788      0.00378788      0.00378788
      0.00378788      0.00378788      0.00378788      0.00378788      0.00378788      0.00378788      0.00378788      0.00378788      0.00378788      0.00378788      0.00378788      0.00378788      0.00378788      0.00378788      0.00378788      0.00378788      0.00378788      0.00378788      0.00378788      0.00378788
      0.00378788      0.00378788      0.00378788      0.00378788      0.00378788      0.00378788      0.00378788      0.00378788      0.00378788      0.00378788      0.00378788      0.00378788      0.00378788      0.00378788      0.00378788      0.00378788      0.00378788      0.00378788      0.00378788      0.00378788
      0.00378788      0.00378788      0.00378788      0.00378788      0.00378788      0.00378788      0.00378788      0.00378788      0.00378788      0.00378788      0.00378788      0.00378788      0.00378788      0.00378788      0.00378788      0.00378788      0.00378788      0.00378788      0.00378788      0.00378788
      0.00378788      0.00378788      0.00378788      0.00378788      0.00378788      0.00378788      0.00378788      0.00378788      0.00378788      0.00378788      0.00378788      0.00378788      0.00378788      0.00378788      0.00378788      0.00378788      0.00378788      0.00378788      0.00378788      0.00378788
      0.00378788      0.00378788      0.00378788      0.00378788      0.00378788      0.00378788      0.00378788      0.00378788      0.00378788      0.00378788      0.00378788      0.00378788      0.00378788      0.00378788      0.00378788      0.00378788      0.00378788      0.00378788      0.00378788      0.00378788
      0.00378788      0.00378788      0.00378788      0.00378788      0.00378788      0.00378788      0.00378788      0.00378788      0.00378788      0.00378788      0.00378788      0.00378788      0.00378788      0.00378788      0.00378788      0.00378788      0.00378788      0.00378788      0.00378788      0.00378788
      0.00378788      0.00378788      0.00378788      0.00378788      0.00378788      0.00378788      0.00378788      0.00378788      0.00378788      0.00378788      0.00378788      0.00378788      0.00378788      0.00378788      0.00378788      0.00378788      0.00378788      0.00378788      0.00378788      0.00378788
      0.00378788      0.00378788      0.00378788      0.00378788      0.00378788      0.00378788      0.00378788      0.00378788      0.00378788      0.00378788      0.00378788      0.00378788      0.00378788      0.00378788      0.00378788      0.00378788      0.00378788      0.00378788      0.00378788      0.00378788
      0.00378788      0.00378788      0.00378788      0.00378788</v>
    <i name="NUPDOWN">      1.00000000</i>
    <i type="logical" name="LSORBIT"> F  </i>
    <v name="SAXIS">      0.00000000      0.00000000      1.00000000</v>
    <i type="logical" name="LSPIRAL"> F  </i>
    <v name="QSPIRAL">      0.00000000      0.00000000      0.00000000</v>
    <i type="logical" name="LZEROZ"> F  </i>
   </separator>
   <separator name="electronic exchange-correlation" >
    <i type="logical" name="LASPH"> T  </i>
   </separator>
   <separator name="electronic convergence" >
    <i type="int" name="NELM">   100</i>
    <i type="int" name="NELMDL">    -5</i>
    <i type="int" name="NELMIN">     2</i>
    <i name="ENINI">    700.00000000</i>
    <separator name="electronic convergence detail" >
     <i type="logical" name="LDIAG"> T  </i>
     <i type="logical" name="LSUBROT"> F  </i>
     <i name="WEIMIN">      0.00000000</i>
     <i name="EBREAK">      0.00000000</i>
     <i name="DEPER">      0.30000000</i>
     <i type="int" name="NRMM">     4</i>
     <i name="TIME">      0.40000000</i>
    </separator>
   </separator>
   <separator name="electronic mixer" >
    <i name="AMIX">      0.60000000</i>
    <i name="BMIX">      1.00000000</i>
    <i name="AMIN">      0.10000000</i>
    <i name="AMIX_MAG">      2.40000000</i>
    <i name="BMIX_MAG">      1.00000000</i>
    <separator name="electronic mixer details" >
     <i type="int" name="IMIX">     4</i>
     <i type="logical" name="MIXFIRST"> F  </i>
     <i type="int" name="MAXMIX">   -45</i>
     <i name="WC">    100.00000000</i>
     <i type="int" name="INIMIX">     1</i>
     <i type="int" name="MIXPRE">     1</i>
     <i type="int" name="MREMOVE">     5</i>
    </separator>
   </separator>
   <separator name="electronic dipolcorrection" >
    <i type="logical" name="LDIPOL"> F  </i>
    <i type="logical" name="LMONO"> F  </i>
    <i type="int" name="IDIPOL">     0</i>
    <i name="EPSILON">      1.00000000</i>
    <v name="DIPOL">   -100.00000000   -100.00000000   -100.00000000</v>
    <i name="EFIELD">      0.00000000</i>
    <i type="logical" name="LVACPOTAV"> F  </i>
   </separator>
  </separator>
  <separator name="grids" >
   <i type="int" name="NGX">   126</i>
   <i type="int" name="NGY">   126</i>
   <i type="int" name="NGZ">   126</i>
   <i type="int" name="NGXF">   252</i>
   <i type="int" name="NGYF">   252</i>
   <i type="int" name="NGZF">   252</i>
   <i type="logical" name="ADDGRID"> T  </i>
  </separator>
  <separator name="ionic" >
   <i type="int" name="NSW">     0</i>
   <i type="int" name="IBRION">    -1</i>
   <i type="int" name="MDALGO">     0</i>
   <i type="int" name="ISIF">     2</i>
   <i name="PSTRESS">      0.00000000</i>
   <i name="EDIFFG">      0.00000100</i>
   <i type="int" name="NFREE">     0</i>
   <i name="POTIM">      0.50000000</i>
   <i name="SMASS">     -3.00000000</i>
   <i name="SCALEE">      1.00000000</i>
  </separator>
  <separator name="ionic md" >
   <i name="TEBEG">      0.00010000</i>
   <i name="TEEND">      0.00010000</i>
   <i type="int" name="NBLOCK">     1</i>
   <i type="int" name="KBLOCK">     1</i>
   <i type="int" name="NPACO">   256</i>
   <i name="APACO">     10.00000000</i>
  </separator>
  <separator name="symmetry" >
   <i type="int" name="ISYM">     2</i>
   <i name="SYMPREC">      0.00001000</i>
  </separator>
  <separator name="dos" >
   <i type="int" name="LORBIT">     0</i>
   <v name="RWIGS">     -1.00000000     -1.00000000</v>
   <i type="int" name="NEDOS">   301</i>
   <i name="EMIN">     10.00000000</i>
   <i name="EMAX">    -10.00000000</i>
   <i name="EFERMI">      0.00000000</i>
  </separator>
  <separator name="writing" >
   <i type="int" name="NWRITE">     2</i>
   <i type="logical" name="LWAVE"> F  </i>
   <i type="logical" name="LDOWNSAMPLE"> F  </i>
   <i type="logical" name="LCHARG"> T  </i>
   <i type="logical" name="LPARD"> F  </i>
   <i type="logical" name="LVTOT"> F  </i>
   <i type="logical" name="LVHAR"> T  </i>
   <i type="logical" name="LELF"> F  </i>
   <i type="logical" name="LOPTICS"> F  </i>
   <v name="STM">      0.00000000      0.00000000      0.00000000      0.00000000      0.00000000      0.00000000      0.00000000</v>
  </separator>
  <separator name="performance" >
   <i type="int" name="NPAR">     4</i>
   <i type="int" name="NSIM">     4</i>
   <i type="int" name="NBLK">    -1</i>
   <i type="logical" name="LPLANE"> T  </i>
   <i type="logical" name="LSCALAPACK"> T  </i>
   <i type="logical" name="LSCAAWARE"> F  </i>
   <i type="logical" name="LSCALU"> F  </i>
   <i type="logical" name="LASYNC"> F  </i>
   <i type="logical" name="LORBITALREAL"> F  </i>
  </separator>
  <separator name="miscellaneous" >
   <i type="int" name="IDIOT">     3</i>
   <i type="int" name="PHON_NSTRUCT">    -1</i>
   <i type="logical" name="LMUSIC"> F  </i>
   <v name="POMASS">    118.71000000     28.08500000</v>
   <v name="DARWINR">      0.00000000      0.00000000</v>
   <v name="DARWINV">      1.00000000      1.00000000</v>
   <i type="logical" name="LCORR"> T  </i>
  </separator>
  <i type="logical" name="GGA_COMPAT"> T  </i>
  <i type="logical" name="LBERRY"> F  </i>
  <i type="int" name="ICORELEVEL">     0</i>
  <i type="logical" name="LDAU"> F  </i>
  <i type="int" name="I_CONSTRAINED_M">     0</i>
  <separator name="electronic exchange-correlation" >
   <i type="string" name="GGA    ">PE</i>
   <i type="string" name="XC_C">1</i>
   <i type="int" name="VOSKOWN">     0</i>
   <i type="logical" name="LHFCALC"> F  </i>
   <i type="string" name="PRECFOCK"></i>
   <i type="logical" name="LSYMGRAD"> F  </i>
   <i type="logical" name="LHFONE"> F  </i>
   <i type="logical" name="LRHFCALC"> F  </i>
   <i type="logical" name="LTHOMAS"> F  </i>
   <i type="logical" name="LMODELHF"> F  </i>
   <i type="logical" name="LFOCKACE"> F  </i>
   <i name="ENCUT4O">     -1.00000000</i>
   <i type="int" name="EXXOEP">     0</i>
   <i type="int" name="FOURORBIT">     0</i>
   <i name="AEXX">      0.00000000</i>
   <i name="HFALPHA">      0.00000000</i>
   <i name="MCALPHA">      0.00000000</i>
   <i name="ALDAX">      1.00000000</i>
   <i name="AGGAX">      1.00000000</i>
   <i name="AMGGAX">      1.00000000</i>
   <i name="ALDAC">      1.00000000</i>
   <i name="AGGAC">      1.00000000</i>
   <i name="AMGGAC">      1.00000000</i>
   <i type="int" name="NKREDX">     1</i>
   <i type="int" name="NKREDY">     1</i>
   <i type="int" name="NKREDZ">     1</i>
   <i type="logical" name="SHIFTRED"> F  </i>
   <i type="logical" name="ODDONLY"> F  </i>
   <i type="logical" name="EVENONLY"> F  </i>
   <i type="int" name="LMAXFOCK">     0</i>
   <i type="int" name="NMAXFOCKAE">     0</i>
   <i type="logical" name="LFOCKAEDFT"> F  </i>
   <i name="HFSCREEN">      0.00000000</i>
   <i name="HFSCREENC">      0.00000000</i>
   <i type="int" name="NBANDSGWLOW">     0</i>
  </separator>
  <separator name="vdW DFT" >
   <i type="logical" name="LUSE_VDW"> F  </i>
   <i type="int" name="IVDW_NL">    -1</i>
   <i type="logical" name="LSPIN_VDW"> F  </i>
   <i name="ZAB_VDW">     -0.84910000</i>
   <i name="GAMMA_VDW">      1.39626340</i>
   <i name="ALPHA_VDW">      0.00000000</i>
   <i name="PARAM1">      0.12340000</i>
   <i name="PARAM2">      1.00000000</i>
   <i name="BPARAM">      6.30000000</i>
   <i name="CPARAM">      0.00930000</i>
  </separator>
  <separator name="model GW" >
   <i type="int" name="MODEL_GW">     0</i>
   <i name="MODEL_EPS0">     16.62398530</i>
   <i name="MODEL_ALPHA">      1.00000000</i>
  </separator>
  <separator name="linear response parameters" >
   <i type="logical" name="LEPSILON"> F  </i>
   <i type="logical" name="LRPA"> F  </i>
   <i type="logical" name="LNABLA"> F  </i>
   <i type="logical" name="LVEL"> F  </i>
   <i name="CSHIFT">      0.10000000</i>
   <i name="OMEGAMAX">     -1.00000000</i>
   <i name="DEG_THRESHOLD">      0.00200000</i>
   <i name="RTIME">     -0.10000000</i>
   <i name="WPLASMAI">      0.00000000</i>
   <v name="DFIELD">      0.00000000      0.00000000      0.00000000</v>
   <v name="WPLASMA">      0.00000000      0.00000000      0.00000000      0.00000000      0.00000000      0.00000000      0.00000000      0.00000000      0.00000000</v>
  </separator>
  <separator name="orbital magnetization" >
   <i type="logical" name="NUCIND"> F  </i>
   <v name="MAGPOS">      0.00000000      0.00000000      0.00000000</v>
   <i type="logical" name="LNICSALL"> T  </i>
   <i type="logical" name="ORBITALMAG"> F  </i>
   <i type="logical" name="LMAGBLOCH"> F  </i>
   <i type="logical" name="LCHIMAG"> F  </i>
   <i type="logical" name="LGAUGE"> T  </i>
   <i type="int" name="MAGATOM">     0</i>
   <v name="MAGDIPOL">      0.00000000      0.00000000      0.00000000</v>
   <v name="AVECCONST">      0.00000000      0.00000000      0.00000000</v>
  </separator>
  <separator name="response functions" >
   <i type="logical" name="LALL_IN_ONE"> F  </i>
   <i type="int" name="IALL_IN_ONE">    -1</i>
   <i type="int" name="NBANDS_WAVE">    -1</i>
   <i type="logical" name="LFINITE_TEMPERATURE"> F  </i>
   <i type="logical" name="LADDER"> F  </i>
   <i type="logical" name="LRPAFORCE"> F  </i>
   <i type="logical" name="LFXC"> F  </i>
   <i type="logical" name="LHARTREE"> T  </i>
   <i type="int" name="IBSE">     0</i>
   <v type="int" name="KPOINT">    -1     0     0     0</v>
   <i type="logical" name="LTCTC"> F  </i>
   <i type="logical" name="LTCTE"> F  </i>
   <i type="logical" name="LTETE"> F  </i>
   <i type="logical" name="LTRIPLET"> F  </i>
   <i type="logical" name="LFXCEPS"> F  </i>
   <i type="logical" name="LFXHEG"> F  </i>
   <i type="int" name="NATURALO">     2</i>
   <i type="logical" name="LHOLEGF"> F  </i>
   <i type="logical" name="L2ORDER"> F  </i>
   <i type="logical" name="LDMP1"> F  </i>
   <i type="logical" name="LMP2LT"> F  </i>
   <i type="logical" name="LSMP2LT"> F  </i>
   <i type="logical" name="LGWLF"> F  </i>
   <i name="ENCUTGW">     -1.60000002</i>
   <i name="ENCUTGWSOFT">     -1.60000002</i>
   <i name="ENCUTLF">     -1.00000000</i>
   <i type="logical" name="ESF_SPLINES"> F  </i>
   <i name="ESF_CONV">      0.01000000</i>
   <i type="int" name="ESF_NINTER">    15</i>
   <i type="int" name="LMAXMP2">    -1</i>
   <i name="SCISSOR">      0.00000000</i>
   <i type="int" name="NOMEGA">     0</i>
   <i type="int" name="NOMEGAR">     0</i>
   <i type="int" name="NBANDSGW">    -1</i>
   <i type="int" name="NBANDSO">    -1</i>
   <i type="int" name="NBANDSV">    -1</i>
   <i type="int" name="NELMGW">     1</i>
   <i type="int" name="NELMHF">     1</i>
   <i type="int" name="DIM">     3</i>
   <i type="int" name="IESPILON">     4</i>
   <i type="int" name="ANTIRES">     0</i>
   <i name="OMEGAMAX">    -30.00000000</i>
   <i name="OMEGAMIN">    -30.00000000</i>
   <i name="OMEGATL">   -200.00000000</i>
   <i type="int" name="OMEGAGRID">     0</i>
   <i name="CSHIFT">     -0.10000000</i>
   <i type="logical" name="LSELFENERGY"> F  </i>
   <i type="logical" name="LSPECTRAL"> F  </i>
   <i type="logical" name="LSPECTRALGW"> F  </i>
   <i type="logical" name="LSINGLES"> F  </i>
   <i type="logical" name="LFERMIGW"> F  </i>
   <i type="logical" name="ODDONLYGW"> F  </i>
   <i type="logical" name="EVENONLYGW"> F  </i>
   <i type="int" name="NKREDLFX">     1</i>
   <i type="int" name="NKREDLFY">     1</i>
   <i type="int" name="NKREDLFZ">     1</i>
   <i type="int" name="MAXMEM">  2800</i>
   <i type="int" name="TELESCOPE">     0</i>
   <i type="int" name="NTAUPAR">    -1</i>
   <i type="int" name="NOMEGAPAR">    -1</i>
   <i name="DAMP_NEWTON">      0.80000001</i>
   <i name="LAMBDA">      1.00000000</i>
  </separator>
  <separator name="External order field" >
   <i name="OFIELD_KAPPA">      0.00000000</i>
   <v name="OFIELD_K">      0.00000000      0.00000000      0.00000000</v>
   <i name="OFIELD_Q6_NEAR">      0.00000000</i>
   <i name="OFIELD_Q6_FAR">      0.00000000</i>
   <i name="OFIELD_A">      0.00000000</i>
  </separator>
  <separator name="optional k-points parameters" >
   <i type="int" name="KPOINTS_OPT_MODE">     1</i>
   <i type="logical" name="LKPOINTS_OPT"> F  </i>
  </separator>
 </parameters>
 <atominfo>
  <atoms>     264 </atoms>
  <types>       2 </types>
  <array name="atoms" >
   <dimension dim="1">ion</dimension>
   <field type="string">element</field>
   <field type="int">atomtype</field>
   <set>
    <rc><c>Sn</c><c>   1</c></rc>
    <rc><c>Sn</c><c>   1</c></rc>
    <rc><c>Sn</c><c>   1</c></rc>
    <rc><c>Sn</c><c>   1</c></rc>
    <rc><c>Sn</c><c>   1</c></rc>
    <rc><c>Sn</c><c>   1</c></rc>
    <rc><c>Sn</c><c>   1</c></rc>
    <rc><c>Sn</c><c>   1</c></rc>
    <rc><c>Sn</c><c>   1</c></rc>
    <rc><c>Sn</c><c>   1</c></rc>
    <rc><c>Sn</c><c>   1</c></rc>
    <rc><c>Sn</c><c>   1</c></rc>
    <rc><c>Sn</c><c>   1</c></rc>
    <rc><c>Sn</c><c>   1</c></rc>
    <rc><c>Sn</c><c>   1</c></rc>
    <rc><c>Sn</c><c>   1</c></rc>
    <rc><c>Sn</c><c>   1</c></rc>
    <rc><c>Sn</c><c>   1</c></rc>
    <rc><c>Sn</c><c>   1</c></rc>
    <rc><c>Sn</c><c>   1</c></rc>
    <rc><c>Sn</c><c>   1</c></rc>
    <rc><c>Sn</c><c>   1</c></rc>
    <rc><c>Sn</c><c>   1</c></rc>
    <rc><c>Sn</c><c>   1</c></rc>
    <rc><c>Sn</c><c>   1</c></rc>
    <rc><c>Sn</c><c>   1</c></rc>
    <rc><c>Sn</c><c>   1</c></rc>
    <rc><c>Sn</c><c>   1</c></rc>
    <rc><c>Sn</c><c>   1</c></rc>
    <rc><c>Sn</c><c>   1</c></rc>
    <rc><c>Sn</c><c>   1</c></rc>
    <rc><c>Sn</c><c>   1</c></rc>
    <rc><c>Sn</c><c>   1</c></rc>
    <rc><c>Sn</c><c>   1</c></rc>
    <rc><c>Sn</c><c>   1</c></rc>
    <rc><c>Sn</c><c>   1</c></rc>
    <rc><c>Sn</c><c>   1</c></rc>
    <rc><c>Sn</c><c>   1</c></rc>
    <rc><c>Sn</c><c>   1</c></rc>
    <rc><c>Sn</c><c>   1</c></rc>
    <rc><c>Sn</c><c>   1</c></rc>
    <rc><c>Sn</c><c>   1</c></rc>
    <rc><c>Sn</c><c>   1</c></rc>
    <rc><c>Sn</c><c>   1</c></rc>
    <rc><c>Sn</c><c>   1</c></rc>
    <rc><c>Sn</c><c>   1</c></rc>
    <rc><c>Sn</c><c>   1</c></rc>
    <rc><c>Sn</c><c>   1</c></rc>
    <rc><c>Sn</c><c>   1</c></rc>
    <rc><c>Sn</c><c>   1</c></rc>
    <rc><c>Sn</c><c>   1</c></rc>
    <rc><c>Sn</c><c>   1</c></rc>
    <rc><c>Sn</c><c>   1</c></rc>
    <rc><c>Sn</c><c>   1</c></rc>
    <rc><c>Sn</c><c>   1</c></rc>
    <rc><c>Sn</c><c>   1</c></rc>
    <rc><c>Sn</c><c>   1</c></rc>
    <rc><c>Sn</c><c>   1</c></rc>
    <rc><c>Sn</c><c>   1</c></rc>
    <rc><c>Sn</c><c>   1</c></rc>
    <rc><c>Sn</c><c>   1</c></rc>
    <rc><c>Sn</c><c>   1</c></rc>
    <rc><c>Sn</c><c>   1</c></rc>
    <rc><c>Sn</c><c>   1</c></rc>
    <rc><c>Sn</c><c>   1</c></rc>
    <rc><c>Sn</c><c>   1</c></rc>
    <rc><c>Sn</c><c>   1</c></rc>
    <rc><c>Sn</c><c>   1</c></rc>
    <rc><c>Sn</c><c>   1</c></rc>
    <rc><c>Sn</c><c>   1</c></rc>
    <rc><c>Sn</c><c>   1</c></rc>
    <rc><c>Sn</c><c>   1</c></rc>
    <rc><c>Sn</c><c>   1</c></rc>
    <rc><c>Sn</c><c>   1</c></rc>
    <rc><c>Sn</c><c>   1</c></rc>
    <rc><c>Sn</c><c>   1</c></rc>
    <rc><c>Sn</c><c>   1</c></rc>
    <rc><c>Sn</c><c>   1</c></rc>
    <rc><c>Sn</c><c>   1</c></rc>
    <rc><c>Sn</c><c>   1</c></rc>
    <rc><c>Sn</c><c>   1</c></rc>
    <rc><c>Sn</c><c>   1</c></rc>
    <rc><c>Sn</c><c>   1</c></rc>
    <rc><c>Sn</c><c>   1</c></rc>
    <rc><c>Sn</c><c>   1</c></rc>
    <rc><c>Sn</c><c>   1</c></rc>
    <rc><c>Sn</c><c>   1</c></rc>
    <rc><c>Sn</c><c>   1</c></rc>
    <rc><c>Sn</c><c>   1</c></rc>
    <rc><c>Sn</c><c>   1</c></rc>
    <rc><c>Sn</c><c>   1</c></rc>
    <rc><c>Sn</c><c>   1</c></rc>
    <rc><c>Sn</c><c>   1</c></rc>
    <rc><c>Sn</c><c>   1</c></rc>
    <rc><c>Sn</c><c>   1</c></rc>
    <rc><c>Sn</c><c>   1</c></rc>
    <rc><c>Sn</c><c>   1</c></rc>
    <rc><c>Sn</c><c>   1</c></rc>
    <rc><c>Sn</c><c>   1</c></rc>
    <rc><c>Sn</c><c>   1</c></rc>
    <rc><c>Sn</c><c>   1</c></rc>
    <rc><c>Sn</c><c>   1</c></rc>
    <rc><c>Sn</c><c>   1</c></rc>
    <rc><c>Sn</c><c>   1</c></rc>
    <rc><c>Sn</c><c>   1</c></rc>
    <rc><c>Sn</c><c>   1</c></rc>
    <rc><c>Sn</c><c>   1</c></rc>
    <rc><c>Sn</c><c>   1</c></rc>
    <rc><c>Si</c><c>   2</c></rc>
    <rc><c>Si</c><c>   2</c></rc>
    <rc><c>Si</c><c>   2</c></rc>
    <rc><c>Si</c><c>   2</c></rc>
    <rc><c>Si</c><c>   2</c></rc>
    <rc><c>Si</c><c>   2</c></rc>
    <rc><c>Si</c><c>   2</c></rc>
    <rc><c>Si</c><c>   2</c></rc>
    <rc><c>Si</c><c>   2</c></rc>
    <rc><c>Si</c><c>   2</c></rc>
    <rc><c>Si</c><c>   2</c></rc>
    <rc><c>Si</c><c>   2</c></rc>
    <rc><c>Si</c><c>   2</c></rc>
    <rc><c>Si</c><c>   2</c></rc>
    <rc><c>Si</c><c>   2</c></rc>
    <rc><c>Si</c><c>   2</c></rc>
    <rc><c>Si</c><c>   2</c></rc>
    <rc><c>Si</c><c>   2</c></rc>
    <rc><c>Si</c><c>   2</c></rc>
    <rc><c>Si</c><c>   2</c></rc>
    <rc><c>Si</c><c>   2</c></rc>
    <rc><c>Si</c><c>   2</c></rc>
    <rc><c>Si</c><c>   2</c></rc>
    <rc><c>Si</c><c>   2</c></rc>
    <rc><c>Si</c><c>   2</c></rc>
    <rc><c>Si</c><c>   2</c></rc>
    <rc><c>Si</c><c>   2</c></rc>
    <rc><c>Si</c><c>   2</c></rc>
    <rc><c>Si</c><c>   2</c></rc>
    <rc><c>Si</c><c>   2</c></rc>
    <rc><c>Si</c><c>   2</c></rc>
    <rc><c>Si</c><c>   2</c></rc>
    <rc><c>Si</c><c>   2</c></rc>
    <rc><c>Si</c><c>   2</c></rc>
    <rc><c>Si</c><c>   2</c></rc>
    <rc><c>Si</c><c>   2</c></rc>
    <rc><c>Si</c><c>   2</c></rc>
    <rc><c>Si</c><c>   2</c></rc>
    <rc><c>Si</c><c>   2</c></rc>
    <rc><c>Si</c><c>   2</c></rc>
    <rc><c>Si</c><c>   2</c></rc>
    <rc><c>Si</c><c>   2</c></rc>
    <rc><c>Si</c><c>   2</c></rc>
    <rc><c>Si</c><c>   2</c></rc>
    <rc><c>Si</c><c>   2</c></rc>
    <rc><c>Si</c><c>   2</c></rc>
    <rc><c>Si</c><c>   2</c></rc>
    <rc><c>Si</c><c>   2</c></rc>
    <rc><c>Si</c><c>   2</c></rc>
    <rc><c>Si</c><c>   2</c></rc>
    <rc><c>Si</c><c>   2</c></rc>
    <rc><c>Si</c><c>   2</c></rc>
    <rc><c>Si</c><c>   2</c></rc>
    <rc><c>Si</c><c>   2</c></rc>
    <rc><c>Si</c><c>   2</c></rc>
    <rc><c>Si</c><c>   2</c></rc>
    <rc><c>Si</c><c>   2</c></rc>
    <rc><c>Si</c><c>   2</c></rc>
    <rc><c>Si</c><c>   2</c></rc>
    <rc><c>Si</c><c>   2</c></rc>
    <rc><c>Si</c><c>   2</c></rc>
    <rc><c>Si</c><c>   2</c></rc>
    <rc><c>Si</c><c>   2</c></rc>
    <rc><c>Si</c><c>   2</c></rc>
    <rc><c>Si</c><c>   2</c></rc>
    <rc><c>Si</c><c>   2</c></rc>
    <rc><c>Si</c><c>   2</c></rc>
    <rc><c>Si</c><c>   2</c></rc>
    <rc><c>Si</c><c>   2</c></rc>
    <rc><c>Si</c><c>   2</c></rc>
    <rc><c>Si</c><c>   2</c></rc>
    <rc><c>Si</c><c>   2</c></rc>
    <rc><c>Si</c><c>   2</c></rc>
    <rc><c>Si</c><c>   2</c></rc>
    <rc><c>Si</c><c>   2</c></rc>
    <rc><c>Si</c><c>   2</c></rc>
    <rc><c>Si</c><c>   2</c></rc>
    <rc><c>Si</c><c>   2</c></rc>
    <rc><c>Si</c><c>   2</c></rc>
    <rc><c>Si</c><c>   2</c></rc>
    <rc><c>Si</c><c>   2</c></rc>
    <rc><c>Si</c><c>   2</c></rc>
    <rc><c>Si</c><c>   2</c></rc>
    <rc><c>Si</c><c>   2</c></rc>
    <rc><c>Si</c><c>   2</c></rc>
    <rc><c>Si</c><c>   2</c></rc>
    <rc><c>Si</c><c>   2</c></rc>
    <rc><c>Si</c><c>   2</c></rc>
    <rc><c>Si</c><c>   2</c></rc>
    <rc><c>Si</c><c>   2</c></rc>
    <rc><c>Si</c><c>   2</c></rc>
    <rc><c>Si</c><c>   2</c></rc>
    <rc><c>Si</c><c>   2</c></rc>
    <rc><c>Si</c><c>   2</c></rc>
    <rc><c>Si</c><c>   2</c></rc>
    <rc><c>Si</c><c>   2</c></rc>
    <rc><c>Si</c><c>   2</c></rc>
    <rc><c>Si</c><c>   2</c></rc>
    <rc><c>Si</c><c>   2</c></rc>
    <rc><c>Si</c><c>   2</c></rc>
    <rc><c>Si</c><c>   2</c></rc>
    <rc><c>Si</c><c>   2</c></rc>
    <rc><c>Si</c><c>   2</c></rc>
    <rc><c>Si</c><c>   2</c></rc>
    <rc><c>Si</c><c>   2</c></rc>
    <rc><c>Si</c><c>   2</c></rc>
    <rc><c>Si</c><c>   2</c></rc>
    <rc><c>Si</c><c>   2</c></rc>
    <rc><c>Si</c><c>   2</c></rc>
    <rc><c>Si</c><c>   2</c></rc>
    <rc><c>Si</c><c>   2</c></rc>
    <rc><c>Si</c><c>   2</c></rc>
    <rc><c>Si</c><c>   2</c></rc>
    <rc><c>Si</c><c>   2</c></rc>
    <rc><c>Si</c><c>   2</c></rc>
    <rc><c>Si</c><c>   2</c></rc>
    <rc><c>Si</c><c>   2</c></rc>
    <rc><c>Si</c><c>   2</c></rc>
    <rc><c>Si</c><c>   2</c></rc>
    <rc><c>Si</c><c>   2</c></rc>
    <rc><c>Si</c><c>   2</c></rc>
    <rc><c>Si</c><c>   2</c></rc>
    <rc><c>Si</c><c>   2</c></rc>
    <rc><c>Si</c><c>   2</c></rc>
    <rc><c>Si</c><c>   2</c></rc>
    <rc><c>Si</c><c>   2</c></rc>
    <rc><c>Si</c><c>   2</c></rc>
    <rc><c>Si</c><c>   2</c></rc>
    <rc><c>Si</c><c>   2</c></rc>
    <rc><c>Si</c><c>   2</c></rc>
    <rc><c>Si</c><c>   2</c></rc>
    <rc><c>Si</c><c>   2</c></rc>
    <rc><c>Si</c><c>   2</c></rc>
    <rc><c>Si</c><c>   2</c></rc>
    <rc><c>Si</c><c>   2</c></rc>
    <rc><c>Si</c><c>   2</c></rc>
    <rc><c>Si</c><c>   2</c></rc>
    <rc><c>Si</c><c>   2</c></rc>
    <rc><c>Si</c><c>   2</c></rc>
    <rc><c>Si</c><c>   2</c></rc>
    <rc><c>Si</c><c>   2</c></rc>
    <rc><c>Si</c><c>   2</c></rc>
    <rc><c>Si</c><c>   2</c></rc>
    <rc><c>Si</c><c>   2</c></rc>
    <rc><c>Si</c><c>   2</c></rc>
    <rc><c>Si</c><c>   2</c></rc>
    <rc><c>Si</c><c>   2</c></rc>
    <rc><c>Si</c><c>   2</c></rc>
    <rc><c>Si</c><c>   2</c></rc>
    <rc><c>Si</c><c>   2</c></rc>
    <rc><c>Si</c><c>   2</c></rc>
    <rc><c>Si</c><c>   2</c></rc>
    <rc><c>Si</c><c>   2</c></rc>
    <rc><c>Si</c><c>   2</c></rc>
    <rc><c>Si</c><c>   2</c></rc>
    <rc><c>Si</c><c>   2</c></rc>
   </set>
  </array>
  <array name="atomtypes" >
   <dimension dim="1">type</dimension>
   <field type="int">atomspertype</field>
   <field type="string">element</field>
   <field>mass</field>
   <field>valence</field>
   <field type="string">pseudopotential</field>
   <set>
    <rc><c> 108</c><c>Sn</c><c>    118.71000000</c><c>      4.00000000</c><c>  PAW_PBE Sn 08Apr2002                  </c></rc>
    <rc><c> 156</c><c>Si</c><c>     28.08500000</c><c>      4.00000000</c><c>  PAW_PBE Si 05Jan2001                  </c></rc>
   </set>
  </array>
 </atominfo>
 <structure name="initialpos" >
  <crystal>
   <varray name="basis" >
    <v>      19.46759987       0.00000000       0.00000000 </v>
    <v>       0.00000000      19.46759987       0.00000000 </v>
    <v>       0.00000000       0.00000000      19.30025291 </v>
   </varray>
   <i name="volume">   7314.55353316 </i>
   <varray name="rec_basis" >
    <v>       0.05136740       0.00000000       0.00000000 </v>
    <v>       0.00000000       0.05136740       0.00000000 </v>
    <v>       0.00000000       0.00000000       0.05181279 </v>
   </varray>
  </crystal>
  <varray name="positions" >
   <v>       0.99503511       0.66666669       0.00000000 </v>
   <v>       0.82836843       0.66666669       0.16811179 </v>
   <v>       0.91936642       0.85444313       0.53426754 </v>
   <v>       0.99503511       0.33333334       0.00000000 </v>
   <v>       0.66936624       0.10444319       0.88601178 </v>
   <v>       0.15013567       0.70059687       0.53426754 </v>
   <v>       0.59244329       0.48905852       0.88601178 </v>
   <v>       0.82836843       0.00000000       0.16811179 </v>
   <v>       0.26552033       0.12367377       0.53426754 </v>
   <v>       0.32836846       0.66666669       0.00000000 </v>
   <v>       0.16170174       0.66666669       0.16811179 </v>
   <v>       0.86167425       0.14290453       0.60461640 </v>
   <v>       0.32836846       0.33333334       0.00000000 </v>
   <v>       0.16170174       0.33333334       0.16811179 </v>
   <v>       0.99503511       0.33333334       0.33622354 </v>
   <v>       0.09244316       0.98905855       0.88601178 </v>
   <v>       0.16170174       0.00000000       0.16811179 </v>
   <v>       0.99503511       0.00000000       0.33622354 </v>
   <v>       0.93859696       0.75828928       0.88601178 </v>
   <v>       0.49503511       0.66666669       0.16811179 </v>
   <v>       0.32836846       0.66666669       0.33622354 </v>
   <v>       0.05398166       0.18136621       0.88601178 </v>
   <v>       0.13090470       0.79675090       0.88601178 </v>
   <v>       0.32836846       0.33333334       0.33622354 </v>
   <v>       0.66170180       0.00000000       0.00000000 </v>
   <v>       0.01552010       0.37367386       0.88601178 </v>
   <v>       0.32836846       0.00000000       0.33622354 </v>
   <v>       0.07836843       0.91666675       0.08405589 </v>
   <v>       0.91170180       0.91666675       0.25216761 </v>
   <v>       0.74503505       0.91666675       0.42027944 </v>
   <v>       0.24628940       0.21982789       0.88601178 </v>
   <v>       0.91170180       0.58333343       0.25216761 </v>
   <v>       0.74503505       0.58333343       0.42027944 </v>
   <v>       0.07836843       0.25000000       0.08405589 </v>
   <v>       0.91170180       0.25000000       0.25216761 </v>
   <v>       0.34244341       0.73905850       0.53426754 </v>
   <v>       0.41170177       0.91666675       0.08405589 </v>
   <v>       0.24503510       0.91666675       0.25216761 </v>
   <v>       0.07836838       0.91666675       0.42027944 </v>
   <v>       0.41170177       0.58333343       0.08405589 </v>
   <v>       0.88090491       0.04675078       0.53426754 </v>
   <v>       0.07836838       0.58333343       0.42027944 </v>
   <v>       0.41170177       0.25000000       0.08405589 </v>
   <v>       0.76552028       0.62367380       0.53426754 </v>
   <v>       0.84244347       0.23905837       0.53426754 </v>
   <v>       0.74503517       0.91666675       0.08405589 </v>
   <v>       0.57836855       0.91666675       0.25216761 </v>
   <v>       0.68859720       0.00828922       0.53426754 </v>
   <v>       0.74503517       0.58333343       0.08405589 </v>
   <v>       0.41936651       0.35444304       0.53426754 </v>
   <v>       0.80398190       0.43136618       0.53426754 </v>
   <v>       0.74503517       0.25000000       0.08405589 </v>
   <v>       0.57836855       0.25000000       0.25216761 </v>
   <v>       0.41170180       0.25000000       0.42027944 </v>
   <v>       0.16170177       0.83333331       0.00000000 </v>
   <v>       0.45782784       0.16213548       0.81566292 </v>
   <v>       0.99628961       0.46982759       0.53426754 </v>
   <v>       0.16170177       0.50000000       0.00000000 </v>
   <v>       0.47705862       0.06598163       0.88601178 </v>
   <v>       0.82836843       0.50000000       0.33622354 </v>
   <v>       0.97705853       0.56598157       0.88601178 </v>
   <v>       0.78475076       0.52752006       0.88601178 </v>
   <v>       0.82836843       0.16666667       0.33622354 </v>
   <v>       0.49503511       0.83333331       0.00000000 </v>
   <v>       0.32836843       0.83333331       0.16811179 </v>
   <v>       0.16170175       0.83333331       0.33622354 </v>
   <v>       0.49503511       0.50000000       0.00000000 </v>
   <v>       0.32836843       0.50000000       0.16811179 </v>
   <v>       0.16170175       0.50000000       0.33622354 </v>
   <v>       0.82321233       0.33521238       0.88601178 </v>
   <v>       0.32836843       0.16666667       0.16811179 </v>
   <v>       0.16170175       0.16666667       0.33622354 </v>
   <v>       0.82836855       0.83333331       0.00000000 </v>
   <v>       0.90013546       0.95059699       0.88601178 </v>
   <v>       0.49503520       0.83333331       0.33622354 </v>
   <v>       0.82836855       0.50000000       0.00000000 </v>
   <v>       0.86167389       0.14290464       0.88601178 </v>
   <v>       0.49503520       0.50000000       0.33622354 </v>
   <v>       0.82836855       0.16666667       0.00000000 </v>
   <v>       0.66170186       0.16666667       0.16811179 </v>
   <v>       0.49503520       0.16666667       0.33622354 </v>
   <v>       0.24503510       0.75000006       0.08405589 </v>
   <v>       0.07836843       0.75000006       0.25216761 </v>
   <v>       0.91170174       0.75000006       0.42027944 </v>
   <v>       0.11167400       0.89290476       0.81566292 </v>
   <v>       0.07836843       0.41666672       0.25216761 </v>
   <v>       0.72705871       0.81598151       0.53426754 </v>
   <v>       0.24503510       0.08333334       0.08405589 </v>
   <v>       0.07836843       0.08333334       0.25216761 </v>
   <v>       0.91170174       0.08333334       0.42027944 </v>
   <v>       0.57836848       0.75000006       0.08405589 </v>
   <v>       0.61167419       0.39290458       0.53426754 </v>
   <v>       0.24503513       0.75000006       0.42027944 </v>
   <v>       0.57836848       0.41666672       0.08405589 </v>
   <v>       0.41170186       0.41666672       0.25216761 </v>
   <v>       0.57321262       0.58521235       0.53426754 </v>
   <v>       0.57836848       0.08333334       0.08405589 </v>
   <v>       0.65013564       0.20059687       0.53426754 </v>
   <v>       0.24503513       0.08333334       0.42027944 </v>
   <v>       0.51552010       0.87367392       0.88601178 </v>
   <v>       0.22705877       0.31598148       0.53426754 </v>
   <v>       0.57836837       0.75000006       0.42027944 </v>
   <v>       0.16936630       0.60444313       0.88601178 </v>
   <v>       0.53475112       0.77751988       0.53426754 </v>
   <v>       0.57836837       0.41666672       0.42027944 </v>
   <v>       0.40013558       0.45059699       0.88601178 </v>
   <v>       0.20782799       0.41213533       0.60461640 </v>
   <v>       0.57836837       0.08333334       0.42027944 </v>
   <v>       0.07836838       0.25000000       0.42027944 </v>
   <v>       0.72705877       0.31598151       0.67496520 </v>
   <v>       0.61167407       0.39290467       0.81566292 </v>
   <v>       0.82836843       0.83333331       0.33622354 </v>
   <v>       0.88090491       0.54675066       0.67496520 </v>
   <v>       0.76552022       0.62367386       0.81566292 </v>
   <v>       0.45782804       0.16213530       0.53426754 </v>
   <v>       0.34244335       0.23905843       0.67496520 </v>
   <v>       0.22705865       0.31598157       0.81566292 </v>
   <v>       0.41170186       0.75000006       0.25216761 </v>
   <v>       0.49628949       0.46982771       0.67496520 </v>
   <v>       0.38090479       0.54675084       0.81566292 </v>
   <v>       0.24503510       0.25000000       0.25216761 </v>
   <v>       0.65013558       0.70059693       0.67496520 </v>
   <v>       0.53475088       0.77752006       0.81566292 </v>
   <v>       0.66170174       0.66666669       0.33622354 </v>
   <v>       0.80398172       0.93136627       0.67496520 </v>
   <v>       0.68859702       0.00828934       0.81566292 </v>
   <v>       0.07321262       0.08521221       0.53426754 </v>
   <v>       0.95782787       0.16213533       0.67496520 </v>
   <v>       0.84244317       0.23905846       0.81566292 </v>
   <v>       0.74503505       0.75000006       0.25216761 </v>
   <v>       0.11167407       0.39290461       0.67496520 </v>
   <v>       0.99628931       0.46982774       0.81566292 </v>
   <v>       0.38090494       0.54675072       0.53426754 </v>
   <v>       0.26552022       0.62367386       0.67496520 </v>
   <v>       0.15013552       0.70059699       0.81566292 </v>
   <v>       0.74503505       0.41666672       0.25216761 </v>
   <v>       0.41936642       0.85444301       0.67496520 </v>
   <v>       0.30398169       0.93136615       0.81566292 </v>
   <v>       0.41170180       0.91666675       0.42027944 </v>
   <v>       0.57321250       0.08521234       0.67496520 </v>
   <v>       0.99503505       0.83333331       0.16811179 </v>
   <v>       0.66170174       0.33333334       0.33622354 </v>
   <v>       0.03475094       0.77752000       0.67496520 </v>
   <v>       0.91936624       0.85444319       0.81566292 </v>
   <v>       0.30398187       0.93136609       0.53426754 </v>
   <v>       0.18859717       0.00828910       0.67496520 </v>
   <v>       0.07321238       0.08521234       0.81566292 </v>
   <v>       0.05398178       0.18136609       0.60461640 </v>
   <v>       0.93859708       0.25828922       0.74531406 </v>
   <v>       0.49503511       0.16666667       0.00000000 </v>
   <v>       0.66936642       0.10444307       0.60461640 </v>
   <v>       0.55398178       0.18136621       0.74531406 </v>
   <v>       0.43859702       0.25828934       0.88601178 </v>
   <v>       0.82321268       0.33521223       0.60461640 </v>
   <v>       0.70782799       0.41213539       0.74531406 </v>
   <v>       0.99503511       0.00000000       0.00000000 </v>
   <v>       0.97705877       0.56598145       0.60461640 </v>
   <v>       0.86167407       0.64290464       0.74531406 </v>
   <v>       0.74628931       0.71982777       0.88601178 </v>
   <v>       0.43859726       0.25828916       0.60461640 </v>
   <v>       0.32321256       0.33521229       0.74531406 </v>
   <v>       0.20782784       0.41213542       0.88601178 </v>
   <v>       0.59244335       0.48905846       0.60461640 </v>
   <v>       0.47705868       0.56598157       0.74531406 </v>
   <v>       0.36167395       0.64290476       0.88601178 </v>
   <v>       0.74628949       0.71982765       0.60461640 </v>
   <v>       0.63090479       0.79675078       0.74531406 </v>
   <v>       0.91170174       0.75000006       0.08405589 </v>
   <v>       0.90013564       0.95059693       0.60461640 </v>
   <v>       0.78475094       0.02752006       0.74531406 </v>
   <v>       0.82836843       0.33333334       0.16811179 </v>
   <v>       0.74503505       0.08333334       0.25216761 </v>
   <v>       0.09244330       0.48905843       0.74531406 </v>
   <v>       0.16170177       0.16666667       0.00000000 </v>
   <v>       0.36167413       0.64290464       0.60461640 </v>
   <v>       0.24628943       0.71982771       0.74531406 </v>
   <v>       0.49503511       0.33333334       0.16811179 </v>
   <v>       0.51552028       0.87367380       0.60461640 </v>
   <v>       0.40013558       0.95059693       0.74531406 </v>
   <v>       0.28475085       0.02752006       0.88601178 </v>
   <v>       0.13090490       0.79675072       0.60461640 </v>
   <v>       0.01552022       0.87367392       0.74531406 </v>
   <v>       0.66170186       0.83333331       0.16811179 </v>
   <v>       0.28475106       0.02751994       0.60461640 </v>
   <v>       0.16936633       0.10444307       0.74531406 </v>
   <v>       0.66170180       0.33333334       0.00000000 </v>
   <v>       0.03475106       0.27751997       0.53426754 </v>
   <v>       0.91936636       0.35444310       0.67496520 </v>
   <v>       0.80398166       0.43136627       0.81566292 </v>
   <v>       0.41170186       0.08333334       0.25216761 </v>
   <v>       0.53475094       0.27752000       0.67496520 </v>
   <v>       0.41936627       0.35444313       0.81566292 </v>
   <v>       0.41170180       0.58333343       0.42027944 </v>
   <v>       0.68859714       0.50828928       0.67496520 </v>
   <v>       0.57321250       0.58521247       0.81566292 </v>
   <v>       0.95782804       0.66213542       0.53426754 </v>
   <v>       0.84244329       0.73905855       0.67496520 </v>
   <v>       0.72705859       0.81598169       0.81566292 </v>
   <v>       0.66170174       0.00000000       0.33622354 </v>
   <v>       0.15013564       0.20059690       0.67496520 </v>
   <v>       0.03475094       0.27752003       0.81566292 </v>
   <v>       0.57836855       0.58333343       0.25216761 </v>
   <v>       0.30398181       0.43136618       0.67496520 </v>
   <v>       0.18859708       0.50828928       0.81566292 </v>
   <v>       0.24503513       0.41666672       0.42027944 </v>
   <v>       0.45782793       0.66213548       0.67496520 </v>
   <v>       0.34244323       0.73905861       0.81566292 </v>
   <v>       0.91170174       0.41666672       0.42027944 </v>
   <v>       0.61167401       0.89290464       0.67496520 </v>
   <v>       0.49628934       0.96982777       0.81566292 </v>
   <v>       0.24503510       0.58333343       0.25216761 </v>
   <v>       0.76552022       0.12367391       0.67496520 </v>
   <v>       0.65013552       0.20059705       0.81566292 </v>
   <v>       0.18859723       0.50828922       0.53426754 </v>
   <v>       0.07321250       0.58521235       0.67496520 </v>
   <v>       0.95782781       0.66213548       0.81566292 </v>
   <v>       0.74503505       0.25000000       0.42027944 </v>
   <v>       0.22705871       0.81598163       0.67496520 </v>
   <v>       0.24503510       0.41666672       0.08405589 </v>
   <v>       0.49628958       0.96982771       0.53426754 </v>
   <v>       0.38090485       0.04675078       0.67496520 </v>
   <v>       0.26552015       0.12367391       0.81566292 </v>
   <v>       0.11167413       0.89290458       0.53426754 </v>
   <v>       0.99628943       0.96982771       0.67496520 </v>
   <v>       0.88090467       0.04675078       0.81566292 </v>
   <v>       0.99503511       0.66666669       0.33622354 </v>
   <v>       0.74628949       0.21982768       0.74531406 </v>
   <v>       0.63090479       0.29675081       0.88601178 </v>
   <v>       0.01552022       0.37367377       0.60461640 </v>
   <v>       0.90013552       0.45059693       0.74531406 </v>
   <v>       0.99503505       0.16666667       0.16811179 </v>
   <v>       0.63090497       0.29675070       0.60461640 </v>
   <v>       0.51552028       0.37367383       0.74531406 </v>
   <v>       0.91170174       0.08333334       0.08405589 </v>
   <v>       0.78475118       0.52751994       0.60461640 </v>
   <v>       0.66936648       0.60444307       0.74531406 </v>
   <v>       0.55398178       0.68136621       0.88601178 </v>
   <v>       0.93859738       0.75828922       0.60461640 </v>
   <v>       0.82321268       0.83521235       0.74531406 </v>
   <v>       0.70782793       0.91213548       0.88601178 </v>
   <v>       0.24628955       0.21982756       0.60461640 </v>
   <v>       0.13090484       0.29675070       0.74531406 </v>
   <v>       0.49503511       0.00000000       0.16811179 </v>
   <v>       0.40013573       0.45059687       0.60461640 </v>
   <v>       0.28475103       0.52752000       0.74531406 </v>
   <v>       0.91170174       0.41666672       0.08405589 </v>
   <v>       0.55398184       0.68136609       0.60461640 </v>
   <v>       0.43859717       0.75828922       0.74531406 </v>
   <v>       0.32321242       0.83521235       0.88601178 </v>
   <v>       0.70782804       0.91213542       0.60461640 </v>
   <v>       0.59244335       0.98905855       0.74531406 </v>
   <v>       0.99503505       0.50000000       0.16811179 </v>
   <v>       0.16936642       0.60444301       0.60461640 </v>
   <v>       0.05398178       0.68136615       0.74531406 </v>
   <v>       0.66170180       0.66666669       0.00000000 </v>
   <v>       0.32321259       0.83521223       0.60461640 </v>
   <v>       0.20782790       0.91213536       0.74531406 </v>
   <v>       0.32836846       0.00000000       0.00000000 </v>
   <v>       0.47705883       0.06598151       0.60461640 </v>
   <v>       0.36167413       0.14290476       0.74531406 </v>
   <v>       0.07836843       0.58333343       0.08405589 </v>
   <v>       0.09244336       0.98905837       0.60461640 </v>
   <v>       0.97705859       0.06598151       0.74531406 </v>
   <v>       0.66170186       0.50000000       0.16811179 </v>
  </varray>
 </structure>
 <calculation>
  <scstep>
   <time name="dav">  207.18  209.07</time>
   <time name="total">  210.40  212.31</time>
   <energy>
    <i name="alphaZ">    677.14420481 </i>
    <i name="ewald"> -18716.24843825 </i>
    <i name="hartreedc">  -9792.98570281 </i>
    <i name="XCdc"> -14260.52794910 </i>
    <i name="pawpsdc">  34204.16796134 </i>
    <i name="pawaedc"> -18083.40668920 </i>
    <i name="eentropy">     -0.00292690 </i>
    <i name="bandstr">   4379.84038872 </i>
    <i name="atom">  26239.67945397 </i>
    <i name="e_fr_energy">   4647.66030257 </i>
    <i name="e_wo_entrp">   4647.66322947 </i>
    <i name="e_0_energy">   4647.66176602 </i>
   </energy>
  </scstep>
  <scstep>
   <time name="dav">  236.27  238.34</time>
   <time name="total">  236.28  238.35</time>
   <energy>
    <i name="e_fr_energy">   -599.07067964 </i>
    <i name="e_wo_entrp">   -599.06675357 </i>
    <i name="e_0_energy">   -599.06871660 </i>
   </energy>
  </scstep>
  <scstep>
   <time name="dav">  253.09  255.46</time>
   <time name="total">  253.09  255.47</time>
   <energy>
    <i name="e_fr_energy">  -1132.59223301 </i>
    <i name="e_wo_entrp">  -1132.58716499 </i>
    <i name="e_0_energy">  -1132.58969900 </i>
   </energy>
  </scstep>
  <scstep>
   <time name="dav">  242.91  245.29</time>
   <time name="total">  242.91  245.29</time>
   <energy>
    <i name="e_fr_energy">  -1154.89240127 </i>
    <i name="e_wo_entrp">  -1154.88698450 </i>
    <i name="e_0_energy">  -1154.88969289 </i>
   </energy>
  </scstep>
  <scstep>
   <time name="dav">  274.06  276.78</time>
   <time name="total">  283.44  286.29</time>
   <energy>
    <i name="e_fr_energy">  -1155.92352889 </i>
    <i name="e_wo_entrp">  -1155.91804551 </i>
    <i name="e_0_energy">  -1155.92078720 </i>
   </energy>
  </scstep>
  <scstep>
   <time name="dav">  293.86  296.45</time>
   <time name="total">  307.10  309.79</time>
   <energy>
    <i name="e_fr_energy">  -1124.92939787 </i>
    <i name="e_wo_entrp">  -1124.92426875 </i>
    <i name="e_0_energy">  -1124.92683331 </i>
   </energy>
  </scstep>
  <scstep>
   <time name="dav">  253.00  255.27</time>
   <time name="total">  266.24  268.62</time>
   <energy>
    <i name="e_fr_energy">  -1123.29097754 </i>
    <i name="e_wo_entrp">  -1123.28637154 </i>
    <i name="e_0_energy">  -1123.28867454 </i>
   </energy>
  </scstep>
  <scstep>
   <time name="dav">  240.23  242.34</time>
   <time name="total">  253.50  255.71</time>
   <energy>
    <i name="e_fr_energy">  -1120.62673215 </i>
    <i name="e_wo_entrp">  -1120.62212277 </i>
    <i name="e_0_energy">  -1120.62442746 </i>
   </energy>
  </scstep>
  <scstep>
   <time name="dav">  248.74  250.96</time>
   <time name="total">  261.75  264.08</time>
   <energy>
    <i name="e_fr_energy">  -1120.68574567 </i>
    <i name="e_wo_entrp">  -1120.68178156 </i>
    <i name="e_0_energy">  -1120.68376361 </i>
   </energy>
  </scstep>
  <scstep>
   <time name="dav">  241.00  243.15</time>
   <time name="total">  254.01  256.26</time>
   <energy>
    <i name="e_fr_energy">  -1120.56672576 </i>
    <i name="e_wo_entrp">  -1120.56249567 </i>
    <i name="e_0_energy">  -1120.56461072 </i>
   </energy>
  </scstep>
  <scstep>
   <time name="dav">  236.02  238.14</time>
   <time name="total">  249.00  251.23</time>
   <energy>
    <i name="e_fr_energy">  -1120.55630827 </i>
    <i name="e_wo_entrp">  -1120.55198724 </i>
    <i name="e_0_energy">  -1120.55414776 </i>
   </energy>
  </scstep>
  <scstep>
   <time name="dav">  236.99  239.14</time>
   <time name="total">  249.98  252.23</time>
   <energy>
    <i name="e_fr_energy">  -1120.55724392 </i>
    <i name="e_wo_entrp">  -1120.55331343 </i>
    <i name="e_0_energy">  -1120.55527868 </i>
   </energy>
  </scstep>
  <scstep>
   <time name="dav">  238.84  241.00</time>
   <time name="total">  251.83  254.10</time>
   <energy>
    <i name="e_fr_energy">  -1120.55484714 </i>
    <i name="e_wo_entrp">  -1120.55077741 </i>
    <i name="e_0_energy">  -1120.55281228 </i>
   </energy>
  </scstep>
  <scstep>
   <time name="dav">  240.16  242.49</time>
   <time name="total">  253.17  255.60</time>
   <energy>
    <i name="e_fr_energy">  -1120.55446824 </i>
    <i name="e_wo_entrp">  -1120.55035068 </i>
    <i name="e_0_energy">  -1120.55240946 </i>
   </energy>
  </scstep>
  <scstep>
   <time name="dav">  238.06  240.50</time>
   <time name="total">  251.25  253.79</time>
   <energy>
    <i name="e_fr_energy">  -1120.55407542 </i>
    <i name="e_wo_entrp">  -1120.55000102 </i>
    <i name="e_0_energy">  -1120.55203822 </i>
   </energy>
  </scstep>
  <scstep>
   <time name="dav">  232.23  234.34</time>
   <time name="total">  245.38  247.63</time>
   <energy>
    <i name="e_fr_energy">  -1120.55402815 </i>
    <i name="e_wo_entrp">  -1120.54993831 </i>
    <i name="e_0_energy">  -1120.55198323 </i>
   </energy>
  </scstep>
  <scstep>
   <time name="dav">  231.15  233.36</time>
   <time name="total">  244.32  246.65</time>
   <energy>
    <i name="e_fr_energy">  -1120.55403554 </i>
    <i name="e_wo_entrp">  -1120.54995386 </i>
    <i name="e_0_energy">  -1120.55199470 </i>
   </energy>
  </scstep>
  <scstep>
   <time name="dav">  233.70  235.96</time>
   <time name="total">  246.85  249.22</time>
   <energy>
    <i name="e_fr_energy">  -1120.55404121 </i>
    <i name="e_wo_entrp">  -1120.54995482 </i>
    <i name="e_0_energy">  -1120.55199801 </i>
   </energy>
  </scstep>
  <scstep>
   <time name="dav">  231.23  233.38</time>
   <time name="total">  244.39  246.65</time>
   <energy>
    <i name="e_fr_energy">  -1120.55403680 </i>
    <i name="e_wo_entrp">  -1120.54995066 </i>
    <i name="e_0_energy">  -1120.55199373 </i>
   </energy>
  </scstep>
  <scstep>
   <time name="dav">  240.46  242.69</time>
   <time name="total">  253.62  255.96</time>
[...]
       <r>     3.9083    35.9265  1044.7439 </r>
       <r>     3.9601    55.3990  1047.6139 </r>
       <r>     4.0119    75.9594  1051.5491 </r>
       <r>     4.0637    80.4416  1055.7165 </r>
       <r>     4.1155   100.2906  1060.9121 </r>
       <r>     4.1673    91.0174  1065.6274 </r>
       <r>     4.2191   120.1494  1071.8519 </r>
       <r>     4.2709    84.8818  1076.2493 </r>
       <r>     4.3227    83.5208  1080.5762 </r>
       <r>     4.3745   117.3898  1086.6577 </r>
       <r>     4.4264   117.5149  1092.7457 </r>
       <r>     4.4782   114.3638  1098.6704 </r>
       <r>     4.5300   115.2986  1104.6436 </r>
       <r>     4.5818    96.3676  1109.6360 </r>
       <r>     4.6336   107.1904  1115.1892 </r>
       <r>     4.6854   108.4055  1120.8052 </r>
       <r>     4.7372   130.2950  1127.5553 </r>
       <r>     4.7890   118.5719  1133.6981 </r>
       <r>     4.8408   115.0575  1139.6588 </r>
       <r>     4.8926   110.1300  1145.3642 </r>
       <r>     4.9444   116.5543  1151.4024 </r>
       <r>     4.9962   113.6197  1157.2886 </r>
       <r>     5.0480   114.7651  1163.2342 </r>
       <r>     5.0998   135.8226  1170.2706 </r>
       <r>     5.1516    95.1648  1175.2007 </r>
       <r>     5.2034   114.4470  1181.1298 </r>
       <r>     5.2553   119.8596  1187.3393 </r>
       <r>     5.3071   103.6805  1192.7106 </r>
       <r>     5.3589   120.4125  1198.9487 </r>
       <r>     5.4107   127.9535  1205.5775 </r>
       <r>     5.4625   144.7113  1213.0744 </r>
       <r>     5.5143   144.7719  1220.5745 </r>
       <r>     5.5661   146.0942  1228.1431 </r>
       <r>     5.6179   146.5804  1235.7368 </r>
       <r>     5.6697   110.4055  1241.4565 </r>
       <r>     5.7215   119.8339  1247.6647 </r>
       <r>     5.7733   131.5369  1254.4791 </r>
       <r>     5.8251   144.2131  1261.9502 </r>
       <r>     5.8769   132.6232  1268.8209 </r>
       <r>     5.9287    52.1248  1271.5213 </r>
       <r>     5.9805     9.2403  1272.0000 </r>
       <r>     6.0323     0.0000  1272.0000 </r>
       <r>     6.0842     0.0000  1272.0000 </r>
       <r>     6.1360     0.0000  1272.0000 </r>
       <r>     6.1878     0.0000  1272.0000 </r>
       <r>     6.2396     0.0000  1272.0000 </r>
       <r>     6.2914     0.0000  1272.0000 </r>
       <r>     6.3432     0.0000  1272.0000 </r>
       <r>     6.3950     0.0000  1272.0000 </r>
       <r>     6.4468     0.0000  1272.0000 </r>
       <r>     6.4986     0.0000  1272.0000 </r>
       <r>     6.5504     0.0000  1272.0000 </r>
       <r>     6.6022     0.0000  1272.0000 </r>
       <r>     6.6540     0.0000  1272.0000 </r>
      </set>
     </set>
    </array>
   </total>
  </dos>
 </calculation>
 <structure name="finalpos" >
  <crystal>
   <varray name="basis" >
    <v>      19.46759987       0.00000000       0.00000000 </v>
    <v>       0.00000000      19.46759987       0.00000000 </v>
    <v>       0.00000000       0.00000000      19.30025291 </v>
   </varray>
   <i name="volume">   7314.55353316 </i>
   <varray name="rec_basis" >
    <v>       0.05136740       0.00000000       0.00000000 </v>
    <v>       0.00000000       0.05136740       0.00000000 </v>
    <v>       0.00000000       0.00000000       0.05181279 </v>
   </varray>
  </crystal>
  <varray name="positions" >
   <v>       0.99503511       0.66666669       0.00000000 </v>
   <v>       0.82836843       0.66666669       0.16811179 </v>
   <v>       0.91936642       0.85444313       0.53426754 </v>
   <v>       0.99503511       0.33333334       0.00000000 </v>
   <v>       0.66936624       0.10444319       0.88601178 </v>
   <v>       0.15013567       0.70059687       0.53426754 </v>
   <v>       0.59244329       0.48905852       0.88601178 </v>
   <v>       0.82836843       0.00000000       0.16811179 </v>
   <v>       0.26552033       0.12367377       0.53426754 </v>
   <v>       0.32836846       0.66666669       0.00000000 </v>
   <v>       0.16170174       0.66666669       0.16811179 </v>
   <v>       0.86167425       0.14290453       0.60461640 </v>
   <v>       0.32836846       0.33333334       0.00000000 </v>
   <v>       0.16170174       0.33333334       0.16811179 </v>
   <v>       0.99503511       0.33333334       0.33622354 </v>
   <v>       0.09244316       0.98905855       0.88601178 </v>
   <v>       0.16170174       0.00000000       0.16811179 </v>
   <v>       0.99503511       0.00000000       0.33622354 </v>
   <v>       0.93859696       0.75828928       0.88601178 </v>
   <v>       0.49503511       0.66666669       0.16811179 </v>
   <v>       0.32836846       0.66666669       0.33622354 </v>
   <v>       0.05398166       0.18136621       0.88601178 </v>
   <v>       0.13090470       0.79675090       0.88601178 </v>
   <v>       0.32836846       0.33333334       0.33622354 </v>
   <v>       0.66170180       0.00000000       0.00000000 </v>
   <v>       0.01552010       0.37367386       0.88601178 </v>
   <v>       0.32836846       0.00000000       0.33622354 </v>
   <v>       0.07836843       0.91666675       0.08405589 </v>
   <v>       0.91170180       0.91666675       0.25216761 </v>
   <v>       0.74503505       0.91666675       0.42027944 </v>
   <v>       0.24628940       0.21982789       0.88601178 </v>
   <v>       0.91170180       0.58333343       0.25216761 </v>
   <v>       0.74503505       0.58333343       0.42027944 </v>
   <v>       0.07836843       0.25000000       0.08405589 </v>
   <v>       0.91170180       0.25000000       0.25216761 </v>
   <v>       0.34244341       0.73905850       0.53426754 </v>
   <v>       0.41170177       0.91666675       0.08405589 </v>
   <v>       0.24503510       0.91666675       0.25216761 </v>
   <v>       0.07836838       0.91666675       0.42027944 </v>
   <v>       0.41170177       0.58333343       0.08405589 </v>
   <v>       0.88090491       0.04675078       0.53426754 </v>
   <v>       0.07836838       0.58333343       0.42027944 </v>
   <v>       0.41170177       0.25000000       0.08405589 </v>
   <v>       0.76552028       0.62367380       0.53426754 </v>
   <v>       0.84244347       0.23905837       0.53426754 </v>
   <v>       0.74503517       0.91666675       0.08405589 </v>
   <v>       0.57836855       0.91666675       0.25216761 </v>
   <v>       0.68859720       0.00828922       0.53426754 </v>
   <v>       0.74503517       0.58333343       0.08405589 </v>
   <v>       0.41936651       0.35444304       0.53426754 </v>
   <v>       0.80398190       0.43136618       0.53426754 </v>
   <v>       0.74503517       0.25000000       0.08405589 </v>
   <v>       0.57836855       0.25000000       0.25216761 </v>
   <v>       0.41170180       0.25000000       0.42027944 </v>
   <v>       0.16170177       0.83333331       0.00000000 </v>
   <v>       0.45782784       0.16213548       0.81566292 </v>
   <v>       0.99628961       0.46982759       0.53426754 </v>
   <v>       0.16170177       0.50000000       0.00000000 </v>
   <v>       0.47705862       0.06598163       0.88601178 </v>
   <v>       0.82836843       0.50000000       0.33622354 </v>
   <v>       0.97705853       0.56598157       0.88601178 </v>
   <v>       0.78475076       0.52752006       0.88601178 </v>
   <v>       0.82836843       0.16666667       0.33622354 </v>
   <v>       0.49503511       0.83333331       0.00000000 </v>
   <v>       0.32836843       0.83333331       0.16811179 </v>
   <v>       0.16170175       0.83333331       0.33622354 </v>
   <v>       0.49503511       0.50000000       0.00000000 </v>
   <v>       0.32836843       0.50000000       0.16811179 </v>
   <v>       0.16170175       0.50000000       0.33622354 </v>
   <v>       0.82321233       0.33521238       0.88601178 </v>
   <v>       0.32836843       0.16666667       0.16811179 </v>
   <v>       0.16170175       0.16666667       0.33622354 </v>
   <v>       0.82836855       0.83333331       0.00000000 </v>
   <v>       0.90013546       0.95059699       0.88601178 </v>
   <v>       0.49503520       0.83333331       0.33622354 </v>
   <v>       0.82836855       0.50000000       0.00000000 </v>
   <v>       0.86167389       0.14290464       0.88601178 </v>
   <v>       0.49503520       0.50000000       0.33622354 </v>
   <v>       0.82836855       0.16666667       0.00000000 </v>
   <v>       0.66170186       0.16666667       0.16811179 </v>
   <v>       0.49503520       0.16666667       0.33622354 </v>
   <v>       0.24503510       0.75000006       0.08405589 </v>
   <v>       0.07836843       0.75000006       0.25216761 </v>
   <v>       0.91170174       0.75000006       0.42027944 </v>
   <v>       0.11167400       0.89290476       0.81566292 </v>
   <v>       0.07836843       0.41666672       0.25216761 </v>
   <v>       0.72705871       0.81598151       0.53426754 </v>
   <v>       0.24503510       0.08333334       0.08405589 </v>
   <v>       0.07836843       0.08333334       0.25216761 </v>
   <v>       0.91170174       0.08333334       0.42027944 </v>
   <v>       0.57836848       0.75000006       0.08405589 </v>
   <v>       0.61167419       0.39290458       0.53426754 </v>
   <v>       0.24503513       0.75000006       0.42027944 </v>
   <v>       0.57836848       0.41666672       0.08405589 </v>
   <v>       0.41170186       0.41666672       0.25216761 </v>
   <v>       0.57321262       0.58521235       0.53426754 </v>
   <v>       0.57836848       0.08333334       0.08405589 </v>
   <v>       0.65013564       0.20059687       0.53426754 </v>
   <v>       0.24503513       0.08333334       0.42027944 </v>
   <v>       0.51552010       0.87367392       0.88601178 </v>
   <v>       0.22705877       0.31598148       0.53426754 </v>
   <v>       0.57836837       0.75000006       0.42027944 </v>
   <v>       0.16936630       0.60444313       0.88601178 </v>
   <v>       0.53475112       0.77751988       0.53426754 </v>
   <v>       0.57836837       0.41666672       0.42027944 </v>
   <v>       0.40013558       0.45059699       0.88601178 </v>
   <v>       0.20782799       0.41213533       0.60461640 </v>
   <v>       0.57836837       0.08333334       0.42027944 </v>
   <v>       0.07836838       0.25000000       0.42027944 </v>
   <v>       0.72705877       0.31598151       0.67496520 </v>
   <v>       0.61167407       0.39290467       0.81566292 </v>
   <v>       0.82836843       0.83333331       0.33622354 </v>
   <v>       0.88090491       0.54675066       0.67496520 </v>
   <v>       0.76552022       0.62367386       0.81566292 </v>
   <v>       0.45782804       0.16213530       0.53426754 </v>
   <v>       0.34244335       0.23905843       0.67496520 </v>
   <v>       0.22705865       0.31598157       0.81566292 </v>
   <v>       0.41170186       0.75000006       0.25216761 </v>
   <v>       0.49628949       0.46982771       0.67496520 </v>
   <v>       0.38090479       0.54675084       0.81566292 </v>
   <v>       0.24503510       0.25000000       0.25216761 </v>
   <v>       0.65013558       0.70059693       0.67496520 </v>
   <v>       0.53475088       0.77752006       0.81566292 </v>
   <v>       0.66170174       0.66666669       0.33622354 </v>
   <v>       0.80398172       0.93136627       0.67496520 </v>
   <v>       0.68859702       0.00828934       0.81566292 </v>
   <v>       0.07321262       0.08521221       0.53426754 </v>
   <v>       0.95782787       0.16213533       0.67496520 </v>
   <v>       0.84244317       0.23905846       0.81566292 </v>
   <v>       0.74503505       0.75000006       0.25216761 </v>
   <v>       0.11167407       0.39290461       0.67496520 </v>
   <v>       0.99628931       0.46982774       0.81566292 </v>
   <v>       0.38090494       0.54675072       0.53426754 </v>
   <v>       0.26552022       0.62367386       0.67496520 </v>
   <v>       0.15013552       0.70059699       0.81566292 </v>
   <v>       0.74503505       0.41666672       0.25216761 </v>
   <v>       0.41936642       0.85444301       0.67496520 </v>
   <v>       0.30398169       0.93136615       0.81566292 </v>
   <v>       0.41170180       0.91666675       0.42027944 </v>
   <v>       0.57321250       0.08521234       0.67496520 </v>
   <v>       0.99503505       0.83333331       0.16811179 </v>
   <v>       0.66170174       0.33333334       0.33622354 </v>
   <v>       0.03475094       0.77752000       0.67496520 </v>
   <v>       0.91936624       0.85444319       0.81566292 </v>
   <v>       0.30398187       0.93136609       0.53426754 </v>
   <v>       0.18859717       0.00828910       0.67496520 </v>
   <v>       0.07321238       0.08521234       0.81566292 </v>
   <v>       0.05398178       0.18136609       0.60461640 </v>
   <v>       0.93859708       0.25828922       0.74531406 </v>
   <v>       0.49503511       0.16666667       0.00000000 </v>
   <v>       0.66936642       0.10444307       0.60461640 </v>
   <v>       0.55398178       0.18136621       0.74531406 </v>
   <v>       0.43859702       0.25828934       0.88601178 </v>
   <v>       0.82321268       0.33521223       0.60461640 </v>
   <v>       0.70782799       0.41213539       0.74531406 </v>
   <v>       0.99503511       0.00000000       0.00000000 </v>
   <v>       0.97705877       0.56598145       0.60461640 </v>
   <v>       0.86167407       0.64290464       0.74531406 </v>
   <v>       0.74628931       0.71982777       0.88601178 </v>
   <v>       0.43859726       0.25828916       0.60461640 </v>
   <v>       0.32321256       0.33521229       0.74531406 </v>
   <v>       0.20782784       0.41213542       0.88601178 </v>
   <v>       0.59244335       0.48905846       0.60461640 </v>
   <v>       0.47705868       0.56598157       0.74531406 </v>
   <v>       0.36167395       0.64290476       0.88601178 </v>
   <v>       0.74628949       0.71982765       0.60461640 </v>
   <v>       0.63090479       0.79675078       0.74531406 </v>
   <v>       0.91170174       0.75000006       0.08405589 </v>
   <v>       0.90013564       0.95059693       0.60461640 </v>
   <v>       0.78475094       0.02752006       0.74531406 </v>
   <v>       0.82836843       0.33333334       0.16811179 </v>
   <v>       0.74503505       0.08333334       0.25216761 </v>
   <v>       0.09244330       0.48905843       0.74531406 </v>
   <v>       0.16170177       0.16666667       0.00000000 </v>
   <v>       0.36167413       0.64290464       0.60461640 </v>
   <v>       0.24628943       0.71982771       0.74531406 </v>
   <v>       0.49503511       0.33333334       0.16811179 </v>
   <v>       0.51552028       0.87367380       0.60461640 </v>
   <v>       0.40013558       0.95059693       0.74531406 </v>
   <v>       0.28475085       0.02752006       0.88601178 </v>
   <v>       0.13090490       0.79675072       0.60461640 </v>
   <v>       0.01552022       0.87367392       0.74531406 </v>
   <v>       0.66170186       0.83333331       0.16811179 </v>
   <v>       0.28475106       0.02751994       0.60461640 </v>
   <v>       0.16936633       0.10444307       0.74531406 </v>
   <v>       0.66170180       0.33333334       0.00000000 </v>
   <v>       0.03475106       0.27751997       0.53426754 </v>
   <v>       0.91936636       0.35444310       0.67496520 </v>
   <v>       0.80398166       0.43136627       0.81566292 </v>
   <v>       0.41170186       0.08333334       0.25216761 </v>
   <v>       0.53475094       0.27752000       0.67496520 </v>
   <v>       0.41936627       0.35444313       0.81566292 </v>
   <v>       0.41170180       0.58333343       0.42027944 </v>
   <v>       0.68859714       0.50828928       0.67496520 </v>
   <v>       0.57321250       0.58521247       0.81566292 </v>
   <v>       0.95782804       0.66213542       0.53426754 </v>
   <v>       0.84244329       0.73905855       0.67496520 </v>
   <v>       0.72705859       0.81598169       0.81566292 </v>
   <v>       0.66170174       0.00000000       0.33622354 </v>
   <v>       0.15013564       0.20059690       0.67496520 </v>
   <v>       0.03475094       0.27752003       0.81566292 </v>
   <v>       0.57836855       0.58333343       0.25216761 </v>
   <v>       0.30398181       0.43136618       0.67496520 </v>
   <v>       0.18859708       0.50828928       0.81566292 </v>
   <v>       0.24503513       0.41666672       0.42027944 </v>
   <v>       0.45782793       0.66213548       0.67496520 </v>
   <v>       0.34244323       0.73905861       0.81566292 </v>
   <v>       0.91170174       0.41666672       0.42027944 </v>
   <v>       0.61167401       0.89290464       0.67496520 </v>
   <v>       0.49628934       0.96982777       0.81566292 </v>
   <v>       0.24503510       0.58333343       0.25216761 </v>
   <v>       0.76552022       0.12367391       0.67496520 </v>
   <v>       0.65013552       0.20059705       0.81566292 </v>
   <v>       0.18859723       0.50828922       0.53426754 </v>
   <v>       0.07321250       0.58521235       0.67496520 </v>
   <v>       0.95782781       0.66213548       0.81566292 </v>
   <v>       0.74503505       0.25000000       0.42027944 </v>
   <v>       0.22705871       0.81598163       0.67496520 </v>
   <v>       0.24503510       0.41666672       0.08405589 </v>
   <v>       0.49628958       0.96982771       0.53426754 </v>
   <v>       0.38090485       0.04675078       0.67496520 </v>
   <v>       0.26552015       0.12367391       0.81566292 </v>
   <v>       0.11167413       0.89290458       0.53426754 </v>
   <v>       0.99628943       0.96982771       0.67496520 </v>
   <v>       0.88090467       0.04675078       0.81566292 </v>
   <v>       0.99503511       0.66666669       0.33622354 </v>
   <v>       0.74628949       0.21982768       0.74531406 </v>
   <v>       0.63090479       0.29675081       0.88601178 </v>
   <v>       0.01552022       0.37367377       0.60461640 </v>
   <v>       0.90013552       0.45059693       0.74531406 </v>
   <v>       0.99503505       0.16666667       0.16811179 </v>
   <v>       0.63090497       0.29675070       0.60461640 </v>
   <v>       0.51552028       0.37367383       0.74531406 </v>
   <v>       0.91170174       0.08333334       0.08405589 </v>
   <v>       0.78475118       0.52751994       0.60461640 </v>
   <v>       0.66936648       0.60444307       0.74531406 </v>
   <v>       0.55398178       0.68136621       0.88601178 </v>
   <v>       0.93859738       0.75828922       0.60461640 </v>
   <v>       0.82321268       0.83521235       0.74531406 </v>
   <v>       0.70782793       0.91213548       0.88601178 </v>
   <v>       0.24628955       0.21982756       0.60461640 </v>
   <v>       0.13090484       0.29675070       0.74531406 </v>
   <v>       0.49503511       0.00000000       0.16811179 </v>
   <v>       0.40013573       0.45059687       0.60461640 </v>
   <v>       0.28475103       0.52752000       0.74531406 </v>
   <v>       0.91170174       0.41666672       0.08405589 </v>
   <v>       0.55398184       0.68136609       0.60461640 </v>
   <v>       0.43859717       0.75828922       0.74531406 </v>
   <v>       0.32321242       0.83521235       0.88601178 </v>
   <v>       0.70782804       0.91213542       0.60461640 </v>
   <v>       0.59244335       0.98905855       0.74531406 </v>
   <v>       0.99503505       0.50000000       0.16811179 </v>
   <v>       0.16936642       0.60444301       0.60461640 </v>
   <v>       0.05398178       0.68136615       0.74531406 </v>
   <v>       0.66170180       0.66666669       0.00000000 </v>
   <v>       0.32321259       0.83521223       0.60461640 </v>
   <v>       0.20782790       0.91213536       0.74531406 </v>
   <v>       0.32836846       0.00000000       0.00000000 </v>
   <v>       0.47705883       0.06598151       0.60461640 </v>
   <v>       0.36167413       0.14290476       0.74531406 </v>
   <v>       0.07836843       0.58333343       0.08405589 </v>
   <v>       0.09244336       0.98905837       0.60461640 </v>
   <v>       0.97705859       0.06598151       0.74531406 </v>
   <v>       0.66170186       0.50000000       0.16811179 </v>
  </varray>
 </structure>
</modeling>
