Si and Ge interface calculation         
           1
     5.657800    0.000000    0.000000
     0.000000    5.657800    0.000000
     0.000000    0.000000   14.144501
   Ge
    24
Direct configuration=     1
   0.01708345  0.00000000  0.00000000
   0.76708341  0.24999999  0.00000000
   0.76708341  0.24999999  0.50000006
   0.51708341  0.49999997  0.00000000
   0.76708341  0.75000000  0.29999998
   0.26708341  0.75000000  0.50000006
   0.26708344  0.75000000  0.09999999
   0.01708329  0.49999997  0.19999997
   0.51708329  0.49999997  0.40000001
   0.76708341  0.24999999  0.09999999
   0.51708341  0.49999997  0.50000006
   0.01708341  0.00000000  0.40000001
   0.01708345  0.00000000  0.50000006
   0.51708341  0.00000000  0.69999999
   0.01708341  0.00000000  0.89999998
   0.26708344  0.75000000  0.60000002
   0.76708341  0.75000000  0.80000001
   0.26708341  0.75000000  0.00000000
   0.26708341  0.24999999  0.29999998
   0.01708329  0.49999997  0.69999999
   0.51708329  0.49999997  0.89999998
   0.76708341  0.24999999  0.60000002
   0.26708341  0.24999999  0.80000001
   0.51708341  0.00000000  0.19999997
