Si Bulk DFT energetics calculations using VASP\n
This script is running on comp177.cluster.local in /lustre/home/ah1365/projects/127870/upgrade_report/case_studies/common/structures/interfaces/168_Sn72Ge96_011_011_a0.117117_b0.037975_c2.163935_interface4shift7\n
Job started on: Mon  9 Jun 02:15:47 UTC 2025\n
 running   64 mpi-ranks, on    4 nodes
 distrk:  each k-point on   64 cores,    1 groups
 distr:  one band on   16 cores,    4 groups
 vasp.6.4.3 19Mar24 (build Oct 22 2024 11:23:12) complex                        
  
 POSCAR found type information on POSCAR SnGe
 POSCAR found :  2 types and     168 ions
 -----------------------------------------------------------------------------
|                                                                             |
|           W    W    AA    RRRRR   N    N  II  N    N   GGGG   !!!           |
|           W    W   A  A   R    R  NN   N  II  NN   N  G    G  !!!           |
|           W    W  A    A  R    R  N N  N  II  N N  N  G       !!!           |
|           W WW W  AAAAAA  RRRRR   N  N N  II  N  N N  G  GGG   !            |
|           WW  WW  A    A  R   R   N   NN  II  N   NN  G    G                |
|           W    W  A    A  R    R  N    N  II  N    N   GGGG   !!!           |
|                                                                             |
|     You use a magnetic or noncollinear calculation, but did not specify     |
|     the initial magnetic moment with the MAGMOM tag. Note that a            |
|     default of 5.952e-3 will be used for all atoms. This ferromagnetic      |
|     setup may break the symmetry of the crystal, in particular it may       |
|     rule out finding an antiferromagnetic solution. Thence, we              |
|     recommend setting the initial magnetic moment manually or verifying     |
|     carefully that this magnetic setup is desired.                          |
|                                                                             |
 -----------------------------------------------------------------------------

 scaLAPACK will be used
 WARNING: PSMAXN for non-local potential too small
 LDA part: xc-table for (Slater+PW92), standard interpolation
 POSCAR, INCAR and KPOINTS ok, starting setup
 FFT: planning ... GRIDC
 FFT: planning ... GRID_SOFT
 FFT: planning ... GRID
 WAVECAR not read
 entering main loop
       N       E                     dE             d eps       ncg     rms          rms(c)
DAV:   1     0.345469592054E+04    0.34547E+04   -0.28041E+05  6464   0.168E+03
DAV:   2    -0.261363433782E+03   -0.37161E+04   -0.35919E+04  7600   0.199E+02
DAV:   3    -0.669593833861E+03   -0.40823E+03   -0.39715E+03  7936   0.648E+01
DAV:   4    -0.685827235014E+03   -0.16233E+02   -0.15947E+02  7752   0.128E+01
DAV:   5    -0.686552405477E+03   -0.72517E+00   -0.72041E+00  8616   0.232E+00    0.295E+01
DAV:   6    -0.677331112532E+03    0.92213E+01   -0.24337E+01 10240   0.929E+00    0.146E+01
DAV:   7    -0.680144786036E+03   -0.28137E+01   -0.36046E+01  9352   0.136E+01    0.708E+00
DAV:   8    -0.675632008248E+03    0.45128E+01   -0.19382E+01 10384   0.961E+00    0.313E+00
DAV:   9    -0.675107425932E+03    0.52458E+00   -0.66634E+00  8320   0.454E+00    0.181E+00
DAV:  10    -0.675086772366E+03    0.20654E-01   -0.18140E+00  7368   0.188E+00    0.114E+00
DAV:  11    -0.675081893238E+03    0.48791E-02   -0.33319E-01  8224   0.649E-01    0.564E-01
DAV:  12    -0.675082016756E+03   -0.12352E-03   -0.74178E-02  7560   0.383E-01    0.200E-01
DAV:  13    -0.675083345834E+03   -0.13291E-02   -0.13247E-02  7448   0.141E-01    0.118E-01
DAV:  14    -0.675083744615E+03   -0.39878E-03   -0.18222E-03  7512   0.542E-02    0.695E-02
DAV:  15    -0.675083818901E+03   -0.74286E-04   -0.29548E-04  7704   0.247E-02    0.401E-02
DAV:  16    -0.675083879639E+03   -0.60738E-04   -0.18675E-04  7232   0.177E-02    0.192E-02
DAV:  17    -0.675083896024E+03   -0.16385E-04   -0.42002E-05  7288   0.106E-02    0.119E-02
DAV:  18    -0.675083896173E+03   -0.14860E-06   -0.84961E-06  7480   0.421E-03    0.818E-03
DAV:  19    -0.675083895708E+03    0.46501E-06   -0.34266E-06  7984   0.258E-03    0.563E-03
DAV:  20    -0.675083896109E+03   -0.40076E-06   -0.15014E-06  7616   0.158E-03    0.427E-03
DAV:  21    -0.675083896550E+03   -0.44131E-06   -0.38934E-07  6168   0.104E-03    0.356E-03
DAV:  22    -0.675083897093E+03   -0.54251E-06   -0.50757E-07  6320   0.112E-03    0.256E-03
DAV:  23    -0.675083897582E+03   -0.48994E-06   -0.36861E-07  6088   0.977E-04    0.143E-03
DAV:  24    -0.675083898007E+03   -0.42442E-06   -0.15094E-07  4416   0.614E-04    0.793E-04
DAV:  25    -0.675083898259E+03   -0.25215E-06   -0.87128E-08  4088   0.408E-04    0.502E-04
DAV:  26    -0.675083898225E+03    0.33942E-07   -0.21754E-08  3856   0.217E-04
   1 F= -.67508390E+03 E0= -.67508243E+03  d E =-.294372E-02  mag=     1.0000
Job ended on: Mon  9 Jun 02:37:33 UTC 2025\n
