Si Bulk DFT energetics calculations using VASP\n
This script is running on comp073.cluster.local in /lustre/home/ah1365/projects/127870/upgrade_report/case_studies/common/structures/interfaces/168_Ge96Sn72_111_111_a0.044025_b0.647799_c2.262296_interface11shift5\n
Job started on: Sun  8 Jun 22:58:15 UTC 2025\n
 running   64 mpi-ranks, on    4 nodes
 distrk:  each k-point on   64 cores,    1 groups
 distr:  one band on   16 cores,    4 groups
 vasp.6.4.3 19Mar24 (build Oct 22 2024 11:23:12) complex                        
  
 POSCAR found type information on POSCAR GeSn
 POSCAR found :  2 types and     168 ions
 -----------------------------------------------------------------------------
|                                                                             |
|           W    W    AA    RRRRR   N    N  II  N    N   GGGG   !!!           |
|           W    W   A  A   R    R  NN   N  II  NN   N  G    G  !!!           |
|           W    W  A    A  R    R  N N  N  II  N N  N  G       !!!           |
|           W WW W  AAAAAA  RRRRR   N  N N  II  N  N N  G  GGG   !            |
|           WW  WW  A    A  R   R   N   NN  II  N   NN  G    G                |
|           W    W  A    A  R    R  N    N  II  N    N   GGGG   !!!           |
|                                                                             |
|     You use a magnetic or noncollinear calculation, but did not specify     |
|     the initial magnetic moment with the MAGMOM tag. Note that a            |
|     default of 5.952e-3 will be used for all atoms. This ferromagnetic      |
|     setup may break the symmetry of the crystal, in particular it may       |
|     rule out finding an antiferromagnetic solution. Thence, we              |
|     recommend setting the initial magnetic moment manually or verifying     |
|     carefully that this magnetic setup is desired.                          |
|                                                                             |
 -----------------------------------------------------------------------------

 scaLAPACK will be used
 WARNING: PSMAXN for non-local potential too small
 LDA part: xc-table for (Slater+PW92), standard interpolation
 POSCAR, INCAR and KPOINTS ok, starting setup
 FFT: planning ... GRIDC
 FFT: planning ... GRID_SOFT
 FFT: planning ... GRID
 WAVECAR not read
 entering main loop
       N       E                     dE             d eps       ncg     rms          rms(c)
DAV:   1     0.338993626140E+04    0.33899E+04   -0.28169E+05 12928   0.168E+03
DAV:   2    -0.272146043678E+03   -0.36621E+04   -0.35400E+04 15128   0.199E+02
DAV:   3    -0.675739316999E+03   -0.40359E+03   -0.39131E+03 15936   0.642E+01
DAV:   4    -0.692481046267E+03   -0.16742E+02   -0.16406E+02 15616   0.128E+01
DAV:   5    -0.693171982318E+03   -0.69094E+00   -0.68587E+00 16992   0.225E+00    0.284E+01
DAV:   6    -0.684520765761E+03    0.86512E+01   -0.17446E+01 19632   0.709E+00    0.139E+01
DAV:   7    -0.685063802244E+03   -0.54304E+00   -0.19852E+01 16488   0.774E+00    0.595E+00
DAV:   8    -0.683238909642E+03    0.18249E+01   -0.68296E+00 16200   0.500E+00    0.171E+00
DAV:   9    -0.683277163144E+03   -0.38254E-01   -0.19822E+00 15480   0.186E+00    0.108E+00
DAV:  10    -0.683280803269E+03   -0.36401E-02   -0.37659E-01 15304   0.682E-01    0.544E-01
DAV:  11    -0.683282397979E+03   -0.15947E-02   -0.51165E-02 15472   0.281E-01    0.277E-01
DAV:  12    -0.683282021548E+03    0.37643E-03   -0.10533E-02 14592   0.132E-01    0.179E-01
DAV:  13    -0.683282468937E+03   -0.44739E-03   -0.19805E-03 14880   0.550E-02    0.710E-02
DAV:  14    -0.683282577080E+03   -0.10814E-03   -0.25540E-04 14728   0.247E-02    0.330E-02
DAV:  15    -0.683282609373E+03   -0.32293E-04   -0.64292E-05 14440   0.118E-02    0.161E-02
DAV:  16    -0.683282625112E+03   -0.15739E-04   -0.10534E-05 14696   0.515E-03    0.852E-03
DAV:  17    -0.683282630238E+03   -0.51260E-05   -0.39192E-06 14664   0.300E-03    0.607E-03
DAV:  18    -0.683282632611E+03   -0.23723E-05   -0.13846E-06 14512   0.169E-03    0.373E-03
DAV:  19    -0.683282633519E+03   -0.90807E-06   -0.76525E-07 13880   0.117E-03    0.264E-03
DAV:  20    -0.683282633654E+03   -0.13490E-06   -0.39181E-07 11880   0.973E-04    0.164E-03
DAV:  21    -0.683282633425E+03    0.22813E-06   -0.14421E-07  8968   0.612E-04    0.891E-04
DAV:  22    -0.683282633408E+03    0.17739E-07   -0.70470E-08  7840   0.388E-04
   1 F= -.68328263E+03 E0= -.68328083E+03  d E =-.361439E-02  mag=     1.0000
Job ended on: Sun  8 Jun 23:37:18 UTC 2025\n
