 264 264   0   0
  0.2770664E+02  0.1946760E-08  0.1946760E-08  0.1930025E-08  0.5000000E-15
  1.000000000000000E-004
  CAR 
 Si and Ge interface calculation         
      6.66130517     -8.87512011  301      4.05770986      1.00000000
     -8.875  0.0000E+00  0.0000E+00  0.0000E+00  0.0000E+00
     -8.823  0.0000E+00  0.0000E+00  0.0000E+00  0.0000E+00
     -8.772  0.0000E+00  0.0000E+00  0.0000E+00  0.0000E+00
     -8.720  0.0000E+00  0.0000E+00  0.0000E+00  0.0000E+00
     -8.668  0.0000E+00  0.0000E+00  0.0000E+00  0.0000E+00
     -8.616  0.0000E+00  0.0000E+00  0.0000E+00  0.0000E+00
     -8.564  0.0000E+00  0.0000E+00  0.0000E+00  0.0000E+00
     -8.513  0.0000E+00  0.0000E+00  0.0000E+00  0.0000E+00
     -8.461  0.0000E+00  0.0000E+00  0.0000E+00  0.0000E+00
     -8.409  0.0000E+00  0.0000E+00  0.0000E+00  0.0000E+00
     -8.357  0.0000E+00  0.0000E+00  0.0000E+00  0.0000E+00
     -8.305  0.0000E+00  0.0000E+00  0.0000E+00  0.0000E+00
     -8.254  0.0000E+00  0.0000E+00  0.0000E+00  0.0000E+00
     -8.202  0.1492E-04  0.4184E-05  0.7728E-06  0.2167E-06
     -8.150  0.9617E+01  0.9577E+01  0.4981E+00  0.4960E+00
     -8.098  0.1934E+02  0.1933E+02  0.1500E+01  0.1497E+01
     -8.047  0.1525E+02  0.1375E+02  0.2289E+01  0.2209E+01
     -7.995  0.2030E+02  0.2095E+02  0.3341E+01  0.3294E+01
     -7.943  0.1273E+02  0.1362E+02  0.4000E+01  0.3999E+01
     -7.891  0.1421E+02  0.1328E+02  0.4736E+01  0.4687E+01
     -7.839  0.1476E+02  0.1570E+02  0.5500E+01  0.5500E+01
     -7.788  0.3205E+02  0.2970E+02  0.7160E+01  0.7038E+01
     -7.736  0.2582E+02  0.2806E+02  0.8497E+01  0.8491E+01
     -7.684  0.2614E+02  0.2528E+02  0.9851E+01  0.9800E+01
     -7.632  0.1253E+02  0.1351E+02  0.1050E+02  0.1050E+02
     -7.580  0.5644E+01  0.4804E+01  0.1079E+02  0.1075E+02
     -7.529  0.2014E+02  0.2003E+02  0.1184E+02  0.1179E+02
     -7.477  0.1284E+02  0.1378E+02  0.1250E+02  0.1250E+02
     -7.425  0.2341E+02  0.2229E+02  0.1371E+02  0.1365E+02
     -7.373  0.2849E+02  0.2873E+02  0.1519E+02  0.1514E+02
     -7.321  0.1830E+02  0.1848E+02  0.1614E+02  0.1610E+02
     -7.270  0.1828E+02  0.1819E+02  0.1708E+02  0.1704E+02
     -7.218  0.5151E+02  0.5043E+02  0.1975E+02  0.1965E+02
     -7.166  0.2145E+02  0.2225E+02  0.2086E+02  0.2081E+02
     -7.114  0.2301E+02  0.2280E+02  0.2205E+02  0.2199E+02
     -7.063  0.4683E+02  0.4773E+02  0.2448E+02  0.2446E+02
     -7.011  0.5312E+02  0.5164E+02  0.2723E+02  0.2713E+02
     -6.959  0.1695E+02  0.1802E+02  0.2811E+02  0.2807E+02
     -6.907  0.4200E+02  0.4142E+02  0.3028E+02  0.3021E+02
     -6.855  0.3509E+02  0.3586E+02  0.3210E+02  0.3207E+02
     -6.804  0.3093E+02  0.3039E+02  0.3370E+02  0.3364E+02
     -6.752  0.4483E+02  0.4545E+02  0.3602E+02  0.3600E+02
     -6.700  0.7613E+02  0.7414E+02  0.3997E+02  0.3983E+02
     -6.648  0.3681E+02  0.3787E+02  0.4187E+02  0.4180E+02
     -6.596  0.4915E+02  0.4975E+02  0.4442E+02  0.4437E+02
     -6.545  0.4158E+02  0.4036E+02  0.4657E+02  0.4646E+02
     -6.493  0.1761E+02  0.1795E+02  0.4748E+02  0.4739E+02
     -6.441  0.6080E+02  0.5898E+02  0.5063E+02  0.5045E+02
     -6.389  0.3869E+02  0.4125E+02  0.5263E+02  0.5258E+02
     -6.338  0.2686E+02  0.2654E+02  0.5403E+02  0.5396E+02
     -6.286  0.5184E+02  0.5034E+02  0.5671E+02  0.5656E+02
     -6.234  0.4168E+02  0.4210E+02  0.5887E+02  0.5874E+02
     -6.182  0.5917E+02  0.6047E+02  0.6193E+02  0.6188E+02
     -6.130  0.5121E+02  0.4972E+02  0.6458E+02  0.6445E+02
     -6.079  0.7605E+02  0.7541E+02  0.6852E+02  0.6836E+02
     -6.027  0.8885E+02  0.8911E+02  0.7312E+02  0.7297E+02
     -5.975  0.8429E+02  0.8445E+02  0.7749E+02  0.7734E+02
     -5.923  0.5041E+02  0.5175E+02  0.8010E+02  0.8002E+02
     -5.871  0.6613E+02  0.6405E+02  0.8353E+02  0.8334E+02
     -5.820  0.7312E+02  0.7365E+02  0.8731E+02  0.8716E+02
     -5.768  0.5911E+02  0.5910E+02  0.9037E+02  0.9022E+02
     -5.716  0.7378E+02  0.7288E+02  0.9419E+02  0.9399E+02
     -5.664  0.7277E+02  0.7265E+02  0.9796E+02  0.9775E+02
     -5.612  0.9234E+02  0.9415E+02  0.1027E+03  0.1026E+03
     -5.561  0.8560E+02  0.8323E+02  0.1072E+03  0.1069E+03
     -5.509  0.6210E+02  0.6373E+02  0.1104E+03  0.1102E+03
     -5.457  0.6758E+02  0.6595E+02  0.1139E+03  0.1137E+03
     -5.405  0.7524E+02  0.7724E+02  0.1178E+03  0.1177E+03
     -5.354  0.7937E+02  0.7962E+02  0.1219E+03  0.1218E+03
     -5.302  0.7939E+02  0.7639E+02  0.1260E+03  0.1257E+03
     -5.250  0.9787E+02  0.9941E+02  0.1311E+03  0.1309E+03
     -5.198  0.7455E+02  0.7460E+02  0.1349E+03  0.1347E+03
     -5.146  0.6298E+02  0.6404E+02  0.1382E+03  0.1381E+03
     -5.095  0.6707E+02  0.6563E+02  0.1417E+03  0.1415E+03
     -5.043  0.7848E+02  0.8003E+02  0.1457E+03  0.1456E+03
     -4.991  0.6203E+02  0.6014E+02  0.1490E+03  0.1487E+03
     -4.939  0.5993E+02  0.6137E+02  0.1521E+03  0.1519E+03
     -4.887  0.7739E+02  0.7619E+02  0.1561E+03  0.1558E+03
     -4.836  0.9142E+02  0.9130E+02  0.1608E+03  0.1606E+03
     -4.784  0.1046E+03  0.1034E+03  0.1662E+03  0.1659E+03
     -4.732  0.9823E+02  0.9721E+02  0.1713E+03  0.1710E+03
     -4.680  0.9994E+02  0.9975E+02  0.1765E+03  0.1761E+03
     -4.628  0.1168E+03  0.1164E+03  0.1825E+03  0.1822E+03
     -4.577  0.1097E+03  0.1110E+03  0.1882E+03  0.1879E+03
     -4.525  0.1154E+03  0.1135E+03  0.1942E+03  0.1938E+03
     -4.473  0.9327E+02  0.9468E+02  0.1990E+03  0.1987E+03
     -4.421  0.8848E+02  0.8981E+02  0.2036E+03  0.2033E+03
     -4.370  0.9126E+02  0.8980E+02  0.2083E+03  0.2080E+03
     -4.318  0.1016E+03  0.1020E+03  0.2136E+03  0.2133E+03
     -4.266  0.6635E+02  0.6829E+02  0.2170E+03  0.2168E+03
     -4.214  0.7602E+02  0.7336E+02  0.2210E+03  0.2206E+03
     -4.162  0.8366E+02  0.8583E+02  0.2253E+03  0.2251E+03
     -4.111  0.6358E+02  0.6394E+02  0.2286E+03  0.2284E+03
     -4.059  0.5303E+02  0.5395E+02  0.2313E+03  0.2312E+03
     -4.007  0.7223E+02  0.7249E+02  0.2351E+03  0.2349E+03
     -3.955  0.5770E+02  0.5693E+02  0.2381E+03  0.2379E+03
     -3.903  0.8875E+02  0.8830E+02  0.2427E+03  0.2424E+03
     -3.852  0.5556E+02  0.5557E+02  0.2455E+03  0.2453E+03
     -3.800  0.7412E+02  0.7372E+02  0.2494E+03  0.2491E+03
     -3.748  0.6692E+02  0.6823E+02  0.2528E+03  0.2527E+03
     -3.696  0.6146E+02  0.5853E+02  0.2560E+03  0.2557E+03
     -3.645  0.8389E+02  0.8563E+02  0.2604E+03  0.2601E+03
     -3.593  0.5959E+02  0.5889E+02  0.2634E+03  0.2632E+03
     -3.541  0.3532E+02  0.3787E+02  0.2653E+03  0.2651E+03
     -3.489  0.6482E+02  0.6121E+02  0.2686E+03  0.2683E+03
     -3.437  0.7917E+02  0.8301E+02  0.2727E+03  0.2726E+03
     -3.386  0.6759E+02  0.6302E+02  0.2762E+03  0.2759E+03
     -3.334  0.8584E+02  0.8892E+02  0.2807E+03  0.2805E+03
     -3.282  0.6928E+02  0.6769E+02  0.2843E+03  0.2840E+03
     -3.230  0.8585E+02  0.8706E+02  0.2887E+03  0.2885E+03
     -3.178  0.8117E+02  0.8088E+02  0.2929E+03  0.2927E+03
     -3.127  0.7929E+02  0.7685E+02  0.2970E+03  0.2967E+03
     -3.075  0.6295E+02  0.6567E+02  0.3003E+03  0.3001E+03
     -3.023  0.7756E+02  0.7608E+02  0.3043E+03  0.3040E+03
     -2.971  0.6133E+02  0.6314E+02  0.3075E+03  0.3073E+03
     -2.919  0.8002E+02  0.7437E+02  0.3116E+03  0.3111E+03
     -2.868  0.1125E+03  0.1176E+03  0.3174E+03  0.3172E+03
     -2.816  0.8537E+02  0.8549E+02  0.3219E+03  0.3216E+03
     -2.764  0.8472E+02  0.8261E+02  0.3263E+03  0.3259E+03
     -2.712  0.1120E+03  0.1139E+03  0.3321E+03  0.3318E+03
     -2.661  0.9218E+02  0.9156E+02  0.3368E+03  0.3366E+03
     -2.609  0.9064E+02  0.8968E+02  0.3415E+03  0.3412E+03
     -2.557  0.1153E+03  0.1159E+03  0.3475E+03  0.3472E+03
     -2.505  0.1378E+03  0.1369E+03  0.3546E+03  0.3543E+03
     -2.453  0.1035E+03  0.1035E+03  0.3600E+03  0.3597E+03
     -2.402  0.7942E+02  0.8155E+02  0.3641E+03  0.3639E+03
     -2.350  0.9326E+02  0.9127E+02  0.3689E+03  0.3686E+03
     -2.298  0.9804E+02  0.9927E+02  0.3740E+03  0.3737E+03
     -2.246  0.9569E+02  0.9337E+02  0.3790E+03  0.3786E+03
     -2.194  0.6504E+02  0.6959E+02  0.3823E+03  0.3822E+03
     -2.143  0.4195E+02  0.4300E+02  0.3845E+03  0.3844E+03
     -2.091  0.6340E+02  0.6332E+02  0.3878E+03  0.3877E+03
     -2.039  0.6750E+02  0.6231E+02  0.3913E+03  0.3909E+03
     -1.987  0.8097E+02  0.8352E+02  0.3955E+03  0.3952E+03
     -1.936  0.9660E+02  0.9454E+02  0.4005E+03  0.4001E+03
     -1.884  0.9681E+02  0.9894E+02  0.4055E+03  0.4053E+03
     -1.832  0.8511E+02  0.8599E+02  0.4099E+03  0.4097E+03
     -1.780  0.6263E+02  0.6259E+02  0.4131E+03  0.4130E+03
     -1.728  0.9641E+02  0.9368E+02  0.4181E+03  0.4178E+03
     -1.677  0.1139E+03  0.1166E+03  0.4240E+03  0.4238E+03
     -1.625  0.7903E+02  0.7664E+02  0.4281E+03  0.4278E+03
     -1.573  0.8357E+02  0.8521E+02  0.4325E+03  0.4322E+03
     -1.521  0.6977E+02  0.6965E+02  0.4361E+03  0.4358E+03
     -1.469  0.7670E+02  0.7833E+02  0.4400E+03  0.4399E+03
     -1.418  0.4621E+02  0.4764E+02  0.4424E+03  0.4424E+03
     -1.366  0.5674E+02  0.5357E+02  0.4454E+03  0.4451E+03
     -1.314  0.7480E+02  0.7517E+02  0.4493E+03  0.4490E+03
     -1.262  0.4420E+02  0.4513E+02  0.4515E+03  0.4514E+03
     -1.210  0.6360E+02  0.6213E+02  0.4548E+03  0.4546E+03
     -1.159  0.3581E+02  0.3920E+02  0.4567E+03  0.4566E+03
     -1.107  0.6600E+02  0.6234E+02  0.4601E+03  0.4598E+03
     -1.055  0.4114E+02  0.4402E+02  0.4622E+03  0.4621E+03
     -1.003  0.7184E+02  0.7288E+02  0.4660E+03  0.4659E+03
     -0.952  0.2498E+02  0.2556E+02  0.4673E+03  0.4672E+03
     -0.900  0.5341E+02  0.4985E+02  0.4700E+03  0.4698E+03
     -0.848  0.6532E+02  0.6493E+02  0.4734E+03  0.4732E+03
     -0.796  0.5974E+02  0.6227E+02  0.4765E+03  0.4764E+03
     -0.744  0.6167E+02  0.5986E+02  0.4797E+03  0.4795E+03
     -0.693  0.6148E+02  0.6203E+02  0.4829E+03  0.4827E+03
     -0.641  0.6559E+02  0.6554E+02  0.4863E+03  0.4861E+03
     -0.589  0.2803E+02  0.3019E+02  0.4877E+03  0.4877E+03
     -0.537  0.2723E+02  0.2742E+02  0.4891E+03  0.4891E+03
     -0.485  0.1148E+02  0.1088E+02  0.4897E+03  0.4896E+03
     -0.434  0.5437E+02  0.5345E+02  0.4925E+03  0.4924E+03
     -0.382  0.3794E+02  0.3844E+02  0.4945E+03  0.4944E+03
     -0.330  0.6265E+02  0.6087E+02  0.4978E+03  0.4975E+03
     -0.278  0.8326E+02  0.8330E+02  0.5021E+03  0.5019E+03
     -0.227  0.6446E+02  0.6389E+02  0.5054E+03  0.5052E+03
     -0.175  0.7087E+02  0.7162E+02  0.5091E+03  0.5089E+03
     -0.123  0.1158E+03  0.1151E+03  0.5151E+03  0.5148E+03
     -0.071  0.9925E+02  0.9965E+02  0.5202E+03  0.5200E+03
     -0.019  0.1379E+03  0.1347E+03  0.5273E+03  0.5270E+03
      0.032  0.1080E+03  0.1100E+03  0.5329E+03  0.5327E+03
      0.084  0.1785E+03  0.1747E+03  0.5422E+03  0.5417E+03
      0.136  0.1140E+03  0.1175E+03  0.5481E+03  0.5478E+03
      0.188  0.7257E+02  0.7597E+02  0.5518E+03  0.5517E+03
      0.240  0.8859E+02  0.8491E+02  0.5564E+03  0.5561E+03
      0.291  0.9772E+02  0.9988E+02  0.5615E+03  0.5613E+03
      0.343  0.7220E+02  0.7084E+02  0.5652E+03  0.5650E+03
      0.395  0.1056E+03  0.1052E+03  0.5707E+03  0.5704E+03
      0.447  0.9532E+02  0.9677E+02  0.5756E+03  0.5754E+03
      0.499  0.5752E+02  0.5739E+02  0.5786E+03  0.5784E+03
      0.550  0.1242E+03  0.1226E+03  0.5851E+03  0.5848E+03
      0.602  0.1522E+03  0.1510E+03  0.5929E+03  0.5926E+03
      0.654  0.1434E+03  0.1437E+03  0.6004E+03  0.6000E+03
      0.706  0.1195E+03  0.1210E+03  0.6065E+03  0.6063E+03
      0.757  0.1199E+03  0.1215E+03  0.6128E+03  0.6126E+03
      0.809  0.1367E+03  0.1340E+03  0.6198E+03  0.6195E+03
      0.861  0.9045E+02  0.9210E+02  0.6245E+03  0.6243E+03
      0.913  0.8519E+02  0.8761E+02  0.6289E+03  0.6288E+03
      0.965  0.1178E+03  0.1140E+03  0.6350E+03  0.6347E+03
      1.016  0.1115E+03  0.1112E+03  0.6408E+03  0.6405E+03
      1.068  0.1802E+03  0.1801E+03  0.6501E+03  0.6498E+03
      1.120  0.1154E+03  0.1137E+03  0.6561E+03  0.6557E+03
      1.172  0.1588E+03  0.1554E+03  0.6643E+03  0.6638E+03
      1.224  0.1683E+03  0.1690E+03  0.6731E+03  0.6725E+03
      1.275  0.1837E+03  0.1834E+03  0.6826E+03  0.6820E+03
      1.327  0.1905E+03  0.1904E+03  0.6924E+03  0.6919E+03
      1.379  0.1948E+03  0.1958E+03  0.7025E+03  0.7020E+03
      1.431  0.1491E+03  0.1522E+03  0.7102E+03  0.7099E+03
      1.482  0.1479E+03  0.1462E+03  0.7179E+03  0.7175E+03
      1.534  0.2183E+03  0.2150E+03  0.7292E+03  0.7286E+03
      1.586  0.1896E+03  0.1890E+03  0.7390E+03  0.7384E+03
      1.638  0.1881E+03  0.1907E+03  0.7488E+03  0.7483E+03
      1.690  0.1828E+03  0.1822E+03  0.7582E+03  0.7577E+03
      1.741  0.1886E+03  0.1878E+03  0.7680E+03  0.7674E+03
      1.793  0.1599E+03  0.1619E+03  0.7763E+03  0.7758E+03
      1.845  0.1835E+03  0.1845E+03  0.7858E+03  0.7854E+03
      1.897  0.1664E+03  0.1654E+03  0.7944E+03  0.7939E+03
      1.949  0.2013E+03  0.1978E+03  0.8048E+03  0.8042E+03
      2.000  0.1771E+03  0.1804E+03  0.8140E+03  0.8135E+03
      2.052  0.1584E+03  0.1592E+03  0.8222E+03  0.8218E+03
      2.104  0.1904E+03  0.1869E+03  0.8321E+03  0.8314E+03
      2.156  0.1876E+03  0.1888E+03  0.8418E+03  0.8412E+03
      2.208  0.1771E+03  0.1794E+03  0.8509E+03  0.8505E+03
      2.259  0.1686E+03  0.1664E+03  0.8597E+03  0.8591E+03
      2.311  0.1580E+03  0.1594E+03  0.8679E+03  0.8674E+03
      2.363  0.1648E+03  0.1623E+03  0.8764E+03  0.8758E+03
      2.415  0.2020E+03  0.2053E+03  0.8869E+03  0.8864E+03
      2.466  0.1498E+03  0.1516E+03  0.8946E+03  0.8943E+03
      2.518  0.1624E+03  0.1603E+03  0.9030E+03  0.9026E+03
      2.570  0.1563E+03  0.1542E+03  0.9111E+03  0.9106E+03
      2.622  0.1327E+03  0.1347E+03  0.9180E+03  0.9175E+03
      2.674  0.1073E+03  0.1058E+03  0.9236E+03  0.9230E+03
      2.725  0.1644E+03  0.1611E+03  0.9321E+03  0.9313E+03
      2.777  0.1169E+03  0.1237E+03  0.9381E+03  0.9378E+03
      2.829  0.1565E+03  0.1509E+03  0.9462E+03  0.9456E+03
      2.881  0.1475E+03  0.1481E+03  0.9539E+03  0.9532E+03
      2.933  0.1263E+03  0.1294E+03  0.9604E+03  0.9599E+03
      2.984  0.9369E+02  0.9451E+02  0.9653E+03  0.9648E+03
      3.036  0.1508E+03  0.1510E+03  0.9731E+03  0.9727E+03
      3.088  0.1191E+03  0.1189E+03  0.9792E+03  0.9788E+03
      3.140  0.1271E+03  0.1254E+03  0.9858E+03  0.9853E+03
      3.192  0.1124E+03  0.1136E+03  0.9916E+03  0.9912E+03
      3.243  0.1025E+03  0.1003E+03  0.9969E+03  0.9964E+03
      3.295  0.1244E+03  0.1218E+03  0.1003E+04  0.1003E+04
      3.347  0.1047E+03  0.1105E+03  0.1009E+04  0.1008E+04
      3.399  0.6319E+02  0.6227E+02  0.1012E+04  0.1012E+04
      3.450  0.9758E+02  0.1001E+03  0.1017E+04  0.1017E+04
      3.502  0.7344E+02  0.7271E+02  0.1021E+04  0.1021E+04
      3.554  0.8946E+02  0.8689E+02  0.1026E+04  0.1025E+04
      3.606  0.8627E+02  0.8620E+02  0.1030E+04  0.1030E+04
      3.658  0.5224E+02  0.5874E+02  0.1033E+04  0.1033E+04
      3.709  0.4430E+02  0.3626E+02  0.1035E+04  0.1034E+04
      3.761  0.7281E+02  0.7994E+02  0.1039E+04  0.1039E+04
      3.813  0.5209E+02  0.4723E+02  0.1042E+04  0.1041E+04
      3.865  0.3325E+02  0.3766E+02  0.1043E+04  0.1043E+04
      3.917  0.3950E+02  0.3882E+02  0.1045E+04  0.1045E+04
      3.968  0.6806E+02  0.5724E+02  0.1049E+04  0.1048E+04
      4.020  0.6068E+02  0.6890E+02  0.1052E+04  0.1052E+04
      4.072  0.1098E+03  0.1002E+03  0.1058E+04  0.1057E+04
      4.124  0.9639E+02  0.9678E+02  0.1063E+04  0.1062E+04
      4.175  0.1083E+03  0.1066E+03  0.1068E+04  0.1067E+04
      4.227  0.7398E+02  0.8376E+02  0.1072E+04  0.1072E+04
      4.279  0.9698E+02  0.9342E+02  0.1077E+04  0.1076E+04
      4.331  0.9690E+02  0.8783E+02  0.1082E+04  0.1081E+04
      4.383  0.1156E+03  0.1252E+03  0.1088E+04  0.1087E+04
      4.434  0.1173E+03  0.1124E+03  0.1094E+04  0.1093E+04
      4.486  0.9859E+02  0.1047E+03  0.1099E+04  0.1099E+04
      4.538  0.1286E+03  0.1238E+03  0.1106E+04  0.1105E+04
      4.590  0.9146E+02  0.9589E+02  0.1111E+04  0.1110E+04
      4.642  0.9691E+02  0.9413E+02  0.1116E+04  0.1115E+04
      4.693  0.1056E+03  0.1073E+03  0.1121E+04  0.1121E+04
      4.745  0.1413E+03  0.1364E+03  0.1128E+04  0.1128E+04
      4.797  0.1355E+03  0.1400E+03  0.1135E+04  0.1135E+04
      4.849  0.1219E+03  0.1218E+03  0.1142E+04  0.1141E+04
      4.901  0.1156E+03  0.1177E+03  0.1148E+04  0.1147E+04
      4.952  0.1057E+03  0.1055E+03  0.1153E+04  0.1153E+04
      5.004  0.1057E+03  0.1035E+03  0.1159E+04  0.1158E+04
      5.056  0.1172E+03  0.1194E+03  0.1165E+04  0.1164E+04
      5.108  0.1244E+03  0.1222E+03  0.1171E+04  0.1171E+04
      5.159  0.1106E+03  0.1147E+03  0.1177E+04  0.1177E+04
      5.211  0.1159E+03  0.1157E+03  0.1183E+04  0.1183E+04
      5.263  0.1024E+03  0.9999E+02  0.1188E+04  0.1188E+04
      5.315  0.1047E+03  0.1052E+03  0.1194E+04  0.1193E+04
      5.367  0.1210E+03  0.1201E+03  0.1200E+04  0.1199E+04
      5.418  0.1450E+03  0.1480E+03  0.1207E+04  0.1207E+04
      5.470  0.1438E+03  0.1431E+03  0.1215E+04  0.1214E+04
      5.522  0.1372E+03  0.1365E+03  0.1222E+04  0.1222E+04
      5.574  0.1436E+03  0.1448E+03  0.1229E+04  0.1229E+04
      5.626  0.1429E+03  0.1397E+03  0.1237E+04  0.1236E+04
      5.677  0.1162E+03  0.1195E+03  0.1243E+04  0.1242E+04
      5.729  0.1299E+03  0.1294E+03  0.1250E+04  0.1249E+04
      5.781  0.1096E+03  0.1113E+03  0.1255E+04  0.1255E+04
      5.833  0.1446E+03  0.1438E+03  0.1263E+04  0.1262E+04
      5.884  0.1226E+03  0.1283E+03  0.1269E+04  0.1269E+04
      5.936  0.4823E+02  0.4921E+02  0.1272E+04  0.1272E+04
      5.988  0.7480E+01  0.9167E+01  0.1272E+04  0.1272E+04
      6.040  0.0000E+00  0.0000E+00  0.1272E+04  0.1272E+04
      6.092  0.0000E+00  0.0000E+00  0.1272E+04  0.1272E+04
      6.143  0.0000E+00  0.0000E+00  0.1272E+04  0.1272E+04
      6.195  0.0000E+00  0.0000E+00  0.1272E+04  0.1272E+04
      6.247  0.0000E+00  0.0000E+00  0.1272E+04  0.1272E+04
      6.299  0.0000E+00  0.0000E+00  0.1272E+04  0.1272E+04
      6.351  0.0000E+00  0.0000E+00  0.1272E+04  0.1272E+04
      6.402  0.0000E+00  0.0000E+00  0.1272E+04  0.1272E+04
      6.454  0.0000E+00  0.0000E+00  0.1272E+04  0.1272E+04
      6.506  0.0000E+00  0.0000E+00  0.1272E+04  0.1272E+04
      6.558  0.0000E+00  0.0000E+00  0.1272E+04  0.1272E+04
      6.610  0.0000E+00  0.0000E+00  0.1272E+04  0.1272E+04
      6.661  0.0000E+00  0.0000E+00  0.1272E+04  0.1272E+04
