  96  96   0   0
  0.2276159E+02  0.1265123E-08  0.1265123E-08  0.1393391E-08  0.5000000E-15
  1.000000000000000E-004
  CAR 
 Si and Ge interface calculation         
      6.50677512    -11.57710111  301      3.56754350      1.00000000
    -11.577  0.0000E+00  0.0000E+00  0.0000E+00  0.0000E+00
    -11.517  0.0000E+00  0.0000E+00  0.0000E+00  0.0000E+00
    -11.457  0.0000E+00  0.0000E+00  0.0000E+00  0.0000E+00
    -11.396  0.0000E+00  0.0000E+00  0.0000E+00  0.0000E+00
    -11.336  0.0000E+00  0.0000E+00  0.0000E+00  0.0000E+00
    -11.276  0.0000E+00  0.0000E+00  0.0000E+00  0.0000E+00
    -11.215  0.0000E+00  0.0000E+00  0.0000E+00  0.0000E+00
    -11.155  0.0000E+00  0.0000E+00  0.0000E+00  0.0000E+00
    -11.095  0.0000E+00  0.0000E+00  0.0000E+00  0.0000E+00
    -11.035  0.0000E+00  0.0000E+00  0.0000E+00  0.0000E+00
    -10.974  0.0000E+00  0.0000E+00  0.0000E+00  0.0000E+00
    -10.914  0.0000E+00  0.0000E+00  0.0000E+00  0.0000E+00
    -10.854  0.0000E+00  0.0000E+00  0.0000E+00  0.0000E+00
    -10.793  0.1012E-06  0.7653E-11  0.6100E-08  0.4613E-12
    -10.733  0.3277E+02  0.2649E+02  0.1976E+01  0.1597E+01
    -10.673  0.4010E+00  0.6692E+01  0.2000E+01  0.2000E+01
    -10.613  0.0000E+00  0.0000E+00  0.2000E+01  0.2000E+01
    -10.552  0.0000E+00  0.0000E+00  0.2000E+01  0.2000E+01
    -10.492  0.0000E+00  0.0000E+00  0.2000E+01  0.2000E+01
    -10.432  0.0000E+00  0.0000E+00  0.2000E+01  0.2000E+01
    -10.372  0.0000E+00  0.0000E+00  0.2000E+01  0.2000E+01
    -10.311  0.0000E+00  0.0000E+00  0.2000E+01  0.2000E+01
    -10.251  0.0000E+00  0.0000E+00  0.2000E+01  0.2000E+01
    -10.191  0.1083E-02  0.1636E-05  0.2000E+01  0.2000E+01
    -10.130  0.3317E+02  0.3254E+02  0.3999E+01  0.3961E+01
    -10.070  0.3315E+02  0.3279E+02  0.5998E+01  0.5938E+01
    -10.010  0.1171E-01  0.1020E+01  0.6000E+01  0.6000E+01
     -9.950  0.2723E-01  0.3897E-03  0.6002E+01  0.6000E+01
     -9.889  0.2209E+02  0.2209E+02  0.7333E+01  0.7332E+01
     -9.829  0.0000E+00  0.1219E-01  0.7333E+01  0.7333E+01
     -9.769  0.7694E-01  0.1173E-02  0.7338E+01  0.7333E+01
     -9.708  0.1098E+02  0.1106E+02  0.8000E+01  0.8000E+01
     -9.648  0.5531E+01  0.1013E+01  0.8333E+01  0.8061E+01
     -9.588  0.1938E+02  0.2126E+02  0.9502E+01  0.9343E+01
     -9.528  0.1933E+02  0.2196E+02  0.1067E+02  0.1067E+02
     -9.467  0.0000E+00  0.0000E+00  0.1067E+02  0.1067E+02
     -9.407  0.0000E+00  0.0000E+00  0.1067E+02  0.1067E+02
     -9.347  0.5969E-12  0.0000E+00  0.1067E+02  0.1067E+02
     -9.286  0.1441E+02  0.4644E+01  0.1154E+02  0.1095E+02
     -9.226  0.2983E+02  0.3959E+02  0.1333E+02  0.1333E+02
     -9.166  0.6808E-04  0.1020E-06  0.1333E+02  0.1333E+02
     -9.106  0.1106E+02  0.1093E+02  0.1400E+02  0.1399E+02
     -9.045  0.0000E+00  0.1285E+00  0.1400E+02  0.1400E+02
     -8.985  0.0000E+00  0.0000E+00  0.1400E+02  0.1400E+02
     -8.925  0.2169E-06  0.1104E-09  0.1400E+02  0.1400E+02
     -8.865  0.2197E+02  0.1876E+02  0.1532E+02  0.1513E+02
     -8.804  0.2066E+02  0.2284E+02  0.1657E+02  0.1651E+02
     -8.744  0.1082E+02  0.1182E+02  0.1722E+02  0.1722E+02
     -8.684  0.2060E+01  0.1875E+01  0.1735E+02  0.1733E+02
     -8.623  0.1779E+02  0.1673E+02  0.1842E+02  0.1834E+02
     -8.563  0.9927E+01  0.1092E+02  0.1902E+02  0.1900E+02
     -8.503  0.2387E+02  0.1756E+02  0.2046E+02  0.2006E+02
     -8.443  0.1058E+02  0.1491E+02  0.2109E+02  0.2096E+02
     -8.382  0.1492E+02  0.1641E+02  0.2199E+02  0.2195E+02
     -8.322  0.1015E+02  0.6873E+01  0.2260E+02  0.2236E+02
     -8.262  0.2355E+02  0.2693E+02  0.2402E+02  0.2398E+02
     -8.201  0.1416E+02  0.9655E+01  0.2488E+02  0.2457E+02
     -8.141  0.2119E+02  0.2410E+02  0.2616E+02  0.2602E+02
     -8.081  0.2169E+02  0.2064E+02  0.2746E+02  0.2726E+02
     -8.021  0.3376E+02  0.3561E+02  0.2950E+02  0.2941E+02
     -7.960  0.6950E+01  0.7970E+01  0.2992E+02  0.2989E+02
     -7.900  0.2196E+02  0.2184E+02  0.3124E+02  0.3121E+02
     -7.840  0.1756E+02  0.1277E+02  0.3230E+02  0.3198E+02
     -7.779  0.3202E+02  0.3509E+02  0.3423E+02  0.3409E+02
     -7.719  0.1951E+02  0.1913E+02  0.3541E+02  0.3524E+02
     -7.659  0.2169E+02  0.1757E+02  0.3671E+02  0.3630E+02
     -7.599  0.2664E+02  0.3142E+02  0.3832E+02  0.3820E+02
     -7.538  0.2805E+02  0.2660E+02  0.4001E+02  0.3980E+02
     -7.478  0.2539E+02  0.2260E+02  0.4154E+02  0.4117E+02
     -7.418  0.1978E+02  0.2228E+02  0.4274E+02  0.4251E+02
     -7.358  0.3527E+02  0.3532E+02  0.4486E+02  0.4464E+02
     -7.297  0.3129E+02  0.2871E+02  0.4675E+02  0.4637E+02
     -7.237  0.2832E+02  0.3442E+02  0.4846E+02  0.4844E+02
     -7.177  0.2509E+02  0.2050E+02  0.4997E+02  0.4968E+02
     -7.116  0.1346E+02  0.1332E+02  0.5078E+02  0.5048E+02
     -7.056  0.2728E+02  0.2808E+02  0.5242E+02  0.5217E+02
     -6.996  0.3261E+02  0.3222E+02  0.5439E+02  0.5412E+02
     -6.936  0.2484E+02  0.2658E+02  0.5589E+02  0.5572E+02
     -6.875  0.1844E+02  0.2020E+02  0.5700E+02  0.5694E+02
     -6.815  0.2759E+02  0.2261E+02  0.5866E+02  0.5830E+02
     -6.755  0.3179E+02  0.3189E+02  0.6058E+02  0.6022E+02
     -6.694  0.1805E+02  0.2395E+02  0.6167E+02  0.6167E+02
     -6.634  0.2534E+02  0.2224E+02  0.6319E+02  0.6301E+02
     -6.574  0.2000E+02  0.2023E+02  0.6440E+02  0.6423E+02
     -6.514  0.3925E+02  0.4073E+02  0.6677E+02  0.6668E+02
     -6.453  0.2482E+02  0.2250E+02  0.6826E+02  0.6804E+02
     -6.393  0.2234E+02  0.2006E+02  0.6961E+02  0.6925E+02
     -6.333  0.3822E+02  0.3776E+02  0.7191E+02  0.7152E+02
     -6.272  0.3388E+02  0.3645E+02  0.7396E+02  0.7372E+02
     -6.212  0.3296E+02  0.3351E+02  0.7594E+02  0.7574E+02
     -6.152  0.2941E+02  0.2991E+02  0.7772E+02  0.7755E+02
     -6.092  0.2131E+02  0.2125E+02  0.7900E+02  0.7883E+02
     -6.031  0.1686E+02  0.1753E+02  0.8002E+02  0.7988E+02
     -5.971  0.1597E+02  0.1374E+02  0.8098E+02  0.8071E+02
     -5.911  0.2476E+02  0.2429E+02  0.8247E+02  0.8218E+02
     -5.851  0.2830E+02  0.2861E+02  0.8418E+02  0.8390E+02
     -5.790  0.1478E+02  0.1713E+02  0.8507E+02  0.8493E+02
     -5.730  0.2958E+02  0.2548E+02  0.8685E+02  0.8647E+02
     -5.670  0.2118E+02  0.2217E+02  0.8813E+02  0.8781E+02
     -5.609  0.1994E+02  0.2323E+02  0.8933E+02  0.8921E+02
     -5.549  0.2207E+02  0.2205E+02  0.9066E+02  0.9054E+02
     -5.489  0.1471E+02  0.1584E+02  0.9155E+02  0.9149E+02
     -5.429  0.1489E+02  0.1266E+02  0.9245E+02  0.9225E+02
     -5.368  0.3123E+02  0.3123E+02  0.9433E+02  0.9414E+02
     -5.308  0.2143E+02  0.2163E+02  0.9562E+02  0.9544E+02
     -5.248  0.1424E+02  0.1353E+02  0.9648E+02  0.9626E+02
     -5.187  0.2947E+02  0.2877E+02  0.9826E+02  0.9799E+02
     -5.127  0.1612E+02  0.1672E+02  0.9923E+02  0.9900E+02
     -5.067  0.3590E+02  0.3358E+02  0.1014E+03  0.1010E+03
     -5.007  0.2717E+02  0.2868E+02  0.1030E+03  0.1028E+03
     -4.946  0.2717E+02  0.2815E+02  0.1047E+03  0.1044E+03
     -4.886  0.3640E+02  0.3256E+02  0.1069E+03  0.1064E+03
     -4.826  0.2519E+02  0.2854E+02  0.1084E+03  0.1081E+03
     -4.766  0.3473E+02  0.3172E+02  0.1105E+03  0.1100E+03
     -4.705  0.2367E+02  0.2601E+02  0.1119E+03  0.1116E+03
     -4.645  0.2315E+02  0.2552E+02  0.1133E+03  0.1132E+03
     -4.585  0.3620E+02  0.3125E+02  0.1155E+03  0.1150E+03
     -4.524  0.2580E+02  0.3082E+02  0.1170E+03  0.1169E+03
     -4.464  0.3419E+02  0.3438E+02  0.1191E+03  0.1190E+03
     -4.404  0.1462E+02  0.1415E+02  0.1200E+03  0.1198E+03
     -4.344  0.2932E+02  0.2544E+02  0.1217E+03  0.1214E+03
     -4.283  0.2373E+02  0.2641E+02  0.1232E+03  0.1229E+03
     -4.223  0.1533E+02  0.1255E+02  0.1241E+03  0.1237E+03
     -4.163  0.2630E+02  0.2658E+02  0.1257E+03  0.1253E+03
     -4.102  0.2325E+02  0.2277E+02  0.1271E+03  0.1267E+03
     -4.042  0.9953E+01  0.1550E+02  0.1277E+03  0.1276E+03
     -3.982  0.3335E+02  0.3201E+02  0.1297E+03  0.1295E+03
     -3.922  0.2418E+02  0.2563E+02  0.1312E+03  0.1311E+03
     -3.861  0.2850E+02  0.2432E+02  0.1329E+03  0.1326E+03
     -3.801  0.2391E+02  0.2697E+02  0.1343E+03  0.1342E+03
     -3.741  0.2614E+02  0.2464E+02  0.1359E+03  0.1357E+03
     -3.680  0.2865E+02  0.2707E+02  0.1376E+03  0.1373E+03
     -3.620  0.2421E+02  0.2180E+02  0.1391E+03  0.1386E+03
     -3.560  0.2897E+02  0.3374E+02  0.1408E+03  0.1406E+03
     -3.500  0.2578E+02  0.2586E+02  0.1424E+03  0.1422E+03
     -3.439  0.1263E+02  0.1192E+02  0.1431E+03  0.1429E+03
     -3.379  0.3750E+02  0.3438E+02  0.1454E+03  0.1450E+03
     -3.319  0.2203E+02  0.2352E+02  0.1467E+03  0.1464E+03
     -3.259  0.4126E+02  0.4194E+02  0.1492E+03  0.1489E+03
     -3.198  0.1889E+02  0.2261E+02  0.1504E+03  0.1503E+03
     -3.138  0.3322E+02  0.2817E+02  0.1524E+03  0.1520E+03
     -3.078  0.3076E+02  0.3359E+02  0.1542E+03  0.1540E+03
     -3.017  0.2630E+02  0.2560E+02  0.1558E+03  0.1556E+03
     -2.957  0.2975E+02  0.2839E+02  0.1576E+03  0.1573E+03
     -2.897  0.3335E+02  0.3462E+02  0.1596E+03  0.1594E+03
     -2.837  0.2544E+02  0.2636E+02  0.1611E+03  0.1610E+03
     -2.776  0.2211E+02  0.2043E+02  0.1625E+03  0.1622E+03
     -2.716  0.2991E+02  0.3116E+02  0.1643E+03  0.1641E+03
     -2.656  0.1789E+02  0.1673E+02  0.1654E+03  0.1651E+03
     -2.595  0.2477E+02  0.2567E+02  0.1668E+03  0.1666E+03
     -2.535  0.2178E+02  0.1872E+02  0.1682E+03  0.1678E+03
     -2.475  0.2501E+02  0.2721E+02  0.1697E+03  0.1694E+03
     -2.415  0.2419E+02  0.2722E+02  0.1711E+03  0.1710E+03
     -2.354  0.9458E+01  0.6499E+01  0.1717E+03  0.1714E+03
     -2.294  0.1579E+02  0.1687E+02  0.1726E+03  0.1724E+03
     -2.234  0.3010E+02  0.2512E+02  0.1745E+03  0.1740E+03
     -2.173  0.1758E+02  0.2410E+02  0.1755E+03  0.1754E+03
     -2.113  0.1806E+02  0.1886E+02  0.1766E+03  0.1765E+03
     -2.053  0.2902E+02  0.2706E+02  0.1784E+03  0.1782E+03
     -1.993  0.2124E+02  0.2166E+02  0.1796E+03  0.1795E+03
     -1.932  0.1903E+02  0.1872E+02  0.1808E+03  0.1806E+03
     -1.872  0.1325E+02  0.1415E+02  0.1816E+03  0.1815E+03
     -1.812  0.2059E+02  0.2197E+02  0.1828E+03  0.1828E+03
     -1.752  0.1711E+02  0.1264E+02  0.1839E+03  0.1836E+03
     -1.691  0.3124E+02  0.3273E+02  0.1857E+03  0.1855E+03
     -1.631  0.2566E+02  0.2543E+02  0.1873E+03  0.1871E+03
     -1.571  0.1653E+02  0.1485E+02  0.1883E+03  0.1880E+03
     -1.510  0.3703E+02  0.3975E+02  0.1905E+03  0.1903E+03
     -1.450  0.1268E+02  0.1234E+02  0.1913E+03  0.1911E+03
     -1.390  0.2650E+02  0.2823E+02  0.1929E+03  0.1928E+03
     -1.330  0.1307E+02  0.1275E+02  0.1937E+03  0.1936E+03
     -1.269  0.2074E+02  0.1723E+02  0.1949E+03  0.1946E+03
     -1.209  0.1983E+02  0.2498E+02  0.1961E+03  0.1961E+03
     -1.149  0.2181E+02  0.1857E+02  0.1974E+03  0.1972E+03
     -1.088  0.9537E+01  0.1218E+02  0.1980E+03  0.1980E+03
     -1.028  0.1744E+02  0.1709E+02  0.1991E+03  0.1990E+03
     -0.968  0.1688E+02  0.1683E+02  0.2001E+03  0.2000E+03
     -0.908  0.1176E+02  0.1230E+02  0.2008E+03  0.2007E+03
     -0.847  0.2125E+02  0.1933E+02  0.2021E+03  0.2019E+03
     -0.787  0.3283E+02  0.3084E+02  0.2040E+03  0.2038E+03
     -0.727  0.3954E+02  0.3628E+02  0.2064E+03  0.2060E+03
     -0.666  0.3552E+02  0.3651E+02  0.2086E+03  0.2082E+03
     -0.606  0.4374E+02  0.4106E+02  0.2112E+03  0.2106E+03
     -0.546  0.5148E+02  0.5455E+02  0.2143E+03  0.2139E+03
     -0.486  0.3874E+02  0.3649E+02  0.2166E+03  0.2161E+03
     -0.425  0.3288E+02  0.3511E+02  0.2186E+03  0.2182E+03
     -0.365  0.3978E+02  0.3680E+02  0.2210E+03  0.2205E+03
     -0.305  0.3900E+02  0.4301E+02  0.2234E+03  0.2231E+03
     -0.245  0.3962E+02  0.3879E+02  0.2258E+03  0.2254E+03
     -0.184  0.4861E+02  0.4537E+02  0.2287E+03  0.2281E+03
     -0.124  0.3644E+02  0.4143E+02  0.2309E+03  0.2306E+03
     -0.064  0.4440E+02  0.4372E+02  0.2336E+03  0.2333E+03
     -0.003  0.4103E+02  0.3710E+02  0.2360E+03  0.2355E+03
      0.057  0.4102E+02  0.4473E+02  0.2385E+03  0.2382E+03
      0.117  0.4667E+02  0.4621E+02  0.2413E+03  0.2410E+03
      0.177  0.5071E+02  0.4667E+02  0.2444E+03  0.2438E+03
      0.238  0.3185E+02  0.3802E+02  0.2463E+03  0.2461E+03
      0.298  0.2730E+02  0.2599E+02  0.2479E+03  0.2476E+03
      0.358  0.4424E+02  0.4421E+02  0.2506E+03  0.2503E+03
      0.419  0.3960E+02  0.3453E+02  0.2530E+03  0.2524E+03
      0.479  0.5453E+02  0.5956E+02  0.2563E+03  0.2560E+03
      0.539  0.3350E+02  0.2962E+02  0.2583E+03  0.2578E+03
      0.599  0.3174E+02  0.3370E+02  0.2602E+03  0.2598E+03
      0.660  0.5897E+02  0.6004E+02  0.2638E+03  0.2634E+03
      0.720  0.5144E+02  0.5160E+02  0.2669E+03  0.2665E+03
      0.780  0.4480E+02  0.4523E+02  0.2696E+03  0.2693E+03
      0.840  0.4888E+02  0.4759E+02  0.2725E+03  0.2721E+03
      0.901  0.5759E+02  0.5908E+02  0.2760E+03  0.2757E+03
      0.961  0.4220E+02  0.3817E+02  0.2785E+03  0.2780E+03
      1.021  0.5107E+02  0.5417E+02  0.2816E+03  0.2813E+03
      1.082  0.3612E+02  0.3677E+02  0.2838E+03  0.2835E+03
      1.142  0.4419E+02  0.4408E+02  0.2865E+03  0.2861E+03
      1.202  0.3770E+02  0.3413E+02  0.2887E+03  0.2882E+03
      1.262  0.3756E+02  0.3926E+02  0.2910E+03  0.2906E+03
      1.323  0.3941E+02  0.4206E+02  0.2934E+03  0.2931E+03
      1.383  0.4578E+02  0.4725E+02  0.2961E+03  0.2959E+03
      1.443  0.3766E+02  0.3429E+02  0.2984E+03  0.2980E+03
      1.504  0.4971E+02  0.5049E+02  0.3014E+03  0.3011E+03
      1.564  0.4128E+02  0.4240E+02  0.3039E+03  0.3036E+03
      1.624  0.4252E+02  0.3974E+02  0.3065E+03  0.3060E+03
      1.684  0.4654E+02  0.4612E+02  0.3093E+03  0.3088E+03
      1.745  0.3528E+02  0.4001E+02  0.3114E+03  0.3112E+03
      1.805  0.4052E+02  0.3297E+02  0.3138E+03  0.3132E+03
      1.865  0.3841E+02  0.4141E+02  0.3161E+03  0.3157E+03
      1.926  0.3834E+02  0.3994E+02  0.3185E+03  0.3181E+03
      1.986  0.3935E+02  0.3527E+02  0.3208E+03  0.3202E+03
      2.046  0.5941E+02  0.6206E+02  0.3244E+03  0.3240E+03
      2.106  0.4627E+02  0.4745E+02  0.3272E+03  0.3268E+03
      2.167  0.2815E+02  0.3168E+02  0.3289E+03  0.3287E+03
      2.227  0.3872E+02  0.3643E+02  0.3312E+03  0.3309E+03
      2.287  0.3999E+02  0.3724E+02  0.3336E+03  0.3332E+03
      2.347  0.4893E+02  0.4344E+02  0.3366E+03  0.3358E+03
      2.408  0.3656E+02  0.4065E+02  0.3388E+03  0.3382E+03
      2.468  0.3694E+02  0.4035E+02  0.3410E+03  0.3407E+03
      2.528  0.1972E+02  0.2200E+02  0.3422E+03  0.3420E+03
      2.589  0.3573E+02  0.3372E+02  0.3444E+03  0.3440E+03
      2.649  0.4326E+02  0.3650E+02  0.3470E+03  0.3462E+03
      2.709  0.4140E+02  0.4648E+02  0.3495E+03  0.3490E+03
      2.769  0.3611E+02  0.3960E+02  0.3516E+03  0.3514E+03
      2.830  0.4269E+02  0.4137E+02  0.3542E+03  0.3539E+03
      2.890  0.4042E+02  0.3722E+02  0.3567E+03  0.3562E+03
      2.950  0.4816E+02  0.4607E+02  0.3596E+03  0.3589E+03
      3.011  0.3415E+02  0.3973E+02  0.3616E+03  0.3613E+03
      3.071  0.4887E+02  0.4452E+02  0.3646E+03  0.3640E+03
      3.131  0.3850E+02  0.3918E+02  0.3669E+03  0.3664E+03
      3.191  0.3235E+02  0.2708E+02  0.3688E+03  0.3680E+03
      3.252  0.3601E+02  0.4204E+02  0.3710E+03  0.3705E+03
      3.312  0.4358E+02  0.4124E+02  0.3736E+03  0.3730E+03
      3.372  0.3448E+02  0.3492E+02  0.3757E+03  0.3751E+03
      3.433  0.3208E+02  0.3404E+02  0.3776E+03  0.3772E+03
      3.493  0.5237E+02  0.5204E+02  0.3808E+03  0.3803E+03
      3.553  0.3701E+02  0.3489E+02  0.3830E+03  0.3824E+03
      3.613  0.4508E+02  0.4591E+02  0.3858E+03  0.3852E+03
      3.674  0.2818E+02  0.3209E+02  0.3875E+03  0.3871E+03
      3.734  0.4216E+02  0.4091E+02  0.3900E+03  0.3896E+03
      3.794  0.4696E+02  0.4801E+02  0.3928E+03  0.3925E+03
      3.854  0.3921E+02  0.3693E+02  0.3952E+03  0.3947E+03
      3.915  0.4818E+02  0.3705E+02  0.3981E+03  0.3970E+03
      3.975  0.3979E+02  0.4182E+02  0.4005E+03  0.3995E+03
      4.035  0.4386E+02  0.4592E+02  0.4031E+03  0.4022E+03
      4.096  0.4203E+02  0.5137E+02  0.4057E+03  0.4053E+03
      4.156  0.4513E+02  0.4194E+02  0.4084E+03  0.4079E+03
      4.216  0.3654E+02  0.3413E+02  0.4106E+03  0.4099E+03
      4.276  0.3869E+02  0.3708E+02  0.4129E+03  0.4122E+03
      4.337  0.4057E+02  0.4856E+02  0.4154E+03  0.4151E+03
      4.397  0.4077E+02  0.3853E+02  0.4178E+03  0.4174E+03
      4.457  0.3344E+02  0.3260E+02  0.4198E+03  0.4194E+03
      4.518  0.3048E+02  0.3582E+02  0.4217E+03  0.4215E+03
      4.578  0.4327E+02  0.3884E+02  0.4243E+03  0.4239E+03
      4.638  0.3675E+02  0.3656E+02  0.4265E+03  0.4261E+03
      4.698  0.2875E+02  0.2781E+02  0.4282E+03  0.4278E+03
      4.759  0.4132E+02  0.4042E+02  0.4307E+03  0.4302E+03
      4.819  0.3165E+02  0.3393E+02  0.4326E+03  0.4322E+03
      4.879  0.2452E+02  0.2819E+02  0.4341E+03  0.4339E+03
      4.940  0.2472E+02  0.2315E+02  0.4356E+03  0.4353E+03
      5.000  0.4357E+02  0.4186E+02  0.4382E+03  0.4379E+03
      5.060  0.3290E+02  0.3219E+02  0.4402E+03  0.4398E+03
      5.120  0.4728E+02  0.4537E+02  0.4431E+03  0.4425E+03
      5.181  0.3630E+02  0.3214E+02  0.4453E+03  0.4445E+03
      5.241  0.3698E+02  0.4484E+02  0.4475E+03  0.4472E+03
      5.301  0.4983E+02  0.4463E+02  0.4505E+03  0.4499E+03
      5.361  0.3699E+02  0.3897E+02  0.4527E+03  0.4522E+03
      5.422  0.4769E+02  0.4641E+02  0.4556E+03  0.4550E+03
      5.482  0.4040E+02  0.4381E+02  0.4580E+03  0.4577E+03
      5.542  0.4213E+02  0.4139E+02  0.4606E+03  0.4601E+03
      5.603  0.2691E+02  0.2886E+02  0.4622E+03  0.4619E+03
      5.663  0.2176E+02  0.2428E+02  0.4635E+03  0.4634E+03
      5.723  0.8256E+01  0.1078E+02  0.4640E+03  0.4640E+03
      5.783  0.0000E+00  0.0000E+00  0.4640E+03  0.4640E+03
      5.844  0.0000E+00  0.0000E+00  0.4640E+03  0.4640E+03
      5.904  0.0000E+00  0.0000E+00  0.4640E+03  0.4640E+03
      5.964  0.0000E+00  0.0000E+00  0.4640E+03  0.4640E+03
      6.025  0.0000E+00  0.0000E+00  0.4640E+03  0.4640E+03
      6.085  0.0000E+00  0.0000E+00  0.4640E+03  0.4640E+03
      6.145  0.0000E+00  0.0000E+00  0.4640E+03  0.4640E+03
      6.205  0.0000E+00  0.0000E+00  0.4640E+03  0.4640E+03
      6.266  0.0000E+00  0.0000E+00  0.4640E+03  0.4640E+03
      6.326  0.0000E+00  0.0000E+00  0.4640E+03  0.4640E+03
      6.386  0.0000E+00  0.0000E+00  0.4640E+03  0.4640E+03
      6.446  0.0000E+00  0.0000E+00  0.4640E+03  0.4640E+03
      6.507  0.0000E+00  0.0000E+00  0.4640E+03  0.4640E+03
