 vasp.6.4.3 19Mar24 (build Oct 22 2024 11:23:12) complex                        
  
 executed on             LinuxIFC date 2025.06.09  05:46:36
 running   64 mpi-ranks, on    4 nodes
 distrk:  each k-point on   64 cores,    1 groups
 distr:  one band on NCORE=  16 cores,    4 groups


--------------------------------------------------------------------------------------------------------


 INCAR:
   SYSTEM = Si and Ge interface calculation
   ISTART = 0
   ICHARG = 2
   LWAVE = .FALSE.
   LREAL = AUTO
   ENCUT = 700
   ENAUG = 900
   ADDGRID = .TRUE.
   LMAXMIX = 6
   LASPH = .TRUE.
   LMIXTAU = .TRUE.
   NCORE = 16
   NELM = 100
   NBANDS = 432
   EDIFF = 1d-7
   AMIX = 0.6
   ISMEAR = 0
   SIGMA = 0.01
   NELECT = 720
   ISPIN = 2
   NUPDOWN = 1
   LVTOT = .FALSE.
   LVHAR = .TRUE.

 POTCAR:    PAW_PBE Ge 05Jan2001                  
 POTCAR:    PAW_PBE Sn 08Apr2002                  
 -----------------------------------------------------------------------------
|                                                                             |
|           W    W    AA    RRRRR   N    N  II  N    N   GGGG   !!!           |
|           W    W   A  A   R    R  NN   N  II  NN   N  G    G  !!!           |
|           W    W  A    A  R    R  N N  N  II  N N  N  G       !!!           |
|           W WW W  AAAAAA  RRRRR   N  N N  II  N  N N  G  GGG   !            |
|           WW  WW  A    A  R   R   N   NN  II  N   NN  G    G                |
|           W    W  A    A  R    R  N    N  II  N    N   GGGG   !!!           |
|                                                                             |
|     You use a magnetic or noncollinear calculation, but did not specify     |
|     the initial magnetic moment with the MAGMOM tag. Note that a            |
|     default of 5.556e-3 will be used for all atoms. This ferromagnetic      |
|     setup may break the symmetry of the crystal, in particular it may       |
|     rule out finding an antiferromagnetic solution. Thence, we              |
|     recommend setting the initial magnetic moment manually or verifying     |
|     carefully that this magnetic setup is desired.                          |
|                                                                             |
 -----------------------------------------------------------------------------

 POTCAR:    PAW_PBE Ge 05Jan2001                  
   VRHFIN =Ge: s2p2                                                                                 
   LEXCH  = PE                                                                                      
   EATOM  =   104.9960 eV,    7.7170 Ry                                                             
                                                                                                    
   TITEL  = PAW_PBE Ge 05Jan2001                                                                    
   LULTRA =        F    use ultrasoft PP ?                                                          
   IUNSCR =        1    unscreen: 0-lin 1-nonlin 2-no                                               
   RPACOR =    2.170    partial core radius                                                         
   POMASS =   72.610; ZVAL   =    4.000    mass and valenz                                          
   RCORE  =    2.300    outmost cutoff radius                                                       
   RWIGS  =    2.300; RWIGS  =    1.217    wigner-seitz radius (au A)                               
   ENMAX  =  173.807; ENMIN  =  130.355 eV                                                          
   ICORE  =        3    local potential                                                             
   LCOR   =        T    correct aug charges                                                         
   LPAW   =        T    paw PP                                                                      
   EAUG   =  385.843                                                                                
   DEXC   =    0.000                                                                                
   RMAX   =    2.342    core radius for proj-oper                                                   
   RAUG   =    1.300    factor for augmentation sphere                                              
   RDEP   =    2.318    radius for radial grids                                                     
   RDEPT  =    2.103    core radius for aug-charge                                                  
                                                                                                    
   Atomic configuration                                                                             
   10 entries                                                                                       
     n  l   j            E        occ.                                                              
     1  0  0.50    -10959.8463   2.0000                                                             
     2  0  0.50     -1371.6056   2.0000                                                             
     2  1  1.50     -1198.4791   6.0000                                                             
     3  0  0.50      -168.4733   2.0000                                                             
     3  1  1.50      -115.6019   6.0000                                                             
     3  2  2.50       -29.3106  10.0000                                                             
     4  0  0.50       -11.7309   2.0000                                                             
     4  1  0.50        -3.8952   2.0000                                                             
     4  2  1.50        -4.0817   0.0000                                                             
     4  3  2.50        -4.0817   0.0000                                                             
   Description                                                                                      
     l       E           TYP  RCUT    TYP  RCUT                                                     
     0    -11.7309493     23  2.300                                                                 
     0     -7.4578696     23  2.300                                                                 
     1     -3.8952261     23  2.300                                                                 
     1      6.1178114     23  2.300                                                                 
     2     -4.0817478     23  2.300                                                                 
     3     -1.3605826      7  2.300                                                                 
  local pseudopotential read in
  partial core-charges read in
  partial kinetic energy density read in
  atomic valenz-charges read in
  non local Contribution for L=           0  read in
    real space projection operators read in
  non local Contribution for L=           0  read in
    real space projection operators read in
  non local Contribution for L=           1  read in
    real space projection operators read in
  non local Contribution for L=           1  read in
    real space projection operators read in
  non local Contribution for L=           2  read in
    real space projection operators read in
    PAW grid and wavefunctions read in
 
   number of l-projection  operators is LMAX  =           5
   number of lm-projection operators is LMMAX =          13
 
 POTCAR:    PAW_PBE Sn 08Apr2002                  
   VRHFIN =Sn: s2p2                                                                                 
   LEXCH  = PE                                                                                      
   EATOM  =    94.0860 eV,    6.9151 Ry                                                             
                                                                                                    
   TITEL  = PAW_PBE Sn 08Apr2002                                                                    
   LULTRA =        F    use ultrasoft PP ?                                                          
   IUNSCR =        1    unscreen: 0-lin 1-nonlin 2-no                                               
   RPACOR =    2.000    partial core radius                                                         
   POMASS =  118.710; ZVAL   =    4.000    mass and valenz                                          
   RCORE  =    3.000    outmost cutoff radius                                                       
   RWIGS  =    2.960; RWIGS  =    1.566    wigner-seitz radius (au A)                               
   ENMAX  =  103.236; ENMIN  =   77.427 eV                                                          
   ICORE  =        3    local potential                                                             
   LCOR   =        T    correct aug charges                                                         
   LPAW   =        T    paw PP                                                                      
   EAUG   =  263.585                                                                                
   DEXC   =    0.000                                                                                
   RMAX   =    3.078    core radius for proj-oper                                                   
   RAUG   =    1.300    factor for augmentation sphere                                              
   RDEP   =    3.022    radius for radial grids                                                     
   RDEPT  =    2.655    core radius for aug-charge                                                  
                                                                                                    
   Atomic configuration                                                                             
   13 entries                                                                                       
     n  l   j            E        occ.                                                              
     1  0  0.50    -29007.2859   2.0000                                                             
     2  0  0.50     -4378.8056   2.0000                                                             
     2  1  1.50     -3930.4293   6.0000                                                             
     3  0  0.50      -845.0264   2.0000                                                             
     3  1  1.50      -698.5725   6.0000                                                             
     3  2  2.50      -473.2839  10.0000                                                             
     4  0  0.50      -133.9036   2.0000                                                             
     4  1  1.50       -89.6752   6.0000                                                             
     4  2  2.50       -25.8375  10.0000                                                             
     5  0  0.50       -10.5484   2.0000                                                             
     5  1  0.50        -3.6940   2.0000                                                             
     5  2  1.50        -1.3606   0.0000                                                             
     4  3  2.50        -4.0817   0.0000                                                             
   Description                                                                                      
     l       E           TYP  RCUT    TYP  RCUT                                                     
     0    -10.5483727     23  3.000                                                                 
     0     27.2116520     23  3.000                                                                 
     1     -3.6939829     23  3.000                                                                 
     1      1.9821976     23  3.000                                                                 
     2     -1.3605826     23  3.000                                                                 
     3     -2.7211652     23  3.000                                                                 
  local pseudopotential read in
  partial core-charges read in
  partial kinetic energy density read in
  atomic valenz-charges read in
  non local Contribution for L=           0  read in
    real space projection operators read in
  non local Contribution for L=           0  read in
    real space projection operators read in
  non local Contribution for L=           1  read in
    real space projection operators read in
  non local Contribution for L=           1  read in
    real space projection operators read in
  non local Contribution for L=           2  read in
    real space projection operators read in
    PAW grid and wavefunctions read in
 
   number of l-projection  operators is LMAX  =           5
   number of lm-projection operators is LMMAX =          13
 
 Optimization of the real space projectors (new method)

 maximal supplied QI-value         = 16.25
 optimisation between [QCUT,QGAM] = [ 13.49, 26.98] = [ 50.95,203.80] Ry 
 Optimized for a Real-space Cutoff    1.25 Angstroem

   l    n(q)    QCUT    max X(q) W(low)/X(q) W(high)/X(q)  e(spline) 
   0     10    13.489    65.336    0.91E-04    0.11E-03    0.34E-06
   0     10    13.489    52.220    0.89E-04    0.11E-03    0.34E-06
   1     10    13.489    36.409    0.22E-03    0.27E-03    0.14E-06
   1     10    13.489    21.334    0.21E-03    0.27E-03    0.14E-06
   2      9    13.489     4.673    0.11E-03    0.12E-03    0.19E-06
 Optimization of the real space projectors (new method)

 maximal supplied QI-value         = 12.47
 optimisation between [QCUT,QGAM] = [ 12.47, 27.06] = [ 43.56,205.12] Ry 
 Optimized for a Real-space Cutoff    1.58 Angstroem

   l    n(q)    QCUT    max X(q) W(low)/X(q) W(high)/X(q)  e(spline) 
   0     13    12.472    14.688    0.45E-04    0.45E-04    0.25E-05
   0     13    12.472     7.308    0.94E-04    0.11E-03    0.61E-05
   1     12    12.472    45.102    0.34E-03    0.14E-03    0.21E-05
   1     12    12.472    30.691    0.31E-03    0.13E-03    0.20E-05
   2     12    12.472     7.156    0.86E-04    0.11E-03    0.17E-05
 WARNING: PSMAXN for non-local potential too small
          PSMAXN should be >   13.5545592237991       NTYP=           2
  PAW_PBE Ge 05Jan2001                  :
 energy of atom  1       EATOM= -104.9960
 kinetic energy error for atom=    0.0001 (will be added to EATOM!!)
  PAW_PBE Sn 08Apr2002                  :
 energy of atom  2       EATOM=  -94.0860
 kinetic energy error for atom=    0.0000 (will be added to EATOM!!)
 
 
 POSCAR: Ge+Sn
  positions in direct lattice
  No initial velocities read in


 exchange-correlation table for PE
   RHO(1)=    0.500       N(1)  =     2000
   RHO(2)=  100.500       N(2)  =     4000
 


--------------------------------------------------------------------------------------------------------


 ion  position               nearest neighbor table
   1  0.979  0.500  0.000- 174 2.31 122 2.45 115 2.45  97 2.45 147 3.14
   2  0.729  0.500  0.114-  98 2.45 123 2.45 116 2.45  97 2.45
   3  0.479  0.500  0.227-  99 2.45 124 2.45 117 2.45  98 2.45
   4  0.229  0.500  0.341- 125 2.45 100 2.45 118 2.45  99 2.45
   5  0.979  0.500  0.455- 126 2.45 119 2.45 101 2.45 100 2.45
   6  0.729  0.500  0.568- 102 2.45 120 2.45 101 2.45 166 3.05
   7  0.313  0.667  0.000- 128 2.45  73 2.45 121 2.45 165 3.27
   8  0.063  0.667  0.114- 129 2.45 122 2.45  74 2.45  73 2.45
   9  0.813  0.667  0.227- 130 2.45 123 2.45  75 2.45  74 2.45
  10  0.563  0.667  0.341- 131 2.45  75 2.45 124 2.45  76 2.45
  11  0.313  0.667  0.455- 132 2.45  77 2.45 125 2.45  76 2.45
  12  0.063  0.667  0.568-  78 2.45 126 2.45  77 2.45 157 3.10
  13  0.646  0.833  0.000-  79 2.45 110 2.45 127 2.45
  14  0.396  0.833  0.114-  80 2.45 128 2.45 111 2.45  79 2.45
  15  0.146  0.833  0.227-  81 2.45 129 2.45 112 2.45  80 2.45
  16  0.896  0.833  0.341-  82 2.45  81 2.45 113 2.45 130 2.45
  17  0.646  0.833  0.455-  83 2.45 114 2.45 131 2.45  82 2.45
  18  0.396  0.833  0.568-  84 2.45 132 2.45  83 2.45 145 2.63 172 2.88
  19  0.979  0.000  0.000- 109 2.45 134 2.45 103 2.45
  20  0.729  1.000  0.114- 104 2.45 135 2.45 110 2.45 103 2.45
  21  0.479  1.000  0.227- 136 2.45 105 2.45 111 2.45 104 2.45
  22  0.229  1.000  0.341- 105 2.45 137 2.45 112 2.45 106 2.45
  23  0.979  1.000  0.455- 138 2.45 113 2.45 106 2.45 107 2.45
  24  0.729  1.000  0.568- 108 2.45 114 2.45 107 2.45 163 2.59
  25  0.313  0.167  0.000- 140 2.45 133 2.45  85 2.45
  26  0.063  0.167  0.114- 141 2.45  86 2.45 134 2.45  85 2.45
  27  0.813  0.167  0.227- 135 2.45 142 2.45  87 2.45  86 2.45
  28  0.563  0.167  0.341- 136 2.45  87 2.45  88 2.45 143 2.45
  29  0.313  0.167  0.455- 144 2.45  89 2.45 137 2.45  88 2.45
  30  0.063  0.167  0.568-  90 2.45 138 2.45  89 2.45
  31  0.646  0.333  0.000- 159 2.36 116 2.45 139 2.45  91 2.45
  32  0.396  0.333  0.114-  92 2.45 117 2.45 140 2.45  91 2.45
  33  0.146  0.333  0.227- 118 2.45  93 2.45 141 2.45  92 2.45
  34  0.896  0.333  0.341- 142 2.45  94 2.45 119 2.45  93 2.45
  35  0.646  0.333  0.455- 120 2.45  95 2.45 143 2.45  94 2.45
  36  0.396  0.333  0.568- 144 2.45  96 2.45  95 2.45 148 3.09
  37  0.146  0.833  0.000- 180 2.36 109 2.45  73 2.45  80 2.45
  38  0.896  0.833  0.114- 110 2.45  74 2.45  81 2.45 109 2.45
  39  0.646  0.833  0.227- 111 2.45  75 2.45  82 2.45 110 2.45
  40  0.396  0.833  0.341- 112 2.45  83 2.45  76 2.45 111 2.45
  41  0.146  0.833  0.455-  84 2.45 113 2.45  77 2.45 112 2.45
  42  0.896  0.833  0.568-  78 2.45 114 2.45 113 2.45 163 3.09
  43  0.146  0.333  0.000-  92 2.45 115 2.45  85 2.45
  44  0.896  0.333  0.114-  93 2.45 116 2.45  86 2.45 115 2.45
  45  0.646  0.333  0.227- 117 2.45  94 2.45  87 2.45 116 2.45
  46  0.396  0.333  0.341-  95 2.45  88 2.45 118 2.45 117 2.45
  47  0.146  0.333  0.455-  96 2.45  89 2.45 119 2.45 118 2.45
  48  0.896  0.333  0.568-  90 2.45 120 2.45 119 2.45 169 2.63 160 2.88
  49  0.479  0.500  0.000-  98 2.45  91 2.45 121 2.45
  50  0.229  0.500  0.114-  99 2.45  92 2.45 122 2.45 121 2.45
  51  0.979  0.500  0.227- 123 2.45  93 2.45 100 2.45 122 2.45
  52  0.729  0.500  0.341-  94 2.45 101 2.45 124 2.45 123 2.45
  53  0.479  0.500  0.455- 102 2.45 125 2.45  95 2.45 124 2.45
  54  0.229  0.500  0.568-  96 2.45 126 2.45 125 2.45 148 2.59
  55  0.813  0.667  0.000- 127 2.45  97 2.45  74 2.45
  56  0.563  0.667  0.114- 128 2.45  98 2.45  75 2.45 127 2.45
  57  0.313  0.667  0.227-  99 2.45 129 2.45  76 2.45 128 2.45
  58  0.063  0.667  0.341-  77 2.45 130 2.45 100 2.45 129 2.45
  59  0.813  0.667  0.455- 131 2.45  78 2.45 101 2.45 130 2.45
  60  0.563  0.667  0.568- 102 2.45 132 2.45 131 2.45
  61  0.479  0.000  0.000- 162 2.31  79 2.45 104 2.45 133 2.45 171 3.14
  62  0.229  1.000  0.114-  80 2.45 105 2.45 134 2.45 133 2.45
  63  0.979  1.000  0.227-  81 2.45 135 2.45 106 2.45 134 2.45
  64  0.729  1.000  0.341-  82 2.45 107 2.45 136 2.45 135 2.45
  65  0.479  1.000  0.455- 137 2.45 108 2.45  83 2.45 136 2.45
  66  0.229  1.000  0.568-  84 2.45 138 2.45 137 2.45 151 3.05
  67  0.813  0.167  0.000- 139 2.45  86 2.45 103 2.45 150 3.27
  68  0.563  0.167  0.114-  87 2.45 140 2.45 104 2.45 139 2.45
  69  0.313  0.167  0.227-  88 2.45 141 2.45 105 2.45 140 2.45
  70  0.063  0.167  0.341-  89 2.45 106 2.45 142 2.45 141 2.45
  71  0.813  0.167  0.455-  90 2.45 142 2.45 107 2.45 143 2.45
  72  0.563  0.167  0.568- 143 2.45 144 2.45 108 2.45 178 3.10
  73  0.146  0.708  0.000-   7 2.45  37 2.45   8 2.45
  74  0.896  0.708  0.114-  38 2.45  55 2.45   8 2.45   9 2.45
  75  0.646  0.708  0.227-  10 2.45  39 2.45  56 2.45   9 2.45
  76  0.396  0.708  0.341-  40 2.45  11 2.45  10 2.45  57 2.45
  77  0.146  0.708  0.455-  58 2.45  11 2.45  41 2.45  12 2.45
  78  0.896  0.708  0.568-  42 2.45  59 2.45  12 2.45 157 2.88 166 3.10
  79  0.479  0.875  0.000-  61 2.45  13 2.45  14 2.45 171 3.13
  80  0.229  0.875  0.114-  62 2.45  14 2.45  37 2.45  15 2.45
  81  0.979  0.875  0.227-  63 2.45  16 2.45  15 2.45  38 2.45
  82  0.729  0.875  0.341-  64 2.45  16 2.45  39 2.45  17 2.45
  83  0.479  0.875  0.455-  17 2.45  40 2.45  65 2.45  18 2.45
  84  0.229  0.875  0.568-  41 2.45  66 2.45  18 2.45 145 3.06
  85  0.146  0.208  0.000- 177 2.36  43 2.45  25 2.45  26 2.45
  86  0.896  0.208  0.114-  67 2.45  26 2.45  44 2.45  27 2.45
  87  0.646  0.208  0.227-  68 2.45  45 2.45  27 2.45  28 2.45
  88  0.396  0.208  0.341-  69 2.45  46 2.45  28 2.45  29 2.45
  89  0.146  0.208  0.455-  70 2.45  47 2.45  29 2.45  30 2.45
  90  0.896  0.208  0.568-  71 2.45  48 2.45  30 2.45 169 2.62
  91  0.479  0.375  0.000- 159 2.31  31 2.45  49 2.45  32 2.45
  92  0.229  0.375  0.114-  32 2.45  43 2.45  50 2.45  33 2.45
  93  0.979  0.375  0.227-  44 2.45  33 2.45  51 2.45  34 2.45
  94  0.729  0.375  0.341-  52 2.45  45 2.45  34 2.45  35 2.45
  95  0.479  0.375  0.455-  35 2.45  46 2.45  53 2.45  36 2.45
  96  0.229  0.375  0.568-  47 2.45  54 2.45  36 2.45 148 2.58
  97  0.813  0.542  0.000-  55 2.45   1 2.45   2 2.45
  98  0.563  0.542  0.114-   2 2.45  49 2.45  56 2.45   3 2.45
  99  0.313  0.542  0.227-  57 2.45   3 2.45  50 2.45   4 2.45
 100  0.063  0.542  0.341-   4 2.45  58 2.45  51 2.45   5 2.45
 101  0.813  0.542  0.455-  52 2.45  59 2.45   5 2.45   6 2.45
 102  0.563  0.542  0.568-   6 2.45  60 2.45  53 2.45 175 3.10
 103  0.813  0.042  0.000-  19 2.45  67 2.45  20 2.45 150 3.26
 104  0.563  0.042  0.114-  20 2.45  61 2.45  68 2.45  21 2.45
 105  0.313  0.042  0.227-  22 2.45  62 2.45  21 2.45  69 2.45
 106  0.063  0.042  0.341-  23 2.45  70 2.45  63 2.45  22 2.45
 107  0.813  0.042  0.455-  64 2.45  71 2.45  23 2.45  24 2.45
 108  0.563  0.042  0.568-  24 2.45  65 2.45  72 2.45
 109  0.979  0.875  0.000- 180 2.31  19 2.45  37 2.45  38 2.45
 110  0.729  0.875  0.114-  38 2.45  13 2.45  20 2.45  39 2.45
 111  0.479  0.875  0.227-  39 2.45  21 2.45  14 2.45  40 2.45
 112  0.229  0.875  0.341-  40 2.45  22 2.45  15 2.45  41 2.45
 113  0.979  0.875  0.455-  41 2.45  23 2.45  42 2.45  16 2.45
 114  0.729  0.875  0.568-  42 2.45  17 2.45  24 2.45 163 2.58
 115  0.979  0.375  0.000-  43 2.45   1 2.45  44 2.45 147 3.13
 116  0.729  0.375  0.114-  31 2.45  44 2.45   2 2.45  45 2.45
 117  0.479  0.375  0.227-  45 2.45  32 2.45   3 2.45  46 2.45
 118  0.229  0.375  0.341-  33 2.45  46 2.45   4 2.45  47 2.45
 119  0.979  0.375  0.455-  47 2.45   5 2.45  34 2.45  48 2.45
 120  0.729  0.375  0.568-  35 2.45  48 2.45   6 2.45 169 3.06
 121  0.313  0.542  0.000-   7 2.45  49 2.45  50 2.45 165 3.26
 122  0.063  0.542  0.114-   1 2.45   8 2.45  50 2.45  51 2.45
 123  0.813  0.542  0.227-  51 2.45   2 2.45   9 2.45  52 2.45
 124  0.563  0.542  0.341-   3 2.45  10 2.45  53 2.45  52 2.45
 125  0.313  0.542  0.455-   4 2.45  53 2.45  11 2.45  54 2.45
 126  0.063  0.542  0.568-   5 2.45  54 2.45  12 2.45
 127  0.646  0.708  0.000- 156 2.36  55 2.45  13 2.45  56 2.45
 128  0.396  0.708  0.114-   7 2.45  56 2.45  14 2.45  57 2.45
 129  0.146  0.708  0.227-   8 2.45  57 2.45  15 2.45  58 2.45
 130  0.896  0.708  0.341-   9 2.45  58 2.45  16 2.45  59 2.45
 131  0.646  0.708  0.455-  59 2.45  10 2.45  17 2.45  60 2.45
 132  0.396  0.708  0.568-  11 2.45  60 2.45  18 2.45 145 2.62
 133  0.313  0.042  0.000-  25 2.45  61 2.45  62 2.45
 134  0.063  0.042  0.114-  19 2.45  62 2.45  26 2.45  63 2.45
 135  0.813  0.042  0.227-  20 2.45  63 2.45  27 2.45  64 2.45
 136  0.563  0.042  0.341-  21 2.45  28 2.45  64 2.45  65 2.45
 137  0.313  0.042  0.455-  65 2.45  22 2.45  29 2.45  66 2.45
 138  0.063  0.042  0.568-  23 2.45  66 2.45  30 2.45 154 3.10
 139  0.646  0.208  0.000-  67 2.45  31 2.45  68 2.45
 140  0.396  0.208  0.114-  25 2.45  32 2.45  68 2.45  69 2.45
 141  0.146  0.208  0.227-  26 2.45  33 2.45  69 2.45  70 2.45
 142  0.896  0.208  0.341-  34 2.45  71 2.45  27 2.45  70 2.45
 143  0.646  0.208  0.455-  35 2.45  28 2.45  72 2.45  71 2.45
 144  0.396  0.208  0.568-  29 2.45  36 2.45  72 2.45 178 2.88 151 3.10
 145  0.309  0.770  0.681- 132 2.62  18 2.63 172 2.74 173 2.81  84 3.06
 146  0.109  0.604  0.763- 173 2.74 157 2.74 174 2.81
 147  0.909  0.437  0.846- 158 2.74 174 2.74 160 2.81 115 3.13   1 3.14
 148  0.309  0.437  0.681-  96 2.58  54 2.59 175 2.74 176 2.81  36 3.09
 149  0.109  0.270  0.763- 176 2.74 160 2.74 177 2.81
 150  0.909  0.104  0.846- 177 2.74 161 2.74 154 2.81 103 3.26  67 3.27
 151  0.309  0.104  0.681- 178 2.74 179 2.81  66 3.05 144 3.10
 152  0.109  0.937  0.763- 179 2.74 154 2.74 180 2.81
 153  0.909  0.770  0.846- 180 2.74 155 2.74 157 2.81
 154  0.959  0.020  0.722- 152 2.74 163 2.74 150 2.81 138 3.10
 155  0.759  0.854  0.805- 153 2.74 164 2.74 163 2.81
 156  0.559  0.687  0.887- 127 2.36 165 2.74 164 2.81
 157  0.959  0.687  0.722- 166 2.74 146 2.74 153 2.81  78 2.88  12 3.10
 158  0.759  0.520  0.805- 167 2.74 147 2.74 166 2.81
 159  0.559  0.354  0.887-  91 2.31  31 2.36 168 2.74 167 2.81
 160  0.959  0.354  0.722- 169 2.74 149 2.74 147 2.81  48 2.88
 161  0.759  0.187  0.805- 150 2.74 170 2.74 169 2.81
 162  0.559  0.020  0.887-  61 2.31 171 2.74 170 2.81
 163  0.809  0.937  0.681- 114 2.58  24 2.59 154 2.74 155 2.81  42 3.09
 164  0.609  0.770  0.763- 172 2.74 155 2.74 156 2.81
 165  0.409  0.604  0.846- 173 2.74 156 2.74 175 2.81 121 3.26   7 3.27
 166  0.809  0.604  0.681- 157 2.74 158 2.81   6 3.05  78 3.10
 167  0.609  0.437  0.763- 158 2.74 175 2.74 159 2.81
 168  0.409  0.270  0.846- 176 2.74 159 2.74 178 2.81
 169  0.809  0.270  0.681-  90 2.62  48 2.63 160 2.74 161 2.81 120 3.06
 170  0.609  0.104  0.763- 178 2.74 161 2.74 162 2.81
 171  0.409  0.937  0.846- 179 2.74 162 2.74 172 2.81  79 3.13  61 3.14
 172  0.459  0.854  0.722- 145 2.74 164 2.74 171 2.81  18 2.88
 173  0.259  0.687  0.805- 165 2.74 146 2.74 145 2.81
 174  0.059  0.520  0.887-   1 2.31 147 2.74 146 2.81
 175  0.459  0.520  0.722- 167 2.74 148 2.74 165 2.81 102 3.10
 176  0.259  0.354  0.805- 168 2.74 149 2.74 148 2.81
 177  0.059  0.187  0.887-  85 2.36 150 2.74 149 2.81
 178  0.459  0.187  0.722- 151 2.74 170 2.74 168 2.81 144 2.88  72 3.10
 179  0.259  0.020  0.805- 171 2.74 152 2.74 151 2.81
 180  0.059  0.854  0.887- 109 2.31  37 2.36 153 2.74 152 2.81
 
  LATTYP: Found a simple orthorhombic cell.
 ALAT       =    13.8587245940
 B/A-ratio  =     1.2701840073
 C/A-ratio  =     1.4142135048
  
  Lattice vectors:
  
 A1 = ( -13.8587245940,   0.0000000000,   0.0000000000)
 A2 = (   0.0000000000,   0.0000000000,  17.6031303410)
 A3 = (   0.0000000000,  19.5991954800,   0.0000000000)


Analysis of symmetry for initial positions (statically):
=====================================================================
 Subroutine PRICEL returns following result:
 
  LATTYP: Found a base centered orthorhombic cell.
 ALAT       =    13.8587212956
 B/A-ratio  =     1.4142138414
 C/A-ratio  =     1.2701843096
  
  Lattice vectors:
  
 A1 = (   6.9293606478,  -9.7995977400,   0.0000000000)
 A2 = (   6.9293606478,   9.7995977400,   0.0000000000)
 A3 = (   0.0000000000,   0.0000000000,  17.6031303410)
 
   2 primitive cells build up your supercell.
 

 Routine SETGRP: Setting up the symmetry group for a 
 simple orthorhombic supercell.


 Subroutine GETGRP returns: Found  1 space group operations
 (whereof  1 operations were pure point group operations)
 out of a pool of  8 trial point group operations.


The static configuration has the point symmetry C_1 .


Analysis of symmetry for dynamics (positions and initial velocities):
=====================================================================
 Subroutine PRICEL returns following result:
 
  LATTYP: Found a base centered orthorhombic cell.
 ALAT       =    13.8587212956
 B/A-ratio  =     1.4142138414
 C/A-ratio  =     1.2701843096
  
  Lattice vectors:
  
 A1 = (   6.9293606478,  -9.7995977400,   0.0000000000)
 A2 = (   6.9293606478,   9.7995977400,   0.0000000000)
 A3 = (   0.0000000000,   0.0000000000,  17.6031303410)
 
   2 primitive cells build up your supercell.
 

 Routine SETGRP: Setting up the symmetry group for a 
 simple orthorhombic supercell.


 Subroutine GETGRP returns: Found  1 space group operations
 (whereof  1 operations were pure point group operations)
 out of a pool of  8 trial point group operations.


The dynamic configuration has the point symmetry C_1 .


Analysis of structural, dynamic, and magnetic symmetry:
=====================================================================
 Subroutine PRICEL returns following result:
 
  LATTYP: Found a base centered orthorhombic cell.
 ALAT       =    13.8587212956
 B/A-ratio  =     1.4142138414
 C/A-ratio  =     1.2701843096
  
  Lattice vectors:
  
 A1 = (   6.9293606478,  -9.7995977400,   0.0000000000)
 A2 = (   6.9293606478,   9.7995977400,   0.0000000000)
 A3 = (   0.0000000000,   0.0000000000,  17.6031303410)
 
   2 primitive cells build up your supercell.
 

 Routine SETGRP: Setting up the symmetry group for a 
 simple orthorhombic supercell.


 Subroutine GETGRP returns: Found  1 space group operations
 (whereof  1 operations were pure point group operations)
 out of a pool of  8 trial point group operations.


The overall configuration has the point symmetry C_1 .


 Subroutine INISYM returns: Found  1 space group operations
 (whereof  1 operations are pure point group operations),
 and found     2 'primitive' translations


----------------------------------------------------------------------------------------

                                     Primitive cell                                     

  volume of cell :    2390.6793

  direct lattice vectors                    reciprocal lattice vectors
     6.929360648 -9.799597740  0.000000000     0.072156729 -0.051022502  0.000000000
     6.929360648  9.799597740  0.000000000     0.072156729  0.051022502  0.000000000
     0.000000000  0.000000000 17.603130341     0.000000000  0.000000000  0.056808078

  length of vectors
    12.002006285 12.002006285 17.603130341     0.088373578  0.088373578  0.056808078

  position of ions in fractional coordinates (direct lattice)
     0.479378725  0.479378665  0.000000015
     0.229378577  0.229378457  0.113635220
     0.979378456  0.979378218  0.227270424
     0.729378457  0.729378099  0.340905577
     0.479378724  0.479378188  0.454540730
     0.229378457  0.229377861  0.568175912
     0.646045296  0.979378640  0.000000017
     0.396045059  0.729378313  0.113635205
     0.146045222  0.479378356  0.227270409
     0.896045111  0.229378127  0.340905577
     0.646045103  0.979377999  0.454540700
     0.396044984  0.729377762  0.568175912
     0.812711826  0.479378452  0.000000022
     0.562711958  0.229378526  0.113635212
     0.312711676  0.979378064  0.227270409
     0.062711869  0.729378257  0.340905517
     0.812711810  0.479377960  0.454540700
     0.562711929  0.229377959  0.568175852
     0.979378695  0.979378695  0.000000020
     0.729378473  0.729378353  0.113635212
     0.479378575  0.479378337  0.227270409
     0.229378606  0.229378188  0.340905577
     0.979378516  0.979378040  0.454540700
     0.729378428  0.729377772  0.568175852
     0.146045162  0.479378536  0.000000021
     0.896045096  0.229378320  0.113635190
     0.646045103  0.979378119  0.227270380
     0.396045007  0.729378023  0.340905577
     0.146045163  0.479378059  0.454540730
     0.896045014  0.229377732  0.568175912
     0.312711959  0.979378645  0.000000020
     0.062711870  0.729378496  0.113635182
     0.812711736  0.479378184  0.227270380
     0.562711928  0.229378198  0.340905517
     0.312711750  0.979378020  0.454540759
     0.062711929  0.729377959  0.568175852
     0.437711810  0.854378556  0.000000000
     0.187711870  0.604378496  0.113635212
     0.937711766  0.354378184  0.227270380
     0.687711959  0.104378287  0.340905577
     0.437711750  0.854378020  0.454540700
     0.187711869  0.604378019  0.568175852
     0.604378725  0.354378665  0.000000010
     0.354378606  0.104378428  0.113635205
     0.104378516  0.854378396  0.227270424
     0.854378487  0.604378069  0.340905517
     0.604378724  0.354378188  0.454540700
     0.354378606  0.104377950  0.568175852
     0.937711796  0.354378452  0.000000020
     0.687711973  0.104378511  0.113635190
     0.437711736  0.854378124  0.227270409
     0.187711928  0.604378198  0.340905517
     0.937711780  0.354377990  0.454540730
     0.687711899  0.104377989  0.568175852
     0.104378694  0.854378814  0.000000014
     0.854378487  0.604378367  0.113635205
     0.604378635  0.354378397  0.227270409
     0.354378576  0.104378218  0.340905577
     0.104378694  0.854378218  0.454540759
     0.854378398  0.604377802  0.568175852
     0.271045281  0.354378655  0.000000021
     0.021045282  0.104378536  0.113635205
     0.771045133  0.854378267  0.227270409
     0.521045089  0.604378105  0.340905577
     0.271045282  0.354378178  0.454540730
     0.021045222  0.104378000  0.568175852
     0.771045222  0.854378596  0.000000008
     0.521045074  0.604378328  0.113635205
     0.271045222  0.354378356  0.227270424
     0.021045163  0.104378179  0.340905577
     0.771045163  0.854378059  0.454540730
     0.521045044  0.604377822  0.568175912
     0.538622692  0.079362824  0.681050241
     0.505289283  0.712695923  0.763480484
     0.471956022  0.346029230  0.845910788
     0.871955975  0.746029421  0.681050241
     0.838622567  0.379362639  0.763480484
     0.805289246  0.012696006  0.845910788
     0.205289378  0.412696138  0.681050241
     0.171955909  0.046029295  0.763480484
     0.138622619  0.679362633  0.845910788
     0.938622583  0.979362835  0.722265303
     0.905289176  0.612696054  0.804695547
     0.871955796  0.246029242  0.887125731
     0.271956135  0.646029521  0.722265303
     0.238622667  0.279362681  0.804695547
     0.205289199  0.912695839  0.887125731
     0.605289359  0.312696297  0.722265303
     0.571955922  0.946029308  0.804695547
     0.538622512  0.579362526  0.887125731

  ion indices of the primitive-cell ions
   primitive index   ion index
                 1           1
                 2           2
                 3           3
                 4           4
                 5           5
                 6           6
                 7          67
                 8           8
                 9           9
                10          70
                11          11
                12          12
                13          43
                14          44
                15          15
                16          16
                17          47
                18          48
                19          19
                20          50
                21          51
                22          52
                23          53
                24          54
                25          55
                26          26
                27          57
                28          58
                29          59
                30          30
                31          31
                32          38
                33          33
                34          34
                35          41
                36          42
                37          73
                38          74
                39         141
                40         142
                41          77
                42          78
                43         115
                44         116
                45          81
                46         118
                47         119
                48         120
                49          85
                50          86
                51         129
                52         130
                53          89
                54          90
                55         109
                56          92
                57          93
                58          94
                59         113
                60          96
                61          97
                62          98
                63          99
                64         100
                65         101
                66         102
                67         121
                68         122
                69         123
                70         124
                71         125
                72         126
                73         169
                74         146
                75         147
                76         148
                77         149
                78         150
                79         166
                80         167
                81         153
                82         175
                83         176
                84         177
                85         157
                86         158
                87         180
                88         160
                89         173
                90         174

----------------------------------------------------------------------------------------

 
 
 KPOINTS: Automatic KPOINTS generated             

Automatic generation of k-mesh.
 Grid dimensions read from file:
 generate k-points for:    2    2    2

 Generating k-lattice:

  Cartesian coordinates                     Fractional coordinates (reciprocal lattice)
     0.036078356  0.000000000  0.000000000     0.500000000  0.000000000  0.000000000
     0.000000000  0.025511251  0.000000000     0.000000000  0.500000000  0.000000000
     0.000000000  0.000000000  0.028404039     0.000000000  0.000000000  0.500000000

  Length of vectors
     0.036078356  0.025511251  0.028404039

  Shift w.r.t. Gamma in fractional coordinates (k-lattice)
     0.000000000  0.000000000  0.000000000

 
 Subroutine IBZKPT returns following result:
 ===========================================
 
 Found      8 irreducible k-points:
 
 Following reciprocal coordinates:
            Coordinates               Weight
  0.000000  0.000000  0.000000      1.000000
  0.500000  0.000000  0.000000      1.000000
  0.000000  0.500000  0.000000      1.000000
  0.500000  0.500000  0.000000      1.000000
  0.000000  0.000000  0.500000      1.000000
  0.500000  0.000000  0.500000      1.000000
  0.000000  0.500000  0.500000      1.000000
  0.500000  0.500000  0.500000      1.000000
 
 Following cartesian coordinates:
            Coordinates               Weight
  0.000000  0.000000  0.000000      1.000000
  0.036078  0.000000  0.000000      1.000000
  0.000000  0.025511  0.000000      1.000000
  0.036078  0.025511  0.000000      1.000000
  0.000000  0.000000  0.028404      1.000000
  0.036078  0.000000  0.028404      1.000000
  0.000000  0.025511  0.028404      1.000000
  0.036078  0.025511  0.028404      1.000000
 


--------------------------------------------------------------------------------------------------------




 Dimension of arrays:
   k-points           NKPTS =      8   k-points in BZ     NKDIM =      8   number of bands    NBANDS=    432
   number of dos      NEDOS =    301   number of ions     NIONS =    180
   non local maximal  LDIM  =      5   non local SUM 2l+1 LMDIM =     13
   total plane-waves  NPLWV = ******
   max r-space proj   IRMAX =   4813   max aug-charges    IRDMAX= 222816
   dimension x,y,z NGX =    90 NGY =  128 NGZ =  120
   dimension x,y,z NGXF=   180 NGYF=  256 NGZF=  240
   support grid    NGXF=   360 NGYF=  512 NGZF=  480
   ions per type =             144  36
   NGX,Y,Z   is equivalent  to a cutoff of  10.80, 10.86, 11.33 a.u.
   NGXF,Y,Z  is equivalent  to a cutoff of  21.59, 21.71, 22.67 a.u.

 SYSTEM =  Si and Ge interface calculation         
 POSCAR =  Ge+Sn                                   

 Startparameter for this run:
   NWRITE =      2    write-flag & timer
   PREC   = normal    normal or accurate (medium, high low for compatibility)
   ISTART =      0    job   : 0-new  1-cont  2-samecut
   ICHARG =      2    charge: 1-file 2-atom 10-const
   ISPIN  =      2    spin polarized calculation?
   LNONCOLLINEAR =      F non collinear calculations
   LSORBIT =      F    spin-orbit coupling
   INIWAV =      1    electr: 0-lowe 1-rand  2-diag
   LASPH  =      T    aspherical Exc in radial PAW
 Electronic Relaxation 1
   ENCUT  =  700.0 eV  51.45 Ry    7.17 a.u.  29.90 42.28 37.97*2*pi/ulx,y,z
   ENINI  =  700.0     initial cutoff
   ENAUG  =  900.0 eV  augmentation charge cutoff
   NELM   =    100;   NELMIN=  2; NELMDL= -5     # of ELM steps 
   EDIFF  = 0.1E-06   stopping-criterion for ELM
   LREAL  =      T    real-space projection
   NLSPLINE    = F    spline interpolate recip. space projectors
   LCOMPAT=      F    compatible to vasp.4.4
   GGA_COMPAT  = T    GGA compatible to vasp.4.4-vasp.4.6
   LMAXPAW     = -100 max onsite density
   LMAXMIX     =    6 max onsite mixed and CHGCAR
   VOSKOWN=      0    Vosko Wilk Nusair interpolation
   ROPT   =   -0.00050  -0.00050
 Ionic relaxation
   EDIFFG = 0.1E-05   stopping-criterion for IOM
   NSW    =      0    number of steps for IOM
   NBLOCK =      1;   KBLOCK =      1    inner block; outer block 
   IBRION =     -1    ionic relax: 0-MD 1-quasi-New 2-CG
   NFREE  =      0    steps in history (QN), initial steepest desc. (CG)
   ISIF   =      2    stress and relaxation
   IWAVPR =     10    prediction:  0-non 1-charg 2-wave 3-comb
   ISYM   =      2    0-nonsym 1-usesym 2-fastsym
   LCORR  =      T    Harris-Foulkes like correction to forces

   POTIM  = 0.5000    time-step for ionic-motion
   TEIN   =    0.0    initial temperature
   TEBEG  =    0.0;   TEEND  =   0.0 temperature during run
   SMASS  =  -3.00    Nose mass-parameter (am)
   estimated Nose-frequenzy (Omega)   =  0.10E-29 period in steps = 0.13E+47 mass=  -0.439E-26a.u.
   SCALEE = 1.0000    scale energy and forces
   NPACO  =    256;   APACO  = 10.0  distance and # of slots for P.C.
   PSTRESS=    0.0 pullay stress

  Mass of Ions in am
   POMASS =  72.61118.71
  Ionic Valenz
   ZVAL   =   4.00  4.00
  Atomic Wigner-Seitz radii
   RWIGS  =  -1.00 -1.00
  virtual crystal weights 
   VCA    =   1.00  1.00
   NELECT =     720.0000    total number of electrons
   NUPDOWN=       1.0000    fix difference up-down

 DOS related values:
   EMIN   =  10.00;   EMAX   =-10.00  energy-range for DOS
   EFERMI =   0.00;   METHOD = LEGACY      
   ISMEAR =     0;   SIGMA  =   0.01  broadening in eV -4-tet -1-fermi 0-gaus

 Electronic relaxation 2 (details)
   IALGO  =     38    algorithm
   LDIAG  =      T    sub-space diagonalisation (order eigenvalues)
   LSUBROT=      F    optimize rotation matrix (better conditioning)
   TURBO    =      0    0=normal 1=particle mesh
   IRESTART =      0    0=no restart 2=restart with 2 vectors
   NREBOOT  =      0    no. of reboots
   NMIN     =      0    reboot dimension
   EREF     =   0.00    reference energy to select bands
   IMIX   =      4    mixing-type and parameters
     AMIX     =   0.60;   BMIX     =  1.00
     AMIX_MAG =   2.40;   BMIX_MAG =  1.00
     AMIN     =   0.10
     WC   =   100.;   INIMIX=   1;  MIXPRE=   1;  MAXMIX= -45

 Intra band minimization:
   WEIMIN = 0.0000     energy-eigenvalue tresh-hold
   EBREAK =  0.58E-10  absolut break condition
   DEPER  =   0.30     relativ break condition  

   TIME   =   0.40     timestep for ELM

  volume/ion in A,a.u.               =      26.56       179.26
  Fermi-wavevector in a.u.,A,eV,Ry     =   0.870967  1.645890 10.321163  0.758584
  Thomas-Fermi vector in A             =   1.990008
 
 Write flags
   LWAVE        =      F    write WAVECAR
   LDOWNSAMPLE  =      F    k-point downsampling of WAVECAR
   LCHARG       =      T    write CHGCAR
   LVTOT        =      F    write LOCPOT, total local potential
   LVHAR        =      T    write LOCPOT, Hartree potential only
   WRT_POTENTIAL=  hartree ionic  ! write potential to hdf5 file
   LELF         =      F    write electronic localiz. function (ELF)
   LORBIT       =      0    0 simple, 1 ext, 2 COOP (PROOUT), +10 PAW based schemes


 Dipole corrections
   LMONO      =      F    monopole corrections only (constant potential shift)
   LDIPOL     =      F    correct potential (dipole corrections)
   IDIPOL     =      0    1-x, 2-y, 3-z, 4-all directions 
   EPSILON    =  1.0000000 bulk dielectric constant
   LVACPOTAV  =      F  vacuum potentials using an averaging scheme for the charge density
   VACPOTFLAT =  0.1000000 required flatness to determine vacuum potential
 Exchange correlation treatment:
   GGA     = PE    functional components
   XC_C    = 1    coefficients multiplying the functional components
   LIBXC   =     F    Libxc                    
   VOSKOWN =     0    Vosko Wilk Nusair interpolation
   LHFCALC =     F    Hartree Fock is set to
   LHFONE  =     F    Hartree Fock one center treatment
   AEXX    =    0.0000 exact exchange contribution

 Parameters of functionals:
   PE:
     No parameter
 
 Van der Waals corrections
   IVDW    =     0    specifies the selected vdW correction

 Linear response parameters
   LEPSILON=     F    determine dielectric tensor
   LRPA    =     F    only Hartree local field effects (RPA)
   LNABLA  =     F    use nabla operator in PAW spheres
   LVEL    =     F    velocity operator in full k-point grid
   CSHIFT  =0.1000    complex shift for real part using Kramers Kronig
   OMEGAMAX=  -1.0    maximum frequency
   DEG_THRESHOLD= 0.2000000E-02 threshold for treating states as degnerate
   RTIME   =   -0.100 relaxation time in fs
  (WPLASMAI=    0.000 imaginary part of plasma frequency in eV, 0.658/RTIME)
   DFIELD  = 0.0000000 0.0000000 0.0000000 field for delta impulse in time
 
  Optional k-point grid parameters
   LKPOINTS_OPT  =     F    use optional k-point grid
   KPOINTS_OPT_MODE=     1    mode for optional k-point grid
 
 Orbital magnetization related:
   ORBITALMAG=     F  switch on orbital magnetization
   LCHIMAG   =     F  perturbation theory with respect to B field
   DQ        =  0.001000  dq finite difference perturbation B field
   LLRAUG    =     F  two centre corrections for induced B field
   LBONE     =     F  B-component reconstruction in AE one-centre
   LVGVCALC  =     T  calculate vGv susceptibility
   LVGVAPPL  =     F  apply vGv susceptibility instead of pGv for G=0

 Random number generation:
   RANDOM_GENERATOR = DEFAULT
   PCG_SEED         = not used


--------------------------------------------------------------------------------------------------------


 Static calculation
 charge density and potential will be updated during run
 spin polarized calculation
 Variant of blocked Davidson
 Davidson routine will perform the subspace rotation
 perform sub-space diagonalisation
    after iterative eigenvector-optimisation
 modified Broyden-mixing scheme, WC =      100.0
 initial mixing is a Kerker type mixing with AMIX =  0.6000 and BMIX =      1.0000
 Hartree-type preconditioning will be used
 using additional bands           72
 real space projection scheme for non local part
 use partial core corrections
 calculate Harris-corrections to forces 
   (improved forces if not selfconsistent)
 use gradient corrections 
 use of overlap-Matrix (Vanderbilt PP)
 Gauss-broadening in eV      SIGMA  =   0.01


--------------------------------------------------------------------------------------------------------


  energy-cutoff  :      700.00
  volume of cell :     4781.36
      direct lattice vectors                 reciprocal lattice vectors
    13.858724594  0.000000000  0.000000000     0.072156712  0.000000000  0.000000000
     0.000000000 19.599195480  0.000000000     0.000000000  0.051022502  0.000000000
     0.000000000  0.000000000 17.603130341     0.000000000  0.000000000  0.056808078

  length of vectors
    13.858724594 19.599195480 17.603130341     0.072156712  0.051022502  0.056808078


 
 k-points in units of 2pi/SCALE and weight: Automatic KPOINTS generated             
   0.00000000  0.00000000  0.00000000       0.125
   0.03607836  0.00000000  0.00000000       0.125
   0.00000000  0.02551125  0.00000000       0.125
   0.03607836  0.02551125  0.00000000       0.125
   0.00000000  0.00000000  0.02840404       0.125
   0.03607836  0.00000000  0.02840404       0.125
   0.00000000  0.02551125  0.02840404       0.125
   0.03607836  0.02551125  0.02840404       0.125
 
 k-points in reciprocal lattice and weights: Automatic KPOINTS generated             
   0.00000000  0.00000000  0.00000000       0.125
   0.50000000  0.00000000  0.00000000       0.125
   0.00000000  0.50000000  0.00000000       0.125
   0.50000000  0.50000000  0.00000000       0.125
   0.00000000  0.00000000  0.50000000       0.125
   0.50000000  0.00000000  0.50000000       0.125
   0.00000000  0.50000000  0.50000000       0.125
   0.50000000  0.50000000  0.50000000       0.125
 
 position of ions in fractional coordinates (direct lattice) 
   0.97937846  0.49999997  0.00000001
   0.72937834  0.49999994  0.11363522
   0.47937822  0.49999988  0.22727042
   0.22937822  0.49999982  0.34090558
   0.97937822  0.49999973  0.45454073
   0.72937798  0.49999970  0.56817591
   0.31271177  0.66666669  0.00000001
   0.06271167  0.66666663  0.11363521
   0.81271160  0.66666657  0.22727041
   0.56271154  0.66666651  0.34090552
   0.31271148  0.66666645  0.45454070
   0.06271136  0.66666639  0.56817591
   0.64604503  0.83333331  0.00000001
   0.39604497  0.83333325  0.11363521
   0.14604483  0.83333319  0.22727041
   0.89604485  0.83333319  0.34090552
   0.64604473  0.83333307  0.45454070
   0.39604467  0.83333302  0.56817591
   0.97937846  0.00000000  0.00000002
   0.72937834  0.99999994  0.11363519
   0.47937828  0.99999988  0.22727041
   0.22937828  0.99999982  0.34090552
   0.97937822  0.99999976  0.45454070
   0.72937810  0.99999970  0.56817591
   0.31271177  0.16666666  0.00000002
   0.06271169  0.16666661  0.11363519
   0.81271160  0.16666654  0.22727038
   0.56271154  0.16666648  0.34090552
   0.31271148  0.16666643  0.45454073
   0.06271136  0.16666636  0.56817591
   0.64604515  0.33333334  0.00000002
   0.39604500  0.33333328  0.11363521
   0.14604492  0.33333322  0.22727038
   0.89604485  0.33333313  0.34090552
   0.64604485  0.33333311  0.45454073
   0.39604473  0.33333305  0.56817591
   0.14604510  0.83333337  0.00000001
   0.89604497  0.83333331  0.11363518
   0.64604485  0.83333325  0.22727041
   0.39604479  0.83333319  0.34090558
   0.14604485  0.83333313  0.45454076
   0.89604473  0.83333302  0.56817585
   0.14604510  0.33333331  0.00000002
   0.89604503  0.33333328  0.11363521
   0.64604491  0.33333322  0.22727041
   0.39604491  0.33333313  0.34090558
   0.14604485  0.33333307  0.45454070
   0.89604473  0.33333302  0.56817585
   0.47937849  0.50000000  0.00000002
   0.22937836  0.49999994  0.11363521
   0.97937822  0.49999988  0.22727041
   0.72937822  0.49999979  0.34090558
   0.47937816  0.49999976  0.45454070
   0.22937804  0.49999967  0.56817585
   0.81271166  0.66666669  0.00000002
   0.56271166  0.66666663  0.11363521
   0.31271154  0.66666651  0.22727038
   0.06271150  0.66666651  0.34090558
   0.81271142  0.66666645  0.45454073
   0.56271136  0.66666633  0.56817585
   0.47937843  0.00000000  0.00000002
   0.22937836  0.99999994  0.11363521
   0.97937822  0.99999988  0.22727038
   0.72937822  0.99999982  0.34090558
   0.47937816  0.99999976  0.45454073
   0.22937804  0.99999970  0.56817591
   0.81271177  0.16666667  0.00000002
   0.56271172  0.16666660  0.11363521
   0.31271166  0.16666657  0.22727038
   0.06271160  0.16666651  0.34090558
   0.81271160  0.16666643  0.45454070
   0.56271148  0.16666640  0.56817591
   0.14604515  0.70833337  0.00000000
   0.89604497  0.70833331  0.11363521
   0.64604491  0.70833325  0.22727042
   0.39604485  0.70833319  0.34090558
   0.14604485  0.70833313  0.45454070
   0.89604473  0.70833307  0.56817585
   0.47937843  0.87500006  0.00000000
   0.22937839  0.87500000  0.11363521
   0.97937822  0.87499994  0.22727042
   0.72937822  0.87499988  0.34090558
   0.47937822  0.87499976  0.45454070
   0.22937810  0.87499976  0.56817585
   0.14604509  0.20833333  0.00000002
   0.89604503  0.20833327  0.11363519
   0.64604491  0.20833321  0.22727038
   0.39604485  0.20833315  0.34090558
   0.14604485  0.20833311  0.45454073
   0.89604473  0.20833305  0.56817585
   0.47937849  0.37500000  0.00000002
   0.22937837  0.37499994  0.11363521
   0.97937828  0.37499988  0.22727041
   0.72937822  0.37499982  0.34090558
   0.47937822  0.37499976  0.45454073
   0.22937804  0.37499970  0.56817585
   0.81271177  0.54166669  0.00000002
   0.56271177  0.54166663  0.11363521
   0.31271163  0.54166657  0.22727041
   0.06271158  0.54166651  0.34090558
   0.81271154  0.54166645  0.45454073
   0.56271148  0.54166639  0.56817585
   0.81271184  0.04166666  0.00000001
   0.56271172  0.04166659  0.11363521
   0.31271163  0.04166653  0.22727041
   0.06271157  0.04166649  0.34090558
   0.81271154  0.04166642  0.45454073
   0.56271148  0.04166634  0.56817591
   0.97937852  0.87500006  0.00000001
   0.72937834  0.87499994  0.11363518
   0.47937828  0.87499988  0.22727041
   0.22937822  0.87499982  0.34090558
   0.97937822  0.87499976  0.45454076
   0.72937810  0.87499970  0.56817585
   0.97937846  0.37499997  0.00000001
   0.72937834  0.37499991  0.11363521
   0.47937828  0.37499985  0.22727041
   0.22937822  0.37499979  0.34090552
   0.97937822  0.37499973  0.45454070
   0.72937810  0.37499967  0.56817585
   0.31271184  0.54166669  0.00000001
   0.06271169  0.54166663  0.11363521
   0.81271160  0.54166657  0.22727042
   0.56271154  0.54166651  0.34090558
   0.31271154  0.54166645  0.45454073
   0.06271142  0.54166639  0.56817591
   0.64604509  0.70833331  0.00000001
   0.39604500  0.70833325  0.11363521
   0.14604490  0.70833319  0.22727041
   0.89604485  0.70833313  0.34090552
   0.64604485  0.70833307  0.45454070
   0.39604473  0.70833302  0.56817585
   0.31271175  0.04166665  0.00000002
   0.06271169  0.04166659  0.11363519
   0.81271160  0.04166654  0.22727038
   0.56271154  0.04166648  0.34090558
   0.31271154  0.04166643  0.45454073
   0.06271142  0.04166637  0.56817585
   0.64604521  0.20833336  0.00000002
   0.39604506  0.20833328  0.11363519
   0.14604494  0.20833321  0.22727038
   0.89604491  0.20833316  0.34090558
   0.64604485  0.20833311  0.45454073
   0.39604473  0.20833305  0.56817585
   0.30899262  0.77037001  0.68105024
   0.10899258  0.60370332  0.76348048
   0.90899241  0.43703660  0.84591079
   0.30899262  0.43703672  0.68105024
   0.10899258  0.27037004  0.76348048
   0.90899241  0.10370338  0.84591079
   0.30899262  0.10370350  0.68105024
   0.10899258  0.93703675  0.76348048
   0.90899241  0.77037001  0.84591079
   0.95899260  0.02037013  0.72226530
   0.75899249  0.85370344  0.80469555
   0.55899239  0.68703675  0.88712573
   0.95899260  0.68703669  0.72226530
   0.75899249  0.52037001  0.80469555
   0.55899239  0.35370332  0.88712573
   0.95899260  0.35370347  0.72226530
   0.75899249  0.18703678  0.80469555
   0.55899239  0.02037013  0.88712573
   0.80899256  0.93703663  0.68105024
   0.60899246  0.77036995  0.76348048
   0.40899232  0.60370332  0.84591079
   0.80899256  0.60370338  0.68105024
   0.60899246  0.43703669  0.76348048
   0.40899232  0.27037001  0.84591079
   0.80899256  0.27037007  0.68105024
   0.60899246  0.10370338  0.76348048
   0.40899232  0.93703669  0.84591079
   0.45899260  0.85370338  0.72226530
   0.25899255  0.68703669  0.80469555
   0.05899250  0.52037001  0.88712573
   0.45899260  0.52037013  0.72226530
   0.25899255  0.35370344  0.80469555
   0.05899250  0.18703672  0.88712573
   0.45899260  0.18703672  0.72226530
   0.25899255  0.02037013  0.80469555
   0.05899250  0.85370332  0.88712573
 
 position of ions in cartesian coordinates  (Angst):
  13.57293638  9.79959715  0.00000026
  10.10825358  9.79959656  2.00033559
   6.64357077  9.79959541  4.00067090
   3.17888962  9.79959423  6.00100531
  13.57293307  9.79959249  8.00133972
  10.10824862  9.79959190 10.00167464
   4.33378637 13.06613072  0.00000026
   0.86910378 13.06612954  2.00033532
  11.26314618 13.06612837  4.00067063
   7.79846422 13.06612721  6.00100425
   4.33378224 13.06612603  8.00133919
   0.86909944 13.06612488 10.00167464
   8.95336013 16.33266250  0.00000026
   5.48867817 16.33266135  2.00033532
   2.02399515 16.33266017  4.00067063
  12.41803880 16.33266017  6.00100425
   8.95335600 16.33265784  8.00133919
   5.48867404 16.33265666 10.00167464
  13.57293638  0.00000000  0.00000035
  10.10825358 19.59919430  2.00033506
   6.64357160 19.59919315  4.00067063
   3.17889045 19.59919197  6.00100425
  13.57293307 19.59919082  8.00133919
  10.10825027 19.59918964 10.00167464
   4.33378637  3.26653239  0.00000035
   0.86910408  3.26653151  2.00033506
  11.26314618  3.26653006  4.00067012
   7.79846422  3.26652888  6.00100425
   4.33378224  3.26652800  8.00133972
   0.86909944  3.26652655 10.00167464
   8.95336178  6.53306535  0.00000035
   5.48867857  6.53306419  2.00033532
   2.02399639  6.53306302  4.00067012
  12.41803880  6.53306127  6.00100425
   8.95335765  6.53306068  8.00133972
   5.48867485  6.53305951 10.00167464
   2.02399887 16.33266368  0.00000011
  12.41804046 16.33266250  2.00033492
   8.95335765 16.33266135  4.00067063
   5.48867569 16.33266017  6.00100531
   2.02399535 16.33265901  8.00134023
  12.41803715 16.33265666 10.00167358
   2.02399887  6.53306476  0.00000039
  12.41804128  6.53306419  2.00033545
   8.95335848  6.53306302  4.00067063
   5.48867733  6.53306127  6.00100531
   2.02399535  6.53306010  8.00133919
  12.41803715  6.53305892 10.00167358
   6.64357450  9.79959774  0.00000039
   3.17889149  9.79959656  2.00033545
  13.57293307  9.79959541  4.00067063
  10.10825192  9.79959364  6.00100531
   6.64356995  9.79959308  8.00133919
   3.17888715  9.79959131 10.00167358
  11.26314701 13.06613072  0.00000037
   7.79846587 13.06612954  2.00033545
   4.33378307 13.06612721  4.00067012
   0.86910141 13.06612721  6.00100531
  11.26314372 13.06612603  8.00133972
   7.79846174 13.06612370 10.00167358
   6.64357367  0.00000000  0.00000030
   3.17889149 19.59919430  2.00033532
  13.57293307 19.59919315  4.00067012
  10.10825192 19.59919197  6.00100531
   6.64356995 19.59919082  8.00133972
   3.17888715 19.59918964 10.00167464
  11.26314866  3.26653268  0.00000030
   7.79846670  3.26653121  2.00033532
   4.33378472  3.26653063  4.00067012
   0.86910285  3.26652947  6.00100531
  11.26314618  3.26652800  8.00133919
   7.79846339  3.26652741 10.00167464
   2.02399948 13.88276424  0.00000000
  12.41804046 13.88276307  2.00033545
   8.95335848 13.88276191  4.00067090
   5.48867650 13.88276073  6.00100531
   2.02399535 13.88275958  8.00133919
  12.41803715 13.88275840 10.00167358
   6.64357367 17.14929722  0.00000000
   3.17889189 17.14929604  2.00033545
  13.57293307 17.14929487  4.00067090
  10.10825192 17.14929371  6.00100531
   6.64357077 17.14929138  8.00133919
   3.17888797 17.14929138 10.00167358
   2.02399867  4.08316562  0.00000035
  12.41804128  4.08316446  2.00033506
   8.95335848  4.08316329  4.00067012
   5.48867650  4.08316213  6.00100531
   2.02399535  4.08316125  8.00133972
  12.41803715  4.08316007 10.00167358
   6.64357450  7.34969830  0.00000037
   3.17889169  7.34969713  2.00033532
  13.57293390  7.34969597  4.00067063
  10.10825192  7.34969480  6.00100531
   6.64357077  7.34969364  8.00133972
   3.17888715  7.34969246 10.00167358
  11.26314866 10.61623128  0.00000037
   7.79846752 10.61623011  2.00033532
   4.33378430 10.61622893  4.00067063
   0.86910254 10.61622778  6.00100531
  11.26314537 10.61622660  8.00133972
   7.79846339 10.61622544 10.00167358
  11.26314950  0.81663301  0.00000019
   7.79846670  0.81663164  2.00033532
   4.33378430  0.81663039  4.00067063
   0.86910243  0.81662974  6.00100531
  11.26314537  0.81662835  8.00133972
   7.79846339  0.81662682 10.00167464
  13.57293720 17.14929722  0.00000025
  10.10825358 17.14929487  2.00033492
   6.64357160 17.14929371  4.00067063
   3.17888962 17.14929254  6.00100531
  13.57293307 17.14929138  8.00134023
  10.10825027 17.14929020 10.00167358
  13.57293638  7.34969772  0.00000018
  10.10825358  7.34969656  2.00033532
   6.64357160  7.34969538  4.00067063
   3.17888962  7.34969421  6.00100425
  13.57293307  7.34969305  8.00133919
  10.10825027  7.34969188 10.00167358
   4.33378720 10.61623128  0.00000014
   0.86910399 10.61623011  2.00033532
  11.26314618 10.61622893  4.00067090
   7.79846422 10.61622778  6.00100531
   4.33378307 10.61622660  8.00133972
   0.86910027 10.61622544 10.00167464
   8.95336096 13.88276307  0.00000018
   5.48867857 13.88276191  2.00033532
   2.02399598 13.88276073  4.00067063
  12.41803880 13.88275958  6.00100425
   8.95335765 13.88275840  8.00133919
   5.48867485 13.88275723 10.00167358
   4.33378597  0.81663280  0.00000032
   0.86910399  0.81663170  2.00033506
  11.26314618  0.81663062  4.00067012
   7.79846422  0.81662953  6.00100531
   4.33378307  0.81662857  8.00133972
   0.86910027  0.81662733 10.00167358
   8.95336261  4.08316621  0.00000032
   5.48867940  4.08316476  2.00033506
   2.02399660  4.08316329  4.00067012
  12.41803963  4.08316241  6.00100531
   8.95335765  4.08316125  8.00133972
   5.48867485  4.08316007 10.00167358
   4.28224368 15.09863236 11.98861616
   1.51049811 11.83209938 13.43964647
  12.59747547  8.56556583 14.89067786
   4.28224368  8.56556817 11.98861616
   1.51049811  5.29903519 13.43964647
  12.59747547  2.03250282 14.89067786
   4.28224368  2.03250515 11.98861616
   1.51049811 18.36516649 13.43964647
  12.59747547 15.09863236 14.89067786
  13.29041433  0.39923808 12.71413027
  10.51866793 16.73190058 14.16516060
   7.74692153 13.46536762 15.61618987
  13.29041433 13.46536645 12.71413027
  10.51866793 10.19883349 14.16516060
   7.74692153  6.93230051 15.61618987
  13.29041433  6.93230343 12.71413027
  10.51866793  3.66577047 14.16516060
   7.74692153  0.39923808 15.61618987
  11.21160516 18.36516414 11.98861616
   8.43985874 15.09863118 13.43964647
   5.66811192 11.83209938 14.89067786
  11.21160516 11.83210056 11.98861616
   8.43985874  8.56556758 13.43964647
   5.66811192  5.29903462 14.89067786
  11.21160516  5.29903578 11.98861616
   8.43985874  2.03250282 13.43964647
   5.66811192 18.36516532 14.89067786
   6.36105203 16.73189943 12.71413027
   3.58930646 13.46536645 14.16516060
   0.81756088 10.19883349 15.61618987
   6.36105203 10.19883582 12.71413027
   3.58930646  6.93230284 14.16516060
   0.81756088  3.66576930 15.61618987
   6.36105203  3.66576930 12.71413027
   3.58930646  0.39923808 14.16516060
   0.81756088 16.73189825 15.61618987
 


--------------------------------------------------------------------------------------------------------


 k-point     1 :   0.0000 0.0000 0.0000  plane waves:  201025
 k-point     2 :   0.5000 0.0000 0.0000  plane waves:  201252
 k-point     3 :   0.0000 0.5000 0.0000  plane waves:  201012
 k-point     4 :   0.5000 0.5000 0.0000  plane waves:  200936
 k-point     5 :   0.0000 0.0000 0.5000  plane waves:  201116
 k-point     6 :   0.5000 0.0000 0.5000  plane waves:  200988
 k-point     7 :   0.0000 0.5000 0.5000  plane waves:  201108
 k-point     8 :   0.5000 0.5000 0.5000  plane waves:  201144

 maximum and minimum number of plane-waves per node :     12652    12476

 maximum number of plane-waves:    201252
 maximum index in each direction: 
   IXMAX=   29   IYMAX=   42   IZMAX=   37
   IXMIN=  -30   IYMIN=  -42   IZMIN=  -38


 real space projection operators:
  total allocation   :      50147.50 KBytes
  max/ min on nodes  :       3452.82       2692.42


 parallel 3D FFT for wavefunctions:
    minimum data exchange during FFTs selected (reduces bandwidth)
 parallel 3D FFT for charge:
    minimum data exchange during FFTs selected (reduces bandwidth)


 total amount of memory used by VASP MPI-rank0   452219. kBytes
=======================================================================

   base      :      30000. kBytes
   nonlr-proj:      18798. kBytes
   fftplans  :      29415. kBytes
   grid      :      22241. kBytes
   one-center:        194. kBytes
   wavefun   :     351571. kBytes
 
     INWAV:  cpu time      0.0000: real time      0.0001
 Broyden mixing: mesh for mixing (old mesh)
   NGX = 59   NGY = 85   NGZ = 75
  (NGX  =180   NGY  =256   NGZ  =240)
  gives a total of 376125 points

 initial charge density was supplied:
 charge density of overlapping atoms calculated
 number of electron     720.0000000 magnetization       1.0000000
 keeping initial charge density in first step


--------------------------------------------------------------------------------------------------------


 Maximum index for non-local projection operator          507
 Maximum index for augmentation-charges         6033 (set IRDMAX)


--------------------------------------------------------------------------------------------------------


 First call to EWALD:  gamma=   0.105
 Maximum number of real-space cells 3x 2x 3
 Maximum number of reciprocal cells 2x 3x 3

    FEWALD:  cpu time      0.0050: real time      0.0050


--------------------------------------- Ionic step        1  -------------------------------------------




--------------------------------------- Iteration      1(   1)  ---------------------------------------


    POTLOK:  cpu time      0.3512: real time      0.3548
    SETDIJ:  cpu time      2.6376: real time      2.6520
     EDDAV:  cpu time     79.0618: real time     79.7278
       DOS:  cpu time      0.0042: real time      0.0042
    --------------------------------------------
      LOOP:  cpu time     82.0548: real time     82.7388

 eigenvalue-minimisations  : 13824
 total energy-change (2. order) : 0.3651911E+04  (-0.3041677E+05)
 number of electron     720.0000000 magnetization       1.0000000
 augmentation part      720.0000000 magnetization       1.0000000

 Free energy of the ion-electron system (eV)
  ---------------------------------------------------
  alpha Z        PSCENC =      1205.67090968
  Ewald energy   TEWEN  =    -15441.95885931
  -Hartree energ DENC   =     -4372.02980375
  -exchange      EXHF   =         0.00000000
  -V(xc)+E(xc)   XCENC  =     -5351.30047530
  PAW double counting   =     19511.85949846   -12966.91288459
  entropy T*S    EENTRO =        -0.00282148
  eigenvalues    EBANDS =      2560.07854229
  atomic energy  EATOM  =     18506.50640686
  Solvation  Ediel_sol  =         0.00000000
  ---------------------------------------------------
  free energy    TOTEN  =      3651.91051285 eV

  energy without entropy =     3651.91333434  energy(sigma->0) =     3651.91192360


--------------------------------------------------------------------------------------------------------




--------------------------------------- Iteration      1(   2)  ---------------------------------------


     EDDAV:  cpu time     89.2064: real time     89.9603
       DOS:  cpu time      0.0038: real time      0.0038
    --------------------------------------------
      LOOP:  cpu time     89.2102: real time     89.9642

 eigenvalue-minimisations  : 16208
 total energy-change (2. order) :-0.3949583E+04  (-0.3825514E+04)
 number of electron     720.0000000 magnetization       1.0000000
 augmentation part      720.0000000 magnetization       1.0000000

 Free energy of the ion-electron system (eV)
  ---------------------------------------------------
  alpha Z        PSCENC =      1205.67090968
  Ewald energy   TEWEN  =    -15441.95885931
  -Hartree energ DENC   =     -4372.02980375
  -exchange      EXHF   =         0.00000000
  -V(xc)+E(xc)   XCENC  =     -5351.30047530
  PAW double counting   =     19511.85949846   -12966.91288459
  entropy T*S    EENTRO =        -0.00282617
  eigenvalues    EBANDS =     -1389.50455851
  atomic energy  EATOM  =     18506.50640686
  Solvation  Ediel_sol  =         0.00000000
  ---------------------------------------------------
  free energy    TOTEN  =      -297.67259264 eV

  energy without entropy =     -297.66976647  energy(sigma->0) =     -297.67117955


--------------------------------------------------------------------------------------------------------




--------------------------------------- Iteration      1(   3)  ---------------------------------------


     EDDAV:  cpu time     92.6003: real time     93.3946
       DOS:  cpu time      0.0031: real time      0.0031
    --------------------------------------------
      LOOP:  cpu time     92.6034: real time     93.3977

 eigenvalue-minimisations  : 16968
 total energy-change (2. order) :-0.4286166E+03  (-0.4137499E+03)
 number of electron     720.0000000 magnetization       1.0000000
 augmentation part      720.0000000 magnetization       1.0000000

 Free energy of the ion-electron system (eV)
  ---------------------------------------------------
  alpha Z        PSCENC =      1205.67090968
  Ewald energy   TEWEN  =    -15441.95885931
  -Hartree energ DENC   =     -4372.02980375
  -exchange      EXHF   =         0.00000000
  -V(xc)+E(xc)   XCENC  =     -5351.30047530
  PAW double counting   =     19511.85949846   -12966.91288459
  entropy T*S    EENTRO =        -0.00197017
  eigenvalues    EBANDS =     -1818.12202299
  atomic energy  EATOM  =     18506.50640686
  Solvation  Ediel_sol  =         0.00000000
  ---------------------------------------------------
  free energy    TOTEN  =      -726.28920112 eV

  energy without entropy =     -726.28723095  energy(sigma->0) =     -726.28821603


--------------------------------------------------------------------------------------------------------




--------------------------------------- Iteration      1(   4)  ---------------------------------------


     EDDAV:  cpu time     90.9208: real time     91.7960
       DOS:  cpu time      0.0032: real time      0.0032
    --------------------------------------------
      LOOP:  cpu time     90.9241: real time     91.7993

 eigenvalue-minimisations  : 16640
 total energy-change (2. order) :-0.1831747E+02  (-0.1791334E+02)
 number of electron     720.0000000 magnetization       1.0000000
 augmentation part      720.0000000 magnetization       1.0000000

 Free energy of the ion-electron system (eV)
  ---------------------------------------------------
  alpha Z        PSCENC =      1205.67090968
  Ewald energy   TEWEN  =    -15441.95885931
  -Hartree energ DENC   =     -4372.02980375
  -exchange      EXHF   =         0.00000000
  -V(xc)+E(xc)   XCENC  =     -5351.30047530
  PAW double counting   =     19511.85949846   -12966.91288459
  entropy T*S    EENTRO =        -0.00198662
  eigenvalues    EBANDS =     -1836.43947800
  atomic energy  EATOM  =     18506.50640686
  Solvation  Ediel_sol  =         0.00000000
  ---------------------------------------------------
  free energy    TOTEN  =      -744.60667257 eV

  energy without entropy =     -744.60468595  energy(sigma->0) =     -744.60567926


--------------------------------------------------------------------------------------------------------




--------------------------------------- Iteration      1(   5)  ---------------------------------------


     EDDAV:  cpu time    100.0444: real time    100.9803
       DOS:  cpu time      0.0036: real time      0.0037
    CHARGE:  cpu time      3.8818: real time      3.9271
    MIXING:  cpu time      0.0100: real time      0.0100
    --------------------------------------------
      LOOP:  cpu time    103.9398: real time    104.9211

 eigenvalue-minimisations  : 18720
 total energy-change (2. order) :-0.8549791E+00  (-0.8480301E+00)
 number of electron     719.9999996 magnetization       1.0000000
 augmentation part     -134.6247538 magnetization      -0.1329965

 Broyden mixing:
  rms(total) = 0.28397E+01    rms(broyden)= 0.28397E+01
  rms(prec ) = 0.31242E+01
  weight for this iteration     100.00

 Free energy of the ion-electron system (eV)
  ---------------------------------------------------
  alpha Z        PSCENC =      1205.67090968
  Ewald energy   TEWEN  =    -15441.95885931
  -Hartree energ DENC   =     -4372.02980375
  -exchange      EXHF   =         0.00000000
  -V(xc)+E(xc)   XCENC  =     -5351.30047530
  PAW double counting   =     19511.85949846   -12966.91288459
  entropy T*S    EENTRO =        -0.00217874
  eigenvalues    EBANDS =     -1837.29426498
  atomic energy  EATOM  =     18506.50640686
  Solvation  Ediel_sol  =         0.00000000
  ---------------------------------------------------
  free energy    TOTEN  =      -745.46165167 eV

  energy without entropy =     -745.45947294  energy(sigma->0) =     -745.46056231


--------------------------------------------------------------------------------------------------------




--------------------------------------- Iteration      1(   6)  ---------------------------------------


    POTLOK:  cpu time      0.3372: real time      0.3393
    SETDIJ:  cpu time      2.6257: real time      2.6395
     EDDAV:  cpu time    103.9320: real time    104.8016
       DOS:  cpu time      0.0035: real time      0.0035
    CHARGE:  cpu time      3.8394: real time      3.8731
    MIXING:  cpu time      0.0114: real time      0.0114
    --------------------------------------------
      LOOP:  cpu time    110.7490: real time    111.6684

 eigenvalue-minimisations  : 19472
 total energy-change (2. order) : 0.8930127E+01  (-0.2687035E+01)
 number of electron     719.9999996 magnetization       1.0000000
 augmentation part     -134.7121185 magnetization      -0.1009816

 Broyden mixing:
  rms(total) = 0.13969E+01    rms(broyden)= 0.13969E+01
  rms(prec ) = 0.16924E+01
  weight for this iteration     100.00

 eigenvalues of (default mixing * dielectric matrix)
  average eigenvalue GAMMA=   1.5350
  1.5350

 Free energy of the ion-electron system (eV)
  ---------------------------------------------------
  alpha Z        PSCENC =      1205.67090968
  Ewald energy   TEWEN  =    -15441.95885931
  -Hartree energ DENC   =     -4579.63891085
  -exchange      EXHF   =         0.00000000
  -V(xc)+E(xc)   XCENC  =     -5324.52653379
  PAW double counting   =     29390.70448783   -22863.74733012
  entropy T*S    EENTRO =        -0.00388836
  eigenvalues    EBANDS =     -1629.53780698
  atomic energy  EATOM  =     18506.50640686
  Solvation  Ediel_sol  =         0.00000000
  ---------------------------------------------------
  free energy    TOTEN  =      -736.53152503 eV

  energy without entropy =     -736.52763667  energy(sigma->0) =     -736.52958085


--------------------------------------------------------------------------------------------------------




--------------------------------------- Iteration      1(   7)  ---------------------------------------


    POTLOK:  cpu time      0.3369: real time      0.3399
    SETDIJ:  cpu time      2.6269: real time      2.6409
     EDDAV:  cpu time     98.6466: real time     99.4784
       DOS:  cpu time      0.0032: real time      0.0032
    CHARGE:  cpu time      3.8500: real time      3.8838
    MIXING:  cpu time      0.0113: real time      0.0114
    --------------------------------------------
      LOOP:  cpu time    105.4749: real time    106.3576

 eigenvalue-minimisations  : 18288
 total energy-change (2. order) : 0.1065748E+01  (-0.2199902E+01)
 number of electron     719.9999996 magnetization       1.0000000
 augmentation part     -133.5362937 magnetization      -0.1137008

 Broyden mixing:
  rms(total) = 0.77186E+00    rms(broyden)= 0.77186E+00
  rms(prec ) = 0.10866E+01
  weight for this iteration     100.00

 eigenvalues of (default mixing * dielectric matrix)
  average eigenvalue GAMMA=   1.1780
  1.8380  0.5180

 Free energy of the ion-electron system (eV)
  ---------------------------------------------------
  alpha Z        PSCENC =      1205.67090968
  Ewald energy   TEWEN  =    -15441.95885931
  -Hartree energ DENC   =     -4567.73882450
  -exchange      EXHF   =         0.00000000
  -V(xc)+E(xc)   XCENC  =     -5312.63954947
  PAW double counting   =     35308.77960966   -28791.29769760
  entropy T*S    EENTRO =        -0.00354182
  eigenvalues    EBANDS =     -1642.78423103
  atomic energy  EATOM  =     18506.50640686
  Solvation  Ediel_sol  =         0.00000000
  ---------------------------------------------------
  free energy    TOTEN  =      -735.46577752 eV

  energy without entropy =     -735.46223570  energy(sigma->0) =     -735.46400661


--------------------------------------------------------------------------------------------------------




--------------------------------------- Iteration      1(   8)  ---------------------------------------


    POTLOK:  cpu time      0.3414: real time      0.3436
    SETDIJ:  cpu time      2.6196: real time      2.6339
     EDDAV:  cpu time     89.6055: real time     90.3638
       DOS:  cpu time      0.0029: real time      0.0029
    CHARGE:  cpu time      3.8502: real time      3.8842
    MIXING:  cpu time      0.0133: real time      0.0134
    --------------------------------------------
      LOOP:  cpu time     96.4330: real time     97.2419

 eigenvalue-minimisations  : 16200
 total energy-change (2. order) : 0.1649059E+01  (-0.4664705E+00)
 number of electron     719.9999996 magnetization       1.0000000
 augmentation part     -133.5292064 magnetization      -0.1071721

 Broyden mixing:
  rms(total) = 0.15650E+00    rms(broyden)= 0.15650E+00
  rms(prec ) = 0.20705E+00
  weight for this iteration     100.00

 eigenvalues of (default mixing * dielectric matrix)
  average eigenvalue GAMMA=   1.1004
  1.8595  0.8975  0.5444

 Free energy of the ion-electron system (eV)
  ---------------------------------------------------
  alpha Z        PSCENC =      1205.67090968
  Ewald energy   TEWEN  =    -15441.95885931
  -Hartree energ DENC   =     -4639.78950934
  -exchange      EXHF   =         0.00000000
  -V(xc)+E(xc)   XCENC  =     -5302.07625206
  PAW double counting   =     41277.71562489   -34767.22935545
  entropy T*S    EENTRO =        -0.00296168
  eigenvalues    EBANDS =     -1572.65272219
  atomic energy  EATOM  =     18506.50640686
  Solvation  Ediel_sol  =         0.00000000
  ---------------------------------------------------
  free energy    TOTEN  =      -733.81671861 eV

  energy without entropy =     -733.81375693  energy(sigma->0) =     -733.81523777


--------------------------------------------------------------------------------------------------------




--------------------------------------- Iteration      1(   9)  ---------------------------------------


    POTLOK:  cpu time      0.3379: real time      0.3413
    SETDIJ:  cpu time      2.6238: real time      2.6378
     EDDAV:  cpu time     89.5788: real time     90.3365
       DOS:  cpu time      0.0036: real time      0.0037
    CHARGE:  cpu time      3.8409: real time      3.8747
    MIXING:  cpu time      0.0127: real time      0.0127
    --------------------------------------------
      LOOP:  cpu time     96.3977: real time     97.2066

 eigenvalue-minimisations  : 16192
 total energy-change (2. order) :-0.5783742E-01  (-0.1365598E+00)
 number of electron     719.9999996 magnetization       1.0000000
 augmentation part     -133.4757770 magnetization      -0.1018361

 Broyden mixing:
  rms(total) = 0.11113E+00    rms(broyden)= 0.11113E+00
  rms(prec ) = 0.15202E+00
  weight for this iteration     100.00

 eigenvalues of (default mixing * dielectric matrix)
  average eigenvalue GAMMA=   1.0824
  1.7972  1.4640  0.5341  0.5341

 Free energy of the ion-electron system (eV)
  ---------------------------------------------------
  alpha Z        PSCENC =      1205.67090968
  Ewald energy   TEWEN  =    -15441.95885931
  -Hartree energ DENC   =     -4638.96480169
  -exchange      EXHF   =         0.00000000
  -V(xc)+E(xc)   XCENC  =     -5301.95387511
  PAW double counting   =     41746.28125632   -35236.05983755
  entropy T*S    EENTRO =        -0.00294901
  eigenvalues    EBANDS =     -1573.39280622
  atomic energy  EATOM  =     18506.50640686
  Solvation  Ediel_sol  =         0.00000000
  ---------------------------------------------------
  free energy    TOTEN  =      -733.87455602 eV

[...]
   -.145E+01 -.590E+01 -.720E+02   0.193E+01 0.635E+01 0.729E+02   0.265E+00 -.442E+00 0.318E+00   -.200E-04 -.329E-06 0.400E-04
   -.594E+01 0.120E+02 0.194E+01   0.645E+01 -.124E+02 -.258E+01   -.291E+00 -.648E+00 -.129E-01   -.321E-04 0.511E-04 0.863E-04
   -.239E+01 0.871E+01 0.353E+02   0.158E+01 -.932E+01 -.356E+02   0.734E+00 -.151E+00 0.111E+01   0.154E-04 0.177E-03 0.761E-04
   0.116E+02 0.302E+00 -.513E+02   -.125E+02 0.292E-01 0.517E+02   -.957E-01 -.764E+00 -.152E+01   0.763E-05 0.110E-03 0.119E-04
   -.393E+01 0.139E+02 -.335E+01   0.430E+01 -.141E+02 0.199E+01   -.215E+00 -.472E+00 0.102E+01   -.467E-05 0.193E-04 0.713E-04
   0.519E+01 0.130E+02 0.260E+02   -.515E+01 -.137E+02 -.257E+02   -.306E+00 -.630E+00 0.450E+00   0.127E-05 -.939E-04 0.554E-04
   0.276E+02 0.781E+01 -.698E+02   -.281E+02 -.800E+01 0.708E+02   -.169E+01 -.670E+00 0.440E-01   0.242E-04 -.108E-03 0.497E-04
   -.612E+01 0.124E+02 -.726E+01   0.709E+01 -.124E+02 0.630E+01   -.783E+00 -.939E+00 0.522E+00   0.502E-05 -.135E-03 0.298E-04
   0.103E+02 0.160E+02 0.388E+02   -.100E+02 -.158E+02 -.384E+02   -.312E+00 -.145E+01 -.748E-01   0.123E-04 -.292E-04 0.591E-04
   -.106E+02 -.160E+02 -.330E+02   0.109E+02 0.170E+02 0.337E+02   -.228E-01 -.293E+00 -.153E+01   0.216E-04 0.279E-04 0.562E-04
   0.520E+01 -.127E+02 0.724E+01   -.557E+01 0.134E+02 -.699E+01   -.626E-01 -.108E+00 0.593E+00   0.253E-04 0.111E-03 0.997E-04
   -.288E+02 -.883E+01 0.658E+02   0.295E+02 0.923E+01 -.661E+02   0.221E+01 0.716E+00 -.268E+01   0.251E-04 0.727E-04 0.480E-04
   0.661E+00 -.981E+01 -.287E+02   -.625E+00 0.102E+02 0.289E+02   0.834E+00 -.110E-01 -.147E+01   -.210E-04 0.114E-03 0.681E-04
   0.402E+01 -.131E+02 -.138E+01   -.464E+01 0.136E+02 0.182E+01   -.391E-01 0.237E+00 0.559E+00   -.330E-04 -.314E-04 0.637E-04
   0.219E+01 0.776E+01 0.634E+02   -.270E+01 -.739E+01 -.638E+02   -.816E+00 -.578E+00 -.184E+01   -.278E-04 -.133E-03 0.494E-04
   -.338E+01 -.112E+02 -.420E+02   0.354E+01 0.116E+02 0.428E+02   0.245E+00 0.174E+00 -.103E+01   0.385E-05 -.140E-03 0.131E-04
   0.704E+01 -.112E+02 0.149E+01   -.764E+01 0.118E+02 -.163E+01   0.146E+00 -.102E+00 0.139E+01   -.127E-04 -.569E-04 0.764E-04
   -.126E+02 0.887E+00 0.857E+02   0.128E+02 -.228E+00 -.869E+02   0.955E+00 -.506E+00 -.517E+01   0.121E-04 0.501E-04 0.584E-04
 -----------------------------------------------------------------------------------------------
   0.747E+00 0.808E+01 0.268E+01   0.711E-14 0.211E-12 0.129E-11   -.103E+01 -.799E+01 -.263E+01   0.308E-04 -.130E-04 -.161E-02
 
 
 POSITION                                       TOTAL-FORCE (eV/Angst)
 -----------------------------------------------------------------------------------
     13.57294      9.79960      0.00000        -1.310808     -0.216179      3.804850
     10.10825      9.79960      2.00034         0.015272      0.118020     -0.000396
      6.64357      9.79960      4.00067        -0.025093     -0.053212      0.051621
      3.17889      9.79959      6.00101        -0.061070     -0.021767      0.099124
     13.57293      9.79959      8.00134         0.009523     -0.061322      0.103594
     10.10825      9.79959     10.00167         0.468008      0.721906      0.811998
      4.33379     13.06613      0.00000         0.182455      0.052363     -0.539358
      0.86910     13.06613      2.00034        -0.036814     -0.157357     -0.064889
     11.26315     13.06613      4.00067        -0.036773     -0.039392     -0.017716
      7.79846     13.06613      6.00100        -0.047119      0.007835     -0.022984
      4.33378     13.06613      8.00134        -0.093997      0.077066     -0.044296
      0.86910     13.06612     10.00167         0.171054      0.108401      0.519264
      8.95336     16.33266      0.00000         0.397954      0.364555     -0.958179
      5.48868     16.33266      2.00034        -0.052581     -0.049799     -0.071042
      2.02400     16.33266      4.00067        -0.076194     -0.044967     -0.021838
     12.41804     16.33266      6.00100        -0.002004     -0.048580      0.004900
      8.95336     16.33266      8.00134        -0.278650     -0.168963      0.074807
      5.48867     16.33266     10.00167         1.416635      1.380853     -1.232508
     13.57294      0.00000      0.00000         0.066583      0.258954     -0.534092
     10.10825     19.59919      2.00034        -0.174585     -0.060394     -0.006706
      6.64357     19.59919      4.00067         0.017531      0.060061     -0.048454
      3.17889     19.59919      6.00100         0.023585      0.020702     -0.042609
     13.57293     19.59919      8.00134        -0.062992     -0.047670     -0.000333
     10.10825     19.59919     10.00167        -0.453376      0.635443     -0.523650
      4.33379      3.26653      0.00000         0.545807      0.463459     -0.803005
      0.86910      3.26653      2.00034         0.006154     -0.075327      0.145609
     11.26315      3.26653      4.00067        -0.052560     -0.035369     -0.005346
      7.79846      3.26653      6.00100        -0.088799     -0.031450      0.082542
      4.33378      3.26653      8.00134        -0.259459     -0.035319     -0.031853
      0.86910      3.26653     10.00167         0.526395      0.195931      0.789678
      8.95336      6.53307      0.00000         2.161499     -0.857960      2.612320
      5.48868      6.53306      2.00034        -0.104581     -0.064434     -0.136356
      2.02400      6.53306      4.00067        -0.070181     -0.043970      0.000232
     12.41804      6.53306      6.00100        -0.055446     -0.063280      0.056437
      8.95336      6.53306      8.00134        -0.039023     -0.066082     -0.053095
      5.48867      6.53306     10.00167         0.083578      0.588346      0.549689
      2.02400     16.33266      0.00000         2.161499     -0.857960      2.612320
     12.41804     16.33266      2.00033        -0.104581     -0.064434     -0.136356
      8.95336     16.33266      4.00067        -0.070181     -0.043970      0.000232
      5.48868     16.33266      6.00101        -0.055446     -0.063280      0.056437
      2.02400     16.33266      8.00134        -0.039023     -0.066082     -0.053095
     12.41804     16.33266     10.00167         0.083578      0.588346      0.549689
      2.02400      6.53306      0.00000         0.397954      0.364555     -0.958179
     12.41804      6.53306      2.00034        -0.052581     -0.049799     -0.071042
      8.95336      6.53306      4.00067        -0.076194     -0.044967     -0.021838
      5.48868      6.53306      6.00101        -0.002004     -0.048580      0.004900
      2.02400      6.53306      8.00134        -0.278650     -0.168963      0.074807
     12.41804      6.53306     10.00167         1.416635      1.380853     -1.232508
      6.64357      9.79960      0.00000         0.066583      0.258954     -0.534092
      3.17889      9.79960      2.00034        -0.174585     -0.060394     -0.006706
     13.57293      9.79960      4.00067         0.017531      0.060061     -0.048454
     10.10825      9.79959      6.00101         0.023585      0.020702     -0.042609
      6.64357      9.79959      8.00134        -0.062992     -0.047670     -0.000333
      3.17889      9.79959     10.00167        -0.453376      0.635443     -0.523650
     11.26315     13.06613      0.00000         0.545807      0.463459     -0.803005
      7.79847     13.06613      2.00034         0.006154     -0.075327      0.145609
      4.33378     13.06613      4.00067        -0.052560     -0.035369     -0.005346
      0.86910     13.06613      6.00101        -0.088799     -0.031450      0.082542
     11.26314     13.06613      8.00134        -0.259459     -0.035319     -0.031853
      7.79846     13.06612     10.00167         0.526395      0.195931      0.789678
      6.64357      0.00000      0.00000        -1.310808     -0.216179      3.804850
      3.17889     19.59919      2.00034         0.015272      0.118020     -0.000396
     13.57293     19.59919      4.00067        -0.025093     -0.053212      0.051621
     10.10825     19.59919      6.00101        -0.061070     -0.021767      0.099124
      6.64357     19.59919      8.00134         0.009523     -0.061322      0.103594
      3.17889     19.59919     10.00167         0.468008      0.721906      0.811998
     11.26315      3.26653      0.00000         0.182455      0.052363     -0.539358
      7.79847      3.26653      2.00034        -0.036814     -0.157357     -0.064889
      4.33378      3.26653      4.00067        -0.036773     -0.039392     -0.017716
      0.86910      3.26653      6.00101        -0.047119      0.007835     -0.022984
     11.26315      3.26653      8.00134        -0.093997      0.077066     -0.044296
      7.79846      3.26653     10.00167         0.171054      0.108401      0.519264
      2.02400     13.88276      0.00000        -0.136490     -0.124339     -0.547101
     12.41804     13.88276      2.00034        -0.017203      0.011845     -0.069876
      8.95336     13.88276      4.00067         0.008887     -0.006215     -0.012383
      5.48868     13.88276      6.00101         0.045307      0.026827      0.024011
      2.02400     13.88276      8.00134         0.145278      0.096094      0.091265
     12.41804     13.88276     10.00167        -0.189115     -0.169396      0.145913
      6.64357     17.14930      0.00000        -0.470470     -0.074224     -0.894529
      3.17889     17.14930      2.00034         0.125219      0.136474     -0.123064
     13.57293     17.14929      4.00067         0.017614      0.044656     -0.105598
     10.10825     17.14929      6.00101         0.074041      0.059805      0.098331
      6.64357     17.14929      8.00134         0.213315      0.128410     -0.130528
      3.17889     17.14929     10.00167        -0.054874     -0.503370      0.901162
      2.02400      4.08317      0.00000         1.399754      0.331721      2.301928
     12.41804      4.08316      2.00034         0.107682      0.109538     -0.026833
      8.95336      4.08316      4.00067         0.086441      0.064584     -0.041963
      5.48868      4.08316      6.00101         0.020966     -0.002579      0.052716
      2.02400      4.08316      8.00134        -0.092763      0.078701      0.031499
     12.41804      4.08316     10.00167         0.093157     -0.583987     -0.076749
      6.64357      7.34970      0.00000        -2.673722      1.132517      3.967222
      3.17889      7.34970      2.00034         0.040318      0.008607     -0.016642
     13.57293      7.34970      4.00067         0.033490      0.058140      0.046626
     10.10825      7.34969      6.00101         0.076515      0.077332     -0.053663
      6.64357      7.34969      8.00134        -0.007737      0.039507      0.082065
      3.17889      7.34969     10.00167        -0.872431     -1.087899     -1.252537
     11.26315     10.61623      0.00000        -0.492813     -0.142940     -1.145073
      7.79847     10.61623      2.00034         0.060090      0.065650     -0.117211
      4.33378     10.61623      4.00067         0.060992      0.063246     -0.095135
      0.86910     10.61623      6.00101        -0.003552     -0.003645     -0.037437
     11.26315     10.61623      8.00134        -0.017856     -0.058390     -0.127784
      7.79846     10.61623     10.00167        -0.632142      0.043923      1.018017
     11.26315      0.81663      0.00000        -0.169758     -0.113535     -0.527461
      7.79847      0.81663      2.00034        -0.028416      0.029050      0.219067
      4.33378      0.81663      4.00067         0.032605     -0.020522      0.070034
      0.86910      0.81663      6.00101         0.035587      0.021898      0.019903
     11.26315      0.81663      8.00134         0.153647      0.042606      0.092397
      7.79846      0.81663     10.00167        -0.233343     -0.107126      0.816229
     13.57294     17.14930      0.00000        -2.673722      1.132517      3.967222
     10.10825     17.14929      2.00033         0.040318      0.008607     -0.016642
      6.64357     17.14929      4.00067         0.033490      0.058140      0.046626
      3.17889     17.14929      6.00101         0.076515      0.077332     -0.053663
     13.57293     17.14929      8.00134        -0.007737      0.039507      0.082065
     10.10825     17.14929     10.00167        -0.872431     -1.087899     -1.252537
     13.57294      7.34970      0.00000        -0.470470     -0.074224     -0.894529
     10.10825      7.34970      2.00034         0.125219      0.136474     -0.123064
      6.64357      7.34970      4.00067         0.017614      0.044656     -0.105598
      3.17889      7.34969      6.00100         0.074041      0.059805      0.098331
     13.57293      7.34969      8.00134         0.213315      0.128410     -0.130528
     10.10825      7.34969     10.00167        -0.054874     -0.503370      0.901162
      4.33379     10.61623      0.00000        -0.169758     -0.113535     -0.527461
      0.86910     10.61623      2.00034        -0.028416      0.029050      0.219067
     11.26315     10.61623      4.00067         0.032605     -0.020522      0.070034
      7.79846     10.61623      6.00101         0.035587      0.021898      0.019903
      4.33378     10.61623      8.00134         0.153647      0.042606      0.092397
      0.86910     10.61623     10.00167        -0.233343     -0.107126      0.816229
      8.95336     13.88276      0.00000         1.399754      0.331721      2.301928
      5.48868     13.88276      2.00034         0.107682      0.109538     -0.026833
      2.02400     13.88276      4.00067         0.086441      0.064584     -0.041963
     12.41804     13.88276      6.00100         0.020966     -0.002579      0.052716
      8.95336     13.88276      8.00134        -0.092763      0.078701      0.031499
      5.48867     13.88276     10.00167         0.093157     -0.583987     -0.076749
      4.33379      0.81663      0.00000        -0.492813     -0.142940     -1.145073
      0.86910      0.81663      2.00034         0.060090      0.065650     -0.117211
     11.26315      0.81663      4.00067         0.060992      0.063246     -0.095135
      7.79846      0.81663      6.00101        -0.003552     -0.003645     -0.037437
      4.33378      0.81663      8.00134        -0.017856     -0.058390     -0.127784
      0.86910      0.81663     10.00167        -0.632142      0.043923      1.018017
      8.95336      4.08317      0.00000        -0.136490     -0.124339     -0.547101
      5.48868      4.08316      2.00034        -0.017203      0.011845     -0.069876
      2.02400      4.08316      4.00067         0.008887     -0.006215     -0.012383
     12.41804      4.08316      6.00101         0.045307      0.026827      0.024011
      8.95336      4.08316      8.00134         0.145278      0.096094      0.091265
      5.48867      4.08316     10.00167        -0.189115     -0.169396      0.145913
      4.28224     15.09863     11.98862        -2.124125     -0.856832      1.125595
      1.51050     11.83210     13.43965         0.190766     -0.937667     -0.438200
     12.59748      8.56557     14.89068        -0.012862     -1.249386      0.243364
      4.28224      8.56557     11.98862         0.745772      0.010179      1.162828
      1.51050      5.29904     13.43965         0.221144     -0.958545     -0.656888
     12.59748      2.03250     14.89068        -0.073363     -0.764209      0.843759
      4.28224      2.03251     11.98862        -0.957683     -0.433099     -1.137329
      1.51050     18.36517     13.43965         0.158177     -0.679803     -0.341963
     12.59748     15.09863     14.89068        -0.266528     -1.292105      0.829944
     13.29041      0.39924     12.71413         0.871136      0.403893     -1.245377
     10.51867     16.73190     14.16516        -0.650993      0.714251      1.000482
      7.74692     13.46537     15.61619        -1.329112     -0.211712     -2.221798
     13.29041     13.46537     12.71413         0.405621      0.633844     -0.169294
     10.51867     10.19883     14.16516        -0.451467      0.566786      1.248918
      7.74692      6.93230     15.61619         1.081764      0.153538     -6.352305
     13.29041      6.93230     12.71413         0.292730      0.706230     -0.795207
     10.51867      3.66577     14.16516        -0.427307      0.590936      0.833904
      7.74692      0.39924     15.61619         2.878181      1.119632     -3.055216
     11.21161     18.36516     11.98862         0.745772      0.010179      1.162828
      8.43986     15.09863     13.43965         0.221144     -0.958545     -0.656888
      5.66811     11.83210     14.89068        -0.073363     -0.764209      0.843759
     11.21161     11.83210     11.98862        -0.957683     -0.433099     -1.137329
      8.43986      8.56557     13.43965         0.158177     -0.679803     -0.341963
      5.66811      5.29903     14.89068        -0.266528     -1.292105      0.829944
     11.21161      5.29904     11.98862        -2.124125     -0.856832      1.125595
      8.43986      2.03250     13.43965         0.190766     -0.937667     -0.438200
      5.66811     18.36517     14.89068        -0.012862     -1.249386      0.243364
      6.36105     16.73190     12.71413         0.292730      0.706230     -0.795207
      3.58931     13.46537     14.16516        -0.427307      0.590936      0.833904
      0.81756     10.19883     15.61619         2.878181      1.119632     -3.055216
      6.36105     10.19884     12.71413         0.871136      0.403893     -1.245377
      3.58931      6.93230     14.16516        -0.650993      0.714251      1.000482
      0.81756      3.66577     15.61619        -1.329112     -0.211712     -2.221798
      6.36105      3.66577     12.71413         0.405621      0.633844     -0.169294
      3.58931      0.39924     14.16516        -0.451467      0.566786      1.248918
      0.81756     16.73190     15.61619         1.081764      0.153538     -6.352305
 -----------------------------------------------------------------------------------
    total drift:                               -0.285041      0.090191      0.049536


--------------------------------------------------------------------------------------------------------



  FREE ENERGIE OF THE ION-ELECTRON SYSTEM (eV)
  ---------------------------------------------------
  free  energy   TOTEN  =      -733.86002014 eV

  energy  without entropy=     -733.85697286  energy(sigma->0) =     -733.85849650
 


--------------------------------------------------------------------------------------------------------


    POTLOK:  cpu time      2.9359: real time      2.9516


--------------------------------------------------------------------------------------------------------


     LOOP+:  cpu time   2135.0578: real time   2154.0997
    4ORBIT:  cpu time      0.0000: real time      0.0000

 total amount of memory used by VASP MPI-rank0   452219. kBytes
=======================================================================

   base      :      30000. kBytes
   nonlr-proj:      18798. kBytes
   fftplans  :      29415. kBytes
   grid      :      22241. kBytes
   one-center:        194. kBytes
   wavefun   :     351571. kBytes
 
  
  
 General timing and accounting informations for this job:
 ========================================================
  
                  Total CPU time used (sec):     2289.471
                            User time (sec):     2173.009
                          System time (sec):      116.462
                         Elapsed time (sec):     2313.076
  
                   Maximum memory used (kb):      749512.
                   Average memory used (kb):          N/A
  
                          Minor page faults:       268254
                          Major page faults:           41
                 Voluntary context switches:         1876
