 264 264   0   0
  0.2139018E+02  0.1946760E-08  0.1946760E-08  0.1490025E-08  0.5000000E-15
  1.000000000000000E-004
  CAR 
 Si and Ge interface calculation         
      9.24958479     -9.28802336  301      6.61157607      1.00000000
     -9.288  0.0000E+00  0.0000E+00  0.0000E+00  0.0000E+00
     -9.226  0.0000E+00  0.0000E+00  0.0000E+00  0.0000E+00
     -9.164  0.0000E+00  0.0000E+00  0.0000E+00  0.0000E+00
     -9.103  0.0000E+00  0.0000E+00  0.0000E+00  0.0000E+00
     -9.041  0.0000E+00  0.0000E+00  0.0000E+00  0.0000E+00
     -8.979  0.0000E+00  0.0000E+00  0.0000E+00  0.0000E+00
     -8.917  0.0000E+00  0.0000E+00  0.0000E+00  0.0000E+00
     -8.855  0.0000E+00  0.0000E+00  0.0000E+00  0.0000E+00
     -8.794  0.0000E+00  0.0000E+00  0.0000E+00  0.0000E+00
     -8.732  0.0000E+00  0.0000E+00  0.0000E+00  0.0000E+00
     -8.670  0.0000E+00  0.0000E+00  0.0000E+00  0.0000E+00
     -8.608  0.0000E+00  0.0000E+00  0.0000E+00  0.0000E+00
     -8.547  0.0000E+00  0.0000E+00  0.0000E+00  0.0000E+00
     -8.485  0.1213E-06  0.1298E-07  0.7498E-08  0.8019E-09
     -8.423  0.3292E+02  0.3203E+02  0.2034E+01  0.1979E+01
     -8.361  0.3180E+02  0.3266E+02  0.4000E+01  0.4000E+01
     -8.299  0.6382E+02  0.6301E+02  0.7944E+01  0.7893E+01
     -8.238  0.8445E+00  0.1722E+01  0.8000E+01  0.8000E+01
     -8.176  0.2020E+00  0.1234E+00  0.8012E+01  0.8008E+01
     -8.114  0.6430E+02  0.6421E+02  0.1199E+02  0.1198E+02
     -8.052  0.2259E+00  0.3968E+00  0.1200E+02  0.1200E+02
     -7.990  0.1544E+01  0.1190E+01  0.1210E+02  0.1207E+02
     -7.929  0.5386E+02  0.5244E+02  0.1542E+02  0.1531E+02
     -7.867  0.9319E+01  0.1107E+02  0.1600E+02  0.1600E+02
     -7.805  0.0000E+00  0.0000E+00  0.1600E+02  0.1600E+02
     -7.743  0.0000E+00  0.0000E+00  0.1600E+02  0.1600E+02
     -7.681  0.0000E+00  0.0000E+00  0.1600E+02  0.1600E+02
     -7.620  0.0000E+00  0.0000E+00  0.1600E+02  0.1600E+02
     -7.558  0.6017E-04  0.1495E-04  0.1600E+02  0.1600E+02
     -7.496  0.1676E+02  0.1644E+02  0.1704E+02  0.1702E+02
     -7.434  0.4798E+02  0.4827E+02  0.2000E+02  0.2000E+02
     -7.372  0.5391E+02  0.5251E+02  0.2333E+02  0.2324E+02
     -7.311  0.1932E+02  0.1961E+02  0.2453E+02  0.2446E+02
     -7.249  0.8599E+02  0.8600E+02  0.2984E+02  0.2977E+02
     -7.187  0.2605E+01  0.3711E+01  0.3000E+02  0.3000E+02
     -7.125  0.3529E-03  0.2025E-03  0.3000E+02  0.3000E+02
     -7.064  0.3237E+02  0.3236E+02  0.3200E+02  0.3200E+02
     -7.002  0.0000E+00  0.0000E+00  0.3200E+02  0.3200E+02
     -6.940  0.7508E-03  0.1738E-03  0.3200E+02  0.3200E+02
     -6.878  0.5531E+02  0.4838E+02  0.3542E+02  0.3499E+02
     -6.816  0.3522E+02  0.3858E+02  0.3759E+02  0.3737E+02
     -6.755  0.6569E+01  0.1014E+02  0.3800E+02  0.3800E+02
     -6.693  0.0000E+00  0.0000E+00  0.3800E+02  0.3800E+02
     -6.631  0.0000E+00  0.0000E+00  0.3800E+02  0.3800E+02
     -6.569  0.4891E-01  0.4364E-01  0.3800E+02  0.3800E+02
     -6.507  0.4525E+02  0.4136E+02  0.4080E+02  0.4056E+02
     -6.446  0.1944E+02  0.2333E+02  0.4200E+02  0.4200E+02
     -6.384  0.1035E+02  0.7739E+01  0.4264E+02  0.4248E+02
     -6.322  0.2202E+02  0.2463E+02  0.4400E+02  0.4400E+02
     -6.260  0.3615E+02  0.3317E+02  0.4623E+02  0.4605E+02
     -6.198  0.4345E+02  0.4503E+02  0.4892E+02  0.4883E+02
     -6.137  0.2283E+02  0.2272E+02  0.5033E+02  0.5024E+02
     -6.075  0.4529E+02  0.4627E+02  0.5313E+02  0.5310E+02
     -6.013  0.1411E+02  0.1463E+02  0.5400E+02  0.5400E+02
     -5.951  0.0000E+00  0.0000E+00  0.5400E+02  0.5400E+02
     -5.889  0.2977E+00  0.7486E-01  0.5402E+02  0.5400E+02
     -5.828  0.5729E+02  0.5432E+02  0.5756E+02  0.5736E+02
     -5.766  0.7113E+01  0.1031E+02  0.5800E+02  0.5800E+02
     -5.704  0.2332E+02  0.1784E+02  0.5944E+02  0.5910E+02
     -5.642  0.9042E+01  0.1450E+02  0.6000E+02  0.6000E+02
     -5.581  0.0000E+00  0.0000E+00  0.6000E+02  0.6000E+02
     -5.519  0.1261E+00  0.2946E+00  0.6001E+02  0.6002E+02
     -5.457  0.3462E+02  0.3208E+02  0.6215E+02  0.6200E+02
     -5.395  0.2998E+02  0.3234E+02  0.6400E+02  0.6400E+02
     -5.333  0.6116E+00  0.3218E-01  0.6404E+02  0.6400E+02
     -5.272  0.4794E+02  0.4852E+02  0.6700E+02  0.6700E+02
     -5.210  0.1618E+02  0.1618E+02  0.6800E+02  0.6800E+02
     -5.148  0.1327E+02  0.1131E+02  0.6882E+02  0.6870E+02
     -5.086  0.4102E+02  0.4269E+02  0.7136E+02  0.7134E+02
     -5.024  0.2683E+02  0.2716E+02  0.7301E+02  0.7302E+02
     -4.963  0.1592E+02  0.1585E+02  0.7400E+02  0.7400E+02
     -4.901  0.2146E+02  0.1950E+02  0.7533E+02  0.7520E+02
     -4.839  0.3165E+02  0.3306E+02  0.7728E+02  0.7725E+02
     -4.777  0.2946E+02  0.2927E+02  0.7910E+02  0.7906E+02
     -4.715  0.5314E+02  0.5314E+02  0.8239E+02  0.8234E+02
     -4.654  0.2452E+02  0.2436E+02  0.8390E+02  0.8385E+02
     -4.592  0.4450E+02  0.4212E+02  0.8665E+02  0.8645E+02
     -4.530  0.4512E+02  0.4768E+02  0.8944E+02  0.8940E+02
     -4.468  0.5841E+02  0.5521E+02  0.9305E+02  0.9281E+02
     -4.406  0.3409E+02  0.3613E+02  0.9516E+02  0.9504E+02
     -4.345  0.4868E+02  0.4759E+02  0.9816E+02  0.9799E+02
     -4.283  0.5539E+02  0.5585E+02  0.1016E+03  0.1014E+03
     -4.221  0.6041E+02  0.6095E+02  0.1053E+03  0.1052E+03
     -4.159  0.5935E+02  0.5830E+02  0.1090E+03  0.1088E+03
     -4.097  0.4060E+02  0.4160E+02  0.1115E+03  0.1114E+03
     -4.036  0.6947E+02  0.6774E+02  0.1158E+03  0.1156E+03
     -3.974  0.7370E+02  0.7422E+02  0.1203E+03  0.1202E+03
     -3.912  0.6742E+02  0.6658E+02  0.1245E+03  0.1243E+03
     -3.850  0.4731E+02  0.4715E+02  0.1274E+03  0.1272E+03
     -3.789  0.6495E+02  0.6798E+02  0.1315E+03  0.1314E+03
     -3.727  0.5266E+02  0.5084E+02  0.1347E+03  0.1345E+03
     -3.665  0.6002E+02  0.6113E+02  0.1384E+03  0.1383E+03
     -3.603  0.7094E+02  0.6849E+02  0.1428E+03  0.1425E+03
     -3.541  0.4828E+02  0.4946E+02  0.1458E+03  0.1456E+03
     -3.480  0.4120E+02  0.4134E+02  0.1483E+03  0.1482E+03
     -3.418  0.7044E+02  0.7192E+02  0.1527E+03  0.1526E+03
     -3.356  0.6300E+02  0.5989E+02  0.1566E+03  0.1563E+03
     -3.294  0.3704E+02  0.3872E+02  0.1589E+03  0.1587E+03
     -3.232  0.5587E+02  0.5704E+02  0.1623E+03  0.1622E+03
     -3.171  0.5022E+02  0.4996E+02  0.1654E+03  0.1653E+03
     -3.109  0.5121E+02  0.4975E+02  0.1686E+03  0.1684E+03
     -3.047  0.4918E+02  0.5040E+02  0.1716E+03  0.1715E+03
     -2.985  0.5160E+02  0.5202E+02  0.1748E+03  0.1747E+03
     -2.923  0.4834E+02  0.4844E+02  0.1778E+03  0.1777E+03
     -2.862  0.3932E+02  0.3878E+02  0.1802E+03  0.1801E+03
     -2.800  0.5579E+02  0.5587E+02  0.1837E+03  0.1835E+03
     -2.738  0.5858E+02  0.5780E+02  0.1873E+03  0.1871E+03
     -2.676  0.6142E+02  0.6261E+02  0.1911E+03  0.1910E+03
     -2.614  0.7567E+02  0.7325E+02  0.1958E+03  0.1955E+03
     -2.553  0.6924E+02  0.7098E+02  0.2001E+03  0.1999E+03
     -2.491  0.7918E+02  0.7969E+02  0.2049E+03  0.2048E+03
     -2.429  0.7457E+02  0.7119E+02  0.2096E+03  0.2092E+03
     -2.367  0.6995E+02  0.7410E+02  0.2139E+03  0.2138E+03
     -2.306  0.7349E+02  0.7327E+02  0.2184E+03  0.2183E+03
     -2.244  0.5886E+02  0.5845E+02  0.2221E+03  0.2220E+03
     -2.182  0.6999E+02  0.6814E+02  0.2264E+03  0.2262E+03
     -2.120  0.7119E+02  0.7213E+02  0.2308E+03  0.2306E+03
     -2.058  0.7337E+02  0.7446E+02  0.2353E+03  0.2352E+03
     -1.997  0.6777E+02  0.6714E+02  0.2395E+03  0.2394E+03
     -1.935  0.9566E+02  0.9540E+02  0.2454E+03  0.2453E+03
     -1.873  0.8655E+02  0.8395E+02  0.2508E+03  0.2505E+03
     -1.811  0.8077E+02  0.8244E+02  0.2558E+03  0.2556E+03
     -1.749  0.6015E+02  0.5885E+02  0.2595E+03  0.2592E+03
     -1.688  0.7537E+02  0.7690E+02  0.2641E+03  0.2639E+03
     -1.626  0.7199E+02  0.7119E+02  0.2686E+03  0.2683E+03
     -1.564  0.5977E+02  0.5802E+02  0.2723E+03  0.2719E+03
     -1.502  0.7724E+02  0.7927E+02  0.2771E+03  0.2768E+03
     -1.440  0.6271E+02  0.6363E+02  0.2809E+03  0.2808E+03
     -1.379  0.7817E+02  0.7778E+02  0.2858E+03  0.2856E+03
     -1.317  0.7251E+02  0.7373E+02  0.2902E+03  0.2901E+03
     -1.255  0.6590E+02  0.6302E+02  0.2943E+03  0.2940E+03
     -1.193  0.6583E+02  0.6580E+02  0.2984E+03  0.2981E+03
     -1.131  0.6714E+02  0.7014E+02  0.3025E+03  0.3024E+03
     -1.070  0.6757E+02  0.6699E+02  0.3067E+03  0.3066E+03
     -1.008  0.6748E+02  0.6766E+02  0.3109E+03  0.3107E+03
     -0.946  0.8354E+02  0.8363E+02  0.3160E+03  0.3159E+03
     -0.884  0.6128E+02  0.6155E+02  0.3198E+03  0.3197E+03
     -0.823  0.7147E+02  0.6981E+02  0.3242E+03  0.3240E+03
     -0.761  0.4630E+02  0.4707E+02  0.3271E+03  0.3269E+03
     -0.699  0.6683E+02  0.6734E+02  0.3312E+03  0.3311E+03
     -0.637  0.4784E+02  0.4858E+02  0.3342E+03  0.3341E+03
     -0.575  0.6990E+02  0.6658E+02  0.3385E+03  0.3382E+03
     -0.514  0.5110E+02  0.5448E+02  0.3417E+03  0.3416E+03
     -0.452  0.6333E+02  0.6068E+02  0.3456E+03  0.3453E+03
     -0.390  0.7841E+02  0.7559E+02  0.3504E+03  0.3500E+03
     -0.328  0.7882E+02  0.7791E+02  0.3553E+03  0.3548E+03
     -0.266  0.5351E+02  0.5761E+02  0.3586E+03  0.3584E+03
     -0.205  0.6696E+02  0.6536E+02  0.3628E+03  0.3624E+03
     -0.143  0.7544E+02  0.7645E+02  0.3674E+03  0.3671E+03
     -0.081  0.1007E+03  0.9933E+02  0.3736E+03  0.3733E+03
     -0.019  0.7340E+02  0.7498E+02  0.3782E+03  0.3779E+03
      0.043  0.8709E+02  0.8685E+02  0.3836E+03  0.3833E+03
      0.104  0.8621E+02  0.8811E+02  0.3889E+03  0.3887E+03
      0.166  0.9710E+02  0.9403E+02  0.3949E+03  0.3945E+03
      0.228  0.7316E+02  0.7592E+02  0.3994E+03  0.3992E+03
      0.290  0.9651E+02  0.9542E+02  0.4054E+03  0.4051E+03
      0.352  0.7649E+02  0.7312E+02  0.4101E+03  0.4097E+03
      0.413  0.8592E+02  0.9060E+02  0.4154E+03  0.4153E+03
      0.475  0.8196E+02  0.8196E+02  0.4205E+03  0.4203E+03
      0.537  0.8956E+02  0.8502E+02  0.4260E+03  0.4256E+03
      0.599  0.8342E+02  0.8588E+02  0.4312E+03  0.4309E+03
      0.660  0.8014E+02  0.8073E+02  0.4361E+03  0.4359E+03
      0.722  0.8541E+02  0.8606E+02  0.4414E+03  0.4412E+03
      0.784  0.8714E+02  0.8407E+02  0.4468E+03  0.4464E+03
      0.846  0.8196E+02  0.8340E+02  0.4519E+03  0.4515E+03
      0.908  0.9264E+02  0.9237E+02  0.4576E+03  0.4572E+03
      0.969  0.9282E+02  0.9522E+02  0.4633E+03  0.4631E+03
      1.031  0.9699E+02  0.9572E+02  0.4693E+03  0.4690E+03
      1.093  0.9019E+02  0.8635E+02  0.4749E+03  0.4744E+03
      1.155  0.8733E+02  0.9013E+02  0.4803E+03  0.4800E+03
      1.217  0.7262E+02  0.7278E+02  0.4848E+03  0.4845E+03
      1.278  0.8711E+02  0.8759E+02  0.4902E+03  0.4899E+03
      1.340  0.6574E+02  0.6511E+02  0.4942E+03  0.4939E+03
      1.402  0.7445E+02  0.7315E+02  0.4988E+03  0.4984E+03
      1.464  0.8702E+02  0.8908E+02  0.5042E+03  0.5039E+03
      1.526  0.8247E+02  0.8139E+02  0.5093E+03  0.5089E+03
      1.587  0.8253E+02  0.7787E+02  0.5144E+03  0.5138E+03
      1.649  0.9830E+02  0.9448E+02  0.5205E+03  0.5196E+03
      1.711  0.9422E+02  0.9400E+02  0.5263E+03  0.5254E+03
      1.773  0.8154E+02  0.8889E+02  0.5313E+03  0.5309E+03
      1.835  0.8749E+02  0.8833E+02  0.5367E+03  0.5364E+03
      1.896  0.9533E+02  0.9271E+02  0.5426E+03  0.5421E+03
      1.958  0.1005E+03  0.1067E+03  0.5488E+03  0.5487E+03
      2.020  0.8753E+02  0.8679E+02  0.5542E+03  0.5540E+03
      2.082  0.9813E+02  0.9663E+02  0.5603E+03  0.5600E+03
      2.144  0.8237E+02  0.8216E+02  0.5654E+03  0.5651E+03
      2.205  0.1243E+03  0.1233E+03  0.5731E+03  0.5727E+03
      2.267  0.7687E+02  0.8216E+02  0.5778E+03  0.5778E+03
      2.329  0.9637E+02  0.9682E+02  0.5838E+03  0.5838E+03
      2.391  0.9657E+02  0.8942E+02  0.5898E+03  0.5893E+03
      2.452  0.1063E+03  0.1065E+03  0.5963E+03  0.5959E+03
      2.514  0.9520E+02  0.9795E+02  0.6022E+03  0.6019E+03
      2.576  0.1110E+03  0.1086E+03  0.6091E+03  0.6087E+03
      2.638  0.1077E+03  0.1114E+03  0.6157E+03  0.6155E+03
      2.700  0.1115E+03  0.1075E+03  0.6226E+03  0.6222E+03
      2.761  0.1115E+03  0.1076E+03  0.6295E+03  0.6288E+03
      2.823  0.1098E+03  0.1153E+03  0.6363E+03  0.6359E+03
      2.885  0.1073E+03  0.1113E+03  0.6429E+03  0.6428E+03
      2.947  0.1279E+03  0.1208E+03  0.6508E+03  0.6503E+03
      3.009  0.1316E+03  0.1328E+03  0.6590E+03  0.6585E+03
      3.070  0.1309E+03  0.1280E+03  0.6671E+03  0.6664E+03
      3.132  0.1324E+03  0.1346E+03  0.6752E+03  0.6747E+03
      3.194  0.1239E+03  0.1213E+03  0.6829E+03  0.6822E+03
      3.256  0.1243E+03  0.1269E+03  0.6906E+03  0.6901E+03
      3.318  0.1098E+03  0.1132E+03  0.6974E+03  0.6971E+03
      3.379  0.1278E+03  0.1234E+03  0.7053E+03  0.7047E+03
      3.441  0.1141E+03  0.1143E+03  0.7123E+03  0.7118E+03
      3.503  0.1101E+03  0.1157E+03  0.7191E+03  0.7189E+03
      3.565  0.1274E+03  0.1273E+03  0.7270E+03  0.7268E+03
      3.627  0.1159E+03  0.1171E+03  0.7342E+03  0.7340E+03
      3.688  0.1239E+03  0.1224E+03  0.7418E+03  0.7416E+03
      3.750  0.1055E+03  0.1046E+03  0.7483E+03  0.7480E+03
      3.812  0.1324E+03  0.1320E+03  0.7565E+03  0.7562E+03
      3.874  0.1188E+03  0.1225E+03  0.7639E+03  0.7638E+03
      3.935  0.1230E+03  0.1202E+03  0.7715E+03  0.7712E+03
      3.997  0.1217E+03  0.1223E+03  0.7790E+03  0.7788E+03
      4.059  0.1039E+03  0.1049E+03  0.7854E+03  0.7852E+03
      4.121  0.1181E+03  0.1164E+03  0.7927E+03  0.7924E+03
      4.183  0.1130E+03  0.1158E+03  0.7997E+03  0.7996E+03
      4.244  0.1096E+03  0.1081E+03  0.8065E+03  0.8063E+03
      4.306  0.1152E+03  0.1130E+03  0.8136E+03  0.8133E+03
      4.368  0.1382E+03  0.1373E+03  0.8221E+03  0.8217E+03
      4.430  0.1065E+03  0.1037E+03  0.8287E+03  0.8281E+03
      4.492  0.1137E+03  0.1175E+03  0.8357E+03  0.8354E+03
      4.553  0.1249E+03  0.1220E+03  0.8434E+03  0.8430E+03
      4.615  0.1163E+03  0.1191E+03  0.8506E+03  0.8503E+03
      4.677  0.1096E+03  0.1083E+03  0.8574E+03  0.8570E+03
      4.739  0.1084E+03  0.1065E+03  0.8641E+03  0.8636E+03
      4.801  0.1115E+03  0.1119E+03  0.8710E+03  0.8705E+03
      4.862  0.1086E+03  0.1100E+03  0.8777E+03  0.8773E+03
      4.924  0.1069E+03  0.1103E+03  0.8843E+03  0.8841E+03
      4.986  0.9533E+02  0.9318E+02  0.8902E+03  0.8899E+03
      5.048  0.1006E+03  0.1001E+03  0.8964E+03  0.8961E+03
      5.110  0.1066E+03  0.1066E+03  0.9030E+03  0.9026E+03
      5.171  0.8574E+02  0.8439E+02  0.9083E+03  0.9079E+03
      5.233  0.8377E+02  0.8945E+02  0.9135E+03  0.9134E+03
      5.295  0.1151E+03  0.1142E+03  0.9206E+03  0.9205E+03
      5.357  0.1045E+03  0.1035E+03  0.9271E+03  0.9268E+03
      5.418  0.1052E+03  0.1021E+03  0.9336E+03  0.9332E+03
      5.480  0.9857E+02  0.1002E+03  0.9397E+03  0.9394E+03
      5.542  0.8354E+02  0.8321E+02  0.9448E+03  0.9445E+03
      5.604  0.9566E+02  0.9885E+02  0.9507E+03  0.9506E+03
      5.666  0.1004E+03  0.9693E+02  0.9569E+03  0.9566E+03
      5.727  0.7964E+02  0.7909E+02  0.9619E+03  0.9615E+03
      5.789  0.1003E+03  0.1033E+03  0.9681E+03  0.9679E+03
      5.851  0.9764E+02  0.9974E+02  0.9741E+03  0.9740E+03
      5.913  0.1055E+03  0.9818E+02  0.9806E+03  0.9801E+03
      5.975  0.9392E+02  0.9923E+02  0.9864E+03  0.9862E+03
      6.036  0.1040E+03  0.9581E+02  0.9928E+03  0.9922E+03
      6.098  0.9605E+02  0.9942E+02  0.9988E+03  0.9983E+03
      6.160  0.1007E+03  0.9954E+02  0.1005E+04  0.1004E+04
      6.222  0.1052E+03  0.1055E+03  0.1012E+04  0.1011E+04
      6.284  0.1103E+03  0.9781E+02  0.1018E+04  0.1017E+04
      6.345  0.1202E+03  0.1241E+03  0.1026E+04  0.1025E+04
      6.407  0.9223E+02  0.1072E+03  0.1031E+04  0.1031E+04
      6.469  0.1100E+03  0.1093E+03  0.1038E+04  0.1038E+04
      6.531  0.1127E+03  0.1175E+03  0.1045E+04  0.1045E+04
      6.593  0.1340E+03  0.1231E+03  0.1054E+04  0.1053E+04
      6.654  0.1158E+03  0.1127E+03  0.1061E+04  0.1060E+04
      6.716  0.1212E+03  0.1209E+03  0.1068E+04  0.1067E+04
      6.778  0.1066E+03  0.1289E+03  0.1075E+04  0.1075E+04
      6.840  0.1282E+03  0.1189E+03  0.1083E+04  0.1083E+04
      6.901  0.1190E+03  0.1094E+03  0.1090E+04  0.1089E+04
      6.963  0.1243E+03  0.1186E+03  0.1098E+04  0.1097E+04
      7.025  0.1270E+03  0.1103E+03  0.1106E+04  0.1104E+04
      7.087  0.1060E+03  0.1147E+03  0.1112E+04  0.1111E+04
      7.149  0.1154E+03  0.1162E+03  0.1119E+04  0.1118E+04
      7.210  0.1257E+03  0.1128E+03  0.1127E+04  0.1125E+04
      7.272  0.1193E+03  0.1275E+03  0.1134E+04  0.1133E+04
      7.334  0.1095E+03  0.1168E+03  0.1141E+04  0.1140E+04
      7.396  0.1141E+03  0.1220E+03  0.1148E+04  0.1147E+04
      7.458  0.1182E+03  0.1168E+03  0.1156E+04  0.1155E+04
      7.519  0.1197E+03  0.1122E+03  0.1163E+04  0.1162E+04
      7.581  0.1127E+03  0.1142E+03  0.1170E+04  0.1169E+04
      7.643  0.1145E+03  0.1258E+03  0.1177E+04  0.1176E+04
      7.705  0.1159E+03  0.1086E+03  0.1184E+04  0.1183E+04
      7.767  0.1293E+03  0.1246E+03  0.1192E+04  0.1191E+04
      7.828  0.1089E+03  0.1123E+03  0.1199E+04  0.1198E+04
      7.890  0.1223E+03  0.1214E+03  0.1206E+04  0.1205E+04
      7.952  0.1249E+03  0.1158E+03  0.1214E+04  0.1212E+04
      8.014  0.1264E+03  0.1369E+03  0.1222E+04  0.1221E+04
      8.076  0.1315E+03  0.1315E+03  0.1230E+04  0.1229E+04
      8.137  0.1378E+03  0.1454E+03  0.1239E+04  0.1238E+04
      8.199  0.1404E+03  0.1365E+03  0.1247E+04  0.1246E+04
      8.261  0.1357E+03  0.1356E+03  0.1256E+04  0.1255E+04
      8.323  0.1440E+03  0.1442E+03  0.1265E+04  0.1264E+04
      8.384  0.1064E+03  0.1110E+03  0.1271E+04  0.1271E+04
      8.446  0.1440E+02  0.2233E+02  0.1272E+04  0.1272E+04
      8.508  0.0000E+00  0.0000E+00  0.1272E+04  0.1272E+04
      8.570  0.0000E+00  0.0000E+00  0.1272E+04  0.1272E+04
      8.632  0.0000E+00  0.0000E+00  0.1272E+04  0.1272E+04
      8.693  0.0000E+00  0.0000E+00  0.1272E+04  0.1272E+04
      8.755  0.0000E+00  0.0000E+00  0.1272E+04  0.1272E+04
      8.817  0.0000E+00  0.0000E+00  0.1272E+04  0.1272E+04
      8.879  0.0000E+00  0.0000E+00  0.1272E+04  0.1272E+04
      8.941  0.0000E+00  0.0000E+00  0.1272E+04  0.1272E+04
      9.002  0.0000E+00  0.0000E+00  0.1272E+04  0.1272E+04
      9.064  0.0000E+00  0.0000E+00  0.1272E+04  0.1272E+04
      9.126  0.0000E+00  0.0000E+00  0.1272E+04  0.1272E+04
      9.188  0.0000E+00  0.0000E+00  0.1272E+04  0.1272E+04
      9.250  0.0000E+00  0.0000E+00  0.1272E+04  0.1272E+04
