<?xml version="1.0" encoding="ISO-8859-1"?>
<modeling>
 <generator>
  <i name="program" type="string">vasp </i>
  <i name="version" type="string">6.4.3  </i>
  <i name="subversion" type="string">19Mar24 (build Oct 22 2024 11:23:12) complex                          parallel </i>
  <i name="platform" type="string">LinuxIFC </i>
  <i name="date" type="string">2025 06 09 </i>
  <i name="time" type="string">05:54:19 </i>
 </generator>
 <incar>
  <i type="string" name="SYSTEM">Si and Ge interface calculation</i>
  <i type="int" name="ISTART">     0</i>
  <i type="logical" name="ADDGRID"> T  </i>
  <i type="int" name="ISPIN">     2</i>
  <i name="AMIX">      0.60000000</i>
  <i type="int" name="ICHARG">     2</i>
  <i type="int" name="NELM">   100</i>
  <i name="EDIFF">      0.00000010</i>
  <i name="ENCUT">    700.00000000</i>
  <i name="ENAUG">    900.00000000</i>
  <i type="int" name="NBANDS">   432</i>
  <i name="NUPDOWN">      1.00000000</i>
  <i name="NELECT">    720.00000000</i>
  <i type="string" name="LREAL">AUTO</i>
  <i type="int" name="ISMEAR">     0</i>
  <i name="SIGMA">      0.01000000</i>
  <i type="int" name="LMAXMIX">     6</i>
  <i type="logical" name="LWAVE"> F  </i>
  <i type="logical" name="LVTOT"> F  </i>
  <i type="logical" name="LVHAR"> T  </i>
  <i type="logical" name="LASPH"> T  </i>
  <i type="logical" name="LMIXTAU"> T  </i>
 </incar>
 <primitive_cell>
  <structure name="primitive_cell" >
   <crystal>
    <varray name="basis" >
     <v>       6.92936395      -9.79960007       0.00000000 </v>
     <v>       6.92936395       9.79959541       0.00000000 </v>
     <v>       0.00000000       0.00000000      17.60313034 </v>
    </varray>
    <i name="volume">   2390.68040167 </i>
    <varray name="rec_basis" >
     <v>       0.07215668      -0.05102250       0.00000000 </v>
     <v>       0.07215671       0.05102250       0.00000000 </v>
     <v>       0.00000000       0.00000000       0.05680808 </v>
    </varray>
   </crystal>
   <varray name="positions" >
    <v>       0.47937803       0.47937843       0.00000001 </v>
    <v>       0.22937806       0.22937828       0.11363522 </v>
    <v>       0.97937811       0.97937810       0.22727042 </v>
    <v>       0.72937829       0.72937804       0.34090558 </v>
    <v>       0.47937802       0.47937795       0.45454073 </v>
    <v>       0.22937794       0.22937769       0.56817591 </v>
    <v>       0.64604472       0.97937845       0.00000002 </v>
    <v>       0.39604501       0.72937830       0.11363521 </v>
    <v>       0.14604464       0.47937816       0.22727041 </v>
    <v>       0.89604507       0.22937811       0.34090558 </v>
    <v>       0.64604488       0.97937793       0.45454070 </v>
    <v>       0.39604494       0.72937775       0.56817591 </v>
    <v>       0.81271172       0.47937842       0.00000002 </v>
    <v>       0.56271132       0.22937831       0.11363521 </v>
    <v>       0.31271157       0.97937803       0.22727041 </v>
    <v>       0.06271123       0.72937804       0.34090552 </v>
    <v>       0.81271171       0.47937793       0.45454070 </v>
    <v>       0.56271129       0.22937775       0.56817585 </v>
    <v>       0.97937800       0.97937846       0.00000002 </v>
    <v>       0.72937831       0.72937830       0.11363521 </v>
    <v>       0.47937788       0.47937810       0.22727041 </v>
    <v>       0.22937808       0.22937801       0.34090558 </v>
    <v>       0.97937817       0.97937793       0.45454070 </v>
    <v>       0.72937826       0.72937772       0.56817585 </v>
    <v>       0.14604458       0.47937834       0.00000002 </v>
    <v>       0.89604505       0.22937830       0.11363519 </v>
    <v>       0.64604488       0.97937804       0.22727038 </v>
    <v>       0.39604496       0.72937801       0.34090558 </v>
    <v>       0.14604458       0.47937787       0.45454073 </v>
    <v>       0.89604497       0.22937772       0.56817591 </v>
    <v>       0.31271150       0.97937849       0.00000002 </v>
    <v>       0.06271123       0.72937828       0.11363518 </v>
    <v>       0.81271163       0.47937815       0.22727038 </v>
    <v>       0.56271129       0.22937798       0.34090552 </v>
    <v>       0.31271165       0.97937798       0.45454076 </v>
    <v>       0.06271129       0.72937775       0.56817585 </v>
    <v>       0.43771171       0.85437852       0.00000000 </v>
    <v>       0.18771123       0.60437828       0.11363521 </v>
    <v>       0.93771166       0.35437815       0.22727038 </v>
    <v>       0.68771132       0.10437807       0.34090558 </v>
    <v>       0.43771165       0.85437798       0.45454070 </v>
    <v>       0.18771123       0.60437781       0.56817585 </v>
    <v>       0.60437803       0.35437843       0.00000001 </v>
    <v>       0.35437808       0.10437825       0.11363521 </v>
    <v>       0.10437782       0.85437816       0.22727042 </v>
    <v>       0.85437832       0.60437801       0.34090552 </v>
    <v>       0.60437802       0.35437795       0.45454070 </v>
    <v>       0.35437808       0.10437778       0.56817585 </v>
    <v>       0.93771169       0.35437842       0.00000002 </v>
    <v>       0.68771133       0.10437830       0.11363519 </v>
    <v>       0.43771163       0.85437809       0.22727041 </v>
    <v>       0.18771129       0.60437798       0.34090552 </v>
    <v>       0.93771168       0.35437796       0.45454073 </v>
    <v>       0.68771126       0.10437778       0.56817585 </v>
    <v>       0.10437799       0.85437858       0.00000001 </v>
    <v>       0.85437832       0.60437831       0.11363521 </v>
    <v>       0.60437794       0.35437816       0.22727041 </v>
    <v>       0.35437805       0.10437804       0.34090558 </v>
    <v>       0.10437799       0.85437798       0.45454076 </v>
    <v>       0.85437823       0.60437775       0.56817585 </v>
    <v>       0.27104470       0.35437846       0.00000002 </v>
    <v>       0.02104488       0.10437840       0.11363521 </v>
    <v>       0.77104491       0.85437819       0.22727041 </v>
    <v>       0.52104504       0.60437809       0.34090558 </v>
    <v>       0.27104470       0.35437798       0.45454073 </v>
    <v>       0.02104482       0.10437787       0.56817585 </v>
    <v>       0.77104500       0.85437852       0.00000001 </v>
    <v>       0.52104503       0.60437831       0.11363521 </v>
    <v>       0.27104464       0.35437816       0.22727042 </v>
    <v>       0.02104476       0.10437804       0.34090558 </v>
    <v>       0.77104494       0.85437798       0.45454073 </v>
    <v>       0.52104500       0.60437781       0.56817591 </v>
    <v>       0.04586848       0.58660889       0.68105024 </v>
    <v>       0.01253522       0.21994215       0.76348048 </v>
    <v>       0.97920198       0.85327539       0.84591079 </v>
    <v>       0.37920177       0.25327560       0.68105024 </v>
    <v>       0.34586883       0.88660878       0.76348048 </v>
    <v>       0.31253491       0.51994199       0.84591079 </v>
    <v>       0.71253535       0.91994226       0.68105024 </v>
    <v>       0.67920208       0.55327553       0.76348048 </v>
    <v>       0.64586822       0.18660867       0.84591079 </v>
    <v>       0.44586839       0.48660910       0.72226530 </v>
    <v>       0.41253512       0.11994237       0.80469555 </v>
    <v>       0.37920198       0.75327551       0.88712573 </v>
    <v>       0.77920179       0.15327570       0.72226530 </v>
    <v>       0.74586868       0.78660882       0.80469555 </v>
    <v>       0.71253541       0.41994208       0.88712573 </v>
    <v>       0.11253514       0.81994236       0.72226530 </v>
    <v>       0.07920187       0.45327562       0.80469555 </v>
    <v>       0.04586860       0.08660889       0.88712573 </v>
   </varray>
  </structure>
  <varray name="primitive_index" >
   <v type="int" >        1 </v>
   <v type="int" >        2 </v>
   <v type="int" >        3 </v>
   <v type="int" >        4 </v>
   <v type="int" >        5 </v>
   <v type="int" >        6 </v>
   <v type="int" >       67 </v>
   <v type="int" >        8 </v>
   <v type="int" >        9 </v>
   <v type="int" >       70 </v>
   <v type="int" >       11 </v>
   <v type="int" >       12 </v>
   <v type="int" >       43 </v>
   <v type="int" >       44 </v>
   <v type="int" >       15 </v>
   <v type="int" >       16 </v>
   <v type="int" >       47 </v>
   <v type="int" >       48 </v>
   <v type="int" >       19 </v>
   <v type="int" >       50 </v>
   <v type="int" >       51 </v>
   <v type="int" >       52 </v>
   <v type="int" >       53 </v>
   <v type="int" >       54 </v>
   <v type="int" >       55 </v>
   <v type="int" >       26 </v>
   <v type="int" >       57 </v>
   <v type="int" >       58 </v>
   <v type="int" >       59 </v>
   <v type="int" >       30 </v>
   <v type="int" >       31 </v>
   <v type="int" >       38 </v>
   <v type="int" >       33 </v>
   <v type="int" >       34 </v>
   <v type="int" >       41 </v>
   <v type="int" >       42 </v>
   <v type="int" >       73 </v>
   <v type="int" >       74 </v>
   <v type="int" >      141 </v>
   <v type="int" >      142 </v>
   <v type="int" >       77 </v>
   <v type="int" >       78 </v>
   <v type="int" >      115 </v>
   <v type="int" >      116 </v>
   <v type="int" >       81 </v>
   <v type="int" >      118 </v>
   <v type="int" >      119 </v>
   <v type="int" >      120 </v>
   <v type="int" >       85 </v>
   <v type="int" >       86 </v>
   <v type="int" >      129 </v>
   <v type="int" >      130 </v>
   <v type="int" >       89 </v>
   <v type="int" >       90 </v>
   <v type="int" >      109 </v>
   <v type="int" >       92 </v>
   <v type="int" >       93 </v>
   <v type="int" >       94 </v>
   <v type="int" >      113 </v>
   <v type="int" >       96 </v>
   <v type="int" >       97 </v>
   <v type="int" >       98 </v>
   <v type="int" >       99 </v>
   <v type="int" >      100 </v>
   <v type="int" >      101 </v>
   <v type="int" >      102 </v>
   <v type="int" >      121 </v>
   <v type="int" >      122 </v>
   <v type="int" >      123 </v>
   <v type="int" >      124 </v>
   <v type="int" >      125 </v>
   <v type="int" >      126 </v>
   <v type="int" >      145 </v>
   <v type="int" >      146 </v>
   <v type="int" >      147 </v>
   <v type="int" >      148 </v>
   <v type="int" >      164 </v>
   <v type="int" >      165 </v>
   <v type="int" >      166 </v>
   <v type="int" >      167 </v>
   <v type="int" >      168 </v>
   <v type="int" >      175 </v>
   <v type="int" >      176 </v>
   <v type="int" >      156 </v>
   <v type="int" >      178 </v>
   <v type="int" >      158 </v>
   <v type="int" >      159 </v>
   <v type="int" >      172 </v>
   <v type="int" >      173 </v>
   <v type="int" >      174 </v>
  </varray>
 </primitive_cell>
 <kpoints>
  <generation param="Gamma">
   <v type="int" name="divisions">       2        2        2 </v>
   <v name="usershift">      0.00000000       0.00000000       0.00000000 </v>
   <v name="genvec1">      0.50000000       0.00000000       0.00000000 </v>
   <v name="genvec2">      0.00000000       0.50000000       0.00000000 </v>
   <v name="genvec3">      0.00000000       0.00000000       0.50000000 </v>
   <v name="shift">      0.00000000       0.00000000       0.00000000 </v>
  </generation>
  <varray name="kpointlist" >
   <v>       0.00000000       0.00000000       0.00000000 </v>
   <v>       0.50000000       0.00000000       0.00000000 </v>
   <v>       0.00000000       0.50000000       0.00000000 </v>
   <v>       0.50000000       0.50000000       0.00000000 </v>
   <v>       0.00000000       0.00000000       0.50000000 </v>
   <v>       0.50000000       0.00000000       0.50000000 </v>
   <v>       0.00000000       0.50000000       0.50000000 </v>
   <v>       0.50000000       0.50000000       0.50000000 </v>
  </varray>
  <varray name="weights" >
   <v>       0.12500000 </v>
   <v>       0.12500000 </v>
   <v>       0.12500000 </v>
   <v>       0.12500000 </v>
   <v>       0.12500000 </v>
   <v>       0.12500000 </v>
   <v>       0.12500000 </v>
   <v>       0.12500000 </v>
  </varray>
 </kpoints>
 <parameters>
  <separator name="general" >
   <i type="string" name="SYSTEM">Si and Ge interface calculation</i>
   <i type="logical" name="LCOMPAT"> F  </i>
  </separator>
  <separator name="electronic" >
   <i type="string" name="PREC">normal</i>
   <i name="ENMAX">    700.00000000</i>
   <i name="ENAUG">    900.00000000</i>
   <i name="EDIFF">      0.00000010</i>
   <i type="int" name="IALGO">    38</i>
   <i type="int" name="IWAVPR">    10</i>
   <i type="int" name="NBANDS">   432</i>
   <i type="int" name="NBANDSLOW">    -1</i>
   <i type="int" name="NBANDSHIGH">    -1</i>
   <i name="NELECT">    720.00000000</i>
   <i type="int" name="TURBO">     0</i>
   <i type="int" name="IRESTART">     0</i>
   <i type="int" name="NREBOOT">     0</i>
   <i type="int" name="NMIN">     0</i>
   <i name="EREF">      0.00000000</i>
   <separator name="electronic smearing" >
    <i type="int" name="ISMEAR">     0</i>
    <i name="SIGMA">      0.01000000</i>
    <i name="KSPACING">      0.50000000</i>
    <i type="logical" name="KGAMMA"> T  </i>
    <i type="logical" name="KBLOWUP"> T  </i>
   </separator>
   <separator name="electronic projectors" >
    <i type="logical" name="LREAL"> T  </i>
    <v name="ROPT">     -0.00050000     -0.00050000</v>
    <i type="int" name="LMAXPAW">  -100</i>
    <i type="int" name="LMAXMIX">     6</i>
    <i type="logical" name="NLSPLINE"> F  </i>
   </separator>
   <separator name="electronic startup" >
    <i type="int" name="ISTART">     0</i>
    <i type="int" name="ICHARG">     2</i>
    <i type="int" name="INIWAV">     1</i>
   </separator>
   <separator name="electronic spin" >
    <i type="int" name="ISPIN">     2</i>
    <i type="logical" name="LNONCOLLINEAR"> F  </i>
    <v name="MAGMOM">      0.00555556      0.00555556      0.00555556      0.00555556      0.00555556      0.00555556      0.00555556      0.00555556      0.00555556      0.00555556      0.00555556      0.00555556      0.00555556      0.00555556      0.00555556      0.00555556      0.00555556      0.00555556      0.00555556      0.00555556
      0.00555556      0.00555556      0.00555556      0.00555556      0.00555556      0.00555556      0.00555556      0.00555556      0.00555556      0.00555556      0.00555556      0.00555556      0.00555556      0.00555556      0.00555556      0.00555556      0.00555556      0.00555556      0.00555556      0.00555556
      0.00555556      0.00555556      0.00555556      0.00555556      0.00555556      0.00555556      0.00555556      0.00555556      0.00555556      0.00555556      0.00555556      0.00555556      0.00555556      0.00555556      0.00555556      0.00555556      0.00555556      0.00555556      0.00555556      0.00555556
      0.00555556      0.00555556      0.00555556      0.00555556      0.00555556      0.00555556      0.00555556      0.00555556      0.00555556      0.00555556      0.00555556      0.00555556      0.00555556      0.00555556      0.00555556      0.00555556      0.00555556      0.00555556      0.00555556      0.00555556
      0.00555556      0.00555556      0.00555556      0.00555556      0.00555556      0.00555556      0.00555556      0.00555556      0.00555556      0.00555556      0.00555556      0.00555556      0.00555556      0.00555556      0.00555556      0.00555556      0.00555556      0.00555556      0.00555556      0.00555556
      0.00555556      0.00555556      0.00555556      0.00555556      0.00555556      0.00555556      0.00555556      0.00555556      0.00555556      0.00555556      0.00555556      0.00555556      0.00555556      0.00555556      0.00555556      0.00555556      0.00555556      0.00555556      0.00555556      0.00555556
      0.00555556      0.00555556      0.00555556      0.00555556      0.00555556      0.00555556      0.00555556      0.00555556      0.00555556      0.00555556      0.00555556      0.00555556      0.00555556      0.00555556      0.00555556      0.00555556      0.00555556      0.00555556      0.00555556      0.00555556
      0.00555556      0.00555556      0.00555556      0.00555556      0.00555556      0.00555556      0.00555556      0.00555556      0.00555556      0.00555556      0.00555556      0.00555556      0.00555556      0.00555556      0.00555556      0.00555556      0.00555556      0.00555556      0.00555556      0.00555556
      0.00555556      0.00555556      0.00555556      0.00555556      0.00555556      0.00555556      0.00555556      0.00555556      0.00555556      0.00555556      0.00555556      0.00555556      0.00555556      0.00555556      0.00555556      0.00555556      0.00555556      0.00555556      0.00555556      0.00555556
</v>
    <i name="NUPDOWN">      1.00000000</i>
    <i type="logical" name="LSORBIT"> F  </i>
    <v name="SAXIS">      0.00000000      0.00000000      1.00000000</v>
    <i type="logical" name="LSPIRAL"> F  </i>
    <v name="QSPIRAL">      0.00000000      0.00000000      0.00000000</v>
    <i type="logical" name="LZEROZ"> F  </i>
   </separator>
   <separator name="electronic exchange-correlation" >
    <i type="logical" name="LASPH"> T  </i>
   </separator>
   <separator name="electronic convergence" >
    <i type="int" name="NELM">   100</i>
    <i type="int" name="NELMDL">    -5</i>
    <i type="int" name="NELMIN">     2</i>
    <i name="ENINI">    700.00000000</i>
    <separator name="electronic convergence detail" >
     <i type="logical" name="LDIAG"> T  </i>
     <i type="logical" name="LSUBROT"> F  </i>
     <i name="WEIMIN">      0.00000000</i>
     <i name="EBREAK">      0.00000000</i>
     <i name="DEPER">      0.30000000</i>
     <i type="int" name="NRMM">     4</i>
     <i name="TIME">      0.40000000</i>
    </separator>
   </separator>
   <separator name="electronic mixer" >
    <i name="AMIX">      0.60000000</i>
    <i name="BMIX">      1.00000000</i>
    <i name="AMIN">      0.10000000</i>
    <i name="AMIX_MAG">      2.40000000</i>
    <i name="BMIX_MAG">      1.00000000</i>
    <separator name="electronic mixer details" >
     <i type="int" name="IMIX">     4</i>
     <i type="logical" name="MIXFIRST"> F  </i>
     <i type="int" name="MAXMIX">   -45</i>
     <i name="WC">    100.00000000</i>
     <i type="int" name="INIMIX">     1</i>
     <i type="int" name="MIXPRE">     1</i>
     <i type="int" name="MREMOVE">     5</i>
    </separator>
   </separator>
   <separator name="electronic dipolcorrection" >
    <i type="logical" name="LDIPOL"> F  </i>
    <i type="logical" name="LMONO"> F  </i>
    <i type="int" name="IDIPOL">     0</i>
    <i name="EPSILON">      1.00000000</i>
    <v name="DIPOL">   -100.00000000   -100.00000000   -100.00000000</v>
    <i name="EFIELD">      0.00000000</i>
    <i type="logical" name="LVACPOTAV"> F  </i>
   </separator>
  </separator>
  <separator name="grids" >
   <i type="int" name="NGX">    90</i>
   <i type="int" name="NGY">   128</i>
   <i type="int" name="NGZ">   120</i>
   <i type="int" name="NGXF">   180</i>
   <i type="int" name="NGYF">   256</i>
   <i type="int" name="NGZF">   240</i>
   <i type="logical" name="ADDGRID"> T  </i>
  </separator>
  <separator name="ionic" >
   <i type="int" name="NSW">     0</i>
   <i type="int" name="IBRION">    -1</i>
   <i type="int" name="MDALGO">     0</i>
   <i type="int" name="ISIF">     2</i>
   <i name="PSTRESS">      0.00000000</i>
   <i name="EDIFFG">      0.00000100</i>
   <i type="int" name="NFREE">     0</i>
   <i name="POTIM">      0.50000000</i>
   <i name="SMASS">     -3.00000000</i>
   <i name="SCALEE">      1.00000000</i>
  </separator>
  <separator name="ionic md" >
   <i name="TEBEG">      0.00010000</i>
   <i name="TEEND">      0.00010000</i>
   <i type="int" name="NBLOCK">     1</i>
   <i type="int" name="KBLOCK">     1</i>
   <i type="int" name="NPACO">   256</i>
   <i name="APACO">     10.00000000</i>
  </separator>
  <separator name="symmetry" >
   <i type="int" name="ISYM">     2</i>
   <i name="SYMPREC">      0.00001000</i>
  </separator>
  <separator name="dos" >
   <i type="int" name="LORBIT">     0</i>
   <v name="RWIGS">     -1.00000000     -1.00000000</v>
   <i type="int" name="NEDOS">   301</i>
   <i name="EMIN">     10.00000000</i>
   <i name="EMAX">    -10.00000000</i>
   <i name="EFERMI">      0.00000000</i>
  </separator>
  <separator name="writing" >
   <i type="int" name="NWRITE">     2</i>
   <i type="logical" name="LWAVE"> F  </i>
   <i type="logical" name="LDOWNSAMPLE"> F  </i>
   <i type="logical" name="LCHARG"> T  </i>
   <i type="logical" name="LPARD"> F  </i>
   <i type="logical" name="LVTOT"> F  </i>
   <i type="logical" name="LVHAR"> T  </i>
   <i type="logical" name="LELF"> F  </i>
   <i type="logical" name="LOPTICS"> F  </i>
   <v name="STM">      0.00000000      0.00000000      0.00000000      0.00000000      0.00000000      0.00000000      0.00000000</v>
  </separator>
  <separator name="performance" >
   <i type="int" name="NPAR">     4</i>
   <i type="int" name="NSIM">     4</i>
   <i type="int" name="NBLK">    -1</i>
   <i type="logical" name="LPLANE"> T  </i>
   <i type="logical" name="LSCALAPACK"> T  </i>
   <i type="logical" name="LSCAAWARE"> F  </i>
   <i type="logical" name="LSCALU"> F  </i>
   <i type="logical" name="LASYNC"> F  </i>
   <i type="logical" name="LORBITALREAL"> F  </i>
  </separator>
  <separator name="miscellaneous" >
   <i type="int" name="IDIOT">     3</i>
   <i type="int" name="PHON_NSTRUCT">    -1</i>
   <i type="logical" name="LMUSIC"> F  </i>
   <v name="POMASS">     72.61000000    118.71000000</v>
   <v name="DARWINR">      0.00000000      0.00000000</v>
   <v name="DARWINV">      1.00000000      1.00000000</v>
   <i type="logical" name="LCORR"> T  </i>
  </separator>
  <i type="logical" name="GGA_COMPAT"> T  </i>
  <i type="logical" name="LBERRY"> F  </i>
  <i type="int" name="ICORELEVEL">     0</i>
  <i type="logical" name="LDAU"> F  </i>
  <i type="int" name="I_CONSTRAINED_M">     0</i>
  <separator name="electronic exchange-correlation" >
   <i type="string" name="GGA    ">PE</i>
   <i type="string" name="XC_C">1</i>
   <i type="int" name="VOSKOWN">     0</i>
   <i type="logical" name="LHFCALC"> F  </i>
   <i type="string" name="PRECFOCK"></i>
   <i type="logical" name="LSYMGRAD"> F  </i>
   <i type="logical" name="LHFONE"> F  </i>
   <i type="logical" name="LRHFCALC"> F  </i>
   <i type="logical" name="LTHOMAS"> F  </i>
   <i type="logical" name="LMODELHF"> F  </i>
   <i type="logical" name="LFOCKACE"> F  </i>
   <i name="ENCUT4O">     -1.00000000</i>
   <i type="int" name="EXXOEP">     0</i>
   <i type="int" name="FOURORBIT">     0</i>
   <i name="AEXX">      0.00000000</i>
   <i name="HFALPHA">      0.00000000</i>
   <i name="MCALPHA">      0.00000000</i>
   <i name="ALDAX">      1.00000000</i>
   <i name="AGGAX">      1.00000000</i>
   <i name="AMGGAX">      1.00000000</i>
   <i name="ALDAC">      1.00000000</i>
   <i name="AGGAC">      1.00000000</i>
   <i name="AMGGAC">      1.00000000</i>
   <i type="int" name="NKREDX">     1</i>
   <i type="int" name="NKREDY">     1</i>
   <i type="int" name="NKREDZ">     1</i>
   <i type="logical" name="SHIFTRED"> F  </i>
   <i type="logical" name="ODDONLY"> F  </i>
   <i type="logical" name="EVENONLY"> F  </i>
   <i type="int" name="LMAXFOCK">     0</i>
   <i type="int" name="NMAXFOCKAE">     0</i>
   <i type="logical" name="LFOCKAEDFT"> F  </i>
   <i name="HFSCREEN">      0.00000000</i>
   <i name="HFSCREENC">      0.00000000</i>
   <i type="int" name="NBANDSGWLOW">     0</i>
  </separator>
  <separator name="vdW DFT" >
   <i type="logical" name="LUSE_VDW"> F  </i>
   <i type="int" name="IVDW_NL">    -1</i>
   <i type="logical" name="LSPIN_VDW"> F  </i>
   <i name="ZAB_VDW">     -0.84910000</i>
   <i name="GAMMA_VDW">      1.39626340</i>
   <i name="ALPHA_VDW">      0.00000000</i>
   <i name="PARAM1">      0.12340000</i>
   <i name="PARAM2">      1.00000000</i>
   <i name="BPARAM">      6.30000000</i>
   <i name="CPARAM">      0.00930000</i>
  </separator>
  <separator name="model GW" >
   <i type="int" name="MODEL_GW">     0</i>
   <i name="MODEL_EPS0">     15.93786555</i>
   <i name="MODEL_ALPHA">      1.00000000</i>
  </separator>
  <separator name="linear response parameters" >
   <i type="logical" name="LEPSILON"> F  </i>
   <i type="logical" name="LRPA"> F  </i>
   <i type="logical" name="LNABLA"> F  </i>
   <i type="logical" name="LVEL"> F  </i>
   <i name="CSHIFT">      0.10000000</i>
   <i name="OMEGAMAX">     -1.00000000</i>
   <i name="DEG_THRESHOLD">      0.00200000</i>
   <i name="RTIME">     -0.10000000</i>
   <i name="WPLASMAI">      0.00000000</i>
   <v name="DFIELD">      0.00000000      0.00000000      0.00000000</v>
   <v name="WPLASMA">      0.00000000      0.00000000      0.00000000      0.00000000      0.00000000      0.00000000      0.00000000      0.00000000      0.00000000</v>
  </separator>
  <separator name="orbital magnetization" >
   <i type="logical" name="NUCIND"> F  </i>
   <v name="MAGPOS">      0.00000000      0.00000000      0.00000000</v>
   <i type="logical" name="LNICSALL"> T  </i>
   <i type="logical" name="ORBITALMAG"> F  </i>
   <i type="logical" name="LMAGBLOCH"> F  </i>
   <i type="logical" name="LCHIMAG"> F  </i>
   <i type="logical" name="LGAUGE"> T  </i>
   <i type="int" name="MAGATOM">     0</i>
   <v name="MAGDIPOL">      0.00000000      0.00000000      0.00000000</v>
   <v name="AVECCONST">      0.00000000      0.00000000      0.00000000</v>
  </separator>
  <separator name="response functions" >
   <i type="logical" name="LALL_IN_ONE"> F  </i>
   <i type="int" name="IALL_IN_ONE">    -1</i>
   <i type="int" name="NBANDS_WAVE">    -1</i>
   <i type="logical" name="LFINITE_TEMPERATURE"> F  </i>
   <i type="logical" name="LADDER"> F  </i>
   <i type="logical" name="LRPAFORCE"> F  </i>
   <i type="logical" name="LFXC"> F  </i>
   <i type="logical" name="LHARTREE"> T  </i>
   <i type="int" name="IBSE">     0</i>
   <v type="int" name="KPOINT">    -1     0     0     0</v>
   <i type="logical" name="LTCTC"> F  </i>
   <i type="logical" name="LTCTE"> F  </i>
   <i type="logical" name="LTETE"> F  </i>
   <i type="logical" name="LTRIPLET"> F  </i>
   <i type="logical" name="LFXCEPS"> F  </i>
   <i type="logical" name="LFXHEG"> F  </i>
   <i type="int" name="NATURALO">     2</i>
   <i type="logical" name="LHOLEGF"> F  </i>
   <i type="logical" name="L2ORDER"> F  </i>
   <i type="logical" name="LDMP1"> F  </i>
   <i type="logical" name="LMP2LT"> F  </i>
   <i type="logical" name="LSMP2LT"> F  </i>
   <i type="logical" name="LGWLF"> F  </i>
   <i name="ENCUTGW">     -1.60000002</i>
   <i name="ENCUTGWSOFT">     -1.60000002</i>
   <i name="ENCUTLF">     -1.00000000</i>
   <i type="logical" name="ESF_SPLINES"> F  </i>
   <i name="ESF_CONV">      0.01000000</i>
   <i type="int" name="ESF_NINTER">    15</i>
   <i type="int" name="LMAXMP2">    -1</i>
   <i name="SCISSOR">      0.00000000</i>
   <i type="int" name="NOMEGA">     0</i>
   <i type="int" name="NOMEGAR">     0</i>
   <i type="int" name="NBANDSGW">    -1</i>
   <i type="int" name="NBANDSO">    -1</i>
   <i type="int" name="NBANDSV">    -1</i>
   <i type="int" name="NELMGW">     1</i>
   <i type="int" name="NELMHF">     1</i>
   <i type="int" name="DIM">     3</i>
   <i type="int" name="IESPILON">     4</i>
   <i type="int" name="ANTIRES">     0</i>
   <i name="OMEGAMAX">    -30.00000000</i>
   <i name="OMEGAMIN">    -30.00000000</i>
   <i name="OMEGATL">   -200.00000000</i>
   <i type="int" name="OMEGAGRID">     0</i>
   <i name="CSHIFT">     -0.10000000</i>
   <i type="logical" name="LSELFENERGY"> F  </i>
   <i type="logical" name="LSPECTRAL"> F  </i>
   <i type="logical" name="LSPECTRALGW"> F  </i>
   <i type="logical" name="LSINGLES"> F  </i>
   <i type="logical" name="LFERMIGW"> F  </i>
   <i type="logical" name="ODDONLYGW"> F  </i>
   <i type="logical" name="EVENONLYGW"> F  </i>
   <i type="int" name="NKREDLFX">     1</i>
   <i type="int" name="NKREDLFY">     1</i>
   <i type="int" name="NKREDLFZ">     1</i>
   <i type="int" name="MAXMEM">  2800</i>
   <i type="int" name="TELESCOPE">     0</i>
   <i type="int" name="NTAUPAR">    -1</i>
   <i type="int" name="NOMEGAPAR">    -1</i>
   <i name="DAMP_NEWTON">      0.80000001</i>
   <i name="LAMBDA">      1.00000000</i>
  </separator>
  <separator name="External order field" >
   <i name="OFIELD_KAPPA">      0.00000000</i>
   <v name="OFIELD_K">      0.00000000      0.00000000      0.00000000</v>
   <i name="OFIELD_Q6_NEAR">      0.00000000</i>
   <i name="OFIELD_Q6_FAR">      0.00000000</i>
   <i name="OFIELD_A">      0.00000000</i>
  </separator>
  <separator name="optional k-points parameters" >
   <i type="int" name="KPOINTS_OPT_MODE">     1</i>
   <i type="logical" name="LKPOINTS_OPT"> F  </i>
  </separator>
 </parameters>
 <atominfo>
  <atoms>     180 </atoms>
  <types>       2 </types>
  <array name="atoms" >
   <dimension dim="1">ion</dimension>
   <field type="string">element</field>
   <field type="int">atomtype</field>
   <set>
    <rc><c>Ge</c><c>   1</c></rc>
    <rc><c>Ge</c><c>   1</c></rc>
    <rc><c>Ge</c><c>   1</c></rc>
    <rc><c>Ge</c><c>   1</c></rc>
    <rc><c>Ge</c><c>   1</c></rc>
    <rc><c>Ge</c><c>   1</c></rc>
    <rc><c>Ge</c><c>   1</c></rc>
    <rc><c>Ge</c><c>   1</c></rc>
    <rc><c>Ge</c><c>   1</c></rc>
    <rc><c>Ge</c><c>   1</c></rc>
    <rc><c>Ge</c><c>   1</c></rc>
    <rc><c>Ge</c><c>   1</c></rc>
    <rc><c>Ge</c><c>   1</c></rc>
    <rc><c>Ge</c><c>   1</c></rc>
    <rc><c>Ge</c><c>   1</c></rc>
    <rc><c>Ge</c><c>   1</c></rc>
    <rc><c>Ge</c><c>   1</c></rc>
    <rc><c>Ge</c><c>   1</c></rc>
    <rc><c>Ge</c><c>   1</c></rc>
    <rc><c>Ge</c><c>   1</c></rc>
    <rc><c>Ge</c><c>   1</c></rc>
    <rc><c>Ge</c><c>   1</c></rc>
    <rc><c>Ge</c><c>   1</c></rc>
    <rc><c>Ge</c><c>   1</c></rc>
    <rc><c>Ge</c><c>   1</c></rc>
    <rc><c>Ge</c><c>   1</c></rc>
    <rc><c>Ge</c><c>   1</c></rc>
    <rc><c>Ge</c><c>   1</c></rc>
    <rc><c>Ge</c><c>   1</c></rc>
    <rc><c>Ge</c><c>   1</c></rc>
    <rc><c>Ge</c><c>   1</c></rc>
    <rc><c>Ge</c><c>   1</c></rc>
    <rc><c>Ge</c><c>   1</c></rc>
    <rc><c>Ge</c><c>   1</c></rc>
    <rc><c>Ge</c><c>   1</c></rc>
    <rc><c>Ge</c><c>   1</c></rc>
    <rc><c>Ge</c><c>   1</c></rc>
    <rc><c>Ge</c><c>   1</c></rc>
    <rc><c>Ge</c><c>   1</c></rc>
    <rc><c>Ge</c><c>   1</c></rc>
    <rc><c>Ge</c><c>   1</c></rc>
    <rc><c>Ge</c><c>   1</c></rc>
    <rc><c>Ge</c><c>   1</c></rc>
    <rc><c>Ge</c><c>   1</c></rc>
    <rc><c>Ge</c><c>   1</c></rc>
    <rc><c>Ge</c><c>   1</c></rc>
    <rc><c>Ge</c><c>   1</c></rc>
    <rc><c>Ge</c><c>   1</c></rc>
    <rc><c>Ge</c><c>   1</c></rc>
    <rc><c>Ge</c><c>   1</c></rc>
    <rc><c>Ge</c><c>   1</c></rc>
    <rc><c>Ge</c><c>   1</c></rc>
    <rc><c>Ge</c><c>   1</c></rc>
    <rc><c>Ge</c><c>   1</c></rc>
    <rc><c>Ge</c><c>   1</c></rc>
    <rc><c>Ge</c><c>   1</c></rc>
    <rc><c>Ge</c><c>   1</c></rc>
    <rc><c>Ge</c><c>   1</c></rc>
    <rc><c>Ge</c><c>   1</c></rc>
    <rc><c>Ge</c><c>   1</c></rc>
    <rc><c>Ge</c><c>   1</c></rc>
    <rc><c>Ge</c><c>   1</c></rc>
    <rc><c>Ge</c><c>   1</c></rc>
    <rc><c>Ge</c><c>   1</c></rc>
    <rc><c>Ge</c><c>   1</c></rc>
    <rc><c>Ge</c><c>   1</c></rc>
    <rc><c>Ge</c><c>   1</c></rc>
    <rc><c>Ge</c><c>   1</c></rc>
    <rc><c>Ge</c><c>   1</c></rc>
    <rc><c>Ge</c><c>   1</c></rc>
    <rc><c>Ge</c><c>   1</c></rc>
    <rc><c>Ge</c><c>   1</c></rc>
    <rc><c>Ge</c><c>   1</c></rc>
    <rc><c>Ge</c><c>   1</c></rc>
    <rc><c>Ge</c><c>   1</c></rc>
    <rc><c>Ge</c><c>   1</c></rc>
    <rc><c>Ge</c><c>   1</c></rc>
    <rc><c>Ge</c><c>   1</c></rc>
    <rc><c>Ge</c><c>   1</c></rc>
    <rc><c>Ge</c><c>   1</c></rc>
    <rc><c>Ge</c><c>   1</c></rc>
    <rc><c>Ge</c><c>   1</c></rc>
    <rc><c>Ge</c><c>   1</c></rc>
    <rc><c>Ge</c><c>   1</c></rc>
    <rc><c>Ge</c><c>   1</c></rc>
    <rc><c>Ge</c><c>   1</c></rc>
    <rc><c>Ge</c><c>   1</c></rc>
    <rc><c>Ge</c><c>   1</c></rc>
    <rc><c>Ge</c><c>   1</c></rc>
    <rc><c>Ge</c><c>   1</c></rc>
    <rc><c>Ge</c><c>   1</c></rc>
    <rc><c>Ge</c><c>   1</c></rc>
    <rc><c>Ge</c><c>   1</c></rc>
    <rc><c>Ge</c><c>   1</c></rc>
    <rc><c>Ge</c><c>   1</c></rc>
    <rc><c>Ge</c><c>   1</c></rc>
    <rc><c>Ge</c><c>   1</c></rc>
    <rc><c>Ge</c><c>   1</c></rc>
    <rc><c>Ge</c><c>   1</c></rc>
    <rc><c>Ge</c><c>   1</c></rc>
    <rc><c>Ge</c><c>   1</c></rc>
    <rc><c>Ge</c><c>   1</c></rc>
    <rc><c>Ge</c><c>   1</c></rc>
    <rc><c>Ge</c><c>   1</c></rc>
    <rc><c>Ge</c><c>   1</c></rc>
    <rc><c>Ge</c><c>   1</c></rc>
    <rc><c>Ge</c><c>   1</c></rc>
    <rc><c>Ge</c><c>   1</c></rc>
    <rc><c>Ge</c><c>   1</c></rc>
    <rc><c>Ge</c><c>   1</c></rc>
    <rc><c>Ge</c><c>   1</c></rc>
    <rc><c>Ge</c><c>   1</c></rc>
    <rc><c>Ge</c><c>   1</c></rc>
    <rc><c>Ge</c><c>   1</c></rc>
    <rc><c>Ge</c><c>   1</c></rc>
    <rc><c>Ge</c><c>   1</c></rc>
    <rc><c>Ge</c><c>   1</c></rc>
    <rc><c>Ge</c><c>   1</c></rc>
    <rc><c>Ge</c><c>   1</c></rc>
    <rc><c>Ge</c><c>   1</c></rc>
    <rc><c>Ge</c><c>   1</c></rc>
    <rc><c>Ge</c><c>   1</c></rc>
    <rc><c>Ge</c><c>   1</c></rc>
    <rc><c>Ge</c><c>   1</c></rc>
    <rc><c>Ge</c><c>   1</c></rc>
    <rc><c>Ge</c><c>   1</c></rc>
    <rc><c>Ge</c><c>   1</c></rc>
    <rc><c>Ge</c><c>   1</c></rc>
    <rc><c>Ge</c><c>   1</c></rc>
    <rc><c>Ge</c><c>   1</c></rc>
    <rc><c>Ge</c><c>   1</c></rc>
    <rc><c>Ge</c><c>   1</c></rc>
    <rc><c>Ge</c><c>   1</c></rc>
    <rc><c>Ge</c><c>   1</c></rc>
    <rc><c>Ge</c><c>   1</c></rc>
    <rc><c>Ge</c><c>   1</c></rc>
    <rc><c>Ge</c><c>   1</c></rc>
    <rc><c>Ge</c><c>   1</c></rc>
    <rc><c>Ge</c><c>   1</c></rc>
    <rc><c>Ge</c><c>   1</c></rc>
    <rc><c>Ge</c><c>   1</c></rc>
    <rc><c>Ge</c><c>   1</c></rc>
    <rc><c>Ge</c><c>   1</c></rc>
    <rc><c>Ge</c><c>   1</c></rc>
    <rc><c>Sn</c><c>   2</c></rc>
    <rc><c>Sn</c><c>   2</c></rc>
    <rc><c>Sn</c><c>   2</c></rc>
    <rc><c>Sn</c><c>   2</c></rc>
    <rc><c>Sn</c><c>   2</c></rc>
    <rc><c>Sn</c><c>   2</c></rc>
    <rc><c>Sn</c><c>   2</c></rc>
    <rc><c>Sn</c><c>   2</c></rc>
    <rc><c>Sn</c><c>   2</c></rc>
    <rc><c>Sn</c><c>   2</c></rc>
    <rc><c>Sn</c><c>   2</c></rc>
    <rc><c>Sn</c><c>   2</c></rc>
    <rc><c>Sn</c><c>   2</c></rc>
    <rc><c>Sn</c><c>   2</c></rc>
    <rc><c>Sn</c><c>   2</c></rc>
    <rc><c>Sn</c><c>   2</c></rc>
    <rc><c>Sn</c><c>   2</c></rc>
    <rc><c>Sn</c><c>   2</c></rc>
    <rc><c>Sn</c><c>   2</c></rc>
    <rc><c>Sn</c><c>   2</c></rc>
    <rc><c>Sn</c><c>   2</c></rc>
    <rc><c>Sn</c><c>   2</c></rc>
    <rc><c>Sn</c><c>   2</c></rc>
    <rc><c>Sn</c><c>   2</c></rc>
    <rc><c>Sn</c><c>   2</c></rc>
    <rc><c>Sn</c><c>   2</c></rc>
    <rc><c>Sn</c><c>   2</c></rc>
    <rc><c>Sn</c><c>   2</c></rc>
    <rc><c>Sn</c><c>   2</c></rc>
    <rc><c>Sn</c><c>   2</c></rc>
    <rc><c>Sn</c><c>   2</c></rc>
    <rc><c>Sn</c><c>   2</c></rc>
    <rc><c>Sn</c><c>   2</c></rc>
    <rc><c>Sn</c><c>   2</c></rc>
    <rc><c>Sn</c><c>   2</c></rc>
    <rc><c>Sn</c><c>   2</c></rc>
   </set>
  </array>
  <array name="atomtypes" >
   <dimension dim="1">type</dimension>
   <field type="int">atomspertype</field>
   <field type="string">element</field>
   <field>mass</field>
   <field>valence</field>
   <field type="string">pseudopotential</field>
   <set>
    <rc><c> 144</c><c>Ge</c><c>     72.61000000</c><c>      4.00000000</c><c>  PAW_PBE Ge 05Jan2001                  </c></rc>
    <rc><c>  36</c><c>Sn</c><c>    118.71000000</c><c>      4.00000000</c><c>  PAW_PBE Sn 08Apr2002                  </c></rc>
   </set>
  </array>
 </atominfo>
 <structure name="initialpos" >
  <crystal>
   <varray name="basis" >
    <v>      13.85872459       0.00000000       0.00000000 </v>
    <v>       0.00000000      19.59919548       0.00000000 </v>
    <v>       0.00000000       0.00000000      17.60313034 </v>
   </varray>
   <i name="volume">   4781.35966538 </i>
   <varray name="rec_basis" >
    <v>       0.07215671       0.00000000       0.00000000 </v>
    <v>       0.00000000       0.05102250       0.00000000 </v>
    <v>       0.00000000       0.00000000       0.05680808 </v>
   </varray>
  </crystal>
  <varray name="positions" >
   <v>       0.97937846       0.49999997       0.00000001 </v>
   <v>       0.72937834       0.49999994       0.11363522 </v>
   <v>       0.47937822       0.49999988       0.22727042 </v>
   <v>       0.22937822       0.49999982       0.34090558 </v>
   <v>       0.97937822       0.49999973       0.45454073 </v>
   <v>       0.72937798       0.49999970       0.56817591 </v>
   <v>       0.31271177       0.66666669       0.00000001 </v>
   <v>       0.06271167       0.66666663       0.11363521 </v>
   <v>       0.81271160       0.66666657       0.22727041 </v>
   <v>       0.56271154       0.66666651       0.34090552 </v>
   <v>       0.31271148       0.66666645       0.45454070 </v>
   <v>       0.06271136       0.66666639       0.56817591 </v>
   <v>       0.64604503       0.83333331       0.00000001 </v>
   <v>       0.39604497       0.83333325       0.11363521 </v>
   <v>       0.14604483       0.83333319       0.22727041 </v>
   <v>       0.89604485       0.83333319       0.34090552 </v>
   <v>       0.64604473       0.83333307       0.45454070 </v>
   <v>       0.39604467       0.83333302       0.56817591 </v>
   <v>       0.97937846       0.00000000       0.00000002 </v>
   <v>       0.72937834       0.99999994       0.11363519 </v>
   <v>       0.47937828       0.99999988       0.22727041 </v>
   <v>       0.22937828       0.99999982       0.34090552 </v>
   <v>       0.97937822       0.99999976       0.45454070 </v>
   <v>       0.72937810       0.99999970       0.56817591 </v>
   <v>       0.31271177       0.16666666       0.00000002 </v>
   <v>       0.06271169       0.16666661       0.11363519 </v>
   <v>       0.81271160       0.16666654       0.22727038 </v>
   <v>       0.56271154       0.16666648       0.34090552 </v>
   <v>       0.31271148       0.16666643       0.45454073 </v>
   <v>       0.06271136       0.16666636       0.56817591 </v>
   <v>       0.64604515       0.33333334       0.00000002 </v>
   <v>       0.39604500       0.33333328       0.11363521 </v>
   <v>       0.14604492       0.33333322       0.22727038 </v>
   <v>       0.89604485       0.33333313       0.34090552 </v>
   <v>       0.64604485       0.33333311       0.45454073 </v>
   <v>       0.39604473       0.33333305       0.56817591 </v>
   <v>       0.14604510       0.83333337       0.00000001 </v>
   <v>       0.89604497       0.83333331       0.11363518 </v>
   <v>       0.64604485       0.83333325       0.22727041 </v>
   <v>       0.39604479       0.83333319       0.34090558 </v>
   <v>       0.14604485       0.83333313       0.45454076 </v>
   <v>       0.89604473       0.83333302       0.56817585 </v>
   <v>       0.14604510       0.33333331       0.00000002 </v>
   <v>       0.89604503       0.33333328       0.11363521 </v>
   <v>       0.64604491       0.33333322       0.22727041 </v>
   <v>       0.39604491       0.33333313       0.34090558 </v>
   <v>       0.14604485       0.33333307       0.45454070 </v>
   <v>       0.89604473       0.33333302       0.56817585 </v>
   <v>       0.47937849       0.50000000       0.00000002 </v>
   <v>       0.22937836       0.49999994       0.11363521 </v>
   <v>       0.97937822       0.49999988       0.22727041 </v>
   <v>       0.72937822       0.49999979       0.34090558 </v>
   <v>       0.47937816       0.49999976       0.45454070 </v>
   <v>       0.22937804       0.49999967       0.56817585 </v>
   <v>       0.81271166       0.66666669       0.00000002 </v>
   <v>       0.56271166       0.66666663       0.11363521 </v>
   <v>       0.31271154       0.66666651       0.22727038 </v>
   <v>       0.06271150       0.66666651       0.34090558 </v>
   <v>       0.81271142       0.66666645       0.45454073 </v>
   <v>       0.56271136       0.66666633       0.56817585 </v>
   <v>       0.47937843       0.00000000       0.00000002 </v>
   <v>       0.22937836       0.99999994       0.11363521 </v>
   <v>       0.97937822       0.99999988       0.22727038 </v>
   <v>       0.72937822       0.99999982       0.34090558 </v>
   <v>       0.47937816       0.99999976       0.45454073 </v>
   <v>       0.22937804       0.99999970       0.56817591 </v>
   <v>       0.81271177       0.16666667       0.00000002 </v>
   <v>       0.56271172       0.16666660       0.11363521 </v>
   <v>       0.31271166       0.16666657       0.22727038 </v>
   <v>       0.06271160       0.16666651       0.34090558 </v>
   <v>       0.81271160       0.16666643       0.45454070 </v>
   <v>       0.56271148       0.16666640       0.56817591 </v>
   <v>       0.14604515       0.70833337       0.00000000 </v>
   <v>       0.89604497       0.70833331       0.11363521 </v>
   <v>       0.64604491       0.70833325       0.22727042 </v>
   <v>       0.39604485       0.70833319       0.34090558 </v>
   <v>       0.14604485       0.70833313       0.45454070 </v>
   <v>       0.89604473       0.70833307       0.56817585 </v>
   <v>       0.47937843       0.87500006       0.00000000 </v>
   <v>       0.22937839       0.87500000       0.11363521 </v>
   <v>       0.97937822       0.87499994       0.22727042 </v>
   <v>       0.72937822       0.87499988       0.34090558 </v>
   <v>       0.47937822       0.87499976       0.45454070 </v>
   <v>       0.22937810       0.87499976       0.56817585 </v>
   <v>       0.14604509       0.20833333       0.00000002 </v>
   <v>       0.89604503       0.20833327       0.11363519 </v>
   <v>       0.64604491       0.20833321       0.22727038 </v>
   <v>       0.39604485       0.20833315       0.34090558 </v>
   <v>       0.14604485       0.20833311       0.45454073 </v>
   <v>       0.89604473       0.20833305       0.56817585 </v>
   <v>       0.47937849       0.37500000       0.00000002 </v>
   <v>       0.22937837       0.37499994       0.11363521 </v>
   <v>       0.97937828       0.37499988       0.22727041 </v>
   <v>       0.72937822       0.37499982       0.34090558 </v>
   <v>       0.47937822       0.37499976       0.45454073 </v>
   <v>       0.22937804       0.37499970       0.56817585 </v>
   <v>       0.81271177       0.54166669       0.00000002 </v>
   <v>       0.56271177       0.54166663       0.11363521 </v>
   <v>       0.31271163       0.54166657       0.22727041 </v>
   <v>       0.06271158       0.54166651       0.34090558 </v>
   <v>       0.81271154       0.54166645       0.45454073 </v>
   <v>       0.56271148       0.54166639       0.56817585 </v>
   <v>       0.81271184       0.04166666       0.00000001 </v>
   <v>       0.56271172       0.04166659       0.11363521 </v>
   <v>       0.31271163       0.04166653       0.22727041 </v>
   <v>       0.06271157       0.04166649       0.34090558 </v>
   <v>       0.81271154       0.04166642       0.45454073 </v>
   <v>       0.56271148       0.04166634       0.56817591 </v>
   <v>       0.97937852       0.87500006       0.00000001 </v>
   <v>       0.72937834       0.87499994       0.11363518 </v>
   <v>       0.47937828       0.87499988       0.22727041 </v>
   <v>       0.22937822       0.87499982       0.34090558 </v>
   <v>       0.97937822       0.87499976       0.45454076 </v>
   <v>       0.72937810       0.87499970       0.56817585 </v>
   <v>       0.97937846       0.37499997       0.00000001 </v>
   <v>       0.72937834       0.37499991       0.11363521 </v>
   <v>       0.47937828       0.37499985       0.22727041 </v>
   <v>       0.22937822       0.37499979       0.34090552 </v>
   <v>       0.97937822       0.37499973       0.45454070 </v>
   <v>       0.72937810       0.37499967       0.56817585 </v>
   <v>       0.31271184       0.54166669       0.00000001 </v>
   <v>       0.06271169       0.54166663       0.11363521 </v>
   <v>       0.81271160       0.54166657       0.22727042 </v>
   <v>       0.56271154       0.54166651       0.34090558 </v>
   <v>       0.31271154       0.54166645       0.45454073 </v>
   <v>       0.06271142       0.54166639       0.56817591 </v>
   <v>       0.64604509       0.70833331       0.00000001 </v>
   <v>       0.39604500       0.70833325       0.11363521 </v>
   <v>       0.14604490       0.70833319       0.22727041 </v>
   <v>       0.89604485       0.70833313       0.34090552 </v>
   <v>       0.64604485       0.70833307       0.45454070 </v>
   <v>       0.39604473       0.70833302       0.56817585 </v>
   <v>       0.31271175       0.04166665       0.00000002 </v>
   <v>       0.06271169       0.04166659       0.11363519 </v>
   <v>       0.81271160       0.04166654       0.22727038 </v>
   <v>       0.56271154       0.04166648       0.34090558 </v>
   <v>       0.31271154       0.04166643       0.45454073 </v>
   <v>       0.06271142       0.04166637       0.56817585 </v>
   <v>       0.64604521       0.20833336       0.00000002 </v>
   <v>       0.39604506       0.20833328       0.11363519 </v>
   <v>       0.14604494       0.20833321       0.22727038 </v>
   <v>       0.89604491       0.20833316       0.34090558 </v>
   <v>       0.64604485       0.20833311       0.45454073 </v>
   <v>       0.39604473       0.20833305       0.56817585 </v>
   <v>       0.81623888       0.77037001       0.68105024 </v>
   <v>       0.61623883       0.60370332       0.76348048 </v>
   <v>       0.41623878       0.43703660       0.84591079 </v>
   <v>       0.81623888       0.43703672       0.68105024 </v>
   <v>       0.61623883       0.27037004       0.76348048 </v>
   <v>       0.41623878       0.10370338       0.84591079 </v>
   <v>       0.81623888       0.10370350       0.68105024 </v>
   <v>       0.61623883       0.93703675       0.76348048 </v>
   <v>       0.41623878       0.77037001       0.84591079 </v>
   <v>       0.46623898       0.02037013       0.72226530 </v>
   <v>       0.26623881       0.85370344       0.80469555 </v>
   <v>       0.06623876       0.68703675       0.88712573 </v>
   <v>       0.46623898       0.68703669       0.72226530 </v>
   <v>       0.26623881       0.52037001       0.80469555 </v>
   <v>       0.06623876       0.35370332       0.88712573 </v>
   <v>       0.46623898       0.35370347       0.72226530 </v>
   <v>       0.26623881       0.18703678       0.80469555 </v>
   <v>       0.06623876       0.02037013       0.88712573 </v>
   <v>       0.31623888       0.93703663       0.68105024 </v>
   <v>       0.11623883       0.77036995       0.76348048 </v>
   <v>       0.91623867       0.60370332       0.84591079 </v>
   <v>       0.31623888       0.60370338       0.68105024 </v>
   <v>       0.11623883       0.43703669       0.76348048 </v>
   <v>       0.91623867       0.27037001       0.84591079 </v>
   <v>       0.31623888       0.27037007       0.68105024 </v>
   <v>       0.11623883       0.10370338       0.76348048 </v>
   <v>       0.91623867       0.93703669       0.84591079 </v>
   <v>       0.96623898       0.85370338       0.72226530 </v>
   <v>       0.76623893       0.68703669       0.80469555 </v>
   <v>       0.56623888       0.52037001       0.88712573 </v>
   <v>       0.96623898       0.52037013       0.72226530 </v>
   <v>       0.76623893       0.35370344       0.80469555 </v>
   <v>       0.56623888       0.18703672       0.88712573 </v>
   <v>       0.96623898       0.18703672       0.72226530 </v>
   <v>       0.76623893       0.02037013       0.80469555 </v>
   <v>       0.56623888       0.85370332       0.88712573 </v>
  </varray>
 </structure>
 <calculation>
  <scstep>
   <time name="dav">   79.18   79.99</time>
   <time name="total">   82.06   82.88</time>
   <energy>
    <i name="alphaZ">   1205.67090968 </i>
    <i name="ewald"> -15441.98588470 </i>
    <i name="hartreedc">  -4372.02888388 </i>
    <i name="XCdc">  -5351.29912345 </i>
    <i name="pawpsdc">  19511.85949846 </i>
    <i name="pawaedc"> -12966.91288459 </i>
    <i name="eentropy">     -0.00261970 </i>
    <i name="bandstr">   2558.95485464 </i>
    <i name="atom">  18506.50640686 </i>
    <i name="e_fr_energy">   3650.76227332 </i>
    <i name="e_wo_entrp">   3650.76489303 </i>
    <i name="e_0_energy">   3650.76358318 </i>
   </energy>
  </scstep>
  <scstep>
   <time name="dav">   89.36   90.29</time>
   <time name="total">   89.37   90.29</time>
   <energy>
    <i name="e_fr_energy">   -296.97976510 </i>
    <i name="e_wo_entrp">   -296.97709252 </i>
    <i name="e_0_energy">   -296.97842881 </i>
   </energy>
  </scstep>
  <scstep>
   <time name="dav">   92.76   93.72</time>
   <time name="total">   92.77   93.73</time>
   <energy>
    <i name="e_fr_energy">   -726.17719854 </i>
    <i name="e_wo_entrp">   -726.17563226 </i>
    <i name="e_0_energy">   -726.17641540 </i>
   </energy>
  </scstep>
  <scstep>
   <time name="dav">   91.56   92.49</time>
   <time name="total">   91.56   92.50</time>
   <energy>
    <i name="e_fr_energy">   -744.54247397 </i>
    <i name="e_wo_entrp">   -744.54002749 </i>
    <i name="e_0_energy">   -744.54125073 </i>
   </energy>
  </scstep>
  <scstep>
   <time name="dav">   99.90  100.92</time>
   <time name="total">  103.79  104.87</time>
   <energy>
    <i name="e_fr_energy">   -745.40026962 </i>
    <i name="e_wo_entrp">   -745.39782015 </i>
    <i name="e_0_energy">   -745.39904489 </i>
   </energy>
  </scstep>
  <scstep>
   <time name="dav">  103.26  104.49</time>
   <time name="total">  110.05  111.34</time>
   <energy>
    <i name="e_fr_energy">   -736.49204452 </i>
    <i name="e_wo_entrp">   -736.48891822 </i>
    <i name="e_0_energy">   -736.49048137 </i>
   </energy>
  </scstep>
  <scstep>
   <time name="dav">   98.01   99.18</time>
   <time name="total">  104.78  106.02</time>
   <energy>
    <i name="e_fr_energy">   -735.43444992 </i>
    <i name="e_wo_entrp">   -735.43047077 </i>
    <i name="e_0_energy">   -735.43246034 </i>
   </energy>
  </scstep>
  <scstep>
   <time name="dav">   89.14   90.06</time>
   <time name="total">   95.94   96.92</time>
   <energy>
    <i name="e_fr_energy">   -733.78950309 </i>
    <i name="e_wo_entrp">   -733.78706952 </i>
    <i name="e_0_energy">   -733.78828631 </i>
   </energy>
  </scstep>
  <scstep>
   <time name="dav">   88.87   89.93</time>
   <time name="total">   95.66   96.79</time>
   <energy>
    <i name="e_fr_energy">   -733.84142386 </i>
    <i name="e_wo_entrp">   -733.83828358 </i>
    <i name="e_0_energy">   -733.83985372 </i>
   </energy>
  </scstep>
  <scstep>
   <time name="dav">   87.51   88.55</time>
   <time name="total">   94.34   95.45</time>
   <energy>
    <i name="e_fr_energy">   -733.82504201 </i>
    <i name="e_wo_entrp">   -733.82201374 </i>
    <i name="e_0_energy">   -733.82352787 </i>
   </energy>
  </scstep>
  <scstep>
   <time name="dav">   86.37   87.42</time>
   <time name="total">   93.16   94.27</time>
   <energy>
    <i name="e_fr_energy">   -733.82583464 </i>
    <i name="e_wo_entrp">   -733.82235155 </i>
    <i name="e_0_energy">   -733.82409310 </i>
   </energy>
  </scstep>
  <scstep>
   <time name="dav">   86.26   87.32</time>
   <time name="total">   93.05   94.17</time>
   <energy>
    <i name="e_fr_energy">   -733.82554939 </i>
    <i name="e_wo_entrp">   -733.82232566 </i>
    <i name="e_0_energy">   -733.82393752 </i>
   </energy>
  </scstep>
  <scstep>
   <time name="dav">   93.28   94.25</time>
   <time name="total">  100.08  101.11</time>
   <energy>
    <i name="e_fr_energy">   -733.82577147 </i>
    <i name="e_wo_entrp">   -733.82259192 </i>
    <i name="e_0_energy">   -733.82418169 </i>
   </energy>
  </scstep>
  <scstep>
   <time name="dav">   88.47   89.54</time>
   <time name="total">   95.26   96.40</time>
   <energy>
    <i name="e_fr_energy">   -733.82586459 </i>
    <i name="e_wo_entrp">   -733.82265485 </i>
    <i name="e_0_energy">   -733.82425972 </i>
   </energy>
  </scstep>
  <scstep>
   <time name="dav">   90.96   91.92</time>
   <time name="total">   97.74   98.76</time>
   <energy>
    <i name="e_fr_energy">   -733.82590326 </i>
    <i name="e_wo_entrp">   -733.82268245 </i>
    <i name="e_0_energy">   -733.82429285 </i>
   </energy>
  </scstep>
  <scstep>
   <time name="dav">   91.26   92.18</time>
   <time name="total">   98.06   99.04</time>
   <energy>
    <i name="e_fr_energy">   -733.82589861 </i>
    <i name="e_wo_entrp">   -733.82268106 </i>
    <i name="e_0_energy">   -733.82428983 </i>
   </energy>
  </scstep>
  <scstep>
   <time name="dav">   85.55   86.39</time>
   <time name="total">   92.36   93.26</time>
   <energy>
    <i name="e_fr_energy">   -733.82590442 </i>
    <i name="e_wo_entrp">   -733.82269045 </i>
    <i name="e_0_energy">   -733.82429743 </i>
   </energy>
  </scstep>
  <scstep>
   <time name="dav">   88.20   89.06</time>
   <time name="total">   95.00   95.92</time>
   <energy>
    <i name="e_fr_energy">   -733.82590869 </i>
    <i name="e_wo_entrp">   -733.82269310 </i>
    <i name="e_0_energy">   -733.82430090 </i>
   </energy>
  </scstep>
  <scstep>
   <time name="dav">   87.58   88.60</time>
   <time name="total">   94.37   95.47</time>
   <energy>
    <i name="e_fr_energy">   -733.82591010 </i>
    <i name="e_wo_entrp">   -733.82269257 </i>
    <i name="e_0_energy">   -733.82430134 </i>
   </energy>
  </scstep>
  <scstep>
   <time name="dav">   69.03   69.73</time>
   <time name="total">   75.83   76.59</time>
   <energy>
    <i name="e_fr_energy">   -733.82590980 </i>
    <i name="e_wo_entrp">   -733.82269325 </i>
    <i name="e_0_energy">   -733.82430153 </i>
   </energy>
  </scstep>
  <scstep>
   <time name="dav">   60.17   60.77</time>
   <time name="total">   67.00   67.66</time>
   <energy>
    <i name="e_fr_energy">   -733.82590958 </i>
    <i name="e_wo_entrp">   -733.82269333 </i>
    <i name="e_0_energy">   -733.82430146 </i>
   </energy>
  </scstep>
  <scstep>
   <time name="dav">   56.37   56.93</time>
   <time name="total">   59.22   59.80</time>
   <energy>
    <i name="alphaZ">   1205.67090968 </i>
    <i name="ewald"> -15441.98588470 </i>
    <i name="hartreedc">  -4631.48446990 </i>
    <i name="XCdc">  -5302.22328140 </i>
    <i name="pawpsdc">  42233.08995404 </i>
    <i name="pawaedc"> -35722.84474169 </i>
    <i name="eentropy">     -0.00321626 </i>
    <i name="bandstr">  -1580.55158617 </i>
    <i name="atom">  18506.50640686 </i>
    <i name="e_fr_energy">   -733.82590954 </i>
    <i name="e_wo_entrp">   -733.82269328 </i>
    <i name="e_0_energy">   -733.82430141 </i>
   </energy>
  </scstep>
  <structure>
   <crystal>
    <varray name="basis" >
     <v>      13.85872459       0.00000000       0.00000000 </v>
     <v>       0.00000000      19.59919548       0.00000000 </v>
     <v>       0.00000000       0.00000000      17.60313034 </v>
    </varray>
    <i name="volume">   4781.35966538 </i>
    <varray name="rec_basis" >
     <v>       0.07215671       0.00000000       0.00000000 </v>
     <v>       0.00000000       0.05102250       0.00000000 </v>
     <v>       0.00000000       0.00000000       0.05680808 </v>
    </varray>
   </crystal>
   <varray name="positions" >
    <v>       0.97937846       0.49999997       0.00000001 </v>
    <v>       0.72937834       0.49999994       0.11363522 </v>
    <v>       0.47937822       0.49999988       0.22727042 </v>
    <v>       0.22937822       0.49999982       0.34090558 </v>
    <v>       0.97937822       0.49999973       0.45454073 </v>
    <v>       0.72937798       0.49999970       0.56817591 </v>
    <v>       0.31271177       0.66666669       0.00000001 </v>
    <v>       0.06271167       0.66666663       0.11363521 </v>
    <v>       0.81271160       0.66666657       0.22727041 </v>
    <v>       0.56271154       0.66666651       0.34090552 </v>
    <v>       0.31271148       0.66666645       0.45454070 </v>
    <v>       0.06271136       0.66666639       0.56817591 </v>
    <v>       0.64604503       0.83333331       0.00000001 </v>
    <v>       0.39604497       0.83333325       0.11363521 </v>
    <v>       0.14604483       0.83333319       0.22727041 </v>
    <v>       0.89604485       0.83333319       0.34090552 </v>
    <v>       0.64604473       0.83333307       0.45454070 </v>
    <v>       0.39604467       0.83333302       0.56817591 </v>
    <v>       0.97937846       0.00000000       0.00000002 </v>
    <v>       0.72937834       0.99999994       0.11363519 </v>
    <v>       0.47937828       0.99999988       0.22727041 </v>
    <v>       0.22937828       0.99999982       0.34090552 </v>
    <v>       0.97937822       0.99999976       0.45454070 </v>
    <v>       0.72937810       0.99999970       0.56817591 </v>
    <v>       0.31271177       0.16666666       0.00000002 </v>
    <v>       0.06271169       0.16666661       0.11363519 </v>
    <v>       0.81271160       0.16666654       0.22727038 </v>
    <v>       0.56271154       0.16666648       0.34090552 </v>
    <v>       0.31271148       0.16666643       0.45454073 </v>
    <v>       0.06271136       0.16666636       0.56817591 </v>
    <v>       0.64604515       0.33333334       0.00000002 </v>
    <v>       0.39604500       0.33333328       0.11363521 </v>
    <v>       0.14604492       0.33333322       0.22727038 </v>
    <v>       0.89604485       0.33333313       0.34090552 </v>
    <v>       0.64604485       0.33333311       0.45454073 </v>
    <v>       0.39604473       0.33333305       0.56817591 </v>
    <v>       0.14604510       0.83333337       0.00000001 </v>
    <v>       0.89604497       0.83333331       0.11363518 </v>
    <v>       0.64604485       0.83333325       0.22727041 </v>
    <v>       0.39604479       0.83333319       0.34090558 </v>
    <v>       0.14604485       0.83333313       0.45454076 </v>
    <v>       0.89604473       0.83333302       0.56817585 </v>
    <v>       0.14604510       0.33333331       0.00000002 </v>
    <v>       0.89604503       0.33333328       0.11363521 </v>
    <v>       0.64604491       0.33333322       0.22727041 </v>
    <v>       0.39604491       0.33333313       0.34090558 </v>
    <v>       0.14604485       0.33333307       0.45454070 </v>
    <v>       0.89604473       0.33333302       0.56817585 </v>
    <v>       0.47937849       0.50000000       0.00000002 </v>
    <v>       0.22937836       0.49999994       0.11363521 </v>
    <v>       0.97937822       0.49999988       0.22727041 </v>
    <v>       0.72937822       0.49999979       0.34090558 </v>
    <v>       0.47937816       0.49999976       0.45454070 </v>
    <v>       0.22937804       0.49999967       0.56817585 </v>
    <v>       0.81271166       0.66666669       0.00000002 </v>
    <v>       0.56271166       0.66666663       0.11363521 </v>
    <v>       0.31271154       0.66666651       0.22727038 </v>
    <v>       0.06271150       0.66666651       0.34090558 </v>
    <v>       0.81271142       0.66666645       0.45454073 </v>
    <v>       0.56271136       0.66666633       0.56817585 </v>
    <v>       0.47937843       0.00000000       0.00000002 </v>
    <v>       0.22937836       0.99999994       0.11363521 </v>
    <v>       0.97937822       0.99999988       0.22727038 </v>
    <v>       0.72937822       0.99999982       0.34090558 </v>
    <v>       0.47937816       0.99999976       0.45454073 </v>
    <v>       0.22937804       0.99999970       0.56817591 </v>
    <v>       0.81271177       0.16666667       0.00000002 </v>
    <v>       0.56271172       0.16666660       0.11363521 </v>
    <v>       0.31271166       0.16666657       0.22727038 </v>
    <v>       0.06271160       0.16666651       0.34090558 </v>
    <v>       0.81271160       0.16666643       0.45454070 </v>
    <v>       0.56271148       0.16666640       0.56817591 </v>
    <v>       0.14604515       0.70833337       0.00000000 </v>
    <v>       0.89604497       0.70833331       0.11363521 </v>
    <v>       0.64604491       0.70833325       0.22727042 </v>
    <v>       0.39604485       0.70833319       0.34090558 </v>
    <v>       0.14604485       0.70833313       0.45454070 </v>
    <v>       0.89604473       0.70833307       0.56817585 </v>
    <v>       0.47937843       0.87500006       0.00000000 </v>
    <v>       0.22937839       0.87500000       0.11363521 </v>
    <v>       0.97937822       0.87499994       0.22727042 </v>
    <v>       0.72937822       0.87499988       0.34090558 </v>
    <v>       0.47937822       0.87499976       0.45454070 </v>
    <v>       0.22937810       0.87499976       0.56817585 </v>
    <v>       0.14604509       0.20833333       0.00000002 </v>
    <v>       0.89604503       0.20833327       0.11363519 </v>
    <v>       0.64604491       0.20833321       0.22727038 </v>
    <v>       0.39604485       0.20833315       0.34090558 </v>
    <v>       0.14604485       0.20833311       0.45454073 </v>
    <v>       0.89604473       0.20833305       0.56817585 </v>
    <v>       0.47937849       0.37500000       0.00000002 </v>
    <v>       0.22937837       0.37499994       0.11363521 </v>
    <v>       0.97937828       0.37499988       0.22727041 </v>
    <v>       0.72937822       0.37499982       0.34090558 </v>
    <v>       0.47937822       0.37499976       0.45454073 </v>
    <v>       0.22937804       0.37499970       0.56817585 </v>
    <v>       0.81271177       0.54166669       0.00000002 </v>
    <v>       0.56271177       0.54166663       0.11363521 </v>
    <v>       0.31271163       0.54166657       0.22727041 </v>
    <v>       0.06271158       0.54166651       0.34090558 </v>
    <v>       0.81271154       0.54166645       0.45454073 </v>
    <v>       0.56271148       0.54166639       0.56817585 </v>
    <v>       0.81271184       0.04166666       0.00000001 </v>
    <v>       0.56271172       0.04166659       0.11363521 </v>
    <v>       0.31271163       0.04166653       0.22727041 </v>
    <v>       0.06271157       0.04166649       0.34090558 </v>
    <v>       0.81271154       0.04166642       0.45454073 </v>
    <v>       0.56271148       0.04166634       0.56817591 </v>
    <v>       0.97937852       0.87500006       0.00000001 </v>
    <v>       0.72937834       0.87499994       0.11363518 </v>
    <v>       0.47937828       0.87499988       0.22727041 </v>
    <v>       0.22937822       0.87499982       0.34090558 </v>
    <v>       0.97937822       0.87499976       0.45454076 </v>
    <v>       0.72937810       0.87499970       0.56817585 </v>
    <v>       0.97937846       0.37499997       0.00000001 </v>
    <v>       0.72937834       0.37499991       0.11363521 </v>
    <v>       0.47937828       0.37499985       0.22727041 </v>
    <v>       0.22937822       0.37499979       0.34090552 </v>
    <v>       0.97937822       0.37499973       0.45454070 </v>
    <v>       0.72937810       0.37499967       0.56817585 </v>
    <v>       0.31271184       0.54166669       0.00000001 </v>
    <v>       0.06271169       0.54166663       0.11363521 </v>
    <v>       0.81271160       0.54166657       0.22727042 </v>
    <v>       0.56271154       0.54166651       0.34090558 </v>
    <v>       0.31271154       0.54166645       0.45454073 </v>
    <v>       0.06271142       0.54166639       0.56817591 </v>
    <v>       0.64604509       0.70833331       0.00000001 </v>
    <v>       0.39604500       0.70833325       0.11363521 </v>
    <v>       0.14604490       0.70833319       0.22727041 </v>
    <v>       0.89604485       0.70833313       0.34090552 </v>
    <v>       0.64604485       0.70833307       0.45454070 </v>
    <v>       0.39604473       0.70833302       0.56817585 </v>
    <v>       0.31271175       0.04166665       0.00000002 </v>
    <v>       0.06271169       0.04166659       0.11363519 </v>
    <v>       0.81271160       0.04166654       0.22727038 </v>
    <v>       0.56271154       0.04166648       0.34090558 </v>
    <v>       0.31271154       0.04166643       0.45454073 </v>
    <v>       0.06271142       0.04166637       0.56817585 </v>
    <v>       0.64604521       0.20833336       0.00000002 </v>
    <v>       0.39604506       0.20833328       0.11363519 </v>
    <v>       0.14604494       0.20833321       0.22727038 </v>
    <v>       0.89604491       0.20833316       0.34090558 </v>
    <v>       0.64604485       0.20833311       0.45454073 </v>
    <v>       0.39604473       0.20833305       0.56817585 </v>
    <v>       0.81623888       0.77037001       0.68105024 </v>
    <v>       0.61623883       0.60370332       0.76348048 </v>
    <v>       0.41623878       0.43703660       0.84591079 </v>
    <v>       0.81623888       0.43703672       0.68105024 </v>
    <v>       0.61623883       0.27037004       0.76348048 </v>
    <v>       0.41623878       0.10370338       0.84591079 </v>
    <v>       0.81623888       0.10370350       0.68105024 </v>
    <v>       0.61623883       0.93703675       0.76348048 </v>
    <v>       0.41623878       0.77037001       0.84591079 </v>
    <v>       0.46623898       0.02037013       0.72226530 </v>
    <v>       0.26623881       0.85370344       0.80469555 </v>
    <v>       0.06623876       0.68703675       0.88712573 </v>
    <v>       0.46623898       0.68703669       0.72226530 </v>
    <v>       0.26623881       0.52037001       0.80469555 </v>
    <v>       0.06623876       0.35370332       0.88712573 </v>
    <v>       0.46623898       0.35370347       0.72226530 </v>
    <v>       0.26623881       0.18703678       0.80469555 </v>
    <v>       0.06623876       0.02037013       0.88712573 </v>
    <v>       0.31623888       0.93703663       0.68105024 </v>
    <v>       0.11623883       0.77036995       0.76348048 </v>
    <v>       0.91623867       0.60370332       0.84591079 </v>
    <v>       0.31623888       0.60370338       0.68105024 </v>
    <v>       0.11623883       0.43703669       0.76348048 </v>
    <v>       0.91623867       0.27037001       0.84591079 </v>
    <v>       0.31623888       0.27037007       0.68105024 </v>
    <v>       0.11623883       0.10370338       0.76348048 </v>
    <v>       0.91623867       0.93703669       0.84591079 </v>
    <v>       0.96623898       0.85370338       0.72226530 </v>
    <v>       0.76623893       0.68703669       0.80469555 </v>
    <v>       0.56623888       0.52037001       0.88712573 </v>
    <v>       0.96623898       0.52037013       0.72226530 </v>
    <v>       0.76623893       0.35370344       0.80469555 </v>
    <v>       0.56623888       0.18703672       0.88712573 </v>
    <v>       0.96623898       0.18703672       0.72226530 </v>
    <v>       0.76623893       0.02037013       0.80469555 </v>
    <v>       0.56623888       0.85370332       0.88712573 </v>
   </varray>
  </structure>
  <varray name="forces" >
   <v>       0.03873422       0.25722958      -0.62312483 </v>
   <v>      -0.15645962      -0.02830825      -0.00962897 </v>
   <v>       0.02013030       0.06556328      -0.05720559 </v>
   <v>       0.01862907       0.01449012      -0.04505303 </v>
   <v>      -0.06091150      -0.06282969      -0.00407530 </v>
   <v>      -0.29550826       0.43231010      -0.24373027 </v>
   <v>       0.58874903       0.43954384      -0.74480339 </v>
   <v>       0.01158662      -0.08414121       0.14111970 </v>
   <v>      -0.05103225      -0.03690046       0.00116089 </v>
   <v>      -0.09456559      -0.02818538       0.08777647 </v>
   <v>      -0.25397108      -0.01590036      -0.05123551 </v>
   <v>       0.52313906       0.23621527       0.76225544 </v>
   <v>       2.44569015      -0.99680847       3.44244690 </v>
   <v>      -0.09242496      -0.08674926      -0.12091725 </v>
   <v>      -0.05843685      -0.04267388       0.00047553 </v>
   <v>      -0.06849533      -0.06370776       0.06070847 </v>
   <v>      -0.03320003      -0.07357227      -0.06800454 </v>
   <v>       0.06525710       0.61784822       0.57583596 </v>
   <v>      -1.03185075      -0.03578724       3.06756626 </v>
   <v>       0.00949846       0.10555521      -0.01097668 </v>
   <v>      -0.02968861      -0.05514263       0.04552519 </v>
   <v>      -0.05049383      -0.01382675       0.08626012 </v>
   <v>       0.01768126      -0.05836577       0.09402899 </v>
   <v>       0.47761207       0.71838220       0.77133812 </v>
   <v>       0.14999544       0.06055296      -0.61789292 </v>
   <v>      -0.04275997      -0.13760914      -0.05972229 </v>
   <v>      -0.03777341      -0.03526887      -0.01891468 </v>
   <v>      -0.04339939       0.00560525      -0.01849966 </v>
   <v>      -0.10734996       0.08583772      -0.02985345 </v>
   <v>       0.15779849       0.10079580       0.52629507 </v>
   <v>       0.41429365       0.39538477      -0.93626341 </v>
   <v>      -0.06753562      -0.05307624      -0.07670747 </v>
   <v>      -0.08060159      -0.04798750      -0.01874632 </v>
   <v>       0.00583214      -0.05599749       0.00313937 </v>
   <v>      -0.26346764      -0.17674444       0.09058365 </v>
   <v>       1.49250943       1.53430743      -1.45579580 </v>
   <v>       0.41429365       0.39538477      -0.93626341 </v>
   <v>      -0.06753562      -0.05307624      -0.07670747 </v>
   <v>      -0.08060159      -0.04798750      -0.01874632 </v>
   <v>       0.00583214      -0.05599749       0.00313937 </v>
   <v>      -0.26346764      -0.17674444       0.09058365 </v>
   <v>       1.49250943       1.53430743      -1.45579580 </v>
   <v>       2.44569015      -0.99680847       3.44244690 </v>
   <v>      -0.09242496      -0.08674926      -0.12091725 </v>
   <v>      -0.05843685      -0.04267388       0.00047553 </v>
   <v>      -0.06849533      -0.06370776       0.06070847 </v>
   <v>      -0.03320003      -0.07357227      -0.06800454 </v>
   <v>       0.06525710       0.61784822       0.57583596 </v>
   <v>      -1.03185075      -0.03578724       3.06756626 </v>
   <v>       0.00949846       0.10555521      -0.01097668 </v>
   <v>      -0.02968861      -0.05514263       0.04552519 </v>
   <v>      -0.05049383      -0.01382675       0.08626012 </v>
   <v>       0.01768126      -0.05836577       0.09402899 </v>
   <v>       0.47761207       0.71838220       0.77133812 </v>
   <v>       0.14999544       0.06055296      -0.61789292 </v>
   <v>      -0.04275997      -0.13760914      -0.05972229 </v>
   <v>      -0.03777341      -0.03526887      -0.01891468 </v>
   <v>      -0.04339939       0.00560525      -0.01849966 </v>
   <v>      -0.10734996       0.08583772      -0.02985345 </v>
   <v>       0.15779849       0.10079580       0.52629507 </v>
   <v>       0.03873422       0.25722958      -0.62312483 </v>
   <v>      -0.15645962      -0.02830825      -0.00962897 </v>
   <v>       0.02013030       0.06556328      -0.05720559 </v>
   <v>       0.01862907       0.01449012      -0.04505303 </v>
   <v>      -0.06091150      -0.06282969      -0.00407530 </v>
   <v>      -0.29550826       0.43231010      -0.24373027 </v>
   <v>       0.58874903       0.43954384      -0.74480339 </v>
   <v>       0.01158662      -0.08414121       0.14111970 </v>
   <v>      -0.05103225      -0.03690046       0.00116089 </v>
   <v>      -0.09456559      -0.02818538       0.08777647 </v>
   <v>      -0.25397108      -0.01590036      -0.05123551 </v>
   <v>       0.52313906       0.23621527       0.76225544 </v>
   <v>       1.71155358       0.50290890       3.04895192 </v>
   <v>       0.09661569       0.10930018      -0.03360923 </v>
   <v>       0.08375406       0.06072269      -0.04105788 </v>
   <v>       0.01694128      -0.00254676       0.05711941 </v>
   <v>      -0.09983157       0.07442281       0.02377300 </v>
   <v>       0.23501620      -0.77791358      -0.31939852 </v>
   <v>      -2.43828445       0.95315773       3.13656321 </v>
   <v>       0.03018905       0.01779845      -0.02031540 </v>
   <v>       0.04441831       0.06545831       0.04335650 </v>
   <v>       0.07979183       0.08301994      -0.05504890 </v>
   <v>      -0.01038394       0.04223024       0.08099648 </v>
   <v>      -0.87177592      -0.95251133      -1.07349987 </v>
   <v>      -0.16408304      -0.16859836      -0.49888079 </v>
   <v>      -0.01196403       0.00377238      -0.06844124 </v>
   <v>       0.00611052      -0.00752003      -0.00876271 </v>
   <v>       0.04666627       0.02667894       0.02345607 </v>
   <v>       0.14002732       0.11689122       0.09332521 </v>
   <v>      -0.26207979      -0.20969338       0.13032902 </v>
   <v>      -0.43391607      -0.04043336      -0.89053106 </v>
   <v>       0.12712274       0.12672432      -0.13549113 </v>
   <v>       0.01577115       0.05030838      -0.10033320 </v>
   <v>       0.06033431       0.06204685       0.09849524 </v>
   <v>       0.23335365       0.12518968      -0.14510881 </v>
   <v>      -0.05532754      -0.44283039       0.95498527 </v>
   <v>      -0.26106861      -0.14831656      -0.48392958 </v>
   <v>      -0.02412167       0.02743660       0.22482498 </v>
   <v>       0.03335862      -0.01034714       0.06890197 </v>
   <v>       0.03802531       0.03077324       0.02546534 </v>
   <v>       0.13525470       0.03328797       0.09416411 </v>
   <v>      -0.30156066      -0.09889211       0.83254239 </v>
   <v>      -0.44021937      -0.12116048      -1.16924097 </v>
   <v>       0.05721393       0.07136096      -0.09624961 </v>
   <v>       0.04816748       0.05212327      -0.08339860 </v>
   <v>      -0.00767224      -0.01130187      -0.03498784 </v>
   <v>      -0.00850937      -0.04222575      -0.10836445 </v>
   <v>      -0.57197903       0.07455527       1.03730291 </v>
   <v>      -0.43391607      -0.04043336      -0.89053106 </v>
   <v>       0.12712274       0.12672432      -0.13549113 </v>
   <v>       0.01577115       0.05030838      -0.10033320 </v>
   <v>       0.06033431       0.06204685       0.09849524 </v>
   <v>       0.23335365       0.12518968      -0.14510881 </v>
   <v>      -0.05532754      -0.44283039       0.95498527 </v>
   <v>      -2.43828445       0.95315773       3.13656321 </v>
   <v>       0.03018905       0.01779845      -0.02031540 </v>
   <v>       0.04441831       0.06545831       0.04335650 </v>
   <v>       0.07979183       0.08301994      -0.05504890 </v>
   <v>      -0.01038394       0.04223024       0.08099648 </v>
   <v>      -0.87177592      -0.95251133      -1.07349987 </v>
   <v>      -0.44021937      -0.12116048      -1.16924097 </v>
   <v>       0.05721393       0.07136096      -0.09624961 </v>
   <v>       0.04816748       0.05212327      -0.08339860 </v>
   <v>      -0.00767224      -0.01130187      -0.03498784 </v>
   <v>      -0.00850937      -0.04222575      -0.10836445 </v>
   <v>      -0.57197903       0.07455527       1.03730291 </v>
   <v>      -0.16408304      -0.16859836      -0.49888079 </v>
   <v>      -0.01196403       0.00377238      -0.06844124 </v>
   <v>       0.00611052      -0.00752003      -0.00876271 </v>
   <v>       0.04666627       0.02667894       0.02345607 </v>
   <v>       0.14002732       0.11689122       0.09332521 </v>
   <v>      -0.26207979      -0.20969338       0.13032902 </v>
   <v>      -0.26106861      -0.14831656      -0.48392958 </v>
   <v>      -0.02412167       0.02743660       0.22482498 </v>
   <v>       0.03335862      -0.01034714       0.06890197 </v>
   <v>       0.03802531       0.03077324       0.02546534 </v>
   <v>       0.13525470       0.03328797       0.09416411 </v>
   <v>      -0.30156066      -0.09889211       0.83254239 </v>
   <v>       1.71155358       0.50290890       3.04895192 </v>
   <v>       0.09661569       0.10930018      -0.03360923 </v>
   <v>       0.08375406       0.06072269      -0.04105788 </v>
   <v>       0.01694128      -0.00254676       0.05711941 </v>
   <v>      -0.09983157       0.07442281       0.02377300 </v>
   <v>       0.23501620      -0.77791358      -0.31939852 </v>
   <v>      -2.29589012      -0.89193773       1.58310549 </v>
   <v>       0.16922411      -0.90934545      -0.42124071 </v>
   <v>      -0.01471678      -1.28961082       0.18732223 </v>
   <v>       0.59537266       0.02124932       0.75440799 </v>
   <v>       0.23813434      -0.97471608      -0.65605723 </v>
   <v>      -0.01298727      -0.76751407       0.84492041 </v>
   <v>      -0.88691679      -0.46051313      -1.15946544 </v>
   <v>       0.14081376      -0.70497712      -0.38606483 </v>
   <v>      -0.26784216      -1.24650510       0.85787757 </v>
   <v>       0.82506292       0.41345235      -1.24626123 </v>
   <v>      -0.63530217       0.69725497       0.93717403 </v>
   <v>      -1.67341039      -0.40006208      -3.03855706 </v>
   <v>       0.47867926       0.60256963      -0.16311826 </v>
   <v>      -0.48119192       0.59805009       1.28003934 </v>
   <v>       0.54633525       0.47767846      -6.37450140 </v>
   <v>       0.25405425       0.74803701      -0.82920943 </v>
   <v>      -0.38509744       0.57597036       0.87662984 </v>
   <v>       2.61155952       0.95500348      -2.20026932 </v>
   <v>       0.59537266       0.02124932       0.75440799 </v>
   <v>       0.23813434      -0.97471608      -0.65605723 </v>
   <v>      -0.01298727      -0.76751407       0.84492041 </v>
   <v>      -0.88691679      -0.46051313      -1.15946544 </v>
   <v>       0.14081376      -0.70497712      -0.38606483 </v>
   <v>      -0.26784216      -1.24650510       0.85787757 </v>
   <v>      -2.29589012      -0.89193773       1.58310549 </v>
   <v>       0.16922411      -0.90934545      -0.42124071 </v>
   <v>      -0.01471678      -1.28961082       0.18732223 </v>
   <v>       0.25405425       0.74803701      -0.82920943 </v>
   <v>      -0.38509744       0.57597036       0.87662984 </v>
   <v>       2.61155952       0.95500348      -2.20026932 </v>
   <v>       0.82506292       0.41345235      -1.24626123 </v>
   <v>      -0.63530217       0.69725497       0.93717403 </v>
   <v>      -1.67341039      -0.40006208      -3.03855706 </v>
   <v>       0.47867926       0.60256963      -0.16311826 </v>
   <v>      -0.48119192       0.59805009       1.28003934 </v>
   <v>       0.54633525       0.47767846      -6.37450140 </v>
  </varray>
  <varray name="stress" >
   <v>      50.67024660       6.75680128       2.67618509 </v>
   <v>       6.75680292      42.47624931      -0.26363340 </v>
   <v>       2.67618855      -0.26363149      47.41708896 </v>
  </varray>
  <energy>
   <i name="e_fr_energy">   -733.82590954 </i>
   <i name="e_wo_entrp">   -733.82269328 </i>
   <i name="e_0_energy">   -733.82430141 </i>
  </energy>
  <time name="totalsc"> 2130.59 2156.79</time>
  <eigenvalues>
   <array>
    <dimension dim="1">band</dimension>
    <dimension dim="2">kpoint</dimension>
    <dimension dim="3">spin</dimension>
    <field>eigene</field>
    <field>occ</field>
    <set>
     <set comment="spin 1">
      <set comment="kpoint 1">
       <r>   -9.4996    1.0000 </r>
       <r>   -9.2004    1.0000 </r>
       <r>   -9.1455    1.0000 </r>
       <r>   -9.0530    1.0000 </r>
       <r>   -8.9212    1.0000 </r>
       <r>   -8.8542    1.0000 </r>
       <r>   -8.7949    1.0000 </r>
       <r>   -8.7366    1.0000 </r>
       <r>   -8.6297    1.0000 </r>
       <r>   -8.5982    1.0000 </r>
       <r>   -8.5750    1.0000 </r>
       <r>   -8.5091    1.0000 </r>
       <r>   -8.4957    1.0000 </r>
       <r>   -8.4760    1.0000 </r>
       <r>   -8.4150    1.0000 </r>
       <r>   -8.3193    1.0000 </r>
       <r>   -8.2725    1.0000 </r>
       <r>   -8.2718    1.0000 </r>
       <r>   -8.2279    1.0000 </r>
       <r>   -8.1871    1.0000 </r>
       <r>   -8.0704    1.0000 </r>
       <r>   -8.0268    1.0000 </r>
       <r>   -7.9974    1.0000 </r>
       <r>   -7.9870    1.0000 </r>
       <r>   -7.9301    1.0000 </r>
       <r>   -7.8739    1.0000 </r>
       <r>   -7.8294    1.0000 </r>
       <r>   -7.7451    1.0000 </r>
[...]
       <r>    -2.7576    25.3751   303.9037 </r>
       <r>    -2.7039    38.5854   305.9788 </r>
       <r>    -2.6501    34.9910   307.8606 </r>
       <r>    -2.5963    38.1607   309.9129 </r>
       <r>    -2.5425    37.9798   311.9554 </r>
       <r>    -2.4888    18.5834   312.9548 </r>
       <r>    -2.4350    25.0092   314.2998 </r>
       <r>    -2.3812    34.8239   316.1726 </r>
       <r>    -2.3274    34.4940   318.0277 </r>
       <r>    -2.2736    40.8595   320.2251 </r>
       <r>    -2.2199    38.5913   322.3006 </r>
       <r>    -2.1661    20.0010   323.3762 </r>
       <r>    -2.1123    15.9623   324.2347 </r>
       <r>    -2.0585    37.2062   326.2356 </r>
       <r>    -2.0047    19.2264   327.2696 </r>
       <r>    -1.9510    10.7793   327.8493 </r>
       <r>    -1.8972    13.8387   328.5935 </r>
       <r>    -1.8434    47.1049   331.1268 </r>
       <r>    -1.7896    17.0716   332.0449 </r>
       <r>    -1.7358    26.9861   333.4962 </r>
       <r>    -1.6821    53.0666   336.3501 </r>
       <r>    -1.6283    25.0053   337.6949 </r>
       <r>    -1.5745    33.2607   339.4837 </r>
       <r>    -1.5207    27.3659   340.9554 </r>
       <r>    -1.4669    14.8511   341.7541 </r>
       <r>    -1.4132    11.7739   342.3873 </r>
       <r>    -1.3594    24.2155   343.6896 </r>
       <r>    -1.3056    21.4406   344.8426 </r>
       <r>    -1.2518    27.3331   346.3126 </r>
       <r>    -1.1980    18.8580   347.3268 </r>
       <r>    -1.1443     7.4842   347.7293 </r>
       <r>    -1.0905    49.7765   350.4062 </r>
       <r>    -1.0367    57.1331   353.4788 </r>
       <r>    -0.9829    88.6817   358.2481 </r>
       <r>    -0.9291    95.0416   363.3594 </r>
       <r>    -0.8754    76.0757   367.4507 </r>
       <r>    -0.8216    82.6730   371.8968 </r>
       <r>    -0.7678   107.8237   377.6955 </r>
       <r>    -0.7140    61.0599   380.9794 </r>
       <r>    -0.6602    97.3008   386.2121 </r>
       <r>    -0.6065   107.9436   392.0173 </r>
       <r>    -0.5527   121.1407   398.5323 </r>
       <r>    -0.4989    82.0435   402.9446 </r>
       <r>    -0.4451   110.3905   408.8813 </r>
       <r>    -0.3913    77.7453   413.0624 </r>
       <r>    -0.3376    77.6683   417.2394 </r>
       <r>    -0.2838    87.0063   421.9186 </r>
       <r>    -0.2300    64.0022   425.3606 </r>
       <r>    -0.1762    71.6353   429.2131 </r>
       <r>    -0.1225    76.7759   433.3421 </r>
       <r>    -0.0687   111.7920   439.3542 </r>
       <r>    -0.0149   128.4652   446.2631 </r>
       <r>     0.0389   126.0585   453.0425 </r>
       <r>     0.0927   115.0953   459.2323 </r>
       <r>     0.1464   115.7559   465.4576 </r>
       <r>     0.2002   125.9776   472.2327 </r>
       <r>     0.2540   107.1405   477.9946 </r>
       <r>     0.3078   126.0974   484.7762 </r>
       <r>     0.3616   122.7463   491.3774 </r>
       <r>     0.4153   109.2349   497.2520 </r>
       <r>     0.4691   122.0549   503.8161 </r>
       <r>     0.5229   112.4425   509.8632 </r>
       <r>     0.5767   131.6673   516.9442 </r>
       <r>     0.6305   113.9292   523.0713 </r>
       <r>     0.6842   103.0466   528.6132 </r>
       <r>     0.7380   108.8923   534.4694 </r>
       <r>     0.7918   112.2184   540.5045 </r>
       <r>     0.8456   107.0743   546.2629 </r>
       <r>     0.8994   109.5169   552.1526 </r>
       <r>     0.9531   107.8813   557.9545 </r>
       <r>     1.0069   117.7641   564.2878 </r>
       <r>     1.0607   109.0865   570.1545 </r>
       <r>     1.1145    96.3794   575.3377 </r>
       <r>     1.1683   116.5755   581.6071 </r>
       <r>     1.2220    93.7942   586.6514 </r>
       <r>     1.2758    99.8086   592.0190 </r>
       <r>     1.3296    92.9960   597.0203 </r>
       <r>     1.3834    90.8444   601.9059 </r>
       <r>     1.4372    91.5217   606.8279 </r>
       <r>     1.4909   102.9089   612.3623 </r>
       <r>     1.5447    98.9738   617.6851 </r>
       <r>     1.5985    79.1190   621.9401 </r>
       <r>     1.6523    68.2909   625.6128 </r>
       <r>     1.7061   108.4036   631.4427 </r>
       <r>     1.7598    77.4982   635.6106 </r>
       <r>     1.8136    69.7565   639.3621 </r>
       <r>     1.8674    81.1222   643.7248 </r>
       <r>     1.9212    72.5519   647.6266 </r>
       <r>     1.9750    85.5676   652.2284 </r>
       <r>     2.0287    53.5361   655.1076 </r>
       <r>     2.0825    94.0623   660.1662 </r>
       <r>     2.1363    57.3436   663.2502 </r>
       <r>     2.1901    95.5582   668.3893 </r>
       <r>     2.2438    63.9917   671.8307 </r>
       <r>     2.2976    63.4092   675.2409 </r>
       <r>     2.3514    85.2605   679.8262 </r>
       <r>     2.4052    69.8526   683.5829 </r>
       <r>     2.4590    33.6274   685.3913 </r>
       <r>     2.5127    70.6349   689.1900 </r>
       <r>     2.5665    82.8557   693.6460 </r>
       <r>     2.6203    61.2499   696.9400 </r>
       <r>     2.6741    52.5141   699.7642 </r>
       <r>     2.7279    68.7019   703.4590 </r>
       <r>     2.7816    66.9793   707.0611 </r>
       <r>     2.8354    74.3272   711.0584 </r>
       <r>     2.8892    75.0496   715.0946 </r>
       <r>     2.9430    55.7429   718.0924 </r>
       <r>     2.9968    66.2012   721.6527 </r>
       <r>     3.0505    55.9258   724.6604 </r>
       <r>     3.1043    35.1616   726.5514 </r>
       <r>     3.1581    65.5090   730.0745 </r>
       <r>     3.2119    70.2971   733.8550 </r>
       <r>     3.2657    58.3570   736.9934 </r>
       <r>     3.3194    40.0072   739.1450 </r>
       <r>     3.3732    60.2558   742.3855 </r>
       <r>     3.4270    67.9202   746.0383 </r>
       <r>     3.4808    49.6598   748.7090 </r>
       <r>     3.5346    59.8948   751.9301 </r>
       <r>     3.5883    48.4332   754.5349 </r>
       <r>     3.6421    44.5452   756.9305 </r>
       <r>     3.6959    57.8416   760.0412 </r>
       <r>     3.7497    40.9047   762.2411 </r>
       <r>     3.8035    50.1484   764.9380 </r>
       <r>     3.8572    57.4225   768.0262 </r>
       <r>     3.9110    58.1576   771.1539 </r>
       <r>     3.9648    27.8709   772.6529 </r>
       <r>     4.0186    50.3071   775.3583 </r>
       <r>     4.0724    55.9810   778.3690 </r>
       <r>     4.1261    46.7221   780.8817 </r>
       <r>     4.1799    38.7394   782.9651 </r>
       <r>     4.2337    41.8716   785.2169 </r>
       <r>     4.2875    63.5151   788.6327 </r>
       <r>     4.3413    98.6051   793.9357 </r>
       <r>     4.3950    41.9047   796.1893 </r>
       <r>     4.4488    75.6662   800.2586 </r>
       <r>     4.5026    76.3663   804.3656 </r>
       <r>     4.5564    82.1195   808.7819 </r>
       <r>     4.6101   111.8179   814.7954 </r>
       <r>     4.6639    88.1621   819.5368 </r>
       <r>     4.7177   102.1645   825.0312 </r>
       <r>     4.7715    65.4202   828.5494 </r>
       <r>     4.8253    84.6197   833.1002 </r>
       <r>     4.8790    73.7415   837.0660 </r>
       <r>     4.9328    90.6258   841.9399 </r>
       <r>     4.9866   133.1599   849.1012 </r>
       <r>     5.0404   116.3522   855.3586 </r>
       <r>     5.0942    98.0565   860.6320 </r>
       <r>     5.1479    52.7312   863.4679 </r>
       <r>     5.2017     9.8936   864.0000 </r>
       <r>     5.2555     0.0000   864.0000 </r>
       <r>     5.3093     0.0000   864.0000 </r>
       <r>     5.3631     0.0000   864.0000 </r>
       <r>     5.4168     0.0000   864.0000 </r>
       <r>     5.4706     0.0000   864.0000 </r>
       <r>     5.5244     0.0000   864.0000 </r>
       <r>     5.5782     0.0000   864.0000 </r>
       <r>     5.6320     0.0000   864.0000 </r>
       <r>     5.6857     0.0000   864.0000 </r>
       <r>     5.7395     0.0000   864.0000 </r>
       <r>     5.7933     0.0000   864.0000 </r>
       <r>     5.8471     0.0000   864.0000 </r>
       <r>     5.9009     0.0000   864.0000 </r>
      </set>
     </set>
    </array>
   </total>
  </dos>
 </calculation>
 <structure name="finalpos" >
  <crystal>
   <varray name="basis" >
    <v>      13.85872459       0.00000000       0.00000000 </v>
    <v>       0.00000000      19.59919548       0.00000000 </v>
    <v>       0.00000000       0.00000000      17.60313034 </v>
   </varray>
   <i name="volume">   4781.35966538 </i>
   <varray name="rec_basis" >
    <v>       0.07215671       0.00000000       0.00000000 </v>
    <v>       0.00000000       0.05102250       0.00000000 </v>
    <v>       0.00000000       0.00000000       0.05680808 </v>
   </varray>
  </crystal>
  <varray name="positions" >
   <v>       0.97937846       0.49999997       0.00000001 </v>
   <v>       0.72937834       0.49999994       0.11363522 </v>
   <v>       0.47937822       0.49999988       0.22727042 </v>
   <v>       0.22937822       0.49999982       0.34090558 </v>
   <v>       0.97937822       0.49999973       0.45454073 </v>
   <v>       0.72937798       0.49999970       0.56817591 </v>
   <v>       0.31271177       0.66666669       0.00000001 </v>
   <v>       0.06271167       0.66666663       0.11363521 </v>
   <v>       0.81271160       0.66666657       0.22727041 </v>
   <v>       0.56271154       0.66666651       0.34090552 </v>
   <v>       0.31271148       0.66666645       0.45454070 </v>
   <v>       0.06271136       0.66666639       0.56817591 </v>
   <v>       0.64604503       0.83333331       0.00000001 </v>
   <v>       0.39604497       0.83333325       0.11363521 </v>
   <v>       0.14604483       0.83333319       0.22727041 </v>
   <v>       0.89604485       0.83333319       0.34090552 </v>
   <v>       0.64604473       0.83333307       0.45454070 </v>
   <v>       0.39604467       0.83333302       0.56817591 </v>
   <v>       0.97937846       0.00000000       0.00000002 </v>
   <v>       0.72937834       0.99999994       0.11363519 </v>
   <v>       0.47937828       0.99999988       0.22727041 </v>
   <v>       0.22937828       0.99999982       0.34090552 </v>
   <v>       0.97937822       0.99999976       0.45454070 </v>
   <v>       0.72937810       0.99999970       0.56817591 </v>
   <v>       0.31271177       0.16666666       0.00000002 </v>
   <v>       0.06271169       0.16666661       0.11363519 </v>
   <v>       0.81271160       0.16666654       0.22727038 </v>
   <v>       0.56271154       0.16666648       0.34090552 </v>
   <v>       0.31271148       0.16666643       0.45454073 </v>
   <v>       0.06271136       0.16666636       0.56817591 </v>
   <v>       0.64604515       0.33333334       0.00000002 </v>
   <v>       0.39604500       0.33333328       0.11363521 </v>
   <v>       0.14604492       0.33333322       0.22727038 </v>
   <v>       0.89604485       0.33333313       0.34090552 </v>
   <v>       0.64604485       0.33333311       0.45454073 </v>
   <v>       0.39604473       0.33333305       0.56817591 </v>
   <v>       0.14604510       0.83333337       0.00000001 </v>
   <v>       0.89604497       0.83333331       0.11363518 </v>
   <v>       0.64604485       0.83333325       0.22727041 </v>
   <v>       0.39604479       0.83333319       0.34090558 </v>
   <v>       0.14604485       0.83333313       0.45454076 </v>
   <v>       0.89604473       0.83333302       0.56817585 </v>
   <v>       0.14604510       0.33333331       0.00000002 </v>
   <v>       0.89604503       0.33333328       0.11363521 </v>
   <v>       0.64604491       0.33333322       0.22727041 </v>
   <v>       0.39604491       0.33333313       0.34090558 </v>
   <v>       0.14604485       0.33333307       0.45454070 </v>
   <v>       0.89604473       0.33333302       0.56817585 </v>
   <v>       0.47937849       0.50000000       0.00000002 </v>
   <v>       0.22937836       0.49999994       0.11363521 </v>
   <v>       0.97937822       0.49999988       0.22727041 </v>
   <v>       0.72937822       0.49999979       0.34090558 </v>
   <v>       0.47937816       0.49999976       0.45454070 </v>
   <v>       0.22937804       0.49999967       0.56817585 </v>
   <v>       0.81271166       0.66666669       0.00000002 </v>
   <v>       0.56271166       0.66666663       0.11363521 </v>
   <v>       0.31271154       0.66666651       0.22727038 </v>
   <v>       0.06271150       0.66666651       0.34090558 </v>
   <v>       0.81271142       0.66666645       0.45454073 </v>
   <v>       0.56271136       0.66666633       0.56817585 </v>
   <v>       0.47937843       0.00000000       0.00000002 </v>
   <v>       0.22937836       0.99999994       0.11363521 </v>
   <v>       0.97937822       0.99999988       0.22727038 </v>
   <v>       0.72937822       0.99999982       0.34090558 </v>
   <v>       0.47937816       0.99999976       0.45454073 </v>
   <v>       0.22937804       0.99999970       0.56817591 </v>
   <v>       0.81271177       0.16666667       0.00000002 </v>
   <v>       0.56271172       0.16666660       0.11363521 </v>
   <v>       0.31271166       0.16666657       0.22727038 </v>
   <v>       0.06271160       0.16666651       0.34090558 </v>
   <v>       0.81271160       0.16666643       0.45454070 </v>
   <v>       0.56271148       0.16666640       0.56817591 </v>
   <v>       0.14604515       0.70833337       0.00000000 </v>
   <v>       0.89604497       0.70833331       0.11363521 </v>
   <v>       0.64604491       0.70833325       0.22727042 </v>
   <v>       0.39604485       0.70833319       0.34090558 </v>
   <v>       0.14604485       0.70833313       0.45454070 </v>
   <v>       0.89604473       0.70833307       0.56817585 </v>
   <v>       0.47937843       0.87500006       0.00000000 </v>
   <v>       0.22937839       0.87500000       0.11363521 </v>
   <v>       0.97937822       0.87499994       0.22727042 </v>
   <v>       0.72937822       0.87499988       0.34090558 </v>
   <v>       0.47937822       0.87499976       0.45454070 </v>
   <v>       0.22937810       0.87499976       0.56817585 </v>
   <v>       0.14604509       0.20833333       0.00000002 </v>
   <v>       0.89604503       0.20833327       0.11363519 </v>
   <v>       0.64604491       0.20833321       0.22727038 </v>
   <v>       0.39604485       0.20833315       0.34090558 </v>
   <v>       0.14604485       0.20833311       0.45454073 </v>
   <v>       0.89604473       0.20833305       0.56817585 </v>
   <v>       0.47937849       0.37500000       0.00000002 </v>
   <v>       0.22937837       0.37499994       0.11363521 </v>
   <v>       0.97937828       0.37499988       0.22727041 </v>
   <v>       0.72937822       0.37499982       0.34090558 </v>
   <v>       0.47937822       0.37499976       0.45454073 </v>
   <v>       0.22937804       0.37499970       0.56817585 </v>
   <v>       0.81271177       0.54166669       0.00000002 </v>
   <v>       0.56271177       0.54166663       0.11363521 </v>
   <v>       0.31271163       0.54166657       0.22727041 </v>
   <v>       0.06271158       0.54166651       0.34090558 </v>
   <v>       0.81271154       0.54166645       0.45454073 </v>
   <v>       0.56271148       0.54166639       0.56817585 </v>
   <v>       0.81271184       0.04166666       0.00000001 </v>
   <v>       0.56271172       0.04166659       0.11363521 </v>
   <v>       0.31271163       0.04166653       0.22727041 </v>
   <v>       0.06271157       0.04166649       0.34090558 </v>
   <v>       0.81271154       0.04166642       0.45454073 </v>
   <v>       0.56271148       0.04166634       0.56817591 </v>
   <v>       0.97937852       0.87500006       0.00000001 </v>
   <v>       0.72937834       0.87499994       0.11363518 </v>
   <v>       0.47937828       0.87499988       0.22727041 </v>
   <v>       0.22937822       0.87499982       0.34090558 </v>
   <v>       0.97937822       0.87499976       0.45454076 </v>
   <v>       0.72937810       0.87499970       0.56817585 </v>
   <v>       0.97937846       0.37499997       0.00000001 </v>
   <v>       0.72937834       0.37499991       0.11363521 </v>
   <v>       0.47937828       0.37499985       0.22727041 </v>
   <v>       0.22937822       0.37499979       0.34090552 </v>
   <v>       0.97937822       0.37499973       0.45454070 </v>
   <v>       0.72937810       0.37499967       0.56817585 </v>
   <v>       0.31271184       0.54166669       0.00000001 </v>
   <v>       0.06271169       0.54166663       0.11363521 </v>
   <v>       0.81271160       0.54166657       0.22727042 </v>
   <v>       0.56271154       0.54166651       0.34090558 </v>
   <v>       0.31271154       0.54166645       0.45454073 </v>
   <v>       0.06271142       0.54166639       0.56817591 </v>
   <v>       0.64604509       0.70833331       0.00000001 </v>
   <v>       0.39604500       0.70833325       0.11363521 </v>
   <v>       0.14604490       0.70833319       0.22727041 </v>
   <v>       0.89604485       0.70833313       0.34090552 </v>
   <v>       0.64604485       0.70833307       0.45454070 </v>
   <v>       0.39604473       0.70833302       0.56817585 </v>
   <v>       0.31271175       0.04166665       0.00000002 </v>
   <v>       0.06271169       0.04166659       0.11363519 </v>
   <v>       0.81271160       0.04166654       0.22727038 </v>
   <v>       0.56271154       0.04166648       0.34090558 </v>
   <v>       0.31271154       0.04166643       0.45454073 </v>
   <v>       0.06271142       0.04166637       0.56817585 </v>
   <v>       0.64604521       0.20833336       0.00000002 </v>
   <v>       0.39604506       0.20833328       0.11363519 </v>
   <v>       0.14604494       0.20833321       0.22727038 </v>
   <v>       0.89604491       0.20833316       0.34090558 </v>
   <v>       0.64604485       0.20833311       0.45454073 </v>
   <v>       0.39604473       0.20833305       0.56817585 </v>
   <v>       0.81623888       0.77037001       0.68105024 </v>
   <v>       0.61623883       0.60370332       0.76348048 </v>
   <v>       0.41623878       0.43703660       0.84591079 </v>
   <v>       0.81623888       0.43703672       0.68105024 </v>
   <v>       0.61623883       0.27037004       0.76348048 </v>
   <v>       0.41623878       0.10370338       0.84591079 </v>
   <v>       0.81623888       0.10370350       0.68105024 </v>
   <v>       0.61623883       0.93703675       0.76348048 </v>
   <v>       0.41623878       0.77037001       0.84591079 </v>
   <v>       0.46623898       0.02037013       0.72226530 </v>
   <v>       0.26623881       0.85370344       0.80469555 </v>
   <v>       0.06623876       0.68703675       0.88712573 </v>
   <v>       0.46623898       0.68703669       0.72226530 </v>
   <v>       0.26623881       0.52037001       0.80469555 </v>
   <v>       0.06623876       0.35370332       0.88712573 </v>
   <v>       0.46623898       0.35370347       0.72226530 </v>
   <v>       0.26623881       0.18703678       0.80469555 </v>
   <v>       0.06623876       0.02037013       0.88712573 </v>
   <v>       0.31623888       0.93703663       0.68105024 </v>
   <v>       0.11623883       0.77036995       0.76348048 </v>
   <v>       0.91623867       0.60370332       0.84591079 </v>
   <v>       0.31623888       0.60370338       0.68105024 </v>
   <v>       0.11623883       0.43703669       0.76348048 </v>
   <v>       0.91623867       0.27037001       0.84591079 </v>
   <v>       0.31623888       0.27037007       0.68105024 </v>
   <v>       0.11623883       0.10370338       0.76348048 </v>
   <v>       0.91623867       0.93703669       0.84591079 </v>
   <v>       0.96623898       0.85370338       0.72226530 </v>
   <v>       0.76623893       0.68703669       0.80469555 </v>
   <v>       0.56623888       0.52037001       0.88712573 </v>
   <v>       0.96623898       0.52037013       0.72226530 </v>
   <v>       0.76623893       0.35370344       0.80469555 </v>
   <v>       0.56623888       0.18703672       0.88712573 </v>
   <v>       0.96623898       0.18703672       0.72226530 </v>
   <v>       0.76623893       0.02037013       0.80469555 </v>
   <v>       0.56623888       0.85370332       0.88712573 </v>
  </varray>
 </structure>
</modeling>
