 120 120   0   0
  0.2169524E+02  0.7680595E-09  0.1629300E-08  0.2080414E-08  0.5000000E-15
  1.000000000000000E-004
  CAR 
 Si and Ge interface calculation         
      7.93181698     -8.60114929  301      4.86916540      1.00000000
     -8.601  0.0000E+00  0.0000E+00  0.0000E+00  0.0000E+00
     -8.546  0.0000E+00  0.0000E+00  0.0000E+00  0.0000E+00
     -8.491  0.0000E+00  0.0000E+00  0.0000E+00  0.0000E+00
     -8.436  0.0000E+00  0.0000E+00  0.0000E+00  0.0000E+00
     -8.381  0.0000E+00  0.0000E+00  0.0000E+00  0.0000E+00
     -8.326  0.0000E+00  0.0000E+00  0.0000E+00  0.0000E+00
     -8.270  0.0000E+00  0.0000E+00  0.0000E+00  0.0000E+00
     -8.215  0.0000E+00  0.0000E+00  0.0000E+00  0.0000E+00
     -8.160  0.0000E+00  0.0000E+00  0.0000E+00  0.0000E+00
     -8.105  0.0000E+00  0.0000E+00  0.0000E+00  0.0000E+00
     -8.050  0.0000E+00  0.0000E+00  0.0000E+00  0.0000E+00
     -7.995  0.0000E+00  0.0000E+00  0.0000E+00  0.0000E+00
     -7.940  0.0000E+00  0.0000E+00  0.0000E+00  0.0000E+00
     -7.885  0.8010E-06  0.3945E-08  0.4414E-07  0.2174E-09
     -7.830  0.3885E+01  0.2972E+01  0.2141E+00  0.1638E+00
     -7.775  0.2433E+01  0.1982E+01  0.3482E+00  0.2730E+00
     -7.719  0.8735E+01  0.9027E+01  0.8296E+00  0.7705E+00
     -7.664  0.1167E+02  0.1207E+02  0.1473E+01  0.1436E+01
     -7.609  0.1859E+02  0.1886E+02  0.2497E+01  0.2475E+01
     -7.554  0.4593E+01  0.4990E+01  0.2751E+01  0.2750E+01
     -7.499  0.7327E+01  0.6490E+01  0.3154E+01  0.3107E+01
     -7.444  0.4047E+01  0.4860E+01  0.3377E+01  0.3375E+01
     -7.389  0.9169E+01  0.9079E+01  0.3883E+01  0.3876E+01
     -7.334  0.1818E+02  0.1608E+02  0.4885E+01  0.4762E+01
     -7.279  0.3755E+02  0.3465E+02  0.6954E+01  0.6671E+01
     -7.223  0.7668E+01  0.1141E+02  0.7377E+01  0.7300E+01
     -7.168  0.3512E+02  0.3367E+02  0.9312E+01  0.9156E+01
     -7.113  0.1030E+02  0.1305E+02  0.9880E+01  0.9875E+01
     -7.058  0.1886E+02  0.1701E+02  0.1092E+02  0.1081E+02
     -7.003  0.1513E+02  0.1618E+02  0.1175E+02  0.1170E+02
     -6.948  0.2090E+02  0.2012E+02  0.1290E+02  0.1281E+02
     -6.893  0.1920E+02  0.1927E+02  0.1396E+02  0.1388E+02
     -6.838  0.4018E+02  0.4100E+02  0.1618E+02  0.1614E+02
     -6.783  0.1362E+02  0.1089E+02  0.1693E+02  0.1674E+02
     -6.727  0.1709E+02  0.1676E+02  0.1787E+02  0.1766E+02
     -6.672  0.1762E+02  0.1892E+02  0.1884E+02  0.1870E+02
     -6.617  0.3125E+02  0.3102E+02  0.2056E+02  0.2041E+02
     -6.562  0.3076E+02  0.2792E+02  0.2226E+02  0.2195E+02
     -6.507  0.3220E+02  0.3576E+02  0.2403E+02  0.2392E+02
     -6.452  0.2574E+02  0.2602E+02  0.2545E+02  0.2535E+02
     -6.397  0.2183E+02  0.2129E+02  0.2665E+02  0.2653E+02
     -6.342  0.2332E+02  0.2433E+02  0.2794E+02  0.2787E+02
     -6.287  0.2866E+02  0.2507E+02  0.2952E+02  0.2925E+02
     -6.231  0.3509E+02  0.3762E+02  0.3145E+02  0.3132E+02
     -6.176  0.2907E+02  0.2746E+02  0.3306E+02  0.3284E+02
     -6.121  0.3896E+02  0.4004E+02  0.3520E+02  0.3504E+02
     -6.066  0.2551E+02  0.2699E+02  0.3661E+02  0.3653E+02
     -6.011  0.3581E+02  0.3417E+02  0.3858E+02  0.3841E+02
     -5.956  0.2238E+02  0.2360E+02  0.3982E+02  0.3971E+02
     -5.901  0.2245E+02  0.2077E+02  0.4105E+02  0.4086E+02
     -5.846  0.4869E+02  0.4837E+02  0.4374E+02  0.4352E+02
     -5.791  0.3056E+02  0.2944E+02  0.4542E+02  0.4515E+02
     -5.735  0.4407E+02  0.4563E+02  0.4785E+02  0.4766E+02
     -5.680  0.4839E+02  0.4894E+02  0.5052E+02  0.5036E+02
     -5.625  0.3586E+02  0.3367E+02  0.5249E+02  0.5221E+02
     -5.570  0.3744E+02  0.3602E+02  0.5456E+02  0.5420E+02
     -5.515  0.3745E+02  0.4101E+02  0.5662E+02  0.5646E+02
     -5.460  0.4412E+02  0.4180E+02  0.5905E+02  0.5876E+02
     -5.405  0.4154E+02  0.4072E+02  0.6134E+02  0.6101E+02
     -5.350  0.4045E+02  0.4413E+02  0.6357E+02  0.6344E+02
     -5.295  0.3957E+02  0.3800E+02  0.6575E+02  0.6553E+02
     -5.239  0.3530E+02  0.3683E+02  0.6770E+02  0.6756E+02
     -5.184  0.3855E+02  0.3771E+02  0.6982E+02  0.6964E+02
     -5.129  0.4189E+02  0.4116E+02  0.7213E+02  0.7191E+02
     -5.074  0.5312E+02  0.5076E+02  0.7506E+02  0.7471E+02
     -5.019  0.4417E+02  0.4463E+02  0.7749E+02  0.7717E+02
     -4.964  0.5019E+02  0.4732E+02  0.8026E+02  0.7977E+02
     -4.909  0.2452E+02  0.3212E+02  0.8161E+02  0.8154E+02
     -4.854  0.2381E+02  0.2036E+02  0.8292E+02  0.8267E+02
     -4.799  0.3438E+02  0.3497E+02  0.8482E+02  0.8459E+02
     -4.743  0.2914E+02  0.2948E+02  0.8642E+02  0.8622E+02
     -4.688  0.4595E+02  0.4330E+02  0.8896E+02  0.8860E+02
     -4.633  0.4301E+02  0.4681E+02  0.9133E+02  0.9118E+02
     -4.578  0.3459E+02  0.3463E+02  0.9323E+02  0.9309E+02
     -4.523  0.2711E+02  0.2711E+02  0.9473E+02  0.9459E+02
     -4.468  0.3625E+02  0.3537E+02  0.9672E+02  0.9654E+02
     -4.413  0.3850E+02  0.3858E+02  0.9885E+02  0.9866E+02
     -4.358  0.4204E+02  0.4044E+02  0.1012E+03  0.1009E+03
     -4.303  0.4016E+02  0.3955E+02  0.1034E+03  0.1031E+03
     -4.247  0.2968E+02  0.3408E+02  0.1050E+03  0.1049E+03
     -4.192  0.2879E+02  0.2822E+02  0.1066E+03  0.1065E+03
     -4.137  0.3225E+02  0.2862E+02  0.1084E+03  0.1081E+03
     -4.082  0.1717E+02  0.2116E+02  0.1093E+03  0.1092E+03
     -4.027  0.9295E+01  0.9316E+01  0.1098E+03  0.1098E+03
     -3.972  0.1597E+02  0.1447E+02  0.1107E+03  0.1106E+03
     -3.917  0.2609E+02  0.2303E+02  0.1122E+03  0.1118E+03
     -3.862  0.2221E+02  0.2589E+02  0.1134E+03  0.1133E+03
     -3.807  0.1755E+02  0.1737E+02  0.1143E+03  0.1142E+03
     -3.751  0.1834E+02  0.1669E+02  0.1154E+03  0.1151E+03
     -3.696  0.1294E+02  0.1478E+02  0.1161E+03  0.1159E+03
     -3.641  0.1662E+02  0.1556E+02  0.1170E+03  0.1168E+03
     -3.586  0.7249E+01  0.1037E+02  0.1174E+03  0.1174E+03
     -3.531  0.1918E+02  0.1383E+02  0.1184E+03  0.1181E+03
     -3.476  0.2639E+02  0.2904E+02  0.1199E+03  0.1197E+03
     -3.421  0.1894E+02  0.1689E+02  0.1209E+03  0.1207E+03
     -3.366  0.2453E+02  0.2541E+02  0.1223E+03  0.1221E+03
     -3.311  0.1764E+02  0.1710E+02  0.1233E+03  0.1230E+03
     -3.255  0.1819E+02  0.2055E+02  0.1243E+03  0.1241E+03
     -3.200  0.1887E+02  0.1754E+02  0.1253E+03  0.1251E+03
     -3.145  0.2940E+02  0.2591E+02  0.1269E+03  0.1265E+03
     -3.090  0.2796E+02  0.3166E+02  0.1285E+03  0.1283E+03
     -3.035  0.1207E+02  0.1466E+02  0.1291E+03  0.1291E+03
     -2.980  0.2605E+02  0.2539E+02  0.1306E+03  0.1305E+03
     -2.925  0.1450E+02  0.1286E+02  0.1314E+03  0.1312E+03
     -2.870  0.3351E+02  0.3412E+02  0.1332E+03  0.1331E+03
     -2.815  0.2950E+02  0.2648E+02  0.1348E+03  0.1345E+03
     -2.760  0.2970E+02  0.3164E+02  0.1365E+03  0.1363E+03
     -2.704  0.3944E+02  0.3725E+02  0.1386E+03  0.1383E+03
     -2.649  0.4004E+02  0.4108E+02  0.1409E+03  0.1406E+03
     -2.594  0.4424E+02  0.4300E+02  0.1433E+03  0.1430E+03
     -2.539  0.4214E+02  0.4046E+02  0.1456E+03  0.1452E+03
     -2.484  0.3819E+02  0.4058E+02  0.1477E+03  0.1474E+03
     -2.429  0.6637E+02  0.6612E+02  0.1514E+03  0.1511E+03
     -2.374  0.5281E+02  0.5245E+02  0.1543E+03  0.1540E+03
     -2.319  0.5940E+02  0.5854E+02  0.1576E+03  0.1572E+03
     -2.264  0.5532E+02  0.5603E+02  0.1606E+03  0.1603E+03
     -2.208  0.5837E+02  0.5859E+02  0.1638E+03  0.1635E+03
     -2.153  0.5603E+02  0.5705E+02  0.1669E+03  0.1667E+03
     -2.098  0.4486E+02  0.4172E+02  0.1694E+03  0.1690E+03
     -2.043  0.3617E+02  0.3646E+02  0.1714E+03  0.1710E+03
     -1.988  0.4503E+02  0.4905E+02  0.1739E+03  0.1737E+03
     -1.933  0.4421E+02  0.4108E+02  0.1763E+03  0.1759E+03
     -1.878  0.3750E+02  0.3823E+02  0.1784E+03  0.1780E+03
     -1.823  0.3119E+02  0.3324E+02  0.1801E+03  0.1799E+03
     -1.768  0.2195E+02  0.2350E+02  0.1813E+03  0.1812E+03
     -1.712  0.3359E+02  0.3240E+02  0.1831E+03  0.1830E+03
     -1.657  0.3681E+02  0.3500E+02  0.1852E+03  0.1849E+03
     -1.602  0.3512E+02  0.3433E+02  0.1871E+03  0.1868E+03
     -1.547  0.3481E+02  0.3789E+02  0.1890E+03  0.1889E+03
     -1.492  0.3843E+02  0.3814E+02  0.1911E+03  0.1910E+03
     -1.437  0.3649E+02  0.3193E+02  0.1932E+03  0.1927E+03
     -1.382  0.4112E+02  0.4579E+02  0.1954E+03  0.1952E+03
     -1.327  0.2685E+02  0.2444E+02  0.1969E+03  0.1966E+03
     -1.272  0.1873E+02  0.2319E+02  0.1979E+03  0.1979E+03
     -1.216  0.1369E+02  0.1278E+02  0.1987E+03  0.1986E+03
     -1.161  0.1054E+02  0.1181E+02  0.1993E+03  0.1992E+03
     -1.106  0.1084E+02  0.9993E+01  0.1999E+03  0.1998E+03
     -1.051  0.2818E+02  0.2549E+02  0.2014E+03  0.2012E+03
     -0.996  0.2666E+02  0.2953E+02  0.2029E+03  0.2028E+03
     -0.941  0.2895E+02  0.2589E+02  0.2045E+03  0.2042E+03
     -0.886  0.2016E+02  0.2101E+02  0.2056E+03  0.2054E+03
     -0.831  0.1738E+02  0.1883E+02  0.2066E+03  0.2064E+03
     -0.776  0.2028E+02  0.2074E+02  0.2077E+03  0.2076E+03
     -0.720  0.1862E+02  0.1916E+02  0.2087E+03  0.2086E+03
     -0.665  0.1622E+02  0.1255E+02  0.2096E+03  0.2093E+03
     -0.610  0.1649E+02  0.2074E+02  0.2105E+03  0.2105E+03
     -0.555  0.2070E+02  0.1692E+02  0.2116E+03  0.2114E+03
     -0.500  0.3609E+02  0.3561E+02  0.2136E+03  0.2134E+03
     -0.445  0.3193E+02  0.3597E+02  0.2154E+03  0.2153E+03
     -0.390  0.2604E+02  0.2354E+02  0.2168E+03  0.2166E+03
     -0.335  0.2320E+02  0.2388E+02  0.2181E+03  0.2180E+03
     -0.280  0.1403E+02  0.1630E+02  0.2189E+03  0.2189E+03
     -0.224  0.1556E+02  0.1355E+02  0.2197E+03  0.2196E+03
     -0.169  0.1379E+02  0.1424E+02  0.2205E+03  0.2204E+03
     -0.114  0.1583E+02  0.1623E+02  0.2214E+03  0.2213E+03
     -0.059  0.1323E+02  0.1379E+02  0.2221E+03  0.2220E+03
     -0.004  0.1011E+02  0.9481E+01  0.2226E+03  0.2226E+03
      0.051  0.2366E+02  0.2256E+02  0.2240E+03  0.2238E+03
      0.106  0.9712E+01  0.1161E+02  0.2245E+03  0.2244E+03
      0.161  0.1654E+02  0.1481E+02  0.2254E+03  0.2253E+03
      0.216  0.3794E+02  0.3747E+02  0.2275E+03  0.2273E+03
      0.272  0.4512E+02  0.4296E+02  0.2300E+03  0.2297E+03
      0.327  0.7023E+02  0.7133E+02  0.2338E+03  0.2336E+03
      0.382  0.3467E+02  0.3276E+02  0.2358E+03  0.2354E+03
      0.437  0.3198E+02  0.3423E+02  0.2375E+03  0.2373E+03
      0.492  0.5359E+02  0.4973E+02  0.2405E+03  0.2401E+03
      0.547  0.4967E+02  0.5198E+02  0.2432E+03  0.2429E+03
      0.602  0.6663E+02  0.6771E+02  0.2469E+03  0.2467E+03
      0.657  0.4384E+02  0.4067E+02  0.2493E+03  0.2489E+03
      0.712  0.6169E+02  0.6463E+02  0.2527E+03  0.2525E+03
      0.768  0.5146E+02  0.4730E+02  0.2555E+03  0.2551E+03
      0.823  0.9254E+02  0.9104E+02  0.2606E+03  0.2601E+03
      0.878  0.7184E+02  0.7597E+02  0.2646E+03  0.2643E+03
      0.933  0.6212E+02  0.5554E+02  0.2680E+03  0.2673E+03
      0.988  0.5191E+02  0.5897E+02  0.2709E+03  0.2706E+03
      1.043  0.4503E+02  0.4704E+02  0.2734E+03  0.2732E+03
      1.098  0.6961E+02  0.6340E+02  0.2772E+03  0.2767E+03
      1.153  0.7608E+02  0.7835E+02  0.2814E+03  0.2810E+03
      1.208  0.6025E+02  0.5903E+02  0.2847E+03  0.2842E+03
      1.264  0.8346E+02  0.8184E+02  0.2893E+03  0.2887E+03
      1.319  0.7628E+02  0.7459E+02  0.2935E+03  0.2929E+03
      1.374  0.7507E+02  0.7859E+02  0.2977E+03  0.2972E+03
      1.429  0.6168E+02  0.6685E+02  0.3010E+03  0.3009E+03
      1.484  0.6450E+02  0.5404E+02  0.3046E+03  0.3038E+03
      1.539  0.9338E+02  0.9972E+02  0.3097E+03  0.3093E+03
      1.594  0.3775E+02  0.4152E+02  0.3118E+03  0.3116E+03
      1.649  0.7994E+02  0.7434E+02  0.3162E+03  0.3157E+03
      1.704  0.8169E+02  0.7774E+02  0.3207E+03  0.3200E+03
      1.760  0.7748E+02  0.8230E+02  0.3250E+03  0.3245E+03
      1.815  0.8184E+02  0.8188E+02  0.3295E+03  0.3291E+03
      1.870  0.9794E+02  0.9817E+02  0.3349E+03  0.3345E+03
      1.925  0.7863E+02  0.8053E+02  0.3392E+03  0.3389E+03
      1.980  0.7118E+02  0.6881E+02  0.3432E+03  0.3427E+03
      2.035  0.7627E+02  0.7559E+02  0.3474E+03  0.3469E+03
      2.090  0.6169E+02  0.6471E+02  0.3508E+03  0.3504E+03
      2.145  0.5870E+02  0.5618E+02  0.3540E+03  0.3535E+03
      2.200  0.7634E+02  0.7370E+02  0.3582E+03  0.3576E+03
      2.255  0.6161E+02  0.5862E+02  0.3616E+03  0.3608E+03
      2.311  0.9837E+02  0.1051E+03  0.3670E+03  0.3666E+03
      2.366  0.4941E+02  0.4904E+02  0.3698E+03  0.3693E+03
      2.421  0.6710E+02  0.7039E+02  0.3735E+03  0.3732E+03
      2.476  0.6202E+02  0.5934E+02  0.3769E+03  0.3765E+03
      2.531  0.9537E+02  0.8930E+02  0.3821E+03  0.3814E+03
      2.586  0.7007E+02  0.7332E+02  0.3860E+03  0.3854E+03
      2.641  0.6307E+02  0.6702E+02  0.3895E+03  0.3891E+03
      2.696  0.7176E+02  0.7092E+02  0.3934E+03  0.3930E+03
      2.751  0.5944E+02  0.6124E+02  0.3967E+03  0.3964E+03
      2.807  0.4961E+02  0.4336E+02  0.3994E+03  0.3988E+03
      2.862  0.5430E+02  0.6194E+02  0.4024E+03  0.4022E+03
      2.917  0.4380E+02  0.4180E+02  0.4048E+03  0.4045E+03
      2.972  0.7243E+02  0.7023E+02  0.4088E+03  0.4084E+03
      3.027  0.7309E+02  0.7101E+02  0.4129E+03  0.4123E+03
      3.082  0.6350E+02  0.6196E+02  0.4164E+03  0.4157E+03
      3.137  0.7538E+02  0.7141E+02  0.4205E+03  0.4196E+03
      3.192  0.6093E+02  0.7048E+02  0.4239E+03  0.4235E+03
      3.247  0.6245E+02  0.5827E+02  0.4273E+03  0.4267E+03
      3.303  0.6723E+02  0.6142E+02  0.4310E+03  0.4301E+03
      3.358  0.7504E+02  0.7866E+02  0.4351E+03  0.4345E+03
      3.413  0.5816E+02  0.6545E+02  0.4384E+03  0.4381E+03
      3.468  0.6260E+02  0.5700E+02  0.4418E+03  0.4412E+03
      3.523  0.5636E+02  0.5976E+02  0.4449E+03  0.4445E+03
      3.578  0.3625E+02  0.4046E+02  0.4469E+03  0.4467E+03
      3.633  0.5044E+02  0.4244E+02  0.4497E+03  0.4491E+03
      3.688  0.4240E+02  0.4963E+02  0.4520E+03  0.4518E+03
      3.743  0.4581E+02  0.4520E+02  0.4545E+03  0.4543E+03
      3.799  0.3816E+02  0.3703E+02  0.4567E+03  0.4563E+03
      3.854  0.3431E+02  0.3468E+02  0.4585E+03  0.4583E+03
      3.909  0.2585E+02  0.2637E+02  0.4600E+03  0.4597E+03
      3.964  0.3067E+02  0.2976E+02  0.4617E+03  0.4613E+03
      4.019  0.3144E+02  0.3382E+02  0.4634E+03  0.4632E+03
      4.074  0.3815E+02  0.3442E+02  0.4655E+03  0.4651E+03
      4.129  0.2479E+02  0.3029E+02  0.4669E+03  0.4668E+03
      4.184  0.1757E+02  0.1667E+02  0.4678E+03  0.4677E+03
      4.239  0.2266E+02  0.1726E+02  0.4691E+03  0.4686E+03
      4.295  0.3089E+02  0.2237E+02  0.4708E+03  0.4699E+03
      4.350  0.1549E+02  0.2877E+02  0.4716E+03  0.4715E+03
      4.405  0.2230E+02  0.2286E+02  0.4729E+03  0.4727E+03
      4.460  0.5403E+01  0.2799E+01  0.4732E+03  0.4729E+03
      4.515  0.1810E+02  0.9898E+01  0.4742E+03  0.4734E+03
      4.570  0.2378E+02  0.1803E+02  0.4755E+03  0.4744E+03
      4.625  0.1086E+02  0.1917E+02  0.4761E+03  0.4755E+03
      4.680  0.8285E+01  0.1279E+02  0.4765E+03  0.4762E+03
      4.735  0.1597E+02  0.9637E+01  0.4774E+03  0.4767E+03
      4.791  0.1273E+02  0.1377E+02  0.4781E+03  0.4775E+03
      4.846  0.3660E+02  0.1124E+02  0.4801E+03  0.4781E+03
      4.901  0.1858E+02  0.4159E+02  0.4811E+03  0.4804E+03
      4.956  0.2195E+02  0.2555E+02  0.4824E+03  0.4818E+03
      5.011  0.2649E+02  0.2134E+02  0.4838E+03  0.4830E+03
      5.066  0.2815E+02  0.2603E+02  0.4854E+03  0.4844E+03
      5.121  0.2928E+02  0.2972E+02  0.4870E+03  0.4860E+03
      5.176  0.3985E+02  0.2856E+02  0.4892E+03  0.4876E+03
      5.231  0.4719E+02  0.4043E+02  0.4918E+03  0.4898E+03
      5.287  0.2560E+02  0.4983E+02  0.4932E+03  0.4926E+03
      5.342  0.2701E+02  0.2720E+02  0.4947E+03  0.4941E+03
      5.397  0.4399E+02  0.4218E+02  0.4971E+03  0.4964E+03
      5.452  0.3577E+02  0.4025E+02  0.4991E+03  0.4986E+03
      5.507  0.3176E+02  0.3655E+02  0.5008E+03  0.5006E+03
      5.562  0.3734E+02  0.2901E+02  0.5029E+03  0.5022E+03
      5.617  0.4386E+02  0.4777E+02  0.5053E+03  0.5049E+03
      5.672  0.5110E+02  0.5257E+02  0.5081E+03  0.5078E+03
      5.727  0.3286E+02  0.3181E+02  0.5099E+03  0.5095E+03
      5.783  0.5581E+02  0.4911E+02  0.5130E+03  0.5122E+03
      5.838  0.5254E+02  0.5181E+02  0.5159E+03  0.5151E+03
      5.893  0.4264E+02  0.5200E+02  0.5182E+03  0.5179E+03
      5.948  0.5115E+02  0.4611E+02  0.5211E+03  0.5205E+03
      6.003  0.7675E+02  0.7026E+02  0.5253E+03  0.5244E+03
      6.058  0.4854E+02  0.5742E+02  0.5280E+03  0.5275E+03
      6.113  0.5017E+02  0.4936E+02  0.5307E+03  0.5302E+03
      6.168  0.3819E+02  0.3584E+02  0.5328E+03  0.5322E+03
      6.223  0.3939E+02  0.4226E+02  0.5350E+03  0.5346E+03
      6.279  0.5879E+02  0.5913E+02  0.5382E+03  0.5378E+03
      6.334  0.5385E+02  0.4999E+02  0.5412E+03  0.5406E+03
      6.389  0.4054E+02  0.4511E+02  0.5435E+03  0.5431E+03
      6.444  0.4797E+02  0.4723E+02  0.5461E+03  0.5457E+03
      6.499  0.6527E+02  0.6206E+02  0.5497E+03  0.5491E+03
      6.554  0.5898E+02  0.5782E+02  0.5529E+03  0.5523E+03
      6.609  0.6999E+02  0.7406E+02  0.5568E+03  0.5563E+03
      6.664  0.4787E+02  0.4863E+02  0.5594E+03  0.5590E+03
      6.719  0.4599E+02  0.4679E+02  0.5620E+03  0.5616E+03
      6.775  0.4966E+02  0.4779E+02  0.5647E+03  0.5642E+03
      6.830  0.3527E+02  0.3828E+02  0.5667E+03  0.5663E+03
      6.885  0.5631E+02  0.4928E+02  0.5698E+03  0.5691E+03
      6.940  0.3854E+02  0.4518E+02  0.5719E+03  0.5716E+03
      6.995  0.3684E+02  0.4201E+02  0.5739E+03  0.5739E+03
      7.050  0.6234E+01  0.6980E+01  0.5743E+03  0.5743E+03
      7.105  0.1395E+02  0.1206E+02  0.5750E+03  0.5749E+03
      7.160  0.1565E+02  0.1567E+02  0.5759E+03  0.5758E+03
      7.215  0.2086E+01  0.4024E+01  0.5760E+03  0.5760E+03
      7.270  0.0000E+00  0.0000E+00  0.5760E+03  0.5760E+03
      7.326  0.0000E+00  0.0000E+00  0.5760E+03  0.5760E+03
      7.381  0.0000E+00  0.0000E+00  0.5760E+03  0.5760E+03
      7.436  0.0000E+00  0.0000E+00  0.5760E+03  0.5760E+03
      7.491  0.0000E+00  0.0000E+00  0.5760E+03  0.5760E+03
      7.546  0.0000E+00  0.0000E+00  0.5760E+03  0.5760E+03
      7.601  0.0000E+00  0.0000E+00  0.5760E+03  0.5760E+03
      7.656  0.0000E+00  0.0000E+00  0.5760E+03  0.5760E+03
      7.711  0.0000E+00  0.0000E+00  0.5760E+03  0.5760E+03
      7.766  0.0000E+00  0.0000E+00  0.5760E+03  0.5760E+03
      7.822  0.0000E+00  0.0000E+00  0.5760E+03  0.5760E+03
      7.877  0.0000E+00  0.0000E+00  0.5760E+03  0.5760E+03
      7.932  0.0000E+00  0.0000E+00  0.5760E+03  0.5760E+03
