 vasp.6.4.3 19Mar24 (build Oct 22 2024 11:23:12) complex                        
  
 executed on             LinuxIFC date 2025.06.08  12:35:00
 running   64 mpi-ranks, on    4 nodes
 distrk:  each k-point on   64 cores,    1 groups
 distr:  one band on NCORE=  16 cores,    4 groups


--------------------------------------------------------------------------------------------------------


 INCAR:
   SYSTEM = Si and Ge interface calculation
   ISTART = 0
   ICHARG = 2
   LWAVE = .FALSE.
   LREAL = AUTO
   ENCUT = 700
   ENAUG = 900
   ADDGRID = .TRUE.
   LMAXMIX = 6
   LASPH = .TRUE.
   LMIXTAU = .TRUE.
   NCORE = 16
   NELM = 100
   NBANDS = 288
   EDIFF = 1d-7
   AMIX = 0.6
   ISMEAR = 0
   SIGMA = 0.01
   NELECT = 480
   ISPIN = 2
   NUPDOWN = 1
   LVTOT = .FALSE.
   LVHAR = .TRUE.

 POTCAR:    PAW_PBE Si 05Jan2001                  
 POTCAR:    PAW_PBE Ge 05Jan2001                  
 -----------------------------------------------------------------------------
|                                                                             |
|           W    W    AA    RRRRR   N    N  II  N    N   GGGG   !!!           |
|           W    W   A  A   R    R  NN   N  II  NN   N  G    G  !!!           |
|           W    W  A    A  R    R  N N  N  II  N N  N  G       !!!           |
|           W WW W  AAAAAA  RRRRR   N  N N  II  N  N N  G  GGG   !            |
|           WW  WW  A    A  R   R   N   NN  II  N   NN  G    G                |
|           W    W  A    A  R    R  N    N  II  N    N   GGGG   !!!           |
|                                                                             |
|     You use a magnetic or noncollinear calculation, but did not specify     |
|     the initial magnetic moment with the MAGMOM tag. Note that a            |
|     default of 8.333e-3 will be used for all atoms. This ferromagnetic      |
|     setup may break the symmetry of the crystal, in particular it may       |
|     rule out finding an antiferromagnetic solution. Thence, we              |
|     recommend setting the initial magnetic moment manually or verifying     |
|     carefully that this magnetic setup is desired.                          |
|                                                                             |
 -----------------------------------------------------------------------------

 POTCAR:    PAW_PBE Si 05Jan2001                  
   VRHFIN =Si: s2p2                                                                                 
   LEXCH  = PE                                                                                      
   EATOM  =   103.0669 eV,    7.5752 Ry                                                             
                                                                                                    
   TITEL  = PAW_PBE Si 05Jan2001                                                                    
   LULTRA =        F    use ultrasoft PP ?                                                          
   IUNSCR =        1    unscreen: 0-lin 1-nonlin 2-no                                               
   RPACOR =    1.500    partial core radius                                                         
   POMASS =   28.085; ZVAL   =    4.000    mass and valenz                                          
   RCORE  =    1.900    outmost cutoff radius                                                       
   RWIGS  =    2.480; RWIGS  =    1.312    wigner-seitz radius (au A)                               
   ENMAX  =  245.345; ENMIN  =  184.009 eV                                                          
   ICORE  =        2    local potential                                                             
   LCOR   =        T    correct aug charges                                                         
   LPAW   =        T    paw PP                                                                      
   EAUG   =  322.069                                                                                
   DEXC   =    0.000                                                                                
   RMAX   =    1.950    core radius for proj-oper                                                   
   RAUG   =    1.300    factor for augmentation sphere                                              
   RDEP   =    1.993    radius for radial grids                                                     
   RDEPT  =    1.837    core radius for aug-charge                                                  
                                                                                                    
   Atomic configuration                                                                             
    6 entries                                                                                       
     n  l   j            E        occ.                                                              
     1  0  0.50     -1785.8828   2.0000                                                             
     2  0  0.50      -139.4969   2.0000                                                             
     2  1  1.50       -95.5546   6.0000                                                             
     3  0  0.50       -10.8127   2.0000                                                             
     3  1  0.50        -4.0811   2.0000                                                             
     3  2  1.50        -4.0817   0.0000                                                             
   Description                                                                                      
     l       E           TYP  RCUT    TYP  RCUT                                                     
     0    -10.8127223     23  1.900                                                                 
     0     -7.6451159     23  1.900                                                                 
     1     -4.0811372     23  1.900                                                                 
     1      2.4879257     23  1.900                                                                 
     2     -4.0817478      7  1.900                                                                 
  local pseudopotential read in
  partial core-charges read in
  partial kinetic energy density read in
  atomic valenz-charges read in
  non local Contribution for L=           0  read in
    real space projection operators read in
  non local Contribution for L=           0  read in
    real space projection operators read in
  non local Contribution for L=           1  read in
    real space projection operators read in
  non local Contribution for L=           1  read in
    real space projection operators read in
    PAW grid and wavefunctions read in
 
   number of l-projection  operators is LMAX  =           4
   number of lm-projection operators is LMMAX =           8
 
 POTCAR:    PAW_PBE Ge 05Jan2001                  
   VRHFIN =Ge: s2p2                                                                                 
   LEXCH  = PE                                                                                      
   EATOM  =   104.9960 eV,    7.7170 Ry                                                             
                                                                                                    
   TITEL  = PAW_PBE Ge 05Jan2001                                                                    
   LULTRA =        F    use ultrasoft PP ?                                                          
   IUNSCR =        1    unscreen: 0-lin 1-nonlin 2-no                                               
   RPACOR =    2.170    partial core radius                                                         
   POMASS =   72.610; ZVAL   =    4.000    mass and valenz                                          
   RCORE  =    2.300    outmost cutoff radius                                                       
   RWIGS  =    2.300; RWIGS  =    1.217    wigner-seitz radius (au A)                               
   ENMAX  =  173.807; ENMIN  =  130.355 eV                                                          
   ICORE  =        3    local potential                                                             
   LCOR   =        T    correct aug charges                                                         
   LPAW   =        T    paw PP                                                                      
   EAUG   =  385.843                                                                                
   DEXC   =    0.000                                                                                
   RMAX   =    2.342    core radius for proj-oper                                                   
   RAUG   =    1.300    factor for augmentation sphere                                              
   RDEP   =    2.318    radius for radial grids                                                     
   RDEPT  =    2.103    core radius for aug-charge                                                  
                                                                                                    
   Atomic configuration                                                                             
   10 entries                                                                                       
     n  l   j            E        occ.                                                              
     1  0  0.50    -10959.8463   2.0000                                                             
     2  0  0.50     -1371.6056   2.0000                                                             
     2  1  1.50     -1198.4791   6.0000                                                             
     3  0  0.50      -168.4733   2.0000                                                             
     3  1  1.50      -115.6019   6.0000                                                             
     3  2  2.50       -29.3106  10.0000                                                             
     4  0  0.50       -11.7309   2.0000                                                             
     4  1  0.50        -3.8952   2.0000                                                             
     4  2  1.50        -4.0817   0.0000                                                             
     4  3  2.50        -4.0817   0.0000                                                             
   Description                                                                                      
     l       E           TYP  RCUT    TYP  RCUT                                                     
     0    -11.7309493     23  2.300                                                                 
     0     -7.4578696     23  2.300                                                                 
     1     -3.8952261     23  2.300                                                                 
     1      6.1178114     23  2.300                                                                 
     2     -4.0817478     23  2.300                                                                 
     3     -1.3605826      7  2.300                                                                 
  local pseudopotential read in
  partial core-charges read in
  partial kinetic energy density read in
  atomic valenz-charges read in
  non local Contribution for L=           0  read in
    real space projection operators read in
  non local Contribution for L=           0  read in
    real space projection operators read in
  non local Contribution for L=           1  read in
    real space projection operators read in
  non local Contribution for L=           1  read in
    real space projection operators read in
  non local Contribution for L=           2  read in
    real space projection operators read in
    PAW grid and wavefunctions read in
 
   number of l-projection  operators is LMAX  =           5
   number of lm-projection operators is LMMAX =          13
 
 Optimization of the real space projectors (new method)

 maximal supplied QI-value         = 19.84
 optimisation between [QCUT,QGAM] = [ 13.49, 26.99] = [ 50.98,203.92] Ry 
 Optimized for a Real-space Cutoff    1.07 Angstroem

   l    n(q)    QCUT    max X(q) W(low)/X(q) W(high)/X(q)  e(spline) 
   0      9    13.493   159.560    0.22E-03    0.15E-03    0.72E-07
   0      9    13.493   115.863    0.21E-03    0.15E-03    0.71E-07
   1      8    13.493    88.339    0.15E-03    0.11E-03    0.13E-06
   1      8    13.493    48.592    0.15E-03    0.10E-03    0.13E-06
 Optimization of the real space projectors (new method)

 maximal supplied QI-value         = 16.25
 optimisation between [QCUT,QGAM] = [ 13.49, 26.98] = [ 50.95,203.80] Ry 
 Optimized for a Real-space Cutoff    1.25 Angstroem

   l    n(q)    QCUT    max X(q) W(low)/X(q) W(high)/X(q)  e(spline) 
   0     10    13.489    65.336    0.91E-04    0.11E-03    0.34E-06
   0     10    13.489    52.220    0.89E-04    0.11E-03    0.34E-06
   1     10    13.489    36.409    0.22E-03    0.27E-03    0.14E-06
   1     10    13.489    21.334    0.21E-03    0.27E-03    0.14E-06
   2      9    13.489     4.673    0.11E-03    0.12E-03    0.19E-06
  PAW_PBE Si 05Jan2001                  :
 energy of atom  1       EATOM= -103.0669
 kinetic energy error for atom=    0.0003 (will be added to EATOM!!)
  PAW_PBE Ge 05Jan2001                  :
 energy of atom  2       EATOM= -104.9960
 kinetic energy error for atom=    0.0001 (will be added to EATOM!!)
 
 
 POSCAR: Si+Ge
  positions in direct lattice
  No initial velocities read in


 exchange-correlation table for PE
   RHO(1)=    0.500       N(1)  =     2000
   RHO(2)=  100.500       N(2)  =     4000
 


--------------------------------------------------------------------------------------------------------


 ion  position               nearest neighbor table
   1  0.101  0.196  0.901-  55 2.37  19 2.38  78 2.38   7 3.02
   2  0.729  0.819  0.092-  50 2.35  68 2.35  57 2.35  49 2.35
   3  0.479  0.652  0.185-  51 2.35  93 2.35  58 2.35  50 2.35
   4  0.229  0.486  0.277-  52 2.35  51 2.35  70 2.35  59 2.35
   5  0.979  0.319  0.369-  53 2.35  71 2.35  60 2.35  52 2.35
   6  0.729  0.152  0.461-  72 2.35  54 2.35  53 2.35 106 2.38
   7  0.979  0.319  0.000- 120 2.35  55 2.35  62 2.35   1 3.02  69 3.08
   8  0.101  0.696  0.901- 117 2.38 102 2.38  84 2.38  61 3.09
   9  0.479  0.986  0.185-  64 2.35  39 2.35  57 2.35  38 2.35
  10  0.229  0.819  0.277-  39 2.35  40 2.35  65 2.35  58 2.35
  11  0.351  0.196  0.561-  82 2.38  91 2.38 118 2.38  54 3.09
  12  0.101  0.696  0.629-  30 2.38 103 2.38  98 2.48  80 2.48
  13  0.601  0.946  0.901-  99 2.36 105 2.38  75 2.38  49 2.40
  14  0.729  0.486  0.092-  44 2.35  62 2.35  93 2.35  43 2.35
  15  0.479  0.319  0.185-  70 2.35  45 2.35  63 2.35  44 2.35
  16  0.229  0.152  0.277-  45 2.35  71 2.35  97 2.35  64 2.35
  17  0.979  0.986  0.369-  47 2.35  72 2.35  65 2.35  97 2.35
  18  0.729  0.819  0.461-  76 2.35  48 2.35  47 2.35 103 3.02  66 3.08
  19  0.851  0.196  0.833-   1 2.38  90 2.38 116 2.48  95 2.48
  20  0.229  0.819  0.092-  68 2.35  50 2.35  39 2.35  67 2.35
  21  0.979  0.652  0.185-  51 2.35  93 2.35  40 2.35  68 2.35
  22  0.729  0.486  0.277-  93 2.35  70 2.35  52 2.35  41 2.35
  23  0.479  0.319  0.369-  42 2.35  71 2.35  53 2.35  70 2.35
  24  0.851  0.446  0.561- 115 2.36 112 2.38  94 2.38  60 2.40
  25  0.479  0.319  0.000-  44 2.35  55 2.35 120 2.35  90 3.02  37 3.08
  26  0.229  0.152  0.092-  45 2.35  55 2.35  56 2.35  38 2.35
  27  0.979  0.986  0.185-  97 2.35  56 2.35  39 2.35  57 2.35
  28  0.729  0.819  0.277-  57 2.35  58 2.35  40 2.35  47 2.35
  29  0.479  0.652  0.369-  48 2.35  59 2.35  41 2.35  58 2.35
  30  0.351  0.696  0.561-  48 2.37  85 2.38  12 2.38  36 3.02
  31  0.479  0.652  0.000-  50 2.35  61 2.35  43 2.35  96 2.38
  32  0.229  0.486  0.092-  62 2.35  51 2.35  44 2.35  61 2.35
  33  0.979  0.319  0.185-  52 2.35  45 2.35  63 2.35  62 2.35
  34  0.729  0.152  0.277-  63 2.35  64 2.35  97 2.35  53 2.35
  35  0.479  0.986  0.369-  54 2.35  65 2.35  47 2.35  64 2.35
  36  0.229  0.819  0.461-  76 2.35  48 2.35  65 2.35  30 3.02  46 3.08
  37  0.601  0.446  0.901-  81 2.38 108 2.38  43 3.04  25 3.08
  38  0.479  0.069  0.092-  99 2.35 114 2.35   9 2.35  26 2.35
  39  0.229  0.902  0.185-  10 2.35   9 2.35  20 2.35  27 2.35
  40  0.979  0.736  0.277-  21 2.35  10 2.35  28 2.35  79 2.35
  41  0.729  0.569  0.369-  79 2.35  29 2.35  22 2.35 115 2.35
  42  0.479  0.402  0.461-  23 2.35 115 2.35  73 2.35 100 2.40
  43  0.729  0.569  0.000- 117 2.35  31 2.35  14 2.35  37 3.04
  44  0.479  0.402  0.092-  14 2.35  25 2.35  32 2.35  15 2.35
  45  0.229  0.236  0.185-  15 2.35  16 2.35  33 2.35  26 2.35
  46  0.351  0.946  0.561-  88 2.38 109 2.38  54 3.04  36 3.08
  47  0.729  0.902  0.369-  17 2.35  35 2.35  28 2.35  18 2.35
  48  0.479  0.736  0.461-  29 2.35  18 2.35  36 2.35  30 2.37
  49  0.729  0.902  0.000- 111 2.35  99 2.35   2 2.35  13 2.40
  50  0.479  0.736  0.092-   2 2.35  31 2.35  20 2.35   3 2.35
  51  0.229  0.569  0.185-   3 2.35  21 2.35   4 2.35  32 2.35
  52  0.979  0.402  0.277-   4 2.35  22 2.35  33 2.35   5 2.35
  53  0.729  0.236  0.369-   5 2.35  23 2.35  34 2.35   6 2.35
  54  0.479  0.069  0.461-  35 2.35   6 2.35  82 2.35  46 3.04  11 3.09
  55  0.229  0.236  0.000-   7 2.35  25 2.35  26 2.35   1 2.37
  56  0.979  0.069  0.092- 111 2.35  27 2.35 114 2.35  26 2.35
  57  0.729  0.902  0.185-  28 2.35   2 2.35   9 2.35  27 2.35
  58  0.479  0.736  0.277-   3 2.35  28 2.35  10 2.35  29 2.35
  59  0.229  0.569  0.369-  29 2.35  79 2.35   4 2.35  73 2.35
  60  0.979  0.402  0.461-   5 2.35 115 2.35  73 2.35  24 2.40
  61  0.229  0.569  0.000-  31 2.35 117 2.35  32 2.35  69 3.04   8 3.09
  62  0.979  0.402  0.092-  14 2.35  32 2.35   7 2.35  33 2.35
  63  0.729  0.236  0.185-  34 2.35  15 2.35  33 2.35 114 2.35
  64  0.479  0.069  0.277-   9 2.35  34 2.35  16 2.35  35 2.35
  65  0.229  0.902  0.369-  17 2.35  35 2.35  10 2.35  36 2.35
  66  0.851  0.946  0.561- 109 2.38  88 2.38  72 3.04  18 3.08
  67  0.229  0.902  0.000-  99 2.35 111 2.35  20 2.35  87 2.40
  68  0.979  0.736  0.092-   2 2.35  20 2.35 117 2.35  21 2.35
  69  0.101  0.446  0.901-  81 2.38 108 2.38  61 3.04   7 3.08
  70  0.479  0.402  0.277-  15 2.35  22 2.35   4 2.35  23 2.35
  71  0.229  0.236  0.369-   5 2.35  23 2.35  16 2.35  82 2.35
  72  0.979  0.069  0.461-   6 2.35  17 2.35  82 2.35  66 3.04
  73  0.229  0.486  0.461-  59 2.35  60 2.35  42 2.35 100 2.36
  74  0.101  0.321  0.697-  86 2.38 116 2.38 118 2.48  94 2.48
  75  0.851  0.946  0.833-  87 2.38  13 2.38  95 2.48 119 2.48
  76  0.979  0.736  0.461-  18 2.35  79 2.35  36 2.35 103 2.37
  77  0.601  0.571  0.697-  89 2.38 110 2.38  85 2.48 112 2.48
  78  0.351  0.196  0.833-   1 2.38  90 2.38  86 2.48 113 2.48
  79  0.979  0.652  0.369-  41 2.35  59 2.35  76 2.35  40 2.35
  80  0.101  0.821  0.697-  92 2.38 119 2.38  88 2.48  12 2.48
  81  0.851  0.446  0.833-  37 2.38  69 2.38  89 2.48 116 2.48
  82  0.229  0.152  0.461-  72 2.35  54 2.35  71 2.35  11 2.38
  83  0.601  0.071  0.697-  95 2.38 113 2.38  91 2.48 109 2.48
  84  0.351  0.696  0.833-   8 2.38  96 2.38 110 2.48  92 2.48
  85  0.601  0.696  0.629-  30 2.38 103 2.38  77 2.48 107 2.48
  86  0.351  0.321  0.765-  74 2.38 104 2.38  78 2.48 108 2.48
  87  0.101  0.946  0.901- 111 2.36 105 2.38  75 2.38  67 2.40
  88  0.101  0.946  0.629-  66 2.38  46 2.38  80 2.48 101 2.48
  89  0.851  0.571  0.765-  77 2.38  98 2.38  81 2.48 102 2.48
  90  0.601  0.196  0.901- 120 2.37  78 2.38  19 2.38  25 3.02
  91  0.601  0.196  0.629-  11 2.38 106 2.38 104 2.48  83 2.48
  92  0.351  0.821  0.765-  80 2.38 107 2.38 105 2.48  84 2.48
  93  0.729  0.569  0.185-   3 2.35  22 2.35  21 2.35  14 2.35
  94  0.101  0.446  0.629-  24 2.38 100 2.38  74 2.48  98 2.48
  95  0.851  0.071  0.765-  83 2.38 101 2.38  19 2.48  75 2.48
  96  0.601  0.696  0.901-  31 2.38  84 2.38 102 2.38
  97  0.979  0.069  0.277-  16 2.35  34 2.35  27 2.35  17 2.35
  98  0.101  0.571  0.697- 110 2.38  89 2.38  12 2.48  94 2.48
  99  0.479  0.986  0.000-  67 2.35  38 2.35  49 2.35  13 2.36
 100  0.351  0.446  0.561-  73 2.36 112 2.38  94 2.38  42 2.40
 101  0.101  0.071  0.697-  95 2.38 113 2.38 118 2.48  88 2.48
 102  0.851  0.696  0.833-   8 2.38  96 2.38  89 2.48 119 2.48
 103  0.851  0.696  0.561-  76 2.37  12 2.38  85 2.38  18 3.02
 104  0.601  0.321  0.697-  86 2.38 116 2.38 112 2.48  91 2.48
 105  0.351  0.946  0.833-  13 2.38  87 2.38  92 2.48 113 2.48
 106  0.851  0.196  0.561-   6 2.38  91 2.38 118 2.38
 107  0.601  0.821  0.697-  92 2.38 119 2.38 109 2.48  85 2.48
 108  0.351  0.446  0.833-  37 2.38  69 2.38 110 2.48  86 2.48
 109  0.601  0.946  0.629-  66 2.38  46 2.38 107 2.48  83 2.48
 110  0.351  0.571  0.765-  98 2.38  77 2.38  84 2.48 108 2.48
 111  0.979  0.986  0.000-  49 2.35  67 2.35  56 2.35  87 2.36
 112  0.601  0.446  0.629-  24 2.38 100 2.38 104 2.48  77 2.48
 113  0.351  0.071  0.765-  83 2.38 101 2.38  78 2.48 105 2.48
 114  0.729  0.152  0.092-  38 2.35  63 2.35 120 2.35  56 2.35
 115  0.729  0.486  0.461-  60 2.35  42 2.35  41 2.35  24 2.36
 116  0.851  0.321  0.765-  74 2.38 104 2.38  19 2.48  81 2.48
 117  0.979  0.652  0.000-  68 2.35  43 2.35  61 2.35   8 2.38
 118  0.101  0.196  0.629-  11 2.38 106 2.38  74 2.48 101 2.48
 119  0.851  0.821  0.765-  80 2.38 107 2.38  75 2.48 102 2.48
 120  0.729  0.236  0.000-   7 2.35 114 2.35  25 2.35  90 2.37
 
  LATTYP: Found a simple orthorhombic cell.
 ALAT       =     7.6805944440
 B/A-ratio  =     2.1213200862
 C/A-ratio  =     2.7086627530
  
  Lattice vectors:
  
 A1 = (   7.6805944440,   0.0000000000,   0.0000000000)
 A2 = (   0.0000000000,  16.2929992680,   0.0000000000)
 A3 = (   0.0000000000,   0.0000000000,  20.8041400910)


Analysis of symmetry for initial positions (statically):
=====================================================================
 Subroutine PRICEL returns:
 Original cell was already a primitive cell.
 

 Routine SETGRP: Setting up the symmetry group for a 
 simple orthorhombic supercell.


 Subroutine GETGRP returns: Found  1 space group operations
 (whereof  1 operations were pure point group operations)
 out of a pool of  8 trial point group operations.


The static configuration has the point symmetry C_1 .


Analysis of symmetry for dynamics (positions and initial velocities):
=====================================================================
 Subroutine PRICEL returns:
 Original cell was already a primitive cell.
 

 Routine SETGRP: Setting up the symmetry group for a 
 simple orthorhombic supercell.


 Subroutine GETGRP returns: Found  1 space group operations
 (whereof  1 operations were pure point group operations)
 out of a pool of  8 trial point group operations.


The dynamic configuration has the point symmetry C_1 .


Analysis of structural, dynamic, and magnetic symmetry:
=====================================================================
 Subroutine PRICEL returns:
 Original cell was already a primitive cell.
 

 Routine SETGRP: Setting up the symmetry group for a 
 simple orthorhombic supercell.


 Subroutine GETGRP returns: Found  1 space group operations
 (whereof  1 operations were pure point group operations)
 out of a pool of  8 trial point group operations.


The overall configuration has the point symmetry C_1 .


 Subroutine INISYM returns: Found  1 space group operations
 (whereof  1 operations are pure point group operations),
 and found     1 'primitive' translations


----------------------------------------------------------------------------------------

                                     Primitive cell                                     

  volume of cell :    2603.4284

  direct lattice vectors                    reciprocal lattice vectors
     7.680594444  0.000000000  0.000000000     0.130198256  0.000000000  0.000000000
     0.000000000 16.292999268  0.000000000     0.000000000  0.061376054  0.000000000
     0.000000000  0.000000000 20.804140091     0.000000000  0.000000000  0.048067356

  length of vectors
     7.680594444 16.292999268 20.804140091     0.130198256  0.061376054  0.048067356

  position of ions in fractional coordinates (direct lattice)
     0.101163626  0.196336150  0.900713384
     0.728517234  0.819011450  0.092296474
     0.478517175  0.652344763  0.184592947
     0.228517234  0.485678136  0.276889384
     0.978517175  0.319011390  0.369185865
     0.728517175  0.152344704  0.461482346
     0.978517294  0.319011539  0.000000001
     0.101163626  0.696336091  0.900713384
     0.478517175  0.985678136  0.184592947
     0.228517234  0.819011509  0.276889384
     0.351163626  0.196336150  0.560769081
     0.101163626  0.696336031  0.628757894
     0.601163566  0.946336031  0.900713384
     0.728517234  0.485678196  0.092296474
     0.478517175  0.319011509  0.184592947
     0.228517234  0.152344868  0.276889384
     0.978517175  0.985678136  0.369185865
     0.728517175  0.819011390  0.461482346
     0.851163626  0.196336150  0.832724512
     0.228517249  0.819011450  0.092296474
     0.978517234  0.652344763  0.184592947
     0.728517294  0.485678136  0.276889354
     0.478517175  0.319011390  0.369185865
     0.851163566  0.446336061  0.560769081
     0.478517294  0.319011539  0.000000000
     0.228517249  0.152344853  0.092296474
     0.978517234  0.985678136  0.184592947
     0.728517294  0.819011509  0.276889354
     0.478517175  0.652344763  0.369185865
     0.351163626  0.696336031  0.560769081
     0.478517294  0.652344942  0.000000000
     0.228517249  0.485678196  0.092296474
     0.978517234  0.319011509  0.184592947
     0.728517294  0.152344868  0.276889354
     0.478517175  0.985678136  0.369185865
     0.228517115  0.819011390  0.461482346
     0.601163626  0.446336091  0.900713384
     0.478517294  0.069011487  0.092296466
     0.228517264  0.902344763  0.184592947
     0.978517294  0.735678136  0.276889384
     0.728517234  0.569011450  0.369185865
     0.478517234  0.402344644  0.461482286
     0.728517354  0.569011629  0.000000000
     0.478517294  0.402344882  0.092296466
     0.228517264  0.235678196  0.184592947
     0.351163626  0.946336091  0.560769081
     0.728517234  0.902344823  0.369185865
     0.478517234  0.735678077  0.461482286
     0.728517354  0.902344942  0.000000000
     0.478517294  0.735678196  0.092296466
     0.228517264  0.569011509  0.184592947
     0.978517294  0.402344853  0.276889384
     0.728517234  0.235678121  0.369185865
     0.478517234  0.069011383  0.461482286
     0.228517294  0.235678196  0.000000001
     0.978517234  0.069011487  0.092296474
     0.728517175  0.902344763  0.184592947
     0.478517294  0.735678136  0.276889354
     0.228517175  0.569011450  0.369185865
     0.978517056  0.402344644  0.461482346
     0.228517294  0.569011629  0.000000001
     0.978517234  0.402344882  0.092296474
     0.728517175  0.235678196  0.184592947
     0.478517294  0.069011539  0.276889354
     0.228517175  0.902344823  0.369185865
     0.851163626  0.946336031  0.560769081
     0.228517294  0.902344942  0.000000001
     0.978517234  0.735678196  0.092296474
     0.101163626  0.446336091  0.900713384
     0.478517294  0.402344853  0.276889354
     0.228517175  0.235678121  0.369185865
     0.978517056  0.069011383  0.461482346
     0.228517115  0.485678077  0.461482346
     0.101163626  0.321336091  0.696746767
     0.851163626  0.946336150  0.832724512
     0.978517056  0.735678077  0.461482346
     0.601163626  0.571336091  0.696746767
     0.351163626  0.196336150  0.832724512
     0.978517175  0.652344763  0.369185865
     0.101163626  0.821336150  0.696746767
     0.851163626  0.446336091  0.832724512
     0.228517115  0.152344704  0.461482346
     0.601163626  0.071336150  0.696746767
     0.351163626  0.696336091  0.832724512
     0.601163566  0.696336031  0.628757894
     0.351163626  0.321336091  0.764735699
     0.101163626  0.946336031  0.900713384
     0.101163626  0.946336031  0.628757894
     0.851163626  0.571336091  0.764735699
     0.601163626  0.196336031  0.900713384
     0.601163626  0.196336150  0.628757894
     0.351163626  0.821336150  0.764735699
     0.728517175  0.569011509  0.184592947
     0.101163507  0.446336061  0.628757894
     0.851163626  0.071336150  0.764735699
     0.601163626  0.696336091  0.900713384
     0.978517294  0.069011539  0.276889384
     0.101163745  0.571336150  0.696746767
     0.478517294  0.985678196  0.000000000
     0.351163626  0.446336091  0.560769081
     0.101163626  0.071336150  0.696746767
     0.851163626  0.696336091  0.832724512
     0.851163626  0.696336091  0.560769081
     0.601163626  0.321336150  0.696746767
     0.351163626  0.946336150  0.832724512
     0.851163626  0.196336150  0.560769081
     0.601163626  0.821336091  0.696746767
     0.351163626  0.446336150  0.832724512
     0.601163685  0.946336091  0.628757894
     0.351163626  0.571336150  0.764735699
     0.978517294  0.985678196  0.000000001
     0.601163626  0.446336091  0.628757894
     0.351163626  0.071336150  0.764735699
     0.728517234  0.152344853  0.092296474
     0.728517175  0.485678077  0.461482346
     0.851163626  0.321336061  0.764735699
     0.978517294  0.652344942  0.000000001
     0.101163626  0.196336150  0.628757894
     0.851163626  0.821336150  0.764735699
     0.728517354  0.235678196  0.000000000

  ion indices of the primitive-cell ions
   primitive index   ion index
                 1           1
                 2           2
                 3           3
                 4           4
                 5           5
                 6           6
                 7           7
                 8           8
                 9           9
                10          10
                11          11
                12          12
                13          13
                14          14
                15          15
                16          16
                17          17
                18          18
                19          19
                20          20
                21          21
                22          22
                23          23
                24          24
                25          25
                26          26
                27          27
                28          28
                29          29
                30          30
                31          31
                32          32
                33          33
                34          34
                35          35
                36          36
                37          37
                38          38
                39          39
                40          40
                41          41
                42          42
                43          43
                44          44
                45          45
                46          46
                47          47
                48          48
                49          49
                50          50
                51          51
                52          52
                53          53
                54          54
                55          55
                56          56
                57          57
                58          58
                59          59
                60          60
                61          61
                62          62
                63          63
                64          64
                65          65
                66          66
                67          67
                68          68
                69          69
                70          70
                71          71
                72          72
                73          73
                74          74
                75          75
                76          76
                77          77
                78          78
                79          79
                80          80
                81          81
                82          82
                83          83
                84          84
                85          85
                86          86
                87          87
                88          88
                89          89
                90          90
                91          91
                92          92
                93          93
                94          94
                95          95
                96          96
                97          97
                98          98
                99          99
               100         100
               101         101
               102         102
               103         103
               104         104
               105         105
               106         106
               107         107
               108         108
               109         109
               110         110
               111         111
               112         112
               113         113
               114         114
               115         115
               116         116
               117         117
               118         118
               119         119
               120         120

----------------------------------------------------------------------------------------

 
 
 KPOINTS: Automatic KPOINTS generated             

Automatic generation of k-mesh.
 Grid dimensions read from file:
 generate k-points for:    4    2    2

 Generating k-lattice:

  Cartesian coordinates                     Fractional coordinates (reciprocal lattice)
     0.032549564  0.000000000  0.000000000     0.250000000  0.000000000  0.000000000
     0.000000000  0.030688027  0.000000000     0.000000000  0.500000000  0.000000000
     0.000000000  0.000000000  0.024033678     0.000000000  0.000000000  0.500000000

  Length of vectors
     0.032549564  0.030688027  0.024033678

  Shift w.r.t. Gamma in fractional coordinates (k-lattice)
     0.000000000  0.000000000  0.000000000

 
 Subroutine IBZKPT returns following result:
 ===========================================
 
 Found     12 irreducible k-points:
 
 Following reciprocal coordinates:
            Coordinates               Weight
  0.000000  0.000000  0.000000      1.000000
  0.250000  0.000000  0.000000      2.000000
  0.500000  0.000000  0.000000      1.000000
  0.000000  0.500000  0.000000      1.000000
  0.250000  0.500000  0.000000      2.000000
  0.500000  0.500000  0.000000      1.000000
  0.000000  0.000000  0.500000      1.000000
  0.250000  0.000000  0.500000      2.000000
  0.500000  0.000000  0.500000      1.000000
  0.000000  0.500000  0.500000      1.000000
  0.250000  0.500000  0.500000      2.000000
  0.500000  0.500000  0.500000      1.000000
 
 Following cartesian coordinates:
            Coordinates               Weight
  0.000000  0.000000  0.000000      1.000000
  0.032550  0.000000  0.000000      2.000000
  0.065099  0.000000  0.000000      1.000000
  0.000000  0.030688  0.000000      1.000000
  0.032550  0.030688  0.000000      2.000000
  0.065099  0.030688  0.000000      1.000000
  0.000000  0.000000  0.024034      1.000000
  0.032550  0.000000  0.024034      2.000000
  0.065099  0.000000  0.024034      1.000000
  0.000000  0.030688  0.024034      1.000000
  0.032550  0.030688  0.024034      2.000000
  0.065099  0.030688  0.024034      1.000000
 


--------------------------------------------------------------------------------------------------------




 Dimension of arrays:
   k-points           NKPTS =     12   k-points in BZ     NKDIM =     12   number of bands    NBANDS=    288
   number of dos      NEDOS =    301   number of ions     NIONS =    120
   non local maximal  LDIM  =      5   non local SUM 2l+1 LMDIM =     13
   total plane-waves  NPLWV = 756000
   max r-space proj   IRMAX =   2403   max aug-charges    IRDMAX= 126445
   dimension x,y,z NGX =    50 NGY =  108 NGZ =  140
   dimension x,y,z NGXF=   100 NGYF=  216 NGZF=  280
   support grid    NGXF=   200 NGYF=  432 NGZF=  560
   ions per type =              72  48
   NGX,Y,Z   is equivalent  to a cutoff of  10.82, 11.02, 11.19 a.u.
   NGXF,Y,Z  is equivalent  to a cutoff of  21.64, 22.04, 22.37 a.u.

 SYSTEM =  Si and Ge interface calculation         
 POSCAR =  Si+Ge                                   

 Startparameter for this run:
   NWRITE =      2    write-flag & timer
   PREC   = normal    normal or accurate (medium, high low for compatibility)
   ISTART =      0    job   : 0-new  1-cont  2-samecut
   ICHARG =      2    charge: 1-file 2-atom 10-const
   ISPIN  =      2    spin polarized calculation?
   LNONCOLLINEAR =      F non collinear calculations
   LSORBIT =      F    spin-orbit coupling
   INIWAV =      1    electr: 0-lowe 1-rand  2-diag
   LASPH  =      T    aspherical Exc in radial PAW
 Electronic Relaxation 1
   ENCUT  =  700.0 eV  51.45 Ry    7.17 a.u.  16.57 35.15 44.88*2*pi/ulx,y,z
   ENINI  =  700.0     initial cutoff
   ENAUG  =  900.0 eV  augmentation charge cutoff
   NELM   =    100;   NELMIN=  2; NELMDL= -5     # of ELM steps 
   EDIFF  = 0.1E-06   stopping-criterion for ELM
   LREAL  =      T    real-space projection
   NLSPLINE    = F    spline interpolate recip. space projectors
   LCOMPAT=      F    compatible to vasp.4.4
   GGA_COMPAT  = T    GGA compatible to vasp.4.4-vasp.4.6
   LMAXPAW     = -100 max onsite density
   LMAXMIX     =    6 max onsite mixed and CHGCAR
   VOSKOWN=      0    Vosko Wilk Nusair interpolation
   ROPT   =   -0.00050  -0.00050
 Ionic relaxation
   EDIFFG = 0.1E-05   stopping-criterion for IOM
   NSW    =      0    number of steps for IOM
   NBLOCK =      1;   KBLOCK =      1    inner block; outer block 
   IBRION =     -1    ionic relax: 0-MD 1-quasi-New 2-CG
   NFREE  =      0    steps in history (QN), initial steepest desc. (CG)
   ISIF   =      2    stress and relaxation
   IWAVPR =     10    prediction:  0-non 1-charg 2-wave 3-comb
   ISYM   =      2    0-nonsym 1-usesym 2-fastsym
   LCORR  =      T    Harris-Foulkes like correction to forces

   POTIM  = 0.5000    time-step for ionic-motion
   TEIN   =    0.0    initial temperature
   TEBEG  =    0.0;   TEEND  =   0.0 temperature during run
   SMASS  =  -3.00    Nose mass-parameter (am)
   estimated Nose-frequenzy (Omega)   =  0.10E-29 period in steps = 0.13E+47 mass=  -0.135E-26a.u.
   SCALEE = 1.0000    scale energy and forces
   NPACO  =    256;   APACO  = 10.0  distance and # of slots for P.C.
   PSTRESS=    0.0 pullay stress

  Mass of Ions in am
   POMASS =  28.09 72.61
  Ionic Valenz
   ZVAL   =   4.00  4.00
  Atomic Wigner-Seitz radii
   RWIGS  =  -1.00 -1.00
  virtual crystal weights 
   VCA    =   1.00  1.00
   NELECT =     480.0000    total number of electrons
   NUPDOWN=       1.0000    fix difference up-down

 DOS related values:
   EMIN   =  10.00;   EMAX   =-10.00  energy-range for DOS
   EFERMI =   0.00;   METHOD = LEGACY      
   ISMEAR =     0;   SIGMA  =   0.01  broadening in eV -4-tet -1-fermi 0-gaus

 Electronic relaxation 2 (details)
   IALGO  =     38    algorithm
   LDIAG  =      T    sub-space diagonalisation (order eigenvalues)
   LSUBROT=      F    optimize rotation matrix (better conditioning)
   TURBO    =      0    0=normal 1=particle mesh
   IRESTART =      0    0=no restart 2=restart with 2 vectors
   NREBOOT  =      0    no. of reboots
   NMIN     =      0    reboot dimension
   EREF     =   0.00    reference energy to select bands
   IMIX   =      4    mixing-type and parameters
     AMIX     =   0.60;   BMIX     =  1.00
     AMIX_MAG =   2.40;   BMIX_MAG =  1.00
     AMIN     =   0.10
     WC   =   100.;   INIMIX=   1;  MIXPRE=   1;  MAXMIX= -45

 Intra band minimization:
   WEIMIN = 0.0000     energy-eigenvalue tresh-hold
   EBREAK =  0.87E-10  absolut break condition
   DEPER  =   0.30     relativ break condition  

   TIME   =   0.40     timestep for ELM

  volume/ion in A,a.u.               =      21.70       146.41
  Fermi-wavevector in a.u.,A,eV,Ry     =   0.931766  1.760782 11.812404  0.868187
  Thomas-Fermi vector in A             =   2.058293
 
 Write flags
   LWAVE        =      F    write WAVECAR
   LDOWNSAMPLE  =      F    k-point downsampling of WAVECAR
   LCHARG       =      T    write CHGCAR
   LVTOT        =      F    write LOCPOT, total local potential
   LVHAR        =      T    write LOCPOT, Hartree potential only
   WRT_POTENTIAL=  hartree ionic  ! write potential to hdf5 file
   LELF         =      F    write electronic localiz. function (ELF)
   LORBIT       =      0    0 simple, 1 ext, 2 COOP (PROOUT), +10 PAW based schemes


 Dipole corrections
   LMONO      =      F    monopole corrections only (constant potential shift)
   LDIPOL     =      F    correct potential (dipole corrections)
   IDIPOL     =      0    1-x, 2-y, 3-z, 4-all directions 
   EPSILON    =  1.0000000 bulk dielectric constant
   LVACPOTAV  =      F  vacuum potentials using an averaging scheme for the charge density
   VACPOTFLAT =  0.1000000 required flatness to determine vacuum potential
 Exchange correlation treatment:
   GGA     = PE    functional components
   XC_C    = 1    coefficients multiplying the functional components
   LIBXC   =     F    Libxc                    
   VOSKOWN =     0    Vosko Wilk Nusair interpolation
   LHFCALC =     F    Hartree Fock is set to
   LHFONE  =     F    Hartree Fock one center treatment
   AEXX    =    0.0000 exact exchange contribution

 Parameters of functionals:
   PE:
     No parameter
 
 Van der Waals corrections
   IVDW    =     0    specifies the selected vdW correction

 Linear response parameters
   LEPSILON=     F    determine dielectric tensor
   LRPA    =     F    only Hartree local field effects (RPA)
   LNABLA  =     F    use nabla operator in PAW spheres
   LVEL    =     F    velocity operator in full k-point grid
   CSHIFT  =0.1000    complex shift for real part using Kramers Kronig
   OMEGAMAX=  -1.0    maximum frequency
   DEG_THRESHOLD= 0.2000000E-02 threshold for treating states as degnerate
   RTIME   =   -0.100 relaxation time in fs
  (WPLASMAI=    0.000 imaginary part of plasma frequency in eV, 0.658/RTIME)
   DFIELD  = 0.0000000 0.0000000 0.0000000 field for delta impulse in time
 
  Optional k-point grid parameters
   LKPOINTS_OPT  =     F    use optional k-point grid
   KPOINTS_OPT_MODE=     1    mode for optional k-point grid
 
 Orbital magnetization related:
   ORBITALMAG=     F  switch on orbital magnetization
   LCHIMAG   =     F  perturbation theory with respect to B field
   DQ        =  0.001000  dq finite difference perturbation B field
   LLRAUG    =     F  two centre corrections for induced B field
   LBONE     =     F  B-component reconstruction in AE one-centre
   LVGVCALC  =     T  calculate vGv susceptibility
   LVGVAPPL  =     F  apply vGv susceptibility instead of pGv for G=0

 Random number generation:
   RANDOM_GENERATOR = DEFAULT
   PCG_SEED         = not used


--------------------------------------------------------------------------------------------------------


 Static calculation
 charge density and potential will be updated during run
 spin polarized calculation
 Variant of blocked Davidson
 Davidson routine will perform the subspace rotation
 perform sub-space diagonalisation
    after iterative eigenvector-optimisation
 modified Broyden-mixing scheme, WC =      100.0
 initial mixing is a Kerker type mixing with AMIX =  0.6000 and BMIX =      1.0000
 Hartree-type preconditioning will be used
 using additional bands           48
 real space projection scheme for non local part
 use partial core corrections
 calculate Harris-corrections to forces 
   (improved forces if not selfconsistent)
 use gradient corrections 
 use of overlap-Matrix (Vanderbilt PP)
 Gauss-broadening in eV      SIGMA  =   0.01


--------------------------------------------------------------------------------------------------------


  energy-cutoff  :      700.00
  volume of cell :     2603.43
      direct lattice vectors                 reciprocal lattice vectors
     7.680594444  0.000000000  0.000000000     0.130198256  0.000000000  0.000000000
     0.000000000 16.292999268  0.000000000     0.000000000  0.061376054  0.000000000
     0.000000000  0.000000000 20.804140091     0.000000000  0.000000000  0.048067356

  length of vectors
     7.680594444 16.292999268 20.804140091     0.130198256  0.061376054  0.048067356


 
 k-points in units of 2pi/SCALE and weight: Automatic KPOINTS generated             
   0.00000000  0.00000000  0.00000000       0.062
   0.03254956  0.00000000  0.00000000       0.125
   0.06509913  0.00000000  0.00000000       0.062
   0.00000000  0.03068803  0.00000000       0.062
   0.03254956  0.03068803  0.00000000       0.125
   0.06509913  0.03068803  0.00000000       0.062
   0.00000000  0.00000000  0.02403368       0.062
   0.03254956  0.00000000  0.02403368       0.125
   0.06509913  0.00000000  0.02403368       0.062
   0.00000000  0.03068803  0.02403368       0.062
   0.03254956  0.03068803  0.02403368       0.125
   0.06509913  0.03068803  0.02403368       0.062
 
 k-points in reciprocal lattice and weights: Automatic KPOINTS generated             
   0.00000000  0.00000000  0.00000000       0.062
   0.25000000  0.00000000  0.00000000       0.125
   0.50000000  0.00000000  0.00000000       0.062
   0.00000000  0.50000000  0.00000000       0.062
   0.25000000  0.50000000  0.00000000       0.125
   0.50000000  0.50000000  0.00000000       0.062
   0.00000000  0.00000000  0.50000000       0.062
   0.25000000  0.00000000  0.50000000       0.125
   0.50000000  0.00000000  0.50000000       0.062
   0.00000000  0.50000000  0.50000000       0.062
   0.25000000  0.50000000  0.50000000       0.125
   0.50000000  0.50000000  0.50000000       0.062
 
 position of ions in fractional coordinates (direct lattice) 
   0.10116363  0.19633615  0.90071338
   0.72851723  0.81901145  0.09229647
   0.47851718  0.65234476  0.18459295
   0.22851723  0.48567814  0.27688938
   0.97851718  0.31901139  0.36918586
   0.72851718  0.15234470  0.46148235
   0.97851729  0.31901154  0.00000000
   0.10116363  0.69633609  0.90071338
   0.47851718  0.98567814  0.18459295
   0.22851723  0.81901151  0.27688938
   0.35116363  0.19633615  0.56076908
   0.10116363  0.69633603  0.62875789
   0.60116357  0.94633603  0.90071338
   0.72851723  0.48567820  0.09229647
   0.47851718  0.31901151  0.18459295
   0.22851723  0.15234487  0.27688938
   0.97851718  0.98567814  0.36918586
   0.72851718  0.81901139  0.46148235
   0.85116363  0.19633615  0.83272451
   0.22851725  0.81901145  0.09229647
   0.97851723  0.65234476  0.18459295
   0.72851729  0.48567814  0.27688935
   0.47851718  0.31901139  0.36918586
   0.85116357  0.44633606  0.56076908
   0.47851729  0.31901154  0.00000000
   0.22851725  0.15234485  0.09229647
   0.97851723  0.98567814  0.18459295
   0.72851729  0.81901151  0.27688935
   0.47851718  0.65234476  0.36918586
   0.35116363  0.69633603  0.56076908
   0.47851729  0.65234494  0.00000000
   0.22851725  0.48567820  0.09229647
   0.97851723  0.31901151  0.18459295
   0.72851729  0.15234487  0.27688935
   0.47851718  0.98567814  0.36918586
   0.22851712  0.81901139  0.46148235
   0.60116363  0.44633609  0.90071338
   0.47851729  0.06901149  0.09229647
   0.22851726  0.90234476  0.18459295
   0.97851729  0.73567814  0.27688938
   0.72851723  0.56901145  0.36918586
   0.47851723  0.40234464  0.46148229
   0.72851735  0.56901163  0.00000000
   0.47851729  0.40234488  0.09229647
   0.22851726  0.23567820  0.18459295
   0.35116363  0.94633609  0.56076908
   0.72851723  0.90234482  0.36918586
   0.47851723  0.73567808  0.46148229
   0.72851735  0.90234494  0.00000000
   0.47851729  0.73567820  0.09229647
   0.22851726  0.56901151  0.18459295
   0.97851729  0.40234485  0.27688938
   0.72851723  0.23567812  0.36918586
   0.47851723  0.06901138  0.46148229
   0.22851729  0.23567820  0.00000000
   0.97851723  0.06901149  0.09229647
   0.72851718  0.90234476  0.18459295
   0.47851729  0.73567814  0.27688935
   0.22851718  0.56901145  0.36918586
   0.97851706  0.40234464  0.46148235
   0.22851729  0.56901163  0.00000000
   0.97851723  0.40234488  0.09229647
   0.72851718  0.23567820  0.18459295
   0.47851729  0.06901154  0.27688935
   0.22851718  0.90234482  0.36918586
   0.85116363  0.94633603  0.56076908
   0.22851729  0.90234494  0.00000000
   0.97851723  0.73567820  0.09229647
   0.10116363  0.44633609  0.90071338
   0.47851729  0.40234485  0.27688935
   0.22851718  0.23567812  0.36918586
   0.97851706  0.06901138  0.46148235
   0.22851712  0.48567808  0.46148235
   0.10116363  0.32133609  0.69674677
   0.85116363  0.94633615  0.83272451
   0.97851706  0.73567808  0.46148235
   0.60116363  0.57133609  0.69674677
   0.35116363  0.19633615  0.83272451
   0.97851718  0.65234476  0.36918586
   0.10116363  0.82133615  0.69674677
   0.85116363  0.44633609  0.83272451
   0.22851712  0.15234470  0.46148235
   0.60116363  0.07133615  0.69674677
   0.35116363  0.69633609  0.83272451
   0.60116357  0.69633603  0.62875789
   0.35116363  0.32133609  0.76473570
   0.10116363  0.94633603  0.90071338
   0.10116363  0.94633603  0.62875789
   0.85116363  0.57133609  0.76473570
   0.60116363  0.19633603  0.90071338
   0.60116363  0.19633615  0.62875789
   0.35116363  0.82133615  0.76473570
   0.72851718  0.56901151  0.18459295
   0.10116351  0.44633606  0.62875789
   0.85116363  0.07133615  0.76473570
   0.60116363  0.69633609  0.90071338
   0.97851729  0.06901154  0.27688938
   0.10116375  0.57133615  0.69674677
   0.47851729  0.98567820  0.00000000
   0.35116363  0.44633609  0.56076908
   0.10116363  0.07133615  0.69674677
   0.85116363  0.69633609  0.83272451
   0.85116363  0.69633609  0.56076908
   0.60116363  0.32133615  0.69674677
   0.35116363  0.94633615  0.83272451
   0.85116363  0.19633615  0.56076908
   0.60116363  0.82133609  0.69674677
   0.35116363  0.44633615  0.83272451
   0.60116369  0.94633609  0.62875789
   0.35116363  0.57133615  0.76473570
   0.97851729  0.98567820  0.00000000
   0.60116363  0.44633609  0.62875789
   0.35116363  0.07133615  0.76473570
   0.72851723  0.15234485  0.09229647
   0.72851718  0.48567808  0.46148235
   0.85116363  0.32133606  0.76473570
   0.97851729  0.65234494  0.00000000
   0.10116363  0.19633615  0.62875789
   0.85116363  0.82133615  0.76473570
   0.72851735  0.23567820  0.00000000
 
 position of ions in cartesian coordinates  (Angst):
   0.77699678  3.19890475 18.73856742
   5.59544542 13.34415296  1.92014878
   3.67529636 10.62865275  3.84029753
   1.75514820  7.91315351  5.76044553
   7.51559358  5.19765234  7.68059446
   5.59544497  2.48215215  9.60074338
   7.51559449  5.19765477  0.00000002
   0.77699678 11.34540342 18.73856742
   3.67529636 16.05965315  3.84029753
   1.75514820 13.34415392  5.76044553
   2.69714539  3.19890475 11.66631852
   0.77699678 11.34540244 13.08076731
   4.61729354 15.41865226 18.73856742
   5.59544542  7.91315449  1.92014878
   3.67529636  5.19765428  3.84029753
   1.75514820  2.48215482  5.76044553
   7.51559358 16.05965315  7.68059446
   5.59544497 13.34415198  9.60074338
   6.53744262  3.19890475 17.32411740
   1.75514831 13.34415296  1.92014878
   7.51559403 10.62865275  3.84029753
   5.59544588  7.91315351  5.76044491
   3.67529636  5.19765234  7.68059446
   6.53744216  7.27215312 11.66631852
   3.67529727  5.19765477  0.00000000
   1.75514831  2.48215458  1.92014878
   7.51559403 16.05965315  3.84029753
   5.59544588 13.34415392  5.76044491
   3.67529636 10.62865275  7.68059446
   2.69714539 11.34540244 11.66631852
   3.67529727 10.62865566  0.00000000
   1.75514831  7.91315449  1.92014878
   7.51559403  5.19765428  3.84029753
   5.59544588  2.48215482  5.76044491
   3.67529636 16.05965315  7.68059446
   1.75514728 13.34415198  9.60074338
   4.61729401  7.27215360 18.73856742
   3.67529727  1.12440411  1.92014861
   1.75514843 14.70190256  3.84029753
   7.51559449 11.98640333  5.76044553
   5.59544542  9.27090314  7.68059446
   3.67529681  6.55540099  9.60074213
   5.59544634  9.27090605  0.00000000
   3.67529727  6.55540487  1.92014861
   1.75514843  3.83990467  3.84029753
   2.69714539 15.41865324 11.66631852
   5.59544542 14.70190354  7.68059446
   3.67529681 11.98640237  9.60074213
   5.59544634 14.70190548  0.00000000
   3.67529727 11.98640431  1.92014861
   1.75514843  9.27090410  3.84029753
   7.51559449  6.55540440  5.76044553
   5.59544542  3.83990345  7.68059446
   3.67529681  1.12440241  9.60074213
   1.75514866  3.83990467  0.00000002
   7.51559403  1.12440411  1.92014878
   5.59544497 14.70190256  3.84029753
   3.67529727 11.98640333  5.76044491
   1.75514774  9.27090314  7.68059446
   7.51559266  6.55540099  9.60074338
   1.75514866  9.27090605  0.00000002
   7.51559403  6.55540487  1.92014878
   5.59544497  3.83990467  3.84029753
   3.67529727  1.12440495  5.76044491
   1.75514774 14.70190354  7.68059446
   6.53744262 15.41865226 11.66631852
   1.75514866 14.70190548  0.00000002
   7.51559403 11.98640431  1.92014878
   0.77699678  7.27215360 18.73856742
   3.67529727  6.55540440  5.76044491
   1.75514774  3.83990345  7.68059446
   7.51559266  1.12440241  9.60074338
   1.75514728  7.91315255  9.60074338
   0.77699678  5.23552870 14.49521735
   6.53744262 15.41865420 17.32411740
   7.51559266 11.98640237  9.60074338
   4.61729401  9.30877851 14.49521735
   2.69714539  3.19890475 17.32411740
   7.51559358 10.62865275  7.68059446
   0.77699678 13.38202929 14.49521735
   6.53744262  7.27215360 17.32411740
   1.75514728  2.48215215  9.60074338
   4.61729401  1.16227984 14.49521735
   2.69714539 11.34540342 17.32411740
   4.61729354 11.34540244 13.08076731
   2.69714539  5.23552870 15.90966861
   0.77699678 15.41865226 18.73856742
   0.77699678 15.41865226 13.08076731
   6.53744262  9.30877851 15.90966861
   4.61729401  3.19890281 18.73856742
   4.61729401  3.19890475 13.08076731
   2.69714539 13.38202929 15.90966861
   5.59544497  9.27090410  3.84029753
   0.77699587  7.27215312 13.08076731
   6.53744262  1.16227984 15.90966861
   4.61729401 11.34540342 18.73856742
   7.51559449  1.12440495  5.76044553
   0.77699770  9.30877947 14.49521735
   3.67529727 16.05965413  0.00000000
   2.69714539  7.27215360 11.66631852
   0.77699678  1.16227984 14.49521735
   6.53744262 11.34540342 17.32411740
   6.53744262 11.34540342 11.66631852
   4.61729401  5.23552966 14.49521735
   2.69714539 15.41865420 17.32411740
   6.53744262  3.19890475 11.66631852
   4.61729401 13.38202833 14.49521735
   2.69714539  7.27215457 17.32411740
   4.61729446 15.41865324 13.08076731
   2.69714539  9.30877947 15.90966861
   7.51559449 16.05965413  0.00000002
   4.61729401  7.27215360 13.08076731
   2.69714539  1.16227984 15.90966861
   5.59544542  2.48215458  1.92014878
   5.59544497  7.91315255  9.60074338
   6.53744262  5.23552821 15.90966861
   7.51559449 10.62865566  0.00000002
   0.77699678  3.19890475 13.08076731
   6.53744262 13.38202929 15.90966861
   5.59544634  3.83990467  0.00000000
 


--------------------------------------------------------------------------------------------------------


 k-point     1 :   0.0000 0.0000 0.0000  plane waves:  109471
 k-point     2 :   0.2500 0.0000 0.0000  plane waves:  109475
 k-point     3 :   0.5000 0.0000 0.0000  plane waves:  109458
 k-point     4 :   0.0000 0.5000 0.0000  plane waves:  109558
 k-point     5 :   0.2500 0.5000 0.0000  plane waves:  109496
 k-point     6 :   0.5000 0.5000 0.0000  plane waves:  109460
 k-point     7 :   0.0000 0.0000 0.5000  plane waves:  109486
 k-point     8 :   0.2500 0.0000 0.5000  plane waves:  109462
 k-point     9 :   0.5000 0.0000 0.5000  plane waves:  109440
 k-point    10 :   0.0000 0.5000 0.5000  plane waves:  109640
 k-point    11 :   0.2500 0.5000 0.5000  plane waves:  109512
 k-point    12 :   0.5000 0.5000 0.5000  plane waves:  109336

 maximum and minimum number of plane-waves per node :      6888     6794

 maximum number of plane-waves:    109640
 maximum index in each direction: 
   IXMAX=   16   IYMAX=   35   IZMAX=   44
   IXMIN=  -17   IYMIN=  -35   IZMIN=  -45


 real space projection operators:
  total allocation   :      17735.49 KBytes
  max/ min on nodes  :       1475.08       1017.98


 parallel 3D FFT for wavefunctions:
    minimum data exchange during FFTs selected (reduces bandwidth)
 parallel 3D FFT for charge:
    minimum data exchange during FFTs selected (reduces bandwidth)


 total amount of memory used by VASP MPI-rank0   262219. kBytes
=======================================================================

   base      :      30000. kBytes
   nonlr-proj:       6663. kBytes
   fftplans  :      18524. kBytes
   grid      :      14584. kBytes
   one-center:        129. kBytes
   wavefun   :     192319. kBytes
 
     INWAV:  cpu time      0.0000: real time      0.0003
 Broyden mixing: mesh for mixing (old mesh)
   NGX = 33   NGY = 71   NGZ = 89
  (NGX  =100   NGY  =216   NGZ  =280)
  gives a total of 208527 points

 initial charge density was supplied:
 charge density of overlapping atoms calculated
 number of electron     480.0000000 magnetization       1.0000000
 keeping initial charge density in first step


--------------------------------------------------------------------------------------------------------


 Maximum index for non-local projection operator          422
 Maximum index for augmentation-charges         5964 (set IRDMAX)


--------------------------------------------------------------------------------------------------------


 First call to EWALD:  gamma=   0.129
 Maximum number of real-space cells 5x 2x 2
 Maximum number of reciprocal cells 2x 3x 4

    FEWALD:  cpu time      0.0033: real time      0.0033


--------------------------------------- Ionic step        1  -------------------------------------------




--------------------------------------- Iteration      1(   1)  ---------------------------------------


    POTLOK:  cpu time      0.2239: real time      0.2264
    SETDIJ:  cpu time      1.0892: real time      1.0956
     EDDAV:  cpu time     36.8624: real time     37.2073
       DOS:  cpu time      0.0030: real time      0.0030
    --------------------------------------------
      LOOP:  cpu time     38.1786: real time     38.5323

 eigenvalue-minimisations  : 13824
 total energy-change (2. order) : 0.1966846E+04  (-0.2146527E+05)
 number of electron     480.0000000 magnetization       1.0000000
 augmentation part      480.0000000 magnetization       1.0000000

 Free energy of the ion-electron system (eV)
  ---------------------------------------------------
  alpha Z        PSCENC =       534.59184046
  Ewald energy   TEWEN  =    -12842.21185894
  -Hartree energ DENC   =     -1177.67394470
  -exchange      EXHF   =         0.00000000
  -V(xc)+E(xc)   XCENC  =     -1034.40138285
  PAW double counting   =     10575.88222728    -8613.76247617
  entropy T*S    EENTRO =        -0.00193642
  eigenvalues    EBANDS =      2063.82282361
  atomic energy  EATOM  =     12460.60057749
  Solvation  Ediel_sol  =         0.00000000
  ---------------------------------------------------
  free energy    TOTEN  =      1966.84586977 eV

  energy without entropy =     1966.84780619  energy(sigma->0) =     1966.84683798


--------------------------------------------------------------------------------------------------------




--------------------------------------- Iteration      1(   2)  ---------------------------------------


     EDDAV:  cpu time     41.4011: real time     41.8450
       DOS:  cpu time      0.0024: real time      0.0024
    --------------------------------------------
      LOOP:  cpu time     41.4035: real time     41.8475

 eigenvalue-minimisations  : 16176
 total energy-change (2. order) :-0.2326168E+04  (-0.2243081E+04)
 number of electron     480.0000000 magnetization       1.0000000
 augmentation part      480.0000000 magnetization       1.0000000

 Free energy of the ion-electron system (eV)
  ---------------------------------------------------
  alpha Z        PSCENC =       534.59184046
  Ewald energy   TEWEN  =    -12842.21185894
  -Hartree energ DENC   =     -1177.67394470
  -exchange      EXHF   =         0.00000000
  -V(xc)+E(xc)   XCENC  =     -1034.40138285
  PAW double counting   =     10575.88222728    -8613.76247617
  entropy T*S    EENTRO =        -0.00207187
  eigenvalues    EBANDS =      -262.34513995
  atomic energy  EATOM  =     12460.60057749
  Solvation  Ediel_sol  =         0.00000000
  ---------------------------------------------------
  free energy    TOTEN  =      -359.32222923 eV

  energy without entropy =     -359.32015736  energy(sigma->0) =     -359.32119330


--------------------------------------------------------------------------------------------------------




--------------------------------------- Iteration      1(   3)  ---------------------------------------


     EDDAV:  cpu time     43.1963: real time     43.6565
       DOS:  cpu time      0.0026: real time      0.0026
    --------------------------------------------
      LOOP:  cpu time     43.1989: real time     43.6591

 eigenvalue-minimisations  : 17056
 total energy-change (2. order) :-0.2169609E+03  (-0.2107769E+03)
 number of electron     480.0000000 magnetization       1.0000000
 augmentation part      480.0000000 magnetization       1.0000000

 Free energy of the ion-electron system (eV)
  ---------------------------------------------------
  alpha Z        PSCENC =       534.59184046
  Ewald energy   TEWEN  =    -12842.21185894
  -Hartree energ DENC   =     -1177.67394470
  -exchange      EXHF   =         0.00000000
  -V(xc)+E(xc)   XCENC  =     -1034.40138285
  PAW double counting   =     10575.88222728    -8613.76247617
  entropy T*S    EENTRO =        -0.00140878
  eigenvalues    EBANDS =      -479.30666793
  atomic energy  EATOM  =     12460.60057749
  Solvation  Ediel_sol  =         0.00000000
  ---------------------------------------------------
  free energy    TOTEN  =      -576.28309413 eV

  energy without entropy =     -576.28168535  energy(sigma->0) =     -576.28238974


--------------------------------------------------------------------------------------------------------




--------------------------------------- Iteration      1(   4)  ---------------------------------------


     EDDAV:  cpu time     41.8205: real time     42.2029
       DOS:  cpu time      0.0023: real time      0.0023
    --------------------------------------------
      LOOP:  cpu time     41.8228: real time     42.2052

 eigenvalue-minimisations  : 16304
 total energy-change (2. order) :-0.7759394E+01  (-0.7638108E+01)
 number of electron     480.0000000 magnetization       1.0000000
 augmentation part      480.0000000 magnetization       1.0000000

 Free energy of the ion-electron system (eV)
  ---------------------------------------------------
  alpha Z        PSCENC =       534.59184046
  Ewald energy   TEWEN  =    -12842.21185894
  -Hartree energ DENC   =     -1177.67394470
  -exchange      EXHF   =         0.00000000
  -V(xc)+E(xc)   XCENC  =     -1034.40138285
  PAW double counting   =     10575.88222728    -8613.76247617
  entropy T*S    EENTRO =        -0.00181699
  eigenvalues    EBANDS =      -487.06565335
  atomic energy  EATOM  =     12460.60057749
  Solvation  Ediel_sol  =         0.00000000
  ---------------------------------------------------
  free energy    TOTEN  =      -584.04248775 eV

  energy without entropy =     -584.04067076  energy(sigma->0) =     -584.04157925


--------------------------------------------------------------------------------------------------------




--------------------------------------- Iteration      1(   5)  ---------------------------------------


     EDDAV:  cpu time     45.5837: real time     45.9941
       DOS:  cpu time      0.0023: real time      0.0023
    CHARGE:  cpu time      1.8212: real time      1.8411
    MIXING:  cpu time      0.0046: real time      0.0046
    --------------------------------------------
      LOOP:  cpu time     47.4118: real time     47.8422

 eigenvalue-minimisations  : 18240
 total energy-change (2. order) :-0.2895036E+00  (-0.2878944E+00)
 number of electron     479.9999997 magnetization       1.0000000
 augmentation part      -48.5191057 magnetization      -0.0656866

 Broyden mixing:
  rms(total) = 0.31737E+01    rms(broyden)= 0.31737E+01
  rms(prec ) = 0.33195E+01
  weight for this iteration     100.00

 Free energy of the ion-electron system (eV)
  ---------------------------------------------------
  alpha Z        PSCENC =       534.59184046
  Ewald energy   TEWEN  =    -12842.21185894
  -Hartree energ DENC   =     -1177.67394470
  -exchange      EXHF   =         0.00000000
  -V(xc)+E(xc)   XCENC  =     -1034.40138285
  PAW double counting   =     10575.88222728    -8613.76247617
  entropy T*S    EENTRO =        -0.00178720
  eigenvalues    EBANDS =      -487.35518674
  atomic energy  EATOM  =     12460.60057749
  Solvation  Ediel_sol  =         0.00000000
  ---------------------------------------------------
  free energy    TOTEN  =      -584.33199135 eV

  energy without entropy =     -584.33020416  energy(sigma->0) =     -584.33109776


--------------------------------------------------------------------------------------------------------




--------------------------------------- Iteration      1(   6)  ---------------------------------------


    POTLOK:  cpu time      0.2910: real time      0.2928
    SETDIJ:  cpu time      1.1216: real time      1.1275
     EDDAV:  cpu time     42.2060: real time     42.5947
       DOS:  cpu time      0.0024: real time      0.0024
    CHARGE:  cpu time      1.7547: real time      1.7675
    MIXING:  cpu time      0.0045: real time      0.0045
    --------------------------------------------
      LOOP:  cpu time     45.3801: real time     45.7894

 eigenvalue-minimisations  : 16616
 total energy-change (2. order) : 0.9008525E+01  (-0.1387690E+01)
 number of electron     479.9999997 magnetization       1.0000000
 augmentation part      -48.1240225 magnetization      -0.0529436

 Broyden mixing:
  rms(total) = 0.14474E+01    rms(broyden)= 0.14474E+01
  rms(prec ) = 0.15272E+01
  weight for this iteration     100.00

 eigenvalues of (default mixing * dielectric matrix)
  average eigenvalue GAMMA=   1.7184
  1.7184

 Free energy of the ion-electron system (eV)
  ---------------------------------------------------
  alpha Z        PSCENC =       534.59184046
  Ewald energy   TEWEN  =    -12842.21185894
  -Hartree energ DENC   =     -1310.36687231
  -exchange      EXHF   =         0.00000000
  -V(xc)+E(xc)   XCENC  =     -1015.29073965
  PAW double counting   =     22438.83014851   -20485.72766155
  entropy T*S    EENTRO =        -0.00212379
  eigenvalues    EBANDS =      -355.74677698
  atomic energy  EATOM  =     12460.60057749
  Solvation  Ediel_sol  =         0.00000000
  ---------------------------------------------------
  free energy    TOTEN  =      -575.32346674 eV

  energy without entropy =     -575.32134295  energy(sigma->0) =     -575.32240484


--------------------------------------------------------------------------------------------------------




--------------------------------------- Iteration      1(   7)  ---------------------------------------


    POTLOK:  cpu time      0.1981: real time      0.1997
    SETDIJ:  cpu time      1.0848: real time      1.0910
     EDDAV:  cpu time     42.3821: real time     42.7702
       DOS:  cpu time      0.0025: real time      0.0025
    CHARGE:  cpu time      1.7606: real time      1.7736
    MIXING:  cpu time      0.0044: real time      0.0044
    --------------------------------------------
      LOOP:  cpu time     45.4324: real time     45.8413

 eigenvalue-minimisations  : 16728
 total energy-change (2. order) : 0.9696891E-01  (-0.1393829E+01)
 number of electron     479.9999997 magnetization       1.0000000
 augmentation part      -47.9542172 magnetization      -0.0571177

 Broyden mixing:
  rms(total) = 0.60663E+00    rms(broyden)= 0.60663E+00
  rms(prec ) = 0.78767E+00
  weight for this iteration     100.00

 eigenvalues of (default mixing * dielectric matrix)
  average eigenvalue GAMMA=   1.1968
  1.8567  0.5368

 Free energy of the ion-electron system (eV)
  ---------------------------------------------------
  alpha Z        PSCENC =       534.59184046
  Ewald energy   TEWEN  =    -12842.21185894
  -Hartree energ DENC   =     -1372.47043213
  -exchange      EXHF   =         0.00000000
  -V(xc)+E(xc)   XCENC  =     -1001.97683471
  PAW double counting   =     34612.04210662   -32664.87739237
  entropy T*S    EENTRO =        -0.00202319
  eigenvalues    EBANDS =      -300.92248107
  atomic energy  EATOM  =     12460.60057749
  Solvation  Ediel_sol  =         0.00000000
  ---------------------------------------------------
  free energy    TOTEN  =      -575.22649783 eV

  energy without entropy =     -575.22447464  energy(sigma->0) =     -575.22548624


--------------------------------------------------------------------------------------------------------




--------------------------------------- Iteration      1(   8)  ---------------------------------------


    POTLOK:  cpu time      0.1959: real time      0.1991
    SETDIJ:  cpu time      1.0846: real time      1.0903
     EDDAV:  cpu time     42.2270: real time     42.6135
       DOS:  cpu time      0.0023: real time      0.0023
    CHARGE:  cpu time      1.7630: real time      1.7768
    MIXING:  cpu time      0.0047: real time      0.0048
    --------------------------------------------
      LOOP:  cpu time     45.2775: real time     45.6867

 eigenvalue-minimisations  : 16608
 total energy-change (2. order) : 0.6721315E+00  (-0.3664556E+00)
 number of electron     479.9999997 magnetization       1.0000000
 augmentation part      -47.7210931 magnetization      -0.0544545

 Broyden mixing:
  rms(total) = 0.16057E+00    rms(broyden)= 0.16057E+00
  rms(prec ) = 0.17865E+00
  weight for this iteration     100.00

 eigenvalues of (default mixing * dielectric matrix)
  average eigenvalue GAMMA=   1.2378
  1.8360  1.2729  0.6045

 Free energy of the ion-electron system (eV)
  ---------------------------------------------------
  alpha Z        PSCENC =       534.59184046
  Ewald energy   TEWEN  =    -12842.21185894
  -Hartree energ DENC   =     -1392.63772136
  -exchange      EXHF   =         0.00000000
  -V(xc)+E(xc)   XCENC  =      -999.48400590
  PAW double counting   =     38813.65489973   -36867.63581734
  entropy T*S    EENTRO =        -0.00127441
  eigenvalues    EBANDS =      -281.43100612
  atomic energy  EATOM  =     12460.60057749
  Solvation  Ediel_sol  =         0.00000000
  ---------------------------------------------------
  free energy    TOTEN  =      -574.55436638 eV

  energy without entropy =     -574.55309197  energy(sigma->0) =     -574.55372917


--------------------------------------------------------------------------------------------------------




--------------------------------------- Iteration      1(   9)  ---------------------------------------


    POTLOK:  cpu time      0.1986: real time      0.2001
    SETDIJ:  cpu time      1.0841: real time      1.0903
     EDDAV:  cpu time     41.8632: real time     42.2454
       DOS:  cpu time      0.0024: real time      0.0024
    CHARGE:  cpu time      1.7513: real time      1.7643
    MIXING:  cpu time      0.0045: real time      0.0046
    --------------------------------------------
      LOOP:  cpu time     44.9040: real time     45.3071

 eigenvalue-minimisations  : 16480
 total energy-change (2. order) :-0.2929935E-01  (-0.1006942E+00)
 number of electron     479.9999997 magnetization       1.0000000
 augmentation part      -47.7731291 magnetization      -0.0546635

 Broyden mixing:
  rms(total) = 0.11559E+00    rms(broyden)= 0.11559E+00
  rms(prec ) = 0.13915E+00
  weight for this iteration     100.00

 eigenvalues of (default mixing * dielectric matrix)
  average eigenvalue GAMMA=   1.1502
  1.6947  1.6947  0.6625  0.5490

 Free energy of the ion-electron system (eV)
  ---------------------------------------------------
  alpha Z        PSCENC =       534.59184046
  Ewald energy   TEWEN  =    -12842.21185894
  -Hartree energ DENC   =     -1383.69303234
  -exchange      EXHF   =         0.00000000
  -V(xc)+E(xc)   XCENC  =     -1000.28595631
  PAW double counting   =     39431.72701304   -37485.38540861
  entropy T*S    EENTRO =        -0.00142544
  eigenvalues    EBANDS =      -289.92541508
  atomic energy  EATOM  =     12460.60057749
  Solvation  Ediel_sol  =         0.00000000
  ---------------------------------------------------
  free energy    TOTEN  =      -574.58366572 eV

  energy without entropy =     -574.58224028  energy(sigma->0) =     -574.58295300


--------------------------------------------------------------------------------------------------------




--------------------------------------- Iteration      1(  10)  ---------------------------------------


    POTLOK:  cpu time      0.1972: real time      0.2000
    SETDIJ:  cpu time      1.0832: real time      1.0890
     EDDAV:  cpu time     42.4720: real time     42.8615
       DOS:  cpu time      0.0022: real time      0.0022
    CHARGE:  cpu time      1.7563: real time      1.7699
    MIXING:  cpu time      0.0049: real time      0.0050
    --------------------------------------------
      LOOP:  cpu time     45.5158: real time     45.9275

 eigenvalue-minimisations  : 16752
 total energy-change (2. order) : 0.1124530E-01  (-0.2089638E-01)
 number of electron     479.9999997 magnetization       1.0000000
 augmentation part      -47.8067963 magnetization      -0.0545213

 Broyden mixing:
  rms(total) = 0.74810E-01    rms(broyden)= 0.74810E-01
  rms(prec ) = 0.88883E-01
  weight for this iteration     100.00

 eigenvalues of (default mixing * dielectric matrix)
  average eigenvalue GAMMA=   1.0864
  1.7612  1.7612  0.8582  0.5257  0.5257

 Free energy of the ion-electron system (eV)
  ---------------------------------------------------
  alpha Z        PSCENC =       534.59184046
  Ewald energy   TEWEN  =    -12842.21185894
  -Hartree energ DENC   =     -1378.73859473
  -exchange      EXHF   =         0.00000000
  -V(xc)+E(xc)   XCENC  =     -1000.73505008
  PAW double counting   =     39597.09453577   -37650.56335629
  entropy T*S    EENTRO =        -0.00140929
  eigenvalues    EBANDS =      -294.60910482
  atomic energy  EATOM  =     12460.60057749
  Solvation  Ediel_sol  =         0.00000000
  ---------------------------------------------------
  free energy    TOTEN  =      -574.57242042 eV

  energy without entropy =     -574.57101113  energy(sigma->0) =     -574.57171577


--------------------------------------------------------------------------------------------------------




--------------------------------------- Iteration      1(  11)  ---------------------------------------


    POTLOK:  cpu time      0.1978: real time      0.1994
    SETDIJ:  cpu time      1.0812: real time      1.0871
     EDDAV:  cpu time     42.6284: real time     43.0176
       DOS:  cpu time      0.0023: real time      0.0023
    CHARGE:  cpu time      1.7754: real time      1.7880
    MIXING:  cpu time      0.0047: real time      0.0048
    --------------------------------------------
      LOOP:  cpu time     45.6898: real time     46.0992

 eigenvalue-minimisations  : 16808
 total energy-change (2. order) : 0.2011001E-02  (-0.6541436E-02)
 number of electron     479.9999997 magnetization       1.0000000
 augmentation part      -47.8107228 magnetization      -0.0545130

 Broyden mixing:
  rms(total) = 0.47601E-01    rms(broyden)= 0.47601E-01
  rms(prec ) = 0.59105E-01
  weight for this iteration     100.00

 eigenvalues of (default mixing * dielectric matrix)
  average eigenvalue GAMMA=   1.0450
  1.6598  1.6598  1.1599  0.6945  0.6945  0.4014

 Free energy of the ion-electron system (eV)
  ---------------------------------------------------
  alpha Z        PSCENC =       534.59184046
  Ewald energy   TEWEN  =    -12842.21185894
  -Hartree energ DENC   =     -1377.37125685
  -exchange      EXHF   =         0.00000000
  -V(xc)+E(xc)   XCENC  =     -1000.86937048
  PAW double counting   =     39686.57500556   -37739.98989418
  entropy T*S    EENTRO =        -0.00152345
  eigenvalues    EBANDS =      -295.89392902
  atomic energy  EATOM  =     12460.60057749
  Solvation  Ediel_sol  =         0.00000000
  ---------------------------------------------------
  free energy    TOTEN  =      -574.57040942 eV

  energy without entropy =     -574.56888596  energy(sigma->0) =     -574.56964769


--------------------------------------------------------------------------------------------------------




--------------------------------------- Iteration      1(  12)  ---------------------------------------


    POTLOK:  cpu time      0.1970: real time      0.1993
    SETDIJ:  cpu time      1.0794: real time      1.0853
     EDDAV:  cpu time     42.6952: real time     43.0871
       DOS:  cpu time      0.0023: real time      0.0023
    CHARGE:  cpu time      1.7719: real time      1.7842
    MIXING:  cpu time      0.0052: real time      0.0053
    --------------------------------------------
      LOOP:  cpu time     45.7511: real time     46.1634

 eigenvalue-minimisations  : 16752
 total energy-change (2. order) : 0.1125734E-02  (-0.2579018E-02)
 number of electron     479.9999997 magnetization       1.0000000
 augmentation part      -47.8087982 magnetization      -0.0544092

 Broyden mixing:
  rms(total) = 0.29881E-01    rms(broyden)= 0.29881E-01
  rms(prec ) = 0.36943E-01
  weight for this iteration     100.00

 eigenvalues of (default mixing * dielectric matrix)
  average eigenvalue GAMMA=   1.0343
  1.6475  1.5965  1.5965  0.8420  0.6799  0.5325  0.3452

 Free energy of the ion-electron system (eV)
  ---------------------------------------------------
  alpha Z        PSCENC =       534.59184046
  Ewald energy   TEWEN  =    -12842.21185894
  -Hartree energ DENC   =     -1378.12595505
  -exchange      EXHF   =         0.00000000
  -V(xc)+E(xc)   XCENC  =     -1000.82247688
  PAW double counting   =     39691.61875681   -37745.05698719
  entropy T*S    EENTRO =        -0.00155825
  eigenvalues    EBANDS =      -295.16162215
  atomic energy  EATOM  =     12460.60057749
  Solvation  Ediel_sol  =         0.00000000
  ---------------------------------------------------
  free energy    TOTEN  =      -574.56928368 eV

  energy without entropy =     -574.56772543  energy(sigma->0) =     -574.56850456


--------------------------------------------------------------------------------------------------------




--------------------------------------- Iteration      1(  13)  ---------------------------------------


    POTLOK:  cpu time      0.1975: real time      0.1993
    SETDIJ:  cpu time      1.0814: real time      1.0871
     EDDAV:  cpu time     42.2878: real time     42.6684
       DOS:  cpu time      0.0023: real time      0.0023
    CHARGE:  cpu time      1.7731: real time      1.7851
    MIXING:  cpu time      0.0056: real time      0.0056
    --------------------------------------------
      LOOP:  cpu time     45.3477: real time     45.7479

 eigenvalue-minimisations  : 16616
 total energy-change (2. order) : 0.9738667E-03  (-0.6943372E-03)
 number of electron     479.9999997 magnetization       1.0000000
 augmentation part      -47.8086299 magnetization      -0.0544868

 Broyden mixing:
  rms(total) = 0.15658E-01    rms(broyden)= 0.15658E-01
  rms(prec ) = 0.16338E-01
  weight for this iteration     100.00

 eigenvalues of (default mixing * dielectric matrix)
  average eigenvalue GAMMA=   1.1094
  2.0639  2.0639  1.6187  0.7962  0.7962  0.7087  0.4865  0.3409

 Free energy of the ion-electron system (eV)
  ---------------------------------------------------
[...]
   -.462E-01 0.624E+00 0.111E+02   0.103E-01 -.124E+00 -.105E+02   0.113E-01 -.561E-01 -.114E+00   0.265E-05 -.777E-06 0.113E-04
   -.389E-01 0.289E+00 -.105E+02   0.962E-02 -.143E+00 0.105E+02   0.607E-02 -.383E-01 -.491E-01   -.473E-06 -.641E-05 0.395E-05
   -.192E+00 -.899E+00 -.334E+02   -.258E+00 0.101E+01 0.335E+02   0.230E+00 0.238E-01 0.219E-01   -.559E-06 -.130E-04 -.115E-04
   0.186E+00 0.569E+00 -.499E+01   -.153E+00 -.617E+00 0.551E+01   0.142E-01 0.596E-01 -.237E+01   -.599E-06 -.169E-04 -.185E-04
   -.701E+01 0.253E+02 0.422E+02   0.663E+01 -.244E+02 -.407E+02   0.449E+00 -.215E+01 -.966E+00   -.113E-05 0.909E-05 0.419E-04
   -.208E-02 -.102E+01 0.341E+02   -.261E+00 0.176E+01 -.335E+02   0.218E+00 -.225E+00 -.246E+00   -.208E-05 -.725E-06 0.356E-04
   0.182E+00 0.530E+00 0.498E+01   -.153E+00 -.617E+00 -.551E+01   0.484E-01 0.696E-01 0.240E+01   0.103E-05 -.136E-05 0.172E-04
   0.324E-01 0.261E+00 -.107E+02   0.102E-01 -.165E+00 0.105E+02   -.473E-01 0.133E-01 0.218E+00   0.507E-06 0.355E-05 0.759E-06
   -.434E-02 -.102E+01 -.341E+02   -.261E+00 0.176E+01 0.335E+02   0.220E+00 -.233E+00 0.243E+00   -.271E-05 -.874E-05 -.200E-04
   -.456E+01 0.174E+02 -.545E+02   0.326E+01 -.164E+02 0.519E+02   0.539E-01 -.208E+01 0.339E+01   0.214E-05 0.185E-05 -.470E-04
   0.682E+01 -.243E+02 -.405E+02   -.694E+01 0.241E+02 0.393E+02   -.318E+00 0.132E+01 0.157E+00   0.424E-05 0.109E-04 -.380E-04
   -.304E+00 0.436E+00 0.359E+01   0.138E-01 -.366E+00 -.305E+01   -.367E-01 -.501E-01 -.110E+01   -.314E-05 0.140E-05 -.108E-04
   -.434E+00 -.154E+00 0.169E+02   -.146E-01 0.144E+00 -.166E+02   -.622E-02 -.173E-03 -.745E+00   0.195E-05 -.162E-05 -.883E-05
   -.732E+01 0.108E+02 -.405E+02   0.691E+01 -.969E+01 0.398E+02   0.280E+00 -.696E+00 0.598E+00   -.343E-06 0.619E-05 -.336E-04
   0.283E+00 -.389E+00 0.363E+01   -.126E-01 0.334E+00 -.309E+01   0.486E-01 0.436E-01 -.110E+01   -.282E-05 0.895E-05 -.207E-04
   -.186E+01 0.323E+01 0.143E+02   0.308E+00 -.313E+01 -.136E+02   0.810E+00 0.102E-01 -.667E+00   0.586E-05 -.329E-05 -.781E-05
   -.907E-01 0.110E+01 -.341E+02   0.258E+00 -.178E+01 0.335E+02   -.136E+00 0.123E+00 0.996E-01   0.600E-06 0.715E-05 -.827E-05
   0.324E+00 -.642E+00 0.198E+01   -.144E-01 0.366E+00 -.206E+01   -.643E-01 -.570E-01 -.713E+00   0.160E-05 -.401E-05 -.213E-04
   -.464E-01 0.138E+00 0.114E+02   0.121E-01 -.143E+00 -.102E+02   0.198E-01 -.218E-02 -.985E+00   -.129E-05 0.210E-05 0.562E-05
   0.732E+01 -.969E+01 -.408E+02   -.667E+01 0.911E+01 0.402E+02   -.287E+00 0.664E+00 0.612E+00   0.429E-05 -.167E-04 -.455E-04
   -.325E+00 0.284E+00 0.214E+01   0.132E-01 -.334E+00 -.201E+01   0.863E-01 0.956E-02 -.662E+00   0.439E-05 -.557E-05 -.105E-04
   0.987E+00 -.325E+01 0.140E+02   -.304E+00 0.313E+01 -.133E+02   -.910E+00 -.131E-01 -.714E+00   -.340E-06 0.347E-05 -.895E-05
   -.184E+01 0.324E+01 -.143E+02   0.308E+00 -.313E+01 0.136E+02   0.790E+00 -.171E-01 0.666E+00   -.457E-05 0.576E-05 -.284E-04
   0.330E+00 -.283E+00 -.221E+01   -.144E-01 0.366E+00 0.206E+01   -.735E-01 -.369E-01 0.674E+00   0.643E-06 0.407E-05 -.752E-05
   -.998E-01 -.698E+00 0.368E+02   0.350E+00 0.535E+00 -.371E+02   0.948E-01 -.916E-01 -.384E+00   -.612E-06 0.190E-05 0.735E-05
   -.512E-01 0.137E+00 -.114E+02   0.121E-01 -.143E+00 0.102E+02   0.147E-01 -.254E-01 0.987E+00   -.221E-06 -.145E-04 -.217E-04
   -.333E+00 0.253E+00 -.216E+01   0.132E-01 -.334E+00 0.201E+01   0.810E-01 0.627E-02 0.686E+00   -.177E-05 0.620E-05 -.142E-04
   0.605E+01 0.151E+02 0.213E+02   -.520E+01 -.162E+02 -.218E+02   -.298E+00 0.404E+00 0.813E-01   -.973E-06 0.588E-06 0.205E-04
   0.968E+00 -.326E+01 -.140E+02   -.305E+00 0.313E+01 0.133E+02   -.909E+00 -.236E-01 0.718E+00   0.918E-05 -.599E-05 -.135E-04
   -.293E+00 0.424E+00 -.359E+01   0.138E-01 -.366E+00 0.305E+01   -.490E-01 -.615E-01 0.111E+01   0.867E-06 -.210E-05 -.168E-04
   -.337E-01 0.248E+00 0.105E+02   0.962E-02 -.143E+00 -.105E+02   0.297E-02 -.422E-02 0.746E-01   -.111E-06 -.915E-06 0.255E-04
   -.442E+00 -.162E+00 -.169E+02   -.146E-01 0.144E+00 0.166E+02   -.743E-02 -.149E-01 0.744E+00   0.602E-05 0.140E-04 -.158E-04
   0.248E+00 -.687E-01 -.340E+01   -.126E-01 0.334E+00 0.309E+01   0.453E-01 0.913E-01 0.115E+01   -.216E-06 -.673E-05 -.118E-04
   -.573E+01 -.154E+02 0.211E+02   0.508E+01 0.163E+02 -.208E+02   0.307E+00 -.389E+00 0.175E+00   -.102E-06 0.567E-06 0.385E-05
   -.292E-01 0.246E+00 -.105E+02   0.961E-02 -.143E+00 0.105E+02   -.173E-02 0.782E-02 -.186E-01   0.505E-06 -.482E-05 0.246E-05
   0.273E+00 -.716E-01 0.340E+01   -.126E-01 0.334E+00 -.309E+01   0.372E-01 0.118E+00 -.115E+01   0.352E-05 0.754E-05 -.215E-04
   0.704E+01 -.245E+02 0.399E+02   -.694E+01 0.241E+02 -.393E+02   -.309E+00 0.135E+01 -.128E+00   0.115E-05 0.555E-05 0.479E-04
   -.111E+00 -.721E+00 -.368E+02   0.350E+00 0.535E+00 0.371E+02   0.105E+00 -.643E-01 0.377E+00   -.118E-05 0.248E-04 -.311E-04
   -.303E+00 0.257E+00 0.215E+01   0.132E-01 -.334E+00 -.201E+01   0.630E-01 0.368E-01 -.664E+00   -.486E-05 -.600E-05 -.957E-05
   0.182E+01 -.323E+01 0.140E+02   -.304E+00 0.313E+01 -.133E+02   -.794E+00 0.906E-02 -.677E+00   0.310E-05 0.473E-05 -.694E-05
   0.605E+01 0.151E+02 -.213E+02   -.520E+01 -.162E+02 0.218E+02   -.294E+00 0.421E+00 -.856E-01   0.541E-06 0.848E-05 -.318E-04
   -.281E+00 0.424E+00 0.359E+01   0.138E-01 -.366E+00 -.305E+01   -.524E-01 -.323E-01 -.111E+01   0.259E-05 0.844E-06 -.111E-04
   0.449E+00 -.122E+00 0.169E+02   -.146E-01 0.144E+00 -.166E+02   0.616E-01 -.176E-01 -.723E+00   -.174E-05 -.218E-05 -.803E-05
   -.573E+01 -.154E+02 -.211E+02   0.508E+01 0.163E+02 0.208E+02   0.312E+00 -.384E+00 -.180E+00   -.267E-05 -.102E-04 -.171E-04
   0.340E+00 -.285E+00 0.221E+01   -.144E-01 0.366E+00 -.206E+01   -.742E-01 -.669E-02 -.669E+00   -.177E-05 -.485E-05 -.208E-04
   -.560E-01 0.130E+00 0.114E+02   0.121E-01 -.143E+00 -.102E+02   0.294E-01 0.429E-02 -.975E+00   0.103E-05 0.157E-05 0.570E-05
   -.591E-01 0.139E+00 -.114E+02   0.121E-01 -.143E+00 0.102E+02   0.212E-01 -.201E-01 0.985E+00   -.274E-06 -.135E-04 -.221E-04
   -.295E+00 0.284E+00 -.213E+01   0.132E-01 -.334E+00 0.201E+01   0.467E-01 -.290E-03 0.651E+00   0.101E-05 0.693E-05 -.157E-04
   0.681E+01 -.243E+02 0.405E+02   -.694E+01 0.241E+02 -.393E+02   -.302E+00 0.134E+01 -.158E+00   -.643E-06 0.359E-05 0.440E-04
   0.454E+00 -.121E+00 -.169E+02   -.146E-01 0.144E+00 0.166E+02   0.487E-01 -.447E-01 0.736E+00   -.576E-05 0.146E-04 -.153E-04
   0.306E+00 -.391E+00 -.363E+01   -.126E-01 0.334E+00 0.309E+01   0.233E-01 0.266E-01 0.111E+01   0.112E-05 -.863E-05 -.893E-05
   -.980E-01 0.110E+01 0.341E+02   0.258E+00 -.178E+01 -.335E+02   -.118E+00 0.148E+00 -.892E-01   -.726E-06 0.163E-05 0.336E-04
   0.704E+01 -.245E+02 -.399E+02   -.694E+01 0.241E+02 0.393E+02   -.326E+00 0.132E+01 0.132E+00   0.296E-05 0.996E-05 -.454E-04
   0.335E+00 -.648E+00 -.198E+01   -.144E-01 0.366E+00 0.206E+01   -.862E-01 -.669E-01 0.723E+00   0.274E-06 0.788E-06 -.111E-04
   0.732E+01 -.970E+01 0.408E+02   -.667E+01 0.911E+01 -.402E+02   -.274E+00 0.699E+00 -.614E+00   0.502E-05 -.318E-05 0.375E-04
   0.184E+01 -.322E+01 -.140E+02   -.304E+00 0.313E+01 0.133E+02   -.810E+00 -.214E-01 0.687E+00   -.723E-05 -.473E-05 -.140E-04
   -.293E+00 0.437E+00 -.358E+01   0.138E-01 -.366E+00 0.305E+01   -.586E-01 -.658E-01 0.111E+01   -.865E-06 -.507E-06 -.148E-04
   -.734E+01 0.108E+02 0.404E+02   0.691E+01 -.969E+01 -.398E+02   0.305E+00 -.707E+00 -.602E+00   -.284E-05 0.744E-05 0.527E-04
 -----------------------------------------------------------------------------------------------
   -.268E+01 0.383E+01 -.958E-02   -.124E-13 -.551E-13 0.341E-12   0.252E+01 -.402E+01 0.732E-01   -.239E-05 0.321E-04 0.777E-04
 
 
 POSITION                                       TOTAL-FORCE (eV/Angst)
 -----------------------------------------------------------------------------------
      0.77700      3.19890     18.73857         0.129977     -0.235312     -0.073821
      5.59545     13.34415      1.92015         0.057331     -0.299654     -0.246999
      3.67530     10.62865      3.84030        -0.454081      0.225202     -0.031034
      1.75515      7.91315      5.76045         0.004367     -0.095755      0.070165
      7.51559      5.19765      7.68059         0.066580     -0.296984      0.237899
      5.59544      2.48215      9.60074         0.455855     -0.309983     -0.389854
      7.51559      5.19765      0.00000         1.216924      1.018350     -0.856272
      0.77700     11.34540     18.73857        -0.365730      0.447143     -0.167725
      3.67530     16.05965      3.84030         0.004992     -0.107343     -0.069122
      1.75515     13.34415      5.76045         0.007312     -0.081618      0.028273
      2.69715      3.19890     11.66632        -0.358663      0.450538      0.173588
      0.77700     11.34540     13.08077         0.276107      0.153921     -0.200470
      4.61729     15.41865     18.73857         0.322431     -0.255609     -0.207104
      5.59545      7.91315      1.92015         0.179307     -0.459732     -0.568142
      3.67530      5.19765      3.84030         0.022970     -0.090844     -0.021305
      1.75515      2.48215      5.76045         0.479901      0.242702      0.033917
      7.51559     16.05965      7.68059         0.183676     -0.457762      0.561655
      5.59544     13.34415      9.60074         0.151122      1.122038      0.758010
      6.53744      3.19890     17.32412         0.274252      0.143655      0.204114
      1.75515     13.34415      1.92015         0.053639     -0.294030     -0.237128
      7.51559     10.62865      3.84030         0.484128      0.232739     -0.030561
      5.59545      7.91315      5.76044         0.004063     -0.441578      0.540196
      3.67530      5.19765      7.68059         0.058444     -0.291634      0.229961
      6.53744      7.27215     11.66632         0.328551     -0.252779      0.210585
      3.67530      5.19765      0.00000         0.149227      1.126410     -0.755922
      1.75515      2.48215      1.92015         0.039780     -0.187820     -0.075575
      7.51559     16.05965      3.84030         0.007134     -0.447213     -0.538262
      5.59545     13.34415      5.76044         0.019714     -0.087056      0.021202
      3.67530     10.62865      7.68059         0.045247     -0.182957      0.064737
      2.69715     11.34540     11.66632         0.133302     -0.232146      0.076594
      3.67530     10.62866      0.00000         0.444145     -0.308783      0.394460
      1.75515      7.91315      1.92015         0.205450     -0.108743     -0.102666
      7.51559      5.19765      3.84030         0.007337     -0.094916     -0.022996
      5.59545      2.48215      5.76044        -0.452352      0.232459      0.031955
      3.67530     16.05965      7.68059         0.215207     -0.105511      0.093826
      1.75515     13.34415      9.60074         1.221843      1.020834      0.851429
      4.61729      7.27215     18.73857         0.042050      0.010949      1.852087
      3.67530      1.12440      1.92015        -0.516789      0.295616      0.219985
      1.75515     14.70190      3.84030        -0.016125      0.112952     -0.077845
      7.51559     11.98640      5.76045        -0.012215      0.447443     -0.461794
      5.59545      9.27090      7.68059        -0.513538      0.291719     -0.233704
      3.67530      6.55540      9.60074         0.068398     -1.266486     -0.599378
      5.59545      9.27091      0.00000        -1.239073     -1.064509     -0.781154
      3.67530      6.55540      1.92015        -0.189572      0.140216     -0.117820
      1.75515      3.83990      3.84030        -0.002850      0.098597     -0.020837
      2.69715     15.41865     11.66632         0.080202     -0.016207     -1.862370
      5.59545     14.70190      7.68059        -0.189308      0.143317      0.104409
      3.67530     11.98640      9.60074        -0.650791      0.116664      0.057347
      5.59545     14.70191      0.00000        -0.134342     -1.106438      0.082380
      3.67530     11.98640      1.92015        -0.078023      0.160807     -0.086299
      1.75515      9.27090      3.84030        -0.017930      0.109855     -0.026304
      7.51559      6.55540      5.76045        -0.017948      0.119305      0.066061
      5.59545      3.83990      7.68059        -0.076654      0.170203      0.072749
      3.67530      1.12440      9.60074        -0.203306     -1.059030      0.836024
      1.75515      3.83990      0.00000        -0.648346      0.114597     -0.057014
      7.51559      1.12440      1.92015         0.441509      0.285858      0.220841
      5.59544     14.70190      3.84030         0.005534      0.120319     -0.073447
      3.67530     11.98640      5.76044        -0.023675      0.092328      0.010251
      1.75515      9.27090      7.68059         0.440352      0.296302     -0.229380
      7.51559      6.55540      9.60074        -0.131395     -1.101721     -0.083314
      1.75515      9.27091      0.00000        -0.206191     -1.061465     -0.833493
      7.51559      6.55540      1.92015        -0.221237      0.131282     -0.098517
      5.59544      3.83990      3.84030        -0.023291      0.445519      0.452645
      3.67530      1.12440      5.76044        -0.021926      0.109862      0.014453
      1.75515     14.70190      7.68059        -0.218606      0.132698      0.089507
      6.53744     15.41865     11.66632         0.048094      0.013094     -1.849289
      1.75515     14.70191      0.00000         0.067903     -1.270937      0.601720
      7.51559     11.98640      1.92015        -0.043850      0.513204      0.409031
      0.77700      7.27215     18.73857         0.078942     -0.015329      1.865037
      3.67530      6.55540      5.76044        -0.003292      0.110981      0.065615
      1.75515      3.83990      7.68059        -0.044040      0.509398     -0.417509
      7.51559      1.12440      9.60074        -1.238411     -1.060282      0.775877
      1.75515      7.91315      9.60074        -0.443735      1.130847     -1.032167
      0.77700      5.23553     14.49522        -0.325201      0.022416     -0.560529
      6.53744     15.41865     17.32412        -0.453052     -0.008471     -0.434453
      7.51559     11.98640      9.60074        -0.135229      0.445257     -0.073881
      4.61729      9.30878     14.49522         0.320262     -0.009386     -0.562013
      2.69715      3.19890     17.32412        -0.736432      0.110394      0.063172
      7.51559     10.62865      7.68059         0.032163     -0.559739     -0.442262
      0.77700     13.38203     14.49522         0.247026     -0.332118     -0.788952
      6.53744      7.27215     17.32412        -0.013132     -0.005351      0.195176
      1.75515      2.48215      9.60074         0.366275      0.087386      0.029475
      4.61729      1.16228     14.49522        -0.224273     -0.039690     -0.527462
      2.69715     11.34540     17.32412        -0.226410     -0.127730      0.048977
      4.61729     11.34540     13.08077        -0.743015      0.086947     -0.057751
      2.69715      5.23553     15.90967         0.243152      0.046993      0.520980
      0.77700     15.41865     18.73857         0.346478     -0.253157     -0.730909
      0.77700     15.41865     13.08077        -0.023020     -0.029416     -0.197843
      6.53744      9.30878     15.90967        -0.237260     -0.073360      0.536779
      4.61729      3.19890     18.73857         0.550202     -0.689722     -0.506600
      4.61729      3.19890     13.08077        -0.244543     -0.146891     -0.050621
      2.69715     13.38203     15.90967        -0.326777     -0.001886      0.567877
      5.59544      9.27090      3.84030        -0.019767      0.102623      0.017376
      0.77700      7.27215     13.08077        -0.462795     -0.031266      0.432360
      6.53744      1.16228     15.90967         0.281628      0.358473      0.850704
      4.61729     11.34540     18.73857        -0.341864      0.512692      0.450460
      7.51559      1.12440      5.76045        -0.020032      0.112531      0.032929
      0.77700      9.30878     14.49522         0.298468      0.382633     -0.840564
      3.67530     16.05965      0.00000        -0.212766      1.007387      0.452457
      2.69715      7.27215     11.66632         0.345698     -0.248513      0.721690
      0.77700      1.16228     14.49522        -0.225584     -0.039006     -0.524220
      6.53744     11.34540     17.32412         0.723666     -0.085617      0.076159
      6.53744     11.34540     11.66632         0.551790     -0.688117      0.500789
      4.61729      5.23553     14.49522        -0.318044      0.027320     -0.566901
      2.69715     15.41865     17.32412         0.496925      0.005964     -0.426619
      6.53744      3.19890     11.66632        -0.338946      0.514934     -0.464242
      4.61729     13.38203     14.49522         0.252781      0.075069     -0.516103
      2.69715      7.27215     17.32412        -0.013273     -0.007262      0.210616
      4.61729     15.41865     13.08077        -0.024569     -0.022014     -0.196969
      2.69715      9.30878     15.90967        -0.233485     -0.048890      0.530619
      7.51559     16.05965      0.00000        -0.429139      1.148560      1.036236
      4.61729      7.27215     13.08077         0.489143     -0.019294      0.439956
      2.69715      1.16228     15.90967         0.317693     -0.028208      0.566908
      5.59545      2.48215      1.92015         0.043025     -0.530164      0.453355
      5.59544      7.91315      9.60074        -0.227380      0.982035     -0.449815
      6.53744      5.23553     15.90967         0.235456     -0.348074      0.797847
      7.51559     10.62866      0.00000         0.385582      0.109141     -0.026772
      0.77700      3.19890     13.08077         0.723695     -0.109457     -0.066759
      6.53744     13.38203     15.90967        -0.336468      0.007572      0.572717
      5.59545      3.83990      0.00000        -0.124669      0.444718      0.064635
 -----------------------------------------------------------------------------------
    total drift:                               -0.159689     -0.192169      0.063649


--------------------------------------------------------------------------------------------------------



  FREE ENERGIE OF THE ION-ELECTRON SYSTEM (eV)
  ---------------------------------------------------
  free  energy   TOTEN  =      -574.56837832 eV

  energy  without entropy=     -574.56679036  energy(sigma->0) =     -574.56758434
 


--------------------------------------------------------------------------------------------------------


    POTLOK:  cpu time      1.2679: real time      1.2748


--------------------------------------------------------------------------------------------------------


     LOOP+:  cpu time   1182.1957: real time   1193.2240
    4ORBIT:  cpu time      0.0000: real time      0.0000

 total amount of memory used by VASP MPI-rank0   262219. kBytes
=======================================================================

   base      :      30000. kBytes
   nonlr-proj:       6663. kBytes
   fftplans  :      18524. kBytes
   grid      :      14584. kBytes
   one-center:        129. kBytes
   wavefun   :     192319. kBytes
 
  
  
 General timing and accounting informations for this job:
 ========================================================
  
                  Total CPU time used (sec):     1260.191
                            User time (sec):     1189.642
                          System time (sec):       70.549
                         Elapsed time (sec):     1273.922
  
                   Maximum memory used (kb):      537936.
                   Average memory used (kb):          N/A
  
                          Minor page faults:       159702
                          Major page faults:           38
                 Voluntary context switches:         1763
