  72  72   0   0
  0.2340078E+02  0.7680595E-09  0.1629300E-08  0.1346378E-08  0.5000000E-15
  1.000000000000000E-004
  CAR 
 Si and Ge interface calculation         
      6.77056676     -9.68200479  301      3.72816068      1.00000000
     -9.682  0.0000E+00  0.0000E+00  0.0000E+00  0.0000E+00
     -9.627  0.0000E+00  0.0000E+00  0.0000E+00  0.0000E+00
     -9.572  0.0000E+00  0.0000E+00  0.0000E+00  0.0000E+00
     -9.517  0.0000E+00  0.0000E+00  0.0000E+00  0.0000E+00
     -9.463  0.0000E+00  0.0000E+00  0.0000E+00  0.0000E+00
     -9.408  0.0000E+00  0.0000E+00  0.0000E+00  0.0000E+00
     -9.353  0.0000E+00  0.0000E+00  0.0000E+00  0.0000E+00
     -9.298  0.0000E+00  0.0000E+00  0.0000E+00  0.0000E+00
     -9.243  0.0000E+00  0.0000E+00  0.0000E+00  0.0000E+00
     -9.188  0.0000E+00  0.0000E+00  0.0000E+00  0.0000E+00
     -9.134  0.0000E+00  0.0000E+00  0.0000E+00  0.0000E+00
     -9.079  0.0000E+00  0.0000E+00  0.0000E+00  0.0000E+00
     -9.024  0.0000E+00  0.0000E+00  0.0000E+00  0.0000E+00
     -8.969  0.9110E-06  0.2253E-08  0.4996E-07  0.1235E-09
     -8.914  0.2473E+01  0.2207E+01  0.1356E+00  0.1211E+00
     -8.859  0.5469E+01  0.4953E+01  0.4355E+00  0.3927E+00
     -8.805  0.1640E+01  0.2001E+01  0.5255E+00  0.5024E+00
     -8.750  0.1165E+02  0.9831E+01  0.1165E+01  0.1042E+01
     -8.695  0.1067E+02  0.1282E+02  0.1750E+01  0.1745E+01
     -8.640  0.3014E-02  0.9916E-01  0.1750E+01  0.1750E+01
     -8.585  0.4526E+01  0.2218E+01  0.1998E+01  0.1872E+01
     -8.530  0.9153E+01  0.1139E+02  0.2500E+01  0.2496E+01
     -8.475  0.4555E+01  0.4628E+01  0.2750E+01  0.2750E+01
     -8.421  0.4448E+01  0.6725E+00  0.2994E+01  0.2787E+01
     -8.366  0.1794E+02  0.1787E+02  0.3978E+01  0.3767E+01
     -8.311  0.1832E+02  0.1888E+02  0.4983E+01  0.4802E+01
     -8.256  0.9154E+01  0.1089E+02  0.5485E+01  0.5399E+01
     -8.201  0.3078E+01  0.4122E+01  0.5654E+01  0.5625E+01
     -8.146  0.1936E+02  0.1843E+02  0.6716E+01  0.6636E+01
     -8.092  0.1202E+02  0.1333E+02  0.7375E+01  0.7367E+01
     -8.037  0.3350E+01  0.2472E+01  0.7559E+01  0.7502E+01
     -7.982  0.1717E+02  0.1804E+02  0.8500E+01  0.8492E+01
     -7.927  0.1331E+02  0.1200E+02  0.9230E+01  0.9150E+01
     -7.872  0.6594E+01  0.5532E+01  0.9592E+01  0.9453E+01
     -7.817  0.6331E+01  0.5868E+01  0.9939E+01  0.9775E+01
     -7.763  0.1549E+02  0.1593E+02  0.1079E+02  0.1065E+02
     -7.708  0.3274E+02  0.3238E+02  0.1258E+02  0.1242E+02
     -7.653  0.2064E+02  0.2194E+02  0.1372E+02  0.1363E+02
     -7.598  0.1427E+02  0.1552E+02  0.1450E+02  0.1448E+02
     -7.543  0.1238E+02  0.9102E+01  0.1518E+02  0.1498E+02
     -7.488  0.1499E+02  0.1862E+02  0.1600E+02  0.1600E+02
     -7.433  0.1133E+02  0.6231E+01  0.1662E+02  0.1634E+02
     -7.379  0.1225E+02  0.1394E+02  0.1729E+02  0.1711E+02
     -7.324  0.1503E+02  0.1345E+02  0.1812E+02  0.1784E+02
     -7.269  0.3347E+02  0.3195E+02  0.1995E+02  0.1959E+02
     -7.214  0.2935E+02  0.3439E+02  0.2156E+02  0.2148E+02
     -7.159  0.1591E+02  0.1328E+02  0.2244E+02  0.2221E+02
     -7.104  0.2954E+02  0.2815E+02  0.2406E+02  0.2375E+02
     -7.050  0.2091E+02  0.2169E+02  0.2520E+02  0.2494E+02
     -6.995  0.1606E+02  0.1547E+02  0.2608E+02  0.2579E+02
     -6.940  0.2527E+02  0.2909E+02  0.2747E+02  0.2739E+02
     -6.885  0.2978E+02  0.2846E+02  0.2910E+02  0.2895E+02
     -6.830  0.1400E+02  0.1447E+02  0.2987E+02  0.2974E+02
     -6.775  0.2362E+02  0.2194E+02  0.3117E+02  0.3094E+02
     -6.721  0.1871E+02  0.2041E+02  0.3219E+02  0.3206E+02
     -6.666  0.3848E+02  0.3784E+02  0.3430E+02  0.3414E+02
     -6.611  0.3136E+02  0.2868E+02  0.3602E+02  0.3571E+02
     -6.556  0.1818E+02  0.2095E+02  0.3702E+02  0.3686E+02
     -6.501  0.1337E+02  0.1238E+02  0.3775E+02  0.3754E+02
     -6.446  0.3074E+02  0.2627E+02  0.3944E+02  0.3898E+02
     -6.391  0.2463E+02  0.3015E+02  0.4079E+02  0.4063E+02
     -6.337  0.1704E+02  0.1457E+02  0.4172E+02  0.4143E+02
     -6.282  0.2310E+02  0.2231E+02  0.4299E+02  0.4266E+02
     -6.227  0.2324E+02  0.2217E+02  0.4426E+02  0.4387E+02
     -6.172  0.1357E+02  0.2050E+02  0.4501E+02  0.4500E+02
     -6.117  0.2130E+02  0.1676E+02  0.4618E+02  0.4592E+02
     -6.062  0.1368E+02  0.1536E+02  0.4693E+02  0.4676E+02
     -6.008  0.1962E+02  0.1473E+02  0.4800E+02  0.4757E+02
     -5.953  0.2378E+02  0.3067E+02  0.4931E+02  0.4925E+02
     -5.898  0.1437E+02  0.9272E+01  0.5009E+02  0.4976E+02
     -5.843  0.2193E+02  0.2620E+02  0.5130E+02  0.5119E+02
     -5.788  0.4572E+02  0.4243E+02  0.5380E+02  0.5352E+02
     -5.733  0.2216E+02  0.2003E+02  0.5502E+02  0.5462E+02
     -5.679  0.7795E+01  0.1192E+02  0.5545E+02  0.5527E+02
     -5.624  0.1258E+02  0.1358E+02  0.5614E+02  0.5602E+02
     -5.569  0.1963E+02  0.1519E+02  0.5721E+02  0.5685E+02
     -5.514  0.1571E+02  0.1513E+02  0.5808E+02  0.5768E+02
     -5.459  0.1544E+02  0.1562E+02  0.5892E+02  0.5854E+02
     -5.404  0.1207E+02  0.1016E+02  0.5958E+02  0.5909E+02
     -5.349  0.1180E+02  0.1834E+02  0.6023E+02  0.6010E+02
     -5.295  0.1366E+02  0.1379E+02  0.6098E+02  0.6086E+02
     -5.240  0.1597E+02  0.1281E+02  0.6186E+02  0.6156E+02
     -5.185  0.1415E+02  0.1736E+02  0.6263E+02  0.6251E+02
     -5.130  0.2340E+02  0.2010E+02  0.6392E+02  0.6361E+02
     -5.075  0.1672E+02  0.1973E+02  0.6483E+02  0.6470E+02
     -5.020  0.2886E+02  0.2206E+02  0.6642E+02  0.6590E+02
     -4.966  0.1175E+02  0.1839E+02  0.6706E+02  0.6691E+02
     -4.911  0.1450E+02  0.1437E+02  0.6785E+02  0.6770E+02
     -4.856  0.1176E+02  0.1453E+02  0.6850E+02  0.6850E+02
     -4.801  0.4351E+01  0.1912E+01  0.6874E+02  0.6860E+02
     -4.746  0.1539E+02  0.1136E+02  0.6958E+02  0.6923E+02
     -4.691  0.7349E+01  0.8519E+01  0.6999E+02  0.6969E+02
     -4.637  0.1283E+02  0.1113E+02  0.7069E+02  0.7030E+02
     -4.582  0.2226E+02  0.2480E+02  0.7191E+02  0.7166E+02
     -4.527  0.2484E+02  0.1963E+02  0.7327E+02  0.7274E+02
     -4.472  0.1223E+02  0.1456E+02  0.7394E+02  0.7354E+02
     -4.417  0.2642E+02  0.2442E+02  0.7539E+02  0.7488E+02
     -4.362  0.1815E+02  0.2372E+02  0.7639E+02  0.7618E+02
     -4.307  0.3147E+02  0.3248E+02  0.7811E+02  0.7796E+02
     -4.253  0.7916E+01  0.9907E+01  0.7855E+02  0.7850E+02
     -4.198  0.2718E+02  0.2009E+02  0.8004E+02  0.7961E+02
     -4.143  0.2043E+02  0.2595E+02  0.8116E+02  0.8103E+02
     -4.088  0.2867E+02  0.2602E+02  0.8273E+02  0.8246E+02
     -4.033  0.1641E+02  0.1915E+02  0.8363E+02  0.8351E+02
     -3.978  0.1581E+02  0.1778E+02  0.8450E+02  0.8448E+02
     -3.924  0.4946E+01  0.4176E+01  0.8477E+02  0.8471E+02
     -3.869  0.2555E+02  0.1871E+02  0.8617E+02  0.8574E+02
     -3.814  0.8306E+01  0.1621E+02  0.8663E+02  0.8662E+02
     -3.759  0.2312E+02  0.2127E+02  0.8789E+02  0.8779E+02
     -3.704  0.2273E+02  0.2313E+02  0.8914E+02  0.8906E+02
     -3.649  0.1358E+02  0.1152E+02  0.8989E+02  0.8969E+02
     -3.595  0.1144E+02  0.1399E+02  0.9051E+02  0.9046E+02
     -3.540  0.2185E+02  0.1820E+02  0.9171E+02  0.9146E+02
     -3.485  0.3128E+02  0.2949E+02  0.9343E+02  0.9307E+02
     -3.430  0.3039E+02  0.2866E+02  0.9509E+02  0.9465E+02
     -3.375  0.3247E+02  0.3063E+02  0.9687E+02  0.9633E+02
     -3.320  0.2629E+02  0.3029E+02  0.9832E+02  0.9799E+02
     -3.266  0.2939E+02  0.2957E+02  0.9993E+02  0.9961E+02
     -3.211  0.2495E+02  0.2785E+02  0.1013E+03  0.1011E+03
     -3.156  0.3727E+01  0.6647E+01  0.1015E+03  0.1015E+03
     -3.101  0.1223E+02  0.7206E+01  0.1022E+03  0.1019E+03
     -3.046  0.4548E+02  0.4478E+02  0.1047E+03  0.1044E+03
     -2.991  0.2598E+02  0.2570E+02  0.1061E+03  0.1058E+03
     -2.936  0.9392E+01  0.1143E+02  0.1066E+03  0.1064E+03
     -2.882  0.1967E+02  0.1961E+02  0.1077E+03  0.1075E+03
     -2.827  0.2007E+02  0.1909E+02  0.1088E+03  0.1085E+03
     -2.772  0.7853E+01  0.1127E+02  0.1092E+03  0.1091E+03
     -2.717  0.1542E+02  0.1107E+02  0.1101E+03  0.1097E+03
     -2.662  0.1940E+02  0.2435E+02  0.1111E+03  0.1111E+03
     -2.607  0.3011E+01  0.1243E+01  0.1113E+03  0.1111E+03
     -2.553  0.1855E+02  0.1741E+02  0.1123E+03  0.1121E+03
     -2.498  0.1301E+02  0.9305E+01  0.1130E+03  0.1126E+03
     -2.443  0.1410E+02  0.2091E+02  0.1138E+03  0.1138E+03
     -2.388  0.1596E+02  0.1213E+02  0.1147E+03  0.1144E+03
     -2.333  0.2442E+02  0.2260E+02  0.1160E+03  0.1157E+03
     -2.278  0.2161E+02  0.2315E+02  0.1172E+03  0.1169E+03
     -2.224  0.2278E+02  0.2166E+02  0.1184E+03  0.1181E+03
     -2.169  0.1890E+02  0.2116E+02  0.1195E+03  0.1193E+03
     -2.114  0.6495E+01  0.8797E+01  0.1198E+03  0.1198E+03
     -2.059  0.1707E+02  0.1723E+02  0.1208E+03  0.1207E+03
     -2.004  0.1728E+02  0.1605E+02  0.1217E+03  0.1216E+03
     -1.949  0.2835E+02  0.2172E+02  0.1233E+03  0.1228E+03
     -1.894  0.1050E+02  0.1639E+02  0.1238E+03  0.1237E+03
     -1.840  0.2242E+01  0.3773E+01  0.1240E+03  0.1239E+03
     -1.785  0.1101E+02  0.9944E+01  0.1246E+03  0.1244E+03
     -1.730  0.1739E+02  0.1821E+02  0.1255E+03  0.1254E+03
     -1.675  0.6470E+01  0.7767E+01  0.1259E+03  0.1258E+03
     -1.620  0.4371E+01  0.5049E+01  0.1261E+03  0.1261E+03
     -1.565  0.2107E+02  0.1104E+02  0.1273E+03  0.1267E+03
     -1.511  0.2425E+02  0.3172E+02  0.1286E+03  0.1285E+03
     -1.456  0.9226E+01  0.8556E+01  0.1291E+03  0.1289E+03
     -1.401  0.1804E+02  0.1538E+02  0.1301E+03  0.1298E+03
     -1.346  0.1143E+02  0.1079E+02  0.1307E+03  0.1304E+03
     -1.291  0.2814E+01  0.9122E+01  0.1309E+03  0.1309E+03
     -1.236  0.1106E+02  0.9092E+01  0.1315E+03  0.1314E+03
     -1.182  0.3799E+02  0.3184E+02  0.1336E+03  0.1331E+03
     -1.127  0.3992E+01  0.9538E+01  0.1338E+03  0.1336E+03
     -1.072  0.1431E+02  0.1507E+02  0.1346E+03  0.1345E+03
     -1.017  0.7101E+01  0.5152E+01  0.1350E+03  0.1348E+03
     -0.962  0.4507E+01  0.6699E+01  0.1352E+03  0.1351E+03
     -0.907  0.5990E+00  0.2390E+01  0.1353E+03  0.1353E+03
     -0.852  0.4542E+01  0.3753E+01  0.1355E+03  0.1355E+03
     -0.798  0.7309E+01  0.3604E+01  0.1359E+03  0.1357E+03
     -0.743  0.2044E+02  0.1790E+02  0.1370E+03  0.1366E+03
     -0.688  0.1393E+02  0.2014E+02  0.1378E+03  0.1377E+03
     -0.633  0.2361E+02  0.1678E+02  0.1391E+03  0.1387E+03
     -0.578  0.3643E+02  0.3856E+02  0.1411E+03  0.1408E+03
     -0.523  0.1454E+02  0.1932E+02  0.1419E+03  0.1418E+03
     -0.469  0.1608E+02  0.1167E+02  0.1428E+03  0.1425E+03
     -0.414  0.4629E+02  0.4531E+02  0.1453E+03  0.1450E+03
     -0.359  0.1266E+02  0.1130E+02  0.1460E+03  0.1456E+03
     -0.304  0.4110E+02  0.3861E+02  0.1482E+03  0.1477E+03
     -0.249  0.2724E+02  0.2878E+02  0.1497E+03  0.1493E+03
     -0.194  0.3990E+02  0.3919E+02  0.1519E+03  0.1514E+03
     -0.140  0.4548E+02  0.4840E+02  0.1544E+03  0.1541E+03
     -0.085  0.2289E+02  0.2244E+02  0.1557E+03  0.1553E+03
     -0.030  0.4476E+02  0.4443E+02  0.1581E+03  0.1577E+03
      0.025  0.3889E+02  0.3992E+02  0.1603E+03  0.1599E+03
      0.080  0.3460E+02  0.2461E+02  0.1622E+03  0.1613E+03
      0.135  0.4208E+02  0.4523E+02  0.1645E+03  0.1638E+03
      0.190  0.3973E+02  0.4511E+02  0.1666E+03  0.1662E+03
      0.244  0.4534E+02  0.4564E+02  0.1691E+03  0.1687E+03
      0.299  0.2824E+02  0.2510E+02  0.1707E+03  0.1701E+03
      0.354  0.3497E+02  0.3592E+02  0.1726E+03  0.1721E+03
      0.409  0.4667E+02  0.4982E+02  0.1752E+03  0.1748E+03
      0.464  0.3100E+02  0.2976E+02  0.1769E+03  0.1765E+03
      0.519  0.5672E+02  0.5548E+02  0.1800E+03  0.1795E+03
      0.573  0.3685E+02  0.3641E+02  0.1820E+03  0.1815E+03
      0.628  0.4277E+02  0.4257E+02  0.1843E+03  0.1838E+03
      0.683  0.5634E+02  0.5309E+02  0.1874E+03  0.1867E+03
      0.738  0.3034E+02  0.3861E+02  0.1891E+03  0.1889E+03
      0.793  0.3424E+02  0.3342E+02  0.1910E+03  0.1907E+03
      0.848  0.2351E+02  0.2150E+02  0.1923E+03  0.1919E+03
      0.902  0.5423E+02  0.4880E+02  0.1952E+03  0.1945E+03
      0.957  0.3524E+02  0.4049E+02  0.1972E+03  0.1968E+03
      1.012  0.4033E+02  0.4475E+02  0.1994E+03  0.1992E+03
      1.067  0.4436E+02  0.4110E+02  0.2018E+03  0.2015E+03
      1.122  0.2468E+02  0.2163E+02  0.2032E+03  0.2027E+03
      1.177  0.3489E+02  0.3525E+02  0.2051E+03  0.2046E+03
      1.232  0.3777E+02  0.3964E+02  0.2071E+03  0.2068E+03
      1.286  0.5146E+02  0.4799E+02  0.2100E+03  0.2094E+03
      1.341  0.5165E+02  0.5022E+02  0.2128E+03  0.2122E+03
      1.396  0.4678E+02  0.4936E+02  0.2154E+03  0.2149E+03
      1.451  0.4362E+02  0.3870E+02  0.2178E+03  0.2170E+03
      1.506  0.4332E+02  0.4774E+02  0.2201E+03  0.2196E+03
      1.561  0.4591E+02  0.4061E+02  0.2227E+03  0.2218E+03
      1.615  0.4564E+02  0.5291E+02  0.2252E+03  0.2247E+03
      1.670  0.3425E+02  0.3271E+02  0.2270E+03  0.2265E+03
      1.725  0.4311E+02  0.4913E+02  0.2294E+03  0.2292E+03
      1.780  0.4907E+02  0.3557E+02  0.2321E+03  0.2312E+03
      1.835  0.4329E+02  0.5456E+02  0.2345E+03  0.2342E+03
      1.890  0.4250E+02  0.3516E+02  0.2368E+03  0.2361E+03
      1.944  0.3688E+02  0.3890E+02  0.2388E+03  0.2382E+03
      1.999  0.4258E+02  0.3930E+02  0.2412E+03  0.2404E+03
      2.054  0.4483E+02  0.4526E+02  0.2436E+03  0.2429E+03
      2.109  0.2630E+02  0.3457E+02  0.2451E+03  0.2448E+03
      2.164  0.3831E+02  0.4029E+02  0.2472E+03  0.2470E+03
      2.219  0.2925E+02  0.2570E+02  0.2488E+03  0.2484E+03
      2.274  0.2593E+02  0.2705E+02  0.2502E+03  0.2499E+03
      2.328  0.4769E+02  0.4356E+02  0.2528E+03  0.2522E+03
      2.383  0.2782E+02  0.3235E+02  0.2543E+03  0.2540E+03
      2.438  0.4123E+02  0.4006E+02  0.2566E+03  0.2562E+03
      2.493  0.3253E+02  0.3711E+02  0.2584E+03  0.2583E+03
      2.548  0.3290E+02  0.3141E+02  0.2602E+03  0.2600E+03
      2.603  0.3055E+02  0.2548E+02  0.2618E+03  0.2614E+03
      2.657  0.2581E+02  0.3057E+02  0.2633E+03  0.2630E+03
      2.712  0.1508E+02  0.1475E+02  0.2641E+03  0.2639E+03
      2.767  0.2520E+02  0.2421E+02  0.2655E+03  0.2652E+03
      2.822  0.2302E+02  0.2622E+02  0.2667E+03  0.2666E+03
      2.877  0.3237E+02  0.1228E+02  0.2685E+03  0.2673E+03
      2.932  0.2751E+02  0.4280E+02  0.2700E+03  0.2696E+03
      2.986  0.2496E+02  0.2462E+02  0.2714E+03  0.2710E+03
      3.041  0.1186E+02  0.1383E+02  0.2720E+03  0.2718E+03
      3.096  0.3223E+02  0.3444E+02  0.2738E+03  0.2736E+03
      3.151  0.2117E+02  0.1027E+02  0.2750E+03  0.2742E+03
      3.206  0.1244E+02  0.2205E+02  0.2757E+03  0.2754E+03
      3.261  0.2073E+02  0.1909E+02  0.2768E+03  0.2765E+03
      3.316  0.2310E+02  0.1552E+02  0.2781E+03  0.2773E+03
      3.370  0.2638E+02  0.2784E+02  0.2795E+03  0.2788E+03
      3.425  0.1688E+02  0.1894E+02  0.2804E+03  0.2799E+03
      3.480  0.1813E+02  0.2484E+02  0.2814E+03  0.2812E+03
      3.535  0.2832E+02  0.1545E+02  0.2830E+03  0.2821E+03
      3.590  0.1485E+02  0.2064E+02  0.2838E+03  0.2832E+03
      3.645  0.3282E+02  0.2426E+02  0.2856E+03  0.2845E+03
      3.699  0.2776E+02  0.3169E+02  0.2871E+03  0.2863E+03
      3.754  0.2953E+02  0.2747E+02  0.2887E+03  0.2878E+03
      3.809  0.2061E+02  0.2669E+02  0.2899E+03  0.2893E+03
      3.864  0.2399E+02  0.2650E+02  0.2912E+03  0.2907E+03
      3.919  0.3434E+02  0.3016E+02  0.2931E+03  0.2924E+03
      3.974  0.2252E+02  0.2947E+02  0.2943E+03  0.2940E+03
      4.028  0.3355E+02  0.1814E+02  0.2961E+03  0.2950E+03
      4.083  0.2101E+02  0.3046E+02  0.2973E+03  0.2966E+03
      4.138  0.2763E+02  0.2639E+02  0.2988E+03  0.2981E+03
      4.193  0.5057E+02  0.4268E+02  0.3016E+03  0.3004E+03
      4.248  0.1571E+02  0.2963E+02  0.3024E+03  0.3021E+03
      4.303  0.1510E+02  0.1065E+02  0.3033E+03  0.3026E+03
      4.358  0.4969E+02  0.4180E+02  0.3060E+03  0.3049E+03
      4.412  0.1479E+02  0.2654E+02  0.3068E+03  0.3064E+03
      4.467  0.3119E+02  0.2992E+02  0.3085E+03  0.3080E+03
      4.522  0.3046E+02  0.2241E+02  0.3102E+03  0.3093E+03
      4.577  0.2897E+02  0.3069E+02  0.3118E+03  0.3109E+03
      4.632  0.2709E+02  0.3304E+02  0.3133E+03  0.3128E+03
      4.687  0.2398E+02  0.2733E+02  0.3146E+03  0.3143E+03
      4.741  0.2961E+02  0.2697E+02  0.3162E+03  0.3157E+03
      4.796  0.2752E+02  0.2851E+02  0.3177E+03  0.3173E+03
      4.851  0.3109E+02  0.2567E+02  0.3194E+03  0.3187E+03
      4.906  0.2720E+02  0.2792E+02  0.3209E+03  0.3202E+03
      4.961  0.4073E+02  0.3995E+02  0.3231E+03  0.3224E+03
      5.016  0.2894E+02  0.3288E+02  0.3247E+03  0.3242E+03
      5.070  0.3016E+02  0.2804E+02  0.3264E+03  0.3258E+03
      5.125  0.3421E+02  0.4024E+02  0.3283E+03  0.3280E+03
      5.180  0.2964E+02  0.2592E+02  0.3299E+03  0.3294E+03
      5.235  0.3445E+02  0.2999E+02  0.3318E+03  0.3310E+03
      5.290  0.3163E+02  0.2933E+02  0.3335E+03  0.3327E+03
      5.345  0.2764E+02  0.3790E+02  0.3350E+03  0.3347E+03
      5.400  0.2357E+02  0.2327E+02  0.3363E+03  0.3360E+03
      5.454  0.3606E+02  0.2415E+02  0.3383E+03  0.3373E+03
      5.509  0.3741E+02  0.4372E+02  0.3403E+03  0.3397E+03
      5.564  0.2003E+02  0.2386E+02  0.3414E+03  0.3410E+03
      5.619  0.4085E+02  0.3493E+02  0.3437E+03  0.3430E+03
      5.674  0.3252E+02  0.3933E+02  0.3455E+03  0.3451E+03
      5.729  0.2019E+02  0.2183E+02  0.3466E+03  0.3463E+03
      5.783  0.2241E+02  0.2178E+02  0.3478E+03  0.3475E+03
      5.838  0.2812E+02  0.2341E+02  0.3493E+03  0.3488E+03
      5.893  0.2002E+02  0.2421E+02  0.3504E+03  0.3501E+03
      5.948  0.2013E+02  0.2351E+02  0.3515E+03  0.3514E+03
      6.003  0.6178E+01  0.6567E+01  0.3519E+03  0.3518E+03
      6.058  0.2169E+01  0.4365E+01  0.3520E+03  0.3520E+03
      6.112  0.0000E+00  0.0000E+00  0.3520E+03  0.3520E+03
      6.167  0.0000E+00  0.0000E+00  0.3520E+03  0.3520E+03
      6.222  0.0000E+00  0.0000E+00  0.3520E+03  0.3520E+03
      6.277  0.0000E+00  0.0000E+00  0.3520E+03  0.3520E+03
      6.332  0.0000E+00  0.0000E+00  0.3520E+03  0.3520E+03
      6.387  0.0000E+00  0.0000E+00  0.3520E+03  0.3520E+03
      6.442  0.0000E+00  0.0000E+00  0.3520E+03  0.3520E+03
      6.496  0.0000E+00  0.0000E+00  0.3520E+03  0.3520E+03
      6.551  0.0000E+00  0.0000E+00  0.3520E+03  0.3520E+03
      6.606  0.0000E+00  0.0000E+00  0.3520E+03  0.3520E+03
      6.661  0.0000E+00  0.0000E+00  0.3520E+03  0.3520E+03
      6.716  0.0000E+00  0.0000E+00  0.3520E+03  0.3520E+03
      6.771  0.0000E+00  0.0000E+00  0.3520E+03  0.3520E+03
