       N       E                     dE             d eps       ncg     rms          rms(c)
DAV:   1     0.345440233385E+04    0.34544E+04   -0.28041E+05  6464   0.168E+03
DAV:   2    -0.262666972195E+03   -0.37171E+04   -0.35934E+04  7616   0.199E+02
DAV:   3    -0.669601512283E+03   -0.40693E+03   -0.39588E+03  7936   0.647E+01
DAV:   4    -0.685825765239E+03   -0.16224E+02   -0.15951E+02  7832   0.128E+01
DAV:   5    -0.686485723361E+03   -0.65996E+00   -0.65532E+00  8568   0.224E+00    0.295E+01
DAV:   6    -0.677199134053E+03    0.92866E+01   -0.23459E+01 10176   0.923E+00    0.146E+01
DAV:   7    -0.680173446816E+03   -0.29743E+01   -0.36898E+01  9344   0.136E+01    0.711E+00
DAV:   8    -0.675496606675E+03    0.46768E+01   -0.19522E+01 10368   0.963E+00    0.310E+00
DAV:   9    -0.675016769897E+03    0.47984E+00   -0.71001E+00  8296   0.454E+00    0.180E+00
DAV:  10    -0.674995899817E+03    0.20870E-01   -0.18495E+00  7352   0.189E+00    0.115E+00
DAV:  11    -0.674987524911E+03    0.83749E-02   -0.33136E-01  8184   0.654E-01    0.579E-01
DAV:  12    -0.674989355864E+03   -0.18310E-02   -0.79875E-02  7552   0.376E-01    0.202E-01
DAV:  13    -0.674990581887E+03   -0.12260E-02   -0.12759E-02  7392   0.139E-01    0.116E-01
DAV:  14    -0.674990916923E+03   -0.33504E-03   -0.16619E-03  7648   0.511E-02    0.739E-02
DAV:  15    -0.674990980602E+03   -0.63680E-04   -0.27225E-04  7680   0.224E-02    0.441E-02
DAV:  16    -0.674991041596E+03   -0.60994E-04   -0.15908E-04  7176   0.164E-02    0.207E-02
DAV:  17    -0.674991056194E+03   -0.14598E-04   -0.35972E-05  7352   0.976E-03    0.141E-02
DAV:  18    -0.674991057029E+03   -0.83537E-06   -0.76658E-06  7744   0.395E-03    0.105E-02
DAV:  19    -0.674991058373E+03   -0.13434E-05   -0.37069E-06  7856   0.269E-03    0.815E-03
DAV:  20    -0.674991060973E+03   -0.26003E-05   -0.19654E-06  7600   0.198E-03    0.638E-03
DAV:  21    -0.674991063291E+03   -0.23182E-05   -0.11728E-06  7576   0.170E-03    0.495E-03
DAV:  22    -0.674991064541E+03   -0.12498E-05   -0.12373E-06  7544   0.173E-03    0.316E-03
DAV:  23    -0.674991065162E+03   -0.62060E-06   -0.59324E-07  6464   0.125E-03    0.151E-03
DAV:  24    -0.674991065655E+03   -0.49360E-06   -0.25922E-07  4648   0.734E-04    0.721E-04
DAV:  25    -0.674991065891E+03   -0.23553E-06   -0.96078E-08  3976   0.427E-04    0.436E-04
DAV:  26    -0.674991065913E+03   -0.22519E-07   -0.24997E-08  3864   0.218E-04
   1 F= -.67499107E+03 E0= -.67499010E+03  d E =-.192587E-02  mag=     1.0000
