 120 120   0   0
  0.8293658E+01  0.1330318E-08  0.1629300E-08  0.5029924E-09  0.5000000E-15
  1.000000000000000E-004
  CAR 
 Si and Ge interface calculation         
     14.50343367    -13.55233264  301      9.61697411      1.00000000
    -13.552  0.0000E+00  0.0000E+00  0.0000E+00  0.0000E+00
    -13.459  0.0000E+00  0.0000E+00  0.0000E+00  0.0000E+00
    -13.365  0.0000E+00  0.0000E+00  0.0000E+00  0.0000E+00
    -13.272  0.0000E+00  0.0000E+00  0.0000E+00  0.0000E+00
    -13.178  0.0000E+00  0.0000E+00  0.0000E+00  0.0000E+00
    -13.085  0.0000E+00  0.0000E+00  0.0000E+00  0.0000E+00
    -12.991  0.0000E+00  0.0000E+00  0.0000E+00  0.0000E+00
    -12.898  0.0000E+00  0.0000E+00  0.0000E+00  0.0000E+00
    -12.804  0.0000E+00  0.0000E+00  0.0000E+00  0.0000E+00
    -12.711  0.0000E+00  0.0000E+00  0.0000E+00  0.0000E+00
    -12.617  0.0000E+00  0.0000E+00  0.0000E+00  0.0000E+00
    -12.524  0.0000E+00  0.0000E+00  0.0000E+00  0.0000E+00
    -12.430  0.0000E+00  0.0000E+00  0.0000E+00  0.0000E+00
    -12.337  0.0000E+00  0.0000E+00  0.0000E+00  0.0000E+00
    -12.243  0.4101E+01  0.3020E+01  0.3835E+00  0.2824E+00
    -12.150  0.1924E+02  0.1761E+02  0.2356E+01  0.2202E+01
    -12.056  0.1334E+02  0.1278E+02  0.3915E+01  0.3862E+01
    -11.963  0.9605E+00  0.5377E+00  0.4090E+01  0.4050E+01
    -11.869  0.1683E+02  0.1482E+02  0.5741E+01  0.5552E+01
    -11.775  0.1798E+02  0.1855E+02  0.7685E+01  0.7625E+01
    -11.682  0.1188E+01  0.3546E+01  0.8000E+01  0.8000E+01
    -11.588  0.0000E+00  0.0000E+00  0.8000E+01  0.8000E+01
    -11.495  0.0000E+00  0.0000E+00  0.8000E+01  0.8000E+01
    -11.401  0.5831E-09  0.5522E-12  0.8000E+01  0.8000E+01
    -11.308  0.2220E+01  0.1876E+01  0.8208E+01  0.8175E+01
    -11.214  0.9593E+01  0.8537E+01  0.9177E+01  0.9076E+01
    -11.121  0.1684E+02  0.1639E+02  0.1096E+02  0.1087E+02
    -11.027  0.1251E+02  0.1337E+02  0.1245E+02  0.1236E+02
    -10.934  0.2433E+02  0.2798E+02  0.1511E+02  0.1507E+02
    -10.840  0.1022E+02  0.9363E+01  0.1612E+02  0.1604E+02
    -10.747  0.1596E+02  0.1507E+02  0.1766E+02  0.1758E+02
    -10.653  0.7520E+01  0.7551E+01  0.1848E+02  0.1838E+02
    -10.560  0.7983E+01  0.9304E+01  0.1958E+02  0.1948E+02
    -10.466  0.4281E+01  0.3911E+01  0.2007E+02  0.2003E+02
    -10.373  0.4553E+01  0.5318E+01  0.2065E+02  0.2061E+02
    -10.279  0.1063E+02  0.1043E+02  0.2177E+02  0.2164E+02
    -10.186  0.1171E+01  0.1188E+01  0.2200E+02  0.2200E+02
    -10.092  0.3050E+00  0.4364E-01  0.2203E+02  0.2200E+02
     -9.999  0.1820E+02  0.1639E+02  0.2387E+02  0.2359E+02
     -9.905  0.1040E+02  0.9134E+01  0.2520E+02  0.2508E+02
     -9.812  0.9097E+01  0.8033E+01  0.2607E+02  0.2597E+02
     -9.718  0.1105E+02  0.1185E+02  0.2726E+02  0.2722E+02
     -9.625  0.4822E+01  0.4442E+01  0.2779E+02  0.2775E+02
     -9.531  0.1778E+01  0.2369E+01  0.2800E+02  0.2800E+02
     -9.437  0.3842E+01  0.3588E+01  0.2836E+02  0.2834E+02
     -9.344  0.5122E+01  0.5135E+01  0.2892E+02  0.2882E+02
     -9.250  0.1807E+02  0.1844E+02  0.3086E+02  0.3067E+02
     -9.157  0.7361E+01  0.1151E+02  0.3197E+02  0.3191E+02
     -9.063  0.0000E+00  0.0000E+00  0.3200E+02  0.3200E+02
     -8.970  0.3235E+00  0.4474E-01  0.3203E+02  0.3200E+02
     -8.876  0.2358E+02  0.2254E+02  0.3437E+02  0.3416E+02
     -8.783  0.1065E+02  0.1316E+02  0.3572E+02  0.3568E+02
     -8.689  0.1782E+01  0.2962E+01  0.3600E+02  0.3600E+02
     -8.596  0.2316E-06  0.3959E-10  0.3600E+02  0.3600E+02
     -8.502  0.1850E+02  0.1323E+02  0.3773E+02  0.3724E+02
     -8.409  0.1385E+02  0.1246E+02  0.3941E+02  0.3917E+02
     -8.315  0.1177E+01  0.5909E+01  0.4000E+02  0.4000E+02
     -8.222  0.1734E+01  0.1151E+01  0.4016E+02  0.4011E+02
     -8.128  0.2861E+02  0.2561E+02  0.4295E+02  0.4256E+02
     -8.035  0.7110E+01  0.9464E+01  0.4400E+02  0.4400E+02
     -7.941  0.5994E+01  0.3970E+01  0.4456E+02  0.4437E+02
     -7.848  0.7062E+01  0.5986E+01  0.4533E+02  0.4523E+02
     -7.754  0.2475E+02  0.2186E+02  0.4770E+02  0.4738E+02
     -7.661  0.7440E+01  0.6283E+01  0.4864E+02  0.4842E+02
     -7.567  0.1631E+02  0.1229E+02  0.5042E+02  0.5004E+02
     -7.474  0.1652E+02  0.1319E+02  0.5232E+02  0.5190E+02
     -7.380  0.7733E+01  0.8909E+01  0.5367E+02  0.5367E+02
     -7.287  0.2967E+01  0.3564E+01  0.5400E+02  0.5400E+02
     -7.193  0.8987E+01  0.7162E+01  0.5484E+02  0.5467E+02
     -7.100  0.2191E+02  0.2389E+02  0.5722E+02  0.5707E+02
     -7.006  0.2826E+02  0.2753E+02  0.6014E+02  0.5996E+02
     -6.912  0.1212E+02  0.1272E+02  0.6141E+02  0.6136E+02
     -6.819  0.8764E+01  0.9424E+01  0.6232E+02  0.6227E+02
     -6.725  0.1544E+02  0.1301E+02  0.6378E+02  0.6355E+02
     -6.632  0.1186E+02  0.1260E+02  0.6511E+02  0.6496E+02
     -6.538  0.1776E+02  0.2053E+02  0.6722E+02  0.6709E+02
     -6.445  0.1477E+02  0.1231E+02  0.6871E+02  0.6848E+02
     -6.351  0.7656E+01  0.6230E+01  0.6961E+02  0.6947E+02
     -6.258  0.2240E+02  0.2283E+02  0.7204E+02  0.7169E+02
     -6.164  0.1649E+02  0.1435E+02  0.7377E+02  0.7356E+02
     -6.071  0.1262E+02  0.1315E+02  0.7507E+02  0.7501E+02
     -5.977  0.1673E+02  0.1645E+02  0.7684E+02  0.7659E+02
     -5.884  0.1349E+02  0.1363E+02  0.7837E+02  0.7828E+02
     -5.790  0.6253E+01  0.8831E+01  0.7920E+02  0.7916E+02
     -5.697  0.1216E+02  0.1154E+02  0.8036E+02  0.8030E+02
     -5.603  0.1180E+02  0.1317E+02  0.8166E+02  0.8157E+02
     -5.510  0.1236E+02  0.1670E+02  0.8327E+02  0.8323E+02
     -5.416  0.6960E+01  0.6642E+01  0.8404E+02  0.8390E+02
     -5.323  0.3023E+01  0.4156E+01  0.8450E+02  0.8450E+02
     -5.229  0.1831E+02  0.1670E+02  0.8632E+02  0.8606E+02
     -5.136  0.1598E+02  0.1572E+02  0.8811E+02  0.8803E+02
     -5.042  0.1755E+02  0.1535E+02  0.8981E+02  0.8955E+02
     -4.949  0.1601E+02  0.1674E+02  0.9161E+02  0.9146E+02
     -4.855  0.9177E+01  0.9247E+01  0.9258E+02  0.9248E+02
     -4.762  0.7938E+01  0.7068E+01  0.9335E+02  0.9327E+02
     -4.668  0.8144E+01  0.7137E+01  0.9415E+02  0.9406E+02
     -4.574  0.1273E+02  0.1100E+02  0.9536E+02  0.9520E+02
     -4.481  0.9184E+01  0.9668E+01  0.9653E+02  0.9635E+02
     -4.387  0.1514E+02  0.1349E+02  0.9797E+02  0.9782E+02
     -4.294  0.2205E+02  0.2215E+02  0.1003E+03  0.1002E+03
     -4.200  0.1911E+02  0.2009E+02  0.1025E+03  0.1023E+03
     -4.107  0.2112E+02  0.2063E+02  0.1047E+03  0.1044E+03
     -4.013  0.1777E+02  0.1901E+02  0.1068E+03  0.1067E+03
     -3.920  0.1530E+02  0.1400E+02  0.1084E+03  0.1081E+03
     -3.826  0.1349E+02  0.1225E+02  0.1098E+03  0.1096E+03
     -3.733  0.1242E+02  0.1011E+02  0.1110E+03  0.1108E+03
     -3.639  0.1467E+02  0.1461E+02  0.1126E+03  0.1124E+03
     -3.546  0.1623E+02  0.2025E+02  0.1147E+03  0.1145E+03
     -3.452  0.1502E+02  0.1713E+02  0.1165E+03  0.1163E+03
     -3.359  0.1769E+02  0.1613E+02  0.1184E+03  0.1182E+03
     -3.265  0.1707E+02  0.1760E+02  0.1203E+03  0.1201E+03
     -3.172  0.1424E+02  0.1339E+02  0.1218E+03  0.1215E+03
     -3.078  0.1504E+02  0.1435E+02  0.1234E+03  0.1232E+03
     -2.985  0.1695E+02  0.1654E+02  0.1253E+03  0.1250E+03
     -2.891  0.1813E+02  0.2012E+02  0.1274E+03  0.1273E+03
     -2.798  0.6019E+01  0.6982E+01  0.1282E+03  0.1282E+03
     -2.704  0.1402E+02  0.1499E+02  0.1296E+03  0.1296E+03
     -2.611  0.1800E+02  0.1650E+02  0.1314E+03  0.1312E+03
     -2.517  0.1929E+02  0.1696E+02  0.1333E+03  0.1329E+03
     -2.424  0.1942E+02  0.2065E+02  0.1355E+03  0.1353E+03
     -2.330  0.1116E+02  0.1013E+02  0.1368E+03  0.1366E+03
     -2.237  0.2129E+02  0.2055E+02  0.1389E+03  0.1388E+03
     -2.143  0.1698E+02  0.1337E+02  0.1406E+03  0.1402E+03
     -2.049  0.2114E+02  0.2151E+02  0.1431E+03  0.1427E+03
     -1.956  0.1740E+02  0.1654E+02  0.1451E+03  0.1448E+03
     -1.862  0.2163E+02  0.2156E+02  0.1475E+03  0.1472E+03
     -1.769  0.2159E+02  0.2150E+02  0.1501E+03  0.1496E+03
     -1.675  0.1402E+02  0.1499E+02  0.1519E+03  0.1517E+03
     -1.582  0.1732E+02  0.1394E+02  0.1538E+03  0.1532E+03
     -1.488  0.1940E+02  0.2009E+02  0.1561E+03  0.1558E+03
     -1.395  0.2263E+02  0.1889E+02  0.1583E+03  0.1579E+03
     -1.301  0.1939E+02  0.1997E+02  0.1606E+03  0.1604E+03
     -1.208  0.1900E+02  0.1929E+02  0.1626E+03  0.1624E+03
     -1.114  0.2185E+02  0.1940E+02  0.1648E+03  0.1644E+03
     -1.021  0.1596E+02  0.1960E+02  0.1668E+03  0.1666E+03
     -0.927  0.2045E+02  0.1973E+02  0.1689E+03  0.1686E+03
     -0.834  0.2061E+02  0.2041E+02  0.1711E+03  0.1709E+03
     -0.740  0.2511E+02  0.2794E+02  0.1740E+03  0.1737E+03
     -0.647  0.1723E+02  0.1908E+02  0.1761E+03  0.1758E+03
     -0.553  0.2612E+02  0.2474E+02  0.1788E+03  0.1784E+03
     -0.460  0.2202E+02  0.2193E+02  0.1813E+03  0.1809E+03
     -0.366  0.3079E+02  0.2931E+02  0.1845E+03  0.1841E+03
     -0.273  0.2168E+02  0.1694E+02  0.1868E+03  0.1863E+03
     -0.179  0.2614E+02  0.2314E+02  0.1894E+03  0.1892E+03
     -0.086  0.2819E+02  0.2494E+02  0.1923E+03  0.1918E+03
      0.008  0.2887E+02  0.2897E+02  0.1953E+03  0.1950E+03
      0.101  0.2475E+02  0.2496E+02  0.1979E+03  0.1978E+03
      0.195  0.3283E+02  0.3241E+02  0.2015E+03  0.2009E+03
      0.289  0.2604E+02  0.2454E+02  0.2043E+03  0.2040E+03
      0.382  0.2969E+02  0.3159E+02  0.2076E+03  0.2073E+03
      0.476  0.2166E+02  0.2136E+02  0.2099E+03  0.2096E+03
      0.569  0.2426E+02  0.2269E+02  0.2125E+03  0.2121E+03
      0.663  0.2260E+02  0.2266E+02  0.2150E+03  0.2147E+03
      0.756  0.2064E+02  0.1911E+02  0.2172E+03  0.2169E+03
      0.850  0.2354E+02  0.2085E+02  0.2198E+03  0.2193E+03
      0.943  0.2873E+02  0.2914E+02  0.2229E+03  0.2226E+03
      1.037  0.1965E+02  0.1964E+02  0.2250E+03  0.2247E+03
      1.130  0.2355E+02  0.2615E+02  0.2277E+03  0.2275E+03
      1.224  0.3209E+02  0.3272E+02  0.2311E+03  0.2307E+03
      1.317  0.3119E+02  0.2696E+02  0.2343E+03  0.2339E+03
      1.411  0.2371E+02  0.2155E+02  0.2367E+03  0.2365E+03
      1.504  0.2243E+02  0.1864E+02  0.2389E+03  0.2386E+03
      1.598  0.2125E+02  0.2617E+02  0.2415E+03  0.2414E+03
      1.691  0.2379E+02  0.2654E+02  0.2441E+03  0.2440E+03
      1.785  0.2559E+02  0.2402E+02  0.2467E+03  0.2464E+03
      1.878  0.1799E+02  0.2078E+02  0.2490E+03  0.2488E+03
      1.972  0.2165E+02  0.2003E+02  0.2514E+03  0.2509E+03
      2.065  0.3143E+02  0.2853E+02  0.2546E+03  0.2542E+03
      2.159  0.2947E+02  0.3063E+02  0.2580E+03  0.2576E+03
      2.252  0.2888E+02  0.2966E+02  0.2613E+03  0.2610E+03
      2.346  0.2621E+02  0.2474E+02  0.2640E+03  0.2636E+03
      2.439  0.2348E+02  0.2717E+02  0.2668E+03  0.2664E+03
      2.533  0.3100E+02  0.3026E+02  0.2702E+03  0.2698E+03
      2.626  0.2341E+02  0.2908E+02  0.2734E+03  0.2729E+03
      2.720  0.2381E+02  0.2406E+02  0.2761E+03  0.2757E+03
      2.814  0.2714E+02  0.2874E+02  0.2791E+03  0.2787E+03
      2.907  0.2697E+02  0.2490E+02  0.2820E+03  0.2815E+03
      3.001  0.3197E+02  0.3126E+02  0.2854E+03  0.2851E+03
      3.094  0.2302E+02  0.2473E+02  0.2882E+03  0.2878E+03
      3.188  0.2971E+02  0.2803E+02  0.2912E+03  0.2909E+03
      3.281  0.3222E+02  0.2844E+02  0.2945E+03  0.2940E+03
      3.375  0.2570E+02  0.2798E+02  0.2976E+03  0.2972E+03
      3.468  0.3215E+02  0.3088E+02  0.3009E+03  0.3006E+03
      3.562  0.3142E+02  0.3358E+02  0.3045E+03  0.3042E+03
      3.655  0.3161E+02  0.3037E+02  0.3078E+03  0.3074E+03
      3.749  0.2727E+02  0.2693E+02  0.3107E+03  0.3105E+03
      3.842  0.3094E+02  0.2862E+02  0.3139E+03  0.3135E+03
      3.936  0.2750E+02  0.2570E+02  0.3169E+03  0.3165E+03
      4.029  0.2414E+02  0.2504E+02  0.3197E+03  0.3192E+03
      4.123  0.1612E+02  0.1786E+02  0.3218E+03  0.3213E+03
      4.216  0.1670E+02  0.2367E+02  0.3243E+03  0.3241E+03
      4.310  0.3012E+02  0.2902E+02  0.3274E+03  0.3271E+03
      4.403  0.1727E+02  0.2122E+02  0.3297E+03  0.3295E+03
      4.497  0.2827E+02  0.2590E+02  0.3327E+03  0.3323E+03
      4.590  0.2999E+02  0.2437E+02  0.3357E+03  0.3351E+03
      4.684  0.2796E+02  0.2525E+02  0.3385E+03  0.3381E+03
      4.777  0.2697E+02  0.2855E+02  0.3414E+03  0.3412E+03
      4.871  0.2605E+02  0.2751E+02  0.3442E+03  0.3440E+03
      4.964  0.2373E+02  0.2069E+02  0.3465E+03  0.3461E+03
      5.058  0.2085E+02  0.1603E+02  0.3486E+03  0.3481E+03
      5.152  0.2399E+02  0.2407E+02  0.3512E+03  0.3509E+03
      5.245  0.2511E+02  0.2364E+02  0.3539E+03  0.3535E+03
      5.339  0.2605E+02  0.2427E+02  0.3567E+03  0.3561E+03
      5.432  0.2263E+02  0.2310E+02  0.3592E+03  0.3589E+03
      5.526  0.1627E+02  0.1412E+02  0.3611E+03  0.3605E+03
      5.619  0.1916E+02  0.2252E+02  0.3635E+03  0.3632E+03
      5.713  0.3421E+02  0.3148E+02  0.3670E+03  0.3664E+03
      5.806  0.2487E+02  0.2223E+02  0.3695E+03  0.3690E+03
      5.900  0.1500E+02  0.1922E+02  0.3715E+03  0.3712E+03
      5.993  0.1956E+02  0.1890E+02  0.3738E+03  0.3732E+03
      6.087  0.2352E+02  0.2758E+02  0.3765E+03  0.3762E+03
      6.180  0.2829E+02  0.2361E+02  0.3792E+03  0.3787E+03
      6.274  0.2567E+02  0.2840E+02  0.3821E+03  0.3818E+03
      6.367  0.2160E+02  0.1729E+02  0.3842E+03  0.3837E+03
      6.461  0.3001E+02  0.2456E+02  0.3870E+03  0.3865E+03
      6.554  0.2692E+02  0.3002E+02  0.3900E+03  0.3897E+03
      6.648  0.1967E+02  0.1867E+02  0.3921E+03  0.3917E+03
      6.741  0.2346E+02  0.2206E+02  0.3945E+03  0.3941E+03
      6.835  0.3007E+02  0.2912E+02  0.3978E+03  0.3972E+03
      6.928  0.1848E+02  0.2146E+02  0.4001E+03  0.3998E+03
      7.022  0.2632E+02  0.2536E+02  0.4029E+03  0.4024E+03
      7.115  0.2903E+02  0.2897E+02  0.4059E+03  0.4055E+03
      7.209  0.2548E+02  0.2443E+02  0.4086E+03  0.4082E+03
      7.302  0.2322E+02  0.2003E+02  0.4110E+03  0.4104E+03
      7.396  0.2098E+02  0.2520E+02  0.4134E+03  0.4131E+03
      7.489  0.1834E+02  0.1727E+02  0.4153E+03  0.4150E+03
      7.583  0.2372E+02  0.2346E+02  0.4178E+03  0.4174E+03
      7.677  0.3022E+02  0.2760E+02  0.4208E+03  0.4203E+03
      7.770  0.1789E+02  0.1746E+02  0.4227E+03  0.4224E+03
      7.864  0.1591E+02  0.1618E+02  0.4244E+03  0.4240E+03
      7.957  0.2540E+02  0.2501E+02  0.4272E+03  0.4266E+03
      8.051  0.2787E+02  0.2891E+02  0.4302E+03  0.4297E+03
      8.144  0.2189E+02  0.2103E+02  0.4326E+03  0.4321E+03
      8.238  0.2658E+02  0.2339E+02  0.4354E+03  0.4347E+03
      8.331  0.3199E+02  0.2885E+02  0.4387E+03  0.4380E+03
      8.425  0.3102E+02  0.3376E+02  0.4422E+03  0.4417E+03
      8.518  0.3003E+02  0.3320E+02  0.4455E+03  0.4451E+03
      8.612  0.3157E+02  0.2019E+02  0.4486E+03  0.4473E+03
      8.705  0.2397E+02  0.2602E+02  0.4512E+03  0.4505E+03
      8.799  0.2946E+02  0.3484E+02  0.4546E+03  0.4542E+03
      8.892  0.2339E+02  0.3072E+02  0.4574E+03  0.4571E+03
      8.986  0.3423E+02  0.3425E+02  0.4611E+03  0.4606E+03
      9.079  0.2476E+02  0.2222E+02  0.4637E+03  0.4630E+03
      9.173  0.2552E+02  0.2106E+02  0.4662E+03  0.4656E+03
      9.266  0.2503E+02  0.2222E+02  0.4687E+03  0.4681E+03
      9.360  0.2455E+02  0.2537E+02  0.4714E+03  0.4709E+03
      9.453  0.3263E+02  0.3623E+02  0.4751E+03  0.4744E+03
      9.547  0.2294E+02  0.1943E+02  0.4774E+03  0.4769E+03
      9.640  0.3052E+02  0.3103E+02  0.4810E+03  0.4801E+03
      9.734  0.2661E+02  0.2423E+02  0.4836E+03  0.4829E+03
      9.827  0.2526E+02  0.2448E+02  0.4863E+03  0.4855E+03
      9.921  0.2151E+02  0.2621E+02  0.4887E+03  0.4883E+03
     10.015  0.2336E+02  0.2215E+02  0.4911E+03  0.4906E+03
     10.108  0.2616E+02  0.2417E+02  0.4937E+03  0.4931E+03
     10.202  0.2485E+02  0.2516E+02  0.4964E+03  0.4958E+03
     10.295  0.2238E+02  0.2661E+02  0.4988E+03  0.4985E+03
     10.389  0.1891E+02  0.1810E+02  0.5011E+03  0.5005E+03
     10.482  0.1944E+02  0.2345E+02  0.5035E+03  0.5031E+03
     10.576  0.2943E+02  0.2817E+02  0.5065E+03  0.5058E+03
     10.669  0.2363E+02  0.3018E+02  0.5093E+03  0.5090E+03
     10.763  0.2175E+02  0.1882E+02  0.5116E+03  0.5110E+03
     10.856  0.2429E+02  0.2681E+02  0.5144E+03  0.5140E+03
     10.950  0.3038E+02  0.2583E+02  0.5175E+03  0.5167E+03
     11.043  0.3347E+02  0.3274E+02  0.5210E+03  0.5203E+03
     11.137  0.1772E+02  0.1835E+02  0.5231E+03  0.5225E+03
     11.230  0.2380E+02  0.2732E+02  0.5258E+03  0.5254E+03
     11.324  0.2445E+02  0.2359E+02  0.5285E+03  0.5280E+03
     11.417  0.3130E+02  0.2688E+02  0.5316E+03  0.5310E+03
     11.511  0.2141E+02  0.2323E+02  0.5340E+03  0.5337E+03
     11.604  0.3207E+02  0.2775E+02  0.5372E+03  0.5365E+03
     11.698  0.1816E+02  0.1829E+02  0.5394E+03  0.5389E+03
     11.791  0.2420E+02  0.2485E+02  0.5419E+03  0.5417E+03
     11.885  0.2208E+02  0.2008E+02  0.5441E+03  0.5437E+03
     11.978  0.2560E+02  0.2653E+02  0.5469E+03  0.5464E+03
     12.072  0.2357E+02  0.2737E+02  0.5495E+03  0.5493E+03
     12.165  0.2723E+02  0.2701E+02  0.5524E+03  0.5521E+03
     12.259  0.9216E+01  0.1086E+02  0.5536E+03  0.5534E+03
     12.352  0.1928E+02  0.1602E+02  0.5555E+03  0.5551E+03
     12.446  0.2088E+02  0.2546E+02  0.5580E+03  0.5578E+03
     12.540  0.2488E+02  0.2133E+02  0.5606E+03  0.5599E+03
     12.633  0.2207E+02  0.1993E+02  0.5628E+03  0.5623E+03
     12.727  0.2368E+02  0.2200E+02  0.5653E+03  0.5648E+03
     12.820  0.2368E+02  0.2209E+02  0.5679E+03  0.5674E+03
     12.914  0.1713E+02  0.1776E+02  0.5698E+03  0.5695E+03
     13.007  0.3020E+02  0.2358E+02  0.5728E+03  0.5721E+03
     13.101  0.1543E+02  0.1549E+02  0.5744E+03  0.5743E+03
     13.194  0.9620E+01  0.9474E+01  0.5754E+03  0.5753E+03
     13.288  0.4733E+01  0.5346E+01  0.5760E+03  0.5760E+03
     13.381  0.0000E+00  0.0000E+00  0.5760E+03  0.5760E+03
     13.475  0.0000E+00  0.0000E+00  0.5760E+03  0.5760E+03
     13.568  0.0000E+00  0.0000E+00  0.5760E+03  0.5760E+03
     13.662  0.0000E+00  0.0000E+00  0.5760E+03  0.5760E+03
     13.755  0.0000E+00  0.0000E+00  0.5760E+03  0.5760E+03
     13.849  0.0000E+00  0.0000E+00  0.5760E+03  0.5760E+03
     13.942  0.0000E+00  0.0000E+00  0.5760E+03  0.5760E+03
     14.036  0.0000E+00  0.0000E+00  0.5760E+03  0.5760E+03
     14.129  0.0000E+00  0.0000E+00  0.5760E+03  0.5760E+03
     14.223  0.0000E+00  0.0000E+00  0.5760E+03  0.5760E+03
     14.316  0.0000E+00  0.0000E+00  0.5760E+03  0.5760E+03
     14.410  0.0000E+00  0.0000E+00  0.5760E+03  0.5760E+03
     14.503  0.0000E+00  0.0000E+00  0.5760E+03  0.5760E+03
