Si and Ge interface calculation         
           1
    13.303180    0.000000    0.000000
     6.651589   14.873406    0.000000
     0.000000    0.000000    8.192406
   Si   C 
    36    84
Direct configuration=     1
   0.98290563  0.65811950  0.00000000
   0.78290558  0.55811930  0.14823596
   0.58290541  0.45811909  0.29647192
   0.98290563  0.32478613  0.00000000
   0.78290558  0.22478597  0.14823596
   0.58290541  0.12478580  0.29647192
   0.98290563  0.99145281  0.00000000
   0.78290558  0.89145267  0.14823596
   0.58290541  0.79145253  0.29647192
   0.63290566  0.69145268  0.07411782
   0.43290559  0.59145248  0.22235380
   0.23290552  0.49145243  0.37058973
   0.63290566  0.35811943  0.07411782
   0.43290559  0.25811928  0.22235380
   0.23290552  0.15811914  0.37058973
   0.63290566  0.02478614  0.07411782
   0.43290559  0.92478597  0.22235380
   0.23290552  0.82478583  0.37058973
   0.48290563  0.65811950  0.00000000
   0.28290555  0.55811930  0.14823596
   0.08290544  0.45811909  0.29647192
   0.48290563  0.32478613  0.00000000
   0.28290555  0.22478595  0.14823596
   0.08290544  0.12478581  0.29647192
   0.48290563  0.99145281  0.00000000
   0.28290555  0.89145267  0.14823596
   0.08290544  0.79145253  0.29647192
   0.13290568  0.69145274  0.07411784
   0.93290555  0.59145248  0.22235380
   0.73290551  0.49145240  0.37058973
   0.13290568  0.35811949  0.07411784
   0.93290555  0.25811928  0.22235380
   0.73290551  0.15811913  0.37058973
   0.13290568  0.02478614  0.07411784
   0.93290555  0.92478597  0.22235380
   0.73290551  0.82478583  0.37058973
   0.71127868  0.96291393  0.75831026
   0.05413568  0.99148560  0.56360275
   0.38270712  0.97719979  0.66095644
   0.99699283  0.82005686  0.75831026
   0.33984995  0.84862846  0.56360275
   0.66842151  0.83434266  0.66095644
   0.28270709  0.67719972  0.75831026
   0.62556422  0.70577133  0.56360275
   0.95413566  0.69148552  0.66095644
   0.56842148  0.53434259  0.75831020
   0.91127860  0.56291419  0.56360269
   0.23985004  0.54862839  0.66095644
   0.85413575  0.39148545  0.75831020
   0.19699287  0.42005706  0.56360269
   0.52556419  0.40577125  0.66095644
   0.13985002  0.24862832  0.75831020
   0.48270702  0.27719992  0.56360269
   0.81127858  0.26291415  0.66095644
   0.42556441  0.10577118  0.75831026
   0.76842141  0.13434279  0.56360269
   0.09699297  0.12005699  0.66095650
   0.16127849  0.06291401  0.80698705
   0.50413561  0.09148562  0.61227953
   0.83270705  0.07719970  0.70963329
   0.44699275  0.92005682  0.80698705
   0.78984988  0.94862843  0.61227953
   0.11842132  0.93434256  0.70963329
   0.73270702  0.77719969  0.80698711
   0.07556415  0.80577129  0.61227948
   0.40413570  0.79148549  0.70963323
   0.01842141  0.63434261  0.80698699
   0.36127853  0.66291416  0.61227948
   0.68984985  0.64862841  0.70963323
   0.30413580  0.49148554  0.80698711
   0.64699292  0.52005708  0.61227948
   0.97556424  0.50577134  0.70963317
   0.58984995  0.34862834  0.80698711
   0.93270713  0.37719992  0.61227953
   0.26127863  0.36291412  0.70963323
   0.87556434  0.20577118  0.80698699
   0.21842146  0.23434278  0.61227953
   0.54699278  0.22005700  0.70963323
   0.21127856  0.96291399  0.75831020
   0.55413568  0.99148548  0.56360269
   0.88270700  0.97719979  0.66095650
   0.49699306  0.82005686  0.75831026
   0.83985007  0.84862846  0.56360269
   0.16842151  0.83434266  0.66095644
   0.78270733  0.67719972  0.75831026
   0.12556434  0.70577133  0.56360269
   0.45413578  0.69148552  0.66095644
   0.06842148  0.53434265  0.75831026
   0.41127849  0.56291419  0.56360269
   0.73984993  0.54862845  0.66095644
   0.35413563  0.39148557  0.75831026
   0.69699287  0.42005706  0.56360269
   0.02556431  0.40577125  0.66095644
   0.63985014  0.24862835  0.75831026
   0.98270714  0.27719989  0.56360275
   0.31127858  0.26291412  0.66095650
   0.92556429  0.10577130  0.75831026
   0.26842141  0.13434279  0.56360275
   0.59699285  0.12005699  0.66095650
   0.66127849  0.06291413  0.80698705
   0.00413561  0.09148562  0.61227953
   0.33270705  0.07719982  0.70963323
   0.94699287  0.92005688  0.80698705
   0.28985000  0.94862849  0.61227953
   0.61842132  0.93434262  0.70963323
   0.23270714  0.77719969  0.80698705
   0.57556438  0.80577129  0.61227953
   0.90413582  0.79148543  0.70963323
   0.51842129  0.63434261  0.80698699
   0.86127853  0.66291410  0.61227948
   0.18984997  0.64862835  0.70963323
   0.80413580  0.49148548  0.80698699
   0.14699292  0.52005702  0.61227948
   0.47556436  0.50577128  0.70963323
   0.08984983  0.34862828  0.80698705
   0.43270707  0.37719989  0.61227948
   0.76127839  0.36291412  0.70963323
   0.37556422  0.20577127  0.80698699
   0.71842146  0.23434275  0.61227953
   0.04699278  0.22005698  0.70963323
