 180 180   0   0
  0.2731342E+02  0.1451029E-08  0.1946760E-08  0.1740444E-08  0.5000000E-15
  1.000000000000000E-004
  CAR 
 Si and Ge interface calculation         
      5.64955714    -10.18675590  301      2.76639508      1.00000000
    -10.187  0.0000E+00  0.0000E+00  0.0000E+00  0.0000E+00
    -10.134  0.0000E+00  0.0000E+00  0.0000E+00  0.0000E+00
    -10.081  0.0000E+00  0.0000E+00  0.0000E+00  0.0000E+00
    -10.028  0.0000E+00  0.0000E+00  0.0000E+00  0.0000E+00
     -9.976  0.0000E+00  0.0000E+00  0.0000E+00  0.0000E+00
     -9.923  0.0000E+00  0.0000E+00  0.0000E+00  0.0000E+00
     -9.870  0.0000E+00  0.0000E+00  0.0000E+00  0.0000E+00
     -9.817  0.0000E+00  0.0000E+00  0.0000E+00  0.0000E+00
     -9.764  0.0000E+00  0.0000E+00  0.0000E+00  0.0000E+00
     -9.712  0.0000E+00  0.0000E+00  0.0000E+00  0.0000E+00
     -9.659  0.0000E+00  0.0000E+00  0.0000E+00  0.0000E+00
     -9.606  0.0000E+00  0.0000E+00  0.0000E+00  0.0000E+00
     -9.553  0.0000E+00  0.0000E+00  0.0000E+00  0.0000E+00
     -9.501  0.4906E-05  0.3633E-06  0.2590E-06  0.1918E-07
     -9.448  0.9346E+01  0.9088E+01  0.4934E+00  0.4798E+00
     -9.395  0.6278E+01  0.3705E+01  0.8248E+00  0.6753E+00
     -9.342  0.2739E+02  0.2682E+02  0.2271E+01  0.2091E+01
     -9.289  0.2386E+02  0.2685E+02  0.3530E+01  0.3509E+01
     -9.237  0.8911E+01  0.9310E+01  0.4001E+01  0.4000E+01
     -9.184  0.3505E+02  0.2858E+02  0.5851E+01  0.5509E+01
     -9.131  0.3208E+02  0.3807E+02  0.7544E+01  0.7518E+01
     -9.078  0.2495E+02  0.2306E+02  0.8861E+01  0.8736E+01
     -9.025  0.1210E+02  0.1446E+02  0.9500E+01  0.9499E+01
     -8.973  0.1662E+02  0.1428E+02  0.1038E+02  0.1025E+02
     -8.920  0.2107E+02  0.2066E+02  0.1149E+02  0.1134E+02
     -8.867  0.4225E+02  0.4342E+02  0.1372E+02  0.1364E+02
     -8.814  0.4280E+02  0.4160E+02  0.1598E+02  0.1583E+02
     -8.761  0.1978E+02  0.2097E+02  0.1702E+02  0.1694E+02
     -8.709  0.4532E+02  0.4311E+02  0.1942E+02  0.1921E+02
     -8.656  0.2692E+02  0.2790E+02  0.2084E+02  0.2069E+02
     -8.603  0.2869E+02  0.2652E+02  0.2235E+02  0.2209E+02
     -8.550  0.2212E+02  0.2683E+02  0.2352E+02  0.2350E+02
     -8.498  0.3978E+02  0.3868E+02  0.2562E+02  0.2554E+02
     -8.445  0.6840E+02  0.6738E+02  0.2923E+02  0.2910E+02
     -8.392  0.3427E+02  0.3316E+02  0.3104E+02  0.3085E+02
     -8.339  0.3791E+02  0.4067E+02  0.3304E+02  0.3300E+02
     -8.286  0.2603E+02  0.2361E+02  0.3441E+02  0.3425E+02
     -8.234  0.1111E+02  0.1429E+02  0.3500E+02  0.3500E+02
     -8.181  0.4591E+02  0.3859E+02  0.3742E+02  0.3704E+02
     -8.128  0.3148E+02  0.3778E+02  0.3909E+02  0.3903E+02
     -8.075  0.5372E+02  0.4951E+02  0.4192E+02  0.4164E+02
     -8.022  0.4970E+02  0.5434E+02  0.4454E+02  0.4451E+02
     -7.970  0.6042E+02  0.5612E+02  0.4773E+02  0.4748E+02
     -7.917  0.3729E+02  0.3925E+02  0.4970E+02  0.4955E+02
     -7.864  0.5331E+02  0.5322E+02  0.5252E+02  0.5236E+02
     -7.811  0.5008E+02  0.5059E+02  0.5516E+02  0.5503E+02
     -7.759  0.6230E+02  0.5894E+02  0.5845E+02  0.5814E+02
     -7.706  0.3193E+02  0.3632E+02  0.6013E+02  0.6006E+02
     -7.653  0.7488E+02  0.6930E+02  0.6409E+02  0.6371E+02
     -7.600  0.5490E+02  0.5714E+02  0.6699E+02  0.6673E+02
     -7.547  0.7070E+02  0.6852E+02  0.7072E+02  0.7035E+02
     -7.495  0.5265E+02  0.5403E+02  0.7350E+02  0.7320E+02
     -7.442  0.7930E+02  0.7857E+02  0.7768E+02  0.7735E+02
     -7.389  0.5862E+02  0.6050E+02  0.8078E+02  0.8054E+02
     -7.336  0.5153E+02  0.5241E+02  0.8350E+02  0.8331E+02
     -7.283  0.3988E+02  0.3907E+02  0.8560E+02  0.8537E+02
     -7.231  0.6862E+02  0.7189E+02  0.8923E+02  0.8916E+02
     -7.178  0.5574E+02  0.5196E+02  0.9217E+02  0.9191E+02
     -7.125  0.6192E+02  0.6182E+02  0.9544E+02  0.9517E+02
     -7.072  0.3781E+02  0.3344E+02  0.9743E+02  0.9694E+02
     -7.019  0.8451E+02  0.8414E+02  0.1019E+03  0.1014E+03
     -6.967  0.8185E+02  0.8688E+02  0.1062E+03  0.1060E+03
     -6.914  0.4186E+02  0.3989E+02  0.1084E+03  0.1081E+03
     -6.861  0.6489E+02  0.6810E+02  0.1118E+03  0.1117E+03
     -6.808  0.4935E+02  0.4775E+02  0.1145E+03  0.1142E+03
     -6.756  0.7480E+02  0.7418E+02  0.1184E+03  0.1181E+03
     -6.703  0.2943E+02  0.3174E+02  0.1200E+03  0.1198E+03
     -6.650  0.6392E+02  0.6187E+02  0.1233E+03  0.1230E+03
     -6.597  0.2748E+02  0.3190E+02  0.1248E+03  0.1247E+03
     -6.544  0.3375E+02  0.2969E+02  0.1266E+03  0.1263E+03
     -6.492  0.5757E+02  0.5838E+02  0.1296E+03  0.1294E+03
     -6.439  0.4763E+02  0.5021E+02  0.1321E+03  0.1320E+03
     -6.386  0.3831E+02  0.3724E+02  0.1341E+03  0.1340E+03
     -6.333  0.3675E+02  0.3184E+02  0.1361E+03  0.1357E+03
     -6.280  0.4473E+02  0.4932E+02  0.1384E+03  0.1383E+03
     -6.228  0.4249E+02  0.4177E+02  0.1407E+03  0.1405E+03
     -6.175  0.7234E+02  0.6711E+02  0.1445E+03  0.1440E+03
     -6.122  0.6459E+02  0.6856E+02  0.1479E+03  0.1476E+03
     -6.069  0.1909E+02  0.2192E+02  0.1489E+03  0.1488E+03
     -6.017  0.3238E+02  0.3242E+02  0.1506E+03  0.1505E+03
     -5.964  0.4834E+02  0.4686E+02  0.1532E+03  0.1530E+03
     -5.911  0.2397E+02  0.2400E+02  0.1544E+03  0.1543E+03
     -5.858  0.2006E+02  0.2363E+02  0.1555E+03  0.1555E+03
     -5.805  0.3195E+02  0.3062E+02  0.1572E+03  0.1571E+03
     -5.753  0.2942E+02  0.2380E+02  0.1587E+03  0.1584E+03
     -5.700  0.6504E+02  0.6785E+02  0.1622E+03  0.1620E+03
     -5.647  0.5589E+02  0.5333E+02  0.1651E+03  0.1648E+03
     -5.594  0.2818E+02  0.2914E+02  0.1666E+03  0.1663E+03
     -5.541  0.3357E+02  0.3729E+02  0.1684E+03  0.1683E+03
     -5.489  0.3594E+02  0.2990E+02  0.1703E+03  0.1699E+03
     -5.436  0.5649E+02  0.6387E+02  0.1733E+03  0.1732E+03
     -5.383  0.1448E+02  0.1482E+02  0.1740E+03  0.1740E+03
     -5.330  0.6004E+02  0.5443E+02  0.1772E+03  0.1769E+03
     -5.277  0.6653E+02  0.6786E+02  0.1807E+03  0.1805E+03
     -5.225  0.2446E+02  0.2454E+02  0.1820E+03  0.1818E+03
     -5.172  0.5793E+02  0.6090E+02  0.1851E+03  0.1850E+03
     -5.119  0.4872E+02  0.4715E+02  0.1876E+03  0.1875E+03
     -5.066  0.2845E+02  0.2781E+02  0.1891E+03  0.1889E+03
     -5.014  0.6715E+02  0.6631E+02  0.1927E+03  0.1924E+03
     -4.961  0.3769E+02  0.3976E+02  0.1947E+03  0.1945E+03
     -4.908  0.4143E+02  0.3734E+02  0.1969E+03  0.1965E+03
     -4.855  0.5544E+02  0.5582E+02  0.1998E+03  0.1994E+03
     -4.802  0.4557E+02  0.4863E+02  0.2022E+03  0.2020E+03
     -4.750  0.4929E+02  0.4896E+02  0.2048E+03  0.2046E+03
     -4.697  0.7758E+02  0.7475E+02  0.2089E+03  0.2085E+03
     -4.644  0.6800E+02  0.6778E+02  0.2125E+03  0.2121E+03
     -4.591  0.4572E+02  0.4942E+02  0.2149E+03  0.2147E+03
     -4.538  0.6004E+02  0.6121E+02  0.2181E+03  0.2180E+03
     -4.486  0.8784E+02  0.8249E+02  0.2227E+03  0.2223E+03
     -4.433  0.5010E+02  0.5382E+02  0.2253E+03  0.2252E+03
     -4.380  0.7569E+02  0.7344E+02  0.2293E+03  0.2290E+03
     -4.327  0.6934E+02  0.6991E+02  0.2330E+03  0.2327E+03
     -4.275  0.6432E+02  0.6306E+02  0.2364E+03  0.2361E+03
     -4.222  0.9653E+02  0.9485E+02  0.2415E+03  0.2411E+03
     -4.169  0.1046E+03  0.1041E+03  0.2470E+03  0.2466E+03
     -4.116  0.9336E+02  0.9829E+02  0.2519E+03  0.2517E+03
     -4.063  0.4428E+02  0.3917E+02  0.2543E+03  0.2538E+03
     -4.011  0.7626E+02  0.8127E+02  0.2583E+03  0.2581E+03
     -3.958  0.4633E+02  0.4423E+02  0.2607E+03  0.2604E+03
     -3.905  0.4260E+02  0.4157E+02  0.2630E+03  0.2626E+03
     -3.852  0.4785E+02  0.5040E+02  0.2655E+03  0.2653E+03
     -3.799  0.3546E+02  0.3470E+02  0.2674E+03  0.2671E+03
     -3.747  0.3180E+02  0.3307E+02  0.2691E+03  0.2689E+03
     -3.694  0.4457E+02  0.4520E+02  0.2714E+03  0.2713E+03
     -3.641  0.4409E+02  0.4150E+02  0.2737E+03  0.2734E+03
     -3.588  0.1926E+02  0.1970E+02  0.2748E+03  0.2745E+03
     -3.536  0.5985E+02  0.6104E+02  0.2779E+03  0.2777E+03
     -3.483  0.5775E+02  0.5381E+02  0.2810E+03  0.2806E+03
     -3.430  0.4276E+02  0.4263E+02  0.2832E+03  0.2828E+03
     -3.377  0.3225E+02  0.3927E+02  0.2849E+03  0.2849E+03
     -3.324  0.5036E+02  0.4351E+02  0.2876E+03  0.2872E+03
     -3.272  0.4974E+02  0.5222E+02  0.2902E+03  0.2899E+03
     -3.219  0.5882E+02  0.6101E+02  0.2933E+03  0.2931E+03
     -3.166  0.4927E+02  0.4534E+02  0.2959E+03  0.2955E+03
     -3.113  0.4374E+02  0.4689E+02  0.2982E+03  0.2980E+03
     -3.060  0.4142E+02  0.4188E+02  0.3004E+03  0.3002E+03
     -3.008  0.4340E+02  0.4335E+02  0.3027E+03  0.3025E+03
     -2.955  0.2147E+02  0.2380E+02  0.3038E+03  0.3038E+03
     -2.902  0.4299E+02  0.4292E+02  0.3061E+03  0.3060E+03
     -2.849  0.5187E+02  0.4709E+02  0.3089E+03  0.3085E+03
     -2.796  0.2639E+02  0.3158E+02  0.3102E+03  0.3102E+03
     -2.744  0.1888E+02  0.1737E+02  0.3112E+03  0.3111E+03
     -2.691  0.4592E+02  0.4294E+02  0.3137E+03  0.3134E+03
     -2.638  0.2641E+02  0.2763E+02  0.3151E+03  0.3148E+03
     -2.585  0.2569E+02  0.2766E+02  0.3164E+03  0.3163E+03
     -2.533  0.2782E+02  0.2633E+02  0.3179E+03  0.3177E+03
     -2.480  0.2868E+02  0.2782E+02  0.3194E+03  0.3192E+03
     -2.427  0.3973E+02  0.4295E+02  0.3215E+03  0.3214E+03
     -2.374  0.3627E+02  0.3510E+02  0.3234E+03  0.3233E+03
     -2.321  0.1481E+02  0.1166E+02  0.3242E+03  0.3239E+03
     -2.269  0.4417E+02  0.4600E+02  0.3265E+03  0.3263E+03
     -2.216  0.2764E+02  0.3089E+02  0.3280E+03  0.3279E+03
     -2.163  0.9265E+01  0.9239E+01  0.3285E+03  0.3284E+03
     -2.110  0.3728E+02  0.3540E+02  0.3304E+03  0.3303E+03
     -2.057  0.1842E+02  0.1826E+02  0.3314E+03  0.3313E+03
     -2.005  0.1116E+02  0.1377E+02  0.3320E+03  0.3320E+03
     -1.952  0.2795E+02  0.2579E+02  0.3335E+03  0.3334E+03
     -1.899  0.3627E+02  0.3352E+02  0.3354E+03  0.3351E+03
     -1.846  0.2759E+02  0.3028E+02  0.3368E+03  0.3367E+03
     -1.794  0.2287E+02  0.2297E+02  0.3381E+03  0.3379E+03
     -1.741  0.2787E+02  0.2888E+02  0.3395E+03  0.3395E+03
     -1.688  0.2451E+02  0.2109E+02  0.3408E+03  0.3406E+03
     -1.635  0.2213E+02  0.2594E+02  0.3420E+03  0.3419E+03
     -1.582  0.1212E+02  0.1127E+02  0.3426E+03  0.3425E+03
     -1.530  0.2160E+02  0.2303E+02  0.3438E+03  0.3438E+03
     -1.477  0.1863E+02  0.1877E+02  0.3447E+03  0.3447E+03
     -1.424  0.2384E+02  0.2363E+02  0.3460E+03  0.3460E+03
     -1.371  0.2641E+02  0.2346E+02  0.3474E+03  0.3472E+03
     -1.318  0.3582E+02  0.3382E+02  0.3493E+03  0.3490E+03
     -1.266  0.1829E+02  0.2252E+02  0.3503E+03  0.3502E+03
     -1.213  0.1285E+02  0.1276E+02  0.3509E+03  0.3509E+03
     -1.160  0.1984E+02  0.2054E+02  0.3520E+03  0.3520E+03
     -1.107  0.3421E+02  0.3075E+02  0.3538E+03  0.3536E+03
     -1.054  0.7456E+02  0.7517E+02  0.3577E+03  0.3576E+03
     -1.002  0.8975E+02  0.8711E+02  0.3625E+03  0.3622E+03
     -0.949  0.9224E+02  0.8929E+02  0.3673E+03  0.3669E+03
     -0.896  0.1186E+03  0.1183E+03  0.3736E+03  0.3731E+03
     -0.843  0.9442E+02  0.9882E+02  0.3786E+03  0.3783E+03
     -0.791  0.7856E+02  0.7911E+02  0.3827E+03  0.3825E+03
     -0.738  0.7363E+02  0.7024E+02  0.3866E+03  0.3862E+03
     -0.685  0.1353E+03  0.1312E+03  0.3938E+03  0.3931E+03
     -0.632  0.1134E+03  0.1189E+03  0.3997E+03  0.3994E+03
     -0.579  0.1046E+03  0.1052E+03  0.4053E+03  0.4050E+03
     -0.527  0.9969E+02  0.9740E+02  0.4105E+03  0.4101E+03
     -0.474  0.8828E+02  0.9243E+02  0.4152E+03  0.4150E+03
     -0.421  0.8554E+02  0.8302E+02  0.4197E+03  0.4194E+03
     -0.368  0.8106E+02  0.8340E+02  0.4240E+03  0.4238E+03
     -0.315  0.6298E+02  0.5983E+02  0.4273E+03  0.4269E+03
     -0.263  0.9174E+02  0.9255E+02  0.4321E+03  0.4318E+03
     -0.210  0.9657E+02  0.9192E+02  0.4372E+03  0.4367E+03
     -0.157  0.1236E+03  0.1248E+03  0.4438E+03  0.4433E+03
     -0.104  0.1257E+03  0.1233E+03  0.4504E+03  0.4498E+03
     -0.052  0.1182E+03  0.1198E+03  0.4566E+03  0.4561E+03
      0.001  0.1117E+03  0.1094E+03  0.4625E+03  0.4619E+03
      0.054  0.1356E+03  0.1357E+03  0.4697E+03  0.4690E+03
      0.107  0.1237E+03  0.1249E+03  0.4762E+03  0.4756E+03
      0.160  0.1225E+03  0.1241E+03  0.4827E+03  0.4822E+03
      0.212  0.1362E+03  0.1359E+03  0.4899E+03  0.4893E+03
      0.265  0.1153E+03  0.1184E+03  0.4960E+03  0.4956E+03
      0.318  0.1312E+03  0.1305E+03  0.5029E+03  0.5025E+03
      0.371  0.1067E+03  0.1053E+03  0.5085E+03  0.5080E+03
      0.424  0.1208E+03  0.1190E+03  0.5149E+03  0.5143E+03
      0.476  0.1300E+03  0.1290E+03  0.5218E+03  0.5211E+03
      0.529  0.1363E+03  0.1392E+03  0.5290E+03  0.5285E+03
      0.582  0.9807E+02  0.9928E+02  0.5341E+03  0.5337E+03
      0.635  0.9262E+02  0.9215E+02  0.5390E+03  0.5386E+03
      0.688  0.9358E+02  0.9374E+02  0.5440E+03  0.5435E+03
      0.740  0.1098E+03  0.1072E+03  0.5498E+03  0.5492E+03
      0.793  0.1207E+03  0.1178E+03  0.5561E+03  0.5554E+03
      0.846  0.1265E+03  0.1286E+03  0.5628E+03  0.5622E+03
      0.899  0.9428E+02  0.1003E+03  0.5678E+03  0.5675E+03
      0.951  0.1129E+03  0.1105E+03  0.5737E+03  0.5733E+03
      1.004  0.1191E+03  0.1180E+03  0.5800E+03  0.5796E+03
      1.057  0.1046E+03  0.1048E+03  0.5855E+03  0.5851E+03
      1.110  0.1190E+03  0.1172E+03  0.5918E+03  0.5913E+03
      1.163  0.1043E+03  0.1075E+03  0.5973E+03  0.5969E+03
      1.215  0.8287E+02  0.7799E+02  0.6017E+03  0.6011E+03
      1.268  0.1127E+03  0.1177E+03  0.6077E+03  0.6073E+03
      1.321  0.9649E+02  0.1003E+03  0.6128E+03  0.6126E+03
      1.374  0.9774E+02  0.9335E+02  0.6179E+03  0.6175E+03
      1.427  0.6476E+02  0.6467E+02  0.6213E+03  0.6209E+03
      1.479  0.8647E+02  0.8561E+02  0.6259E+03  0.6254E+03
      1.532  0.1047E+03  0.1051E+03  0.6314E+03  0.6310E+03
      1.585  0.7658E+02  0.7590E+02  0.6355E+03  0.6350E+03
      1.638  0.6738E+02  0.7232E+02  0.6390E+03  0.6388E+03
      1.690  0.8113E+02  0.7508E+02  0.6433E+03  0.6428E+03
      1.743  0.7611E+02  0.7723E+02  0.6473E+03  0.6468E+03
      1.796  0.5740E+02  0.5879E+02  0.6504E+03  0.6500E+03
      1.849  0.9503E+02  0.8863E+02  0.6554E+03  0.6546E+03
      1.902  0.8126E+02  0.8782E+02  0.6597E+03  0.6593E+03
      1.954  0.6086E+02  0.6139E+02  0.6629E+03  0.6625E+03
      2.007  0.7398E+02  0.7200E+02  0.6668E+03  0.6663E+03
      2.060  0.6697E+02  0.7292E+02  0.6703E+03  0.6702E+03
      2.113  0.8089E+02  0.7359E+02  0.6746E+03  0.6740E+03
      2.166  0.5822E+02  0.5884E+02  0.6777E+03  0.6771E+03
      2.218  0.8414E+02  0.8649E+02  0.6821E+03  0.6817E+03
      2.271  0.6244E+02  0.6176E+02  0.6854E+03  0.6850E+03
      2.324  0.5971E+02  0.6253E+02  0.6885E+03  0.6883E+03
      2.377  0.7038E+02  0.6743E+02  0.6923E+03  0.6918E+03
      2.430  0.1073E+03  0.9597E+02  0.6979E+03  0.6969E+03
      2.482  0.6514E+02  0.7436E+02  0.7014E+03  0.7008E+03
      2.535  0.8019E+02  0.8218E+02  0.7056E+03  0.7052E+03
      2.588  0.6800E+02  0.7050E+02  0.7092E+03  0.7089E+03
      2.641  0.5794E+02  0.5209E+02  0.7122E+03  0.7116E+03
      2.693  0.6455E+02  0.5900E+02  0.7157E+03  0.7147E+03
      2.746  0.5469E+02  0.6104E+02  0.7185E+03  0.7180E+03
      2.799  0.5048E+02  0.5569E+02  0.7212E+03  0.7209E+03
      2.852  0.6392E+02  0.6022E+02  0.7246E+03  0.7241E+03
      2.905  0.3142E+02  0.3648E+02  0.7262E+03  0.7260E+03
      2.957  0.5860E+02  0.5023E+02  0.7293E+03  0.7287E+03
      3.010  0.7109E+02  0.7064E+02  0.7331E+03  0.7324E+03
      3.063  0.5884E+02  0.6259E+02  0.7362E+03  0.7357E+03
      3.116  0.5644E+02  0.5559E+02  0.7392E+03  0.7386E+03
      3.169  0.5403E+02  0.5589E+02  0.7420E+03  0.7416E+03
      3.221  0.6589E+02  0.5829E+02  0.7455E+03  0.7447E+03
      3.274  0.6130E+02  0.6038E+02  0.7487E+03  0.7478E+03
      3.327  0.6419E+02  0.7032E+02  0.7521E+03  0.7516E+03
      3.380  0.4434E+02  0.4953E+02  0.7545E+03  0.7542E+03
      3.432  0.5528E+02  0.5224E+02  0.7574E+03  0.7569E+03
      3.485  0.5019E+02  0.5168E+02  0.7600E+03  0.7597E+03
      3.538  0.4343E+02  0.4410E+02  0.7623E+03  0.7620E+03
      3.591  0.6027E+02  0.5459E+02  0.7655E+03  0.7649E+03
      3.644  0.5221E+02  0.5779E+02  0.7683E+03  0.7679E+03
      3.696  0.4172E+02  0.3877E+02  0.7705E+03  0.7700E+03
      3.749  0.5467E+02  0.5901E+02  0.7734E+03  0.7731E+03
      3.802  0.3715E+02  0.3476E+02  0.7753E+03  0.7749E+03
      3.855  0.5203E+02  0.5548E+02  0.7781E+03  0.7778E+03
      3.908  0.3752E+02  0.3637E+02  0.7800E+03  0.7798E+03
      3.960  0.9641E+02  0.9260E+02  0.7851E+03  0.7847E+03
      4.013  0.5478E+02  0.5615E+02  0.7880E+03  0.7876E+03
      4.066  0.6074E+02  0.6326E+02  0.7912E+03  0.7910E+03
      4.119  0.6262E+02  0.5472E+02  0.7945E+03  0.7938E+03
      4.172  0.8954E+02  0.9386E+02  0.7993E+03  0.7988E+03
      4.224  0.7224E+02  0.7695E+02  0.8031E+03  0.8029E+03
      4.277  0.9433E+02  0.9106E+02  0.8081E+03  0.8077E+03
      4.330  0.8367E+02  0.8418E+02  0.8125E+03  0.8121E+03
      4.383  0.1200E+03  0.1200E+03  0.8188E+03  0.8184E+03
      4.435  0.7377E+02  0.7320E+02  0.8227E+03  0.8223E+03
      4.488  0.1214E+03  0.1179E+03  0.8291E+03  0.8285E+03
      4.541  0.8718E+02  0.9253E+02  0.8337E+03  0.8334E+03
      4.594  0.1218E+03  0.1209E+03  0.8401E+03  0.8398E+03
      4.647  0.1268E+03  0.1244E+03  0.8468E+03  0.8464E+03
      4.699  0.1050E+03  0.1028E+03  0.8524E+03  0.8518E+03
      4.752  0.8190E+02  0.8580E+02  0.8567E+03  0.8563E+03
      4.805  0.7770E+02  0.8462E+02  0.8608E+03  0.8608E+03
      4.858  0.4658E+02  0.4666E+02  0.8633E+03  0.8632E+03
      4.911  0.1357E+02  0.6223E+01  0.8640E+03  0.8636E+03
      4.963  0.5526E+00  0.8022E+01  0.8640E+03  0.8640E+03
      5.016  0.0000E+00  0.0000E+00  0.8640E+03  0.8640E+03
      5.069  0.0000E+00  0.0000E+00  0.8640E+03  0.8640E+03
      5.122  0.0000E+00  0.0000E+00  0.8640E+03  0.8640E+03
      5.174  0.0000E+00  0.0000E+00  0.8640E+03  0.8640E+03
      5.227  0.0000E+00  0.0000E+00  0.8640E+03  0.8640E+03
      5.280  0.0000E+00  0.0000E+00  0.8640E+03  0.8640E+03
      5.333  0.0000E+00  0.0000E+00  0.8640E+03  0.8640E+03
      5.386  0.0000E+00  0.0000E+00  0.8640E+03  0.8640E+03
      5.438  0.0000E+00  0.0000E+00  0.8640E+03  0.8640E+03
      5.491  0.0000E+00  0.0000E+00  0.8640E+03  0.8640E+03
      5.544  0.0000E+00  0.0000E+00  0.8640E+03  0.8640E+03
      5.597  0.0000E+00  0.0000E+00  0.8640E+03  0.8640E+03
      5.650  0.0000E+00  0.0000E+00  0.8640E+03  0.8640E+03
