 120 120   0   0
  0.1318225E+02  0.1330318E-08  0.1629300E-08  0.7994750E-09  0.5000000E-15
  1.000000000000000E-004
  CAR 
 Si and Ge interface calculation         
      7.67938896    -14.83837208  301      4.35089441      1.00000000
    -14.838  0.0000E+00  0.0000E+00  0.0000E+00  0.0000E+00
    -14.763  0.0000E+00  0.0000E+00  0.0000E+00  0.0000E+00
    -14.688  0.0000E+00  0.0000E+00  0.0000E+00  0.0000E+00
    -14.613  0.0000E+00  0.0000E+00  0.0000E+00  0.0000E+00
    -14.538  0.0000E+00  0.0000E+00  0.0000E+00  0.0000E+00
    -14.463  0.0000E+00  0.0000E+00  0.0000E+00  0.0000E+00
    -14.388  0.0000E+00  0.0000E+00  0.0000E+00  0.0000E+00
    -14.313  0.0000E+00  0.0000E+00  0.0000E+00  0.0000E+00
    -14.238  0.0000E+00  0.0000E+00  0.0000E+00  0.0000E+00
    -14.163  0.0000E+00  0.0000E+00  0.0000E+00  0.0000E+00
    -14.088  0.0000E+00  0.0000E+00  0.0000E+00  0.0000E+00
    -14.013  0.0000E+00  0.0000E+00  0.0000E+00  0.0000E+00
    -13.938  0.0000E+00  0.0000E+00  0.0000E+00  0.0000E+00
    -13.863  0.1893E-10  0.2465E-14  0.1421E-11  0.1850E-15
    -13.788  0.4441E+01  0.4419E+01  0.3333E+00  0.3317E+00
    -13.712  0.1024E+02  0.8782E+01  0.1102E+01  0.9925E+00
    -13.637  0.1640E+02  0.1762E+02  0.2333E+01  0.2333E+01
    -13.562  0.6140E-01  0.1174E-02  0.2338E+01  0.2333E+01
    -13.487  0.2602E+02  0.2336E+02  0.4291E+01  0.4087E+01
    -13.412  0.8867E+01  0.1181E+02  0.4999E+01  0.4974E+01
    -13.337  0.1739E+02  0.1497E+02  0.6305E+01  0.6124E+01
    -13.262  0.7094E-01  0.2489E+01  0.6339E+01  0.6333E+01
    -13.187  0.1758E+02  0.1673E+02  0.7658E+01  0.7589E+01
    -13.112  0.1782E+02  0.1550E+02  0.9004E+01  0.8808E+01
    -13.037  0.7891E+01  0.1143E+02  0.9667E+01  0.9667E+01
    -12.962  0.5634E+01  0.1005E+01  0.1009E+02  0.9742E+01
    -12.887  0.1213E+02  0.1676E+02  0.1100E+02  0.1100E+02
    -12.812  0.2227E+02  0.2109E+02  0.1267E+02  0.1258E+02
    -12.737  0.2181E+02  0.1996E+02  0.1431E+02  0.1417E+02
    -12.662  0.8854E+01  0.1060E+02  0.1500E+02  0.1500E+02
    -12.587  0.1902E+02  0.1502E+02  0.1643E+02  0.1613E+02
    -12.512  0.3785E+01  0.7201E+01  0.1671E+02  0.1667E+02
    -12.436  0.1716E+02  0.1774E+02  0.1800E+02  0.1800E+02
    -12.361  0.7672E+01  0.4349E+01  0.1858E+02  0.1833E+02
    -12.286  0.1488E+02  0.1813E+02  0.1978E+02  0.1969E+02
    -12.211  0.2986E+01  0.4157E+01  0.2001E+02  0.2000E+02
    -12.136  0.3187E+02  0.3063E+02  0.2240E+02  0.2230E+02
    -12.061  0.1230E+02  0.1173E+02  0.2332E+02  0.2322E+02
    -11.986  0.8820E+01  0.8880E+01  0.2400E+02  0.2400E+02
    -11.911  0.3001E+01  0.1163E+01  0.2423E+02  0.2409E+02
    -11.836  0.9001E+01  0.7471E+01  0.2490E+02  0.2465E+02
    -11.761  0.4501E-07  0.4688E+01  0.2500E+02  0.2500E+02
    -11.686  0.1234E+02  0.1102E+02  0.2593E+02  0.2583E+02
    -11.611  0.2215E+02  0.2410E+02  0.2766E+02  0.2764E+02
    -11.536  0.4441E+01  0.4441E+01  0.2800E+02  0.2800E+02
    -11.461  0.1397E-05  0.5287E-08  0.2800E+02  0.2800E+02
    -11.386  0.4441E+01  0.4441E+01  0.2833E+02  0.2833E+02
    -11.311  0.8882E+01  0.8879E+01  0.2900E+02  0.2900E+02
    -11.236  0.0000E+00  0.0000E+00  0.2900E+02  0.2900E+02
    -11.160  0.3995E-03  0.6048E-05  0.2900E+02  0.2900E+02
    -11.085  0.1782E+02  0.1755E+02  0.3034E+02  0.3032E+02
    -11.010  0.3532E+02  0.3282E+02  0.3299E+02  0.3280E+02
    -10.935  0.2614E+02  0.2672E+02  0.3497E+02  0.3481E+02
    -10.860  0.6797E+01  0.2523E+01  0.3551E+02  0.3519E+02
    -10.785  0.1433E+02  0.1949E+02  0.3667E+02  0.3665E+02
    -10.710  0.4441E+01  0.4438E+01  0.3700E+02  0.3700E+02
    -10.635  0.8690E+01  0.7506E+01  0.3765E+02  0.3756E+02
    -10.560  0.1232E+02  0.8760E+01  0.3859E+02  0.3832E+02
    -10.485  0.9850E+01  0.1264E+02  0.3933E+02  0.3932E+02
    -10.410  0.1355E+02  0.1333E+02  0.4035E+02  0.4033E+02
    -10.335  0.1857E+02  0.1785E+02  0.4174E+02  0.4167E+02
    -10.260  0.1672E+02  0.1756E+02  0.4300E+02  0.4299E+02
    -10.185  0.6419E+01  0.3959E+01  0.4348E+02  0.4330E+02
    -10.110  0.1113E+02  0.1355E+02  0.4433E+02  0.4433E+02
    -10.035  0.6808E+01  0.2924E+01  0.4484E+02  0.4455E+02
     -9.960  0.1226E+01  0.5959E+01  0.4500E+02  0.4500E+02
     -9.884  0.8817E+01  0.8881E+01  0.4567E+02  0.4567E+02
     -9.809  0.1650E-09  0.1251E-13  0.4567E+02  0.4567E+02
     -9.734  0.8744E+01  0.7502E+01  0.4632E+02  0.4623E+02
     -9.659  0.1134E+02  0.7349E+01  0.4718E+02  0.4680E+02
     -9.584  0.2419E+02  0.2929E+02  0.4900E+02  0.4900E+02
     -9.509  0.2014E+01  0.1419E+00  0.4915E+02  0.4901E+02
     -9.434  0.4459E+02  0.4043E+02  0.5250E+02  0.5205E+02
     -9.359  0.1895E+02  0.2548E+02  0.5400E+02  0.5400E+02
     -9.284  0.1775E+02  0.1637E+02  0.5533E+02  0.5523E+02
     -9.209  0.1358E+02  0.1202E+02  0.5636E+02  0.5624E+02
     -9.134  0.2681E+02  0.2447E+02  0.5838E+02  0.5808E+02
     -9.059  0.2577E+02  0.2695E+02  0.6033E+02  0.6014E+02
     -8.984  0.1358E+02  0.1130E+02  0.6136E+02  0.6105E+02
     -8.909  0.3060E+02  0.3137E+02  0.6369E+02  0.6340E+02
     -8.834  0.2188E+02  0.2497E+02  0.6534E+02  0.6530E+02
     -8.759  0.1480E+02  0.1158E+02  0.6645E+02  0.6620E+02
     -8.684  0.2948E+02  0.3281E+02  0.6867E+02  0.6867E+02
     -8.608  0.1294E+02  0.8026E+01  0.6964E+02  0.6927E+02
     -8.533  0.1783E+02  0.2290E+02  0.7100E+02  0.7100E+02
     -8.458  0.8085E+01  0.5137E+01  0.7161E+02  0.7139E+02
     -8.383  0.2319E+02  0.1843E+02  0.7336E+02  0.7281E+02
     -8.308  0.2696E+02  0.3108E+02  0.7545E+02  0.7519E+02
     -8.233  0.1896E+02  0.2019E+02  0.7688E+02  0.7673E+02
     -8.158  0.1917E+02  0.2138E+02  0.7833E+02  0.7833E+02
     -8.083  0.2198E+02  0.1984E+02  0.7998E+02  0.7982E+02
     -8.008  0.5232E+00  0.1614E+01  0.8004E+02  0.8000E+02
     -7.933  0.2612E+02  0.2650E+02  0.8200E+02  0.8199E+02
     -7.858  0.4441E+01  0.4369E+01  0.8233E+02  0.8233E+02
     -7.783  0.0000E+00  0.0000E+00  0.8233E+02  0.8233E+02
     -7.708  0.2853E-01  0.2581E-03  0.8234E+02  0.8233E+02
     -7.633  0.8853E+01  0.8882E+01  0.8300E+02  0.8300E+02
     -7.558  0.0000E+00  0.0000E+00  0.8300E+02  0.8300E+02
     -7.483  0.2896E+01  0.9376E+00  0.8322E+02  0.8307E+02
     -7.408  0.9438E+01  0.8979E+01  0.8394E+02  0.8374E+02
     -7.332  0.9960E-02  0.3406E+01  0.8400E+02  0.8400E+02
     -7.257  0.6471E+01  0.5395E+01  0.8449E+02  0.8440E+02
     -7.182  0.5922E+01  0.5700E+01  0.8494E+02  0.8483E+02
     -7.107  0.5433E+00  0.2114E+01  0.8500E+02  0.8500E+02
     -7.032  0.2068E+02  0.1735E+02  0.8655E+02  0.8630E+02
     -6.957  0.9624E+01  0.1338E+02  0.8733E+02  0.8733E+02
     -6.882  0.3341E+01  0.3309E+01  0.8758E+02  0.8758E+02
     -6.807  0.1035E+02  0.1003E+02  0.8836E+02  0.8834E+02
     -6.732  0.4059E+01  0.4399E+01  0.8867E+02  0.8867E+02
     -6.657  0.1035E-04  0.1179E-07  0.8867E+02  0.8867E+02
     -6.582  0.6894E+01  0.6264E+01  0.8918E+02  0.8914E+02
     -6.507  0.1533E+02  0.1454E+02  0.9034E+02  0.9026E+02
     -6.432  0.1789E+02  0.1502E+02  0.9168E+02  0.9140E+02
     -6.357  0.2607E+02  0.2551E+02  0.9364E+02  0.9335E+02
     -6.282  0.1998E+02  0.2048E+02  0.9516E+02  0.9491E+02
     -6.207  0.2836E+02  0.2865E+02  0.9732E+02  0.9706E+02
     -6.132  0.3075E+02  0.2665E+02  0.9966E+02  0.9909E+02
     -6.056  0.2709E+02  0.3158E+02  0.1018E+03  0.1015E+03
     -5.981  0.2736E+02  0.2767E+02  0.1038E+03  0.1036E+03
     -5.906  0.2652E+02  0.2614E+02  0.1058E+03  0.1056E+03
     -5.831  0.2243E+02  0.2355E+02  0.1076E+03  0.1074E+03
     -5.756  0.2667E+02  0.2547E+02  0.1096E+03  0.1093E+03
     -5.681  0.2467E+02  0.2633E+02  0.1115E+03  0.1114E+03
     -5.606  0.2138E+02  0.2081E+02  0.1131E+03  0.1130E+03
     -5.531  0.1828E+02  0.1824E+02  0.1145E+03  0.1143E+03
     -5.456  0.2958E+02  0.2662E+02  0.1168E+03  0.1164E+03
     -5.381  0.3209E+02  0.3448E+02  0.1192E+03  0.1190E+03
     -5.306  0.3461E+02  0.3367E+02  0.1218E+03  0.1215E+03
     -5.231  0.2152E+02  0.2559E+02  0.1235E+03  0.1234E+03
     -5.156  0.2962E+02  0.2731E+02  0.1258E+03  0.1255E+03
     -5.081  0.3487E+02  0.3431E+02  0.1284E+03  0.1281E+03
     -5.006  0.3114E+02  0.3038E+02  0.1307E+03  0.1303E+03
     -4.931  0.3272E+02  0.3415E+02  0.1332E+03  0.1329E+03
     -4.855  0.2057E+02  0.2101E+02  0.1348E+03  0.1345E+03
     -4.780  0.3189E+02  0.3279E+02  0.1373E+03  0.1370E+03
     -4.705  0.3344E+02  0.3160E+02  0.1398E+03  0.1394E+03
     -4.630  0.3119E+02  0.3193E+02  0.1421E+03  0.1419E+03
     -4.555  0.2063E+02  0.2352E+02  0.1437E+03  0.1436E+03
     -4.480  0.2593E+02  0.2273E+02  0.1456E+03  0.1454E+03
     -4.405  0.3077E+02  0.2824E+02  0.1480E+03  0.1475E+03
     -4.330  0.2479E+02  0.2788E+02  0.1499E+03  0.1496E+03
     -4.255  0.4149E+02  0.4071E+02  0.1531E+03  0.1527E+03
     -4.180  0.2662E+02  0.2708E+02  0.1551E+03  0.1548E+03
     -4.105  0.3372E+02  0.3385E+02  0.1577E+03  0.1574E+03
     -4.030  0.3719E+02  0.3798E+02  0.1605E+03  0.1602E+03
     -3.955  0.2793E+02  0.3002E+02  0.1626E+03  0.1625E+03
     -3.880  0.2579E+02  0.1986E+02  0.1645E+03  0.1640E+03
     -3.805  0.2606E+02  0.2972E+02  0.1666E+03  0.1663E+03
     -3.730  0.3609E+02  0.3659E+02  0.1694E+03  0.1691E+03
     -3.655  0.2216E+02  0.2266E+02  0.1711E+03  0.1708E+03
     -3.579  0.2547E+02  0.2467E+02  0.1730E+03  0.1727E+03
     -3.504  0.1978E+02  0.2231E+02  0.1745E+03  0.1744E+03
     -3.429  0.2336E+02  0.2198E+02  0.1763E+03  0.1761E+03
     -3.354  0.1137E+02  0.1155E+02  0.1772E+03  0.1770E+03
     -3.279  0.2611E+02  0.2686E+02  0.1791E+03  0.1790E+03
     -3.204  0.2940E+02  0.2725E+02  0.1814E+03  0.1810E+03
     -3.129  0.4036E+02  0.3924E+02  0.1844E+03  0.1840E+03
     -3.054  0.3168E+02  0.3298E+02  0.1868E+03  0.1866E+03
     -2.979  0.2853E+02  0.2796E+02  0.1890E+03  0.1887E+03
     -2.904  0.1802E+02  0.1765E+02  0.1903E+03  0.1901E+03
     -2.829  0.3234E+02  0.3008E+02  0.1928E+03  0.1924E+03
     -2.754  0.3475E+02  0.3266E+02  0.1954E+03  0.1949E+03
     -2.679  0.2421E+02  0.2858E+02  0.1973E+03  0.1971E+03
     -2.604  0.2393E+02  0.2554E+02  0.1991E+03  0.1990E+03
     -2.529  0.3502E+02  0.3229E+02  0.2018E+03  0.2014E+03
     -2.454  0.3089E+02  0.3055E+02  0.2041E+03  0.2038E+03
     -2.379  0.3606E+02  0.3877E+02  0.2069E+03  0.2067E+03
     -2.303  0.2936E+02  0.2765E+02  0.2091E+03  0.2088E+03
     -2.228  0.3873E+02  0.3842E+02  0.2121E+03  0.2118E+03
     -2.153  0.2748E+02  0.2760E+02  0.2141E+03  0.2139E+03
     -2.078  0.3024E+02  0.2401E+02  0.2164E+03  0.2157E+03
     -2.003  0.3504E+02  0.3945E+02  0.2191E+03  0.2187E+03
     -1.928  0.3564E+02  0.3661E+02  0.2218E+03  0.2215E+03
     -1.853  0.3891E+02  0.3614E+02  0.2247E+03  0.2243E+03
     -1.778  0.3105E+02  0.3284E+02  0.2271E+03  0.2268E+03
     -1.703  0.4044E+02  0.3840E+02  0.2302E+03  0.2297E+03
     -1.628  0.2904E+02  0.3022E+02  0.2324E+03  0.2320E+03
     -1.553  0.3779E+02  0.3879E+02  0.2353E+03  0.2350E+03
     -1.478  0.2682E+02  0.2565E+02  0.2374E+03  0.2370E+03
     -1.403  0.2516E+02  0.2697E+02  0.2393E+03  0.2390E+03
     -1.328  0.3615E+02  0.3433E+02  0.2420E+03  0.2416E+03
     -1.253  0.4164E+02  0.4187E+02  0.2452E+03  0.2448E+03
     -1.178  0.5420E+02  0.5166E+02  0.2493E+03  0.2487E+03
     -1.103  0.4843E+02  0.5107E+02  0.2530E+03  0.2526E+03
     -1.027  0.3514E+02  0.3455E+02  0.2557E+03  0.2552E+03
     -0.952  0.3169E+02  0.3673E+02  0.2582E+03  0.2581E+03
     -0.877  0.3371E+02  0.3222E+02  0.2607E+03  0.2605E+03
     -0.802  0.4782E+02  0.4523E+02  0.2643E+03  0.2639E+03
     -0.727  0.4152E+02  0.4384E+02  0.2675E+03  0.2672E+03
     -0.652  0.4277E+02  0.4165E+02  0.2707E+03  0.2704E+03
     -0.577  0.3862E+02  0.3639E+02  0.2737E+03  0.2732E+03
     -0.502  0.5577E+02  0.5414E+02  0.2779E+03  0.2773E+03
     -0.427  0.3180E+02  0.3719E+02  0.2804E+03  0.2802E+03
     -0.352  0.3155E+02  0.3237E+02  0.2828E+03  0.2826E+03
     -0.277  0.3259E+02  0.2979E+02  0.2852E+03  0.2848E+03
     -0.202  0.3359E+02  0.3709E+02  0.2878E+03  0.2876E+03
     -0.127  0.2229E+02  0.2136E+02  0.2895E+03  0.2893E+03
     -0.052  0.2945E+02  0.2699E+02  0.2917E+03  0.2913E+03
      0.023  0.3194E+02  0.3116E+02  0.2942E+03  0.2937E+03
      0.098  0.2324E+02  0.2539E+02  0.2959E+03  0.2956E+03
      0.173  0.3034E+02  0.2971E+02  0.2982E+03  0.2979E+03
      0.249  0.4209E+02  0.4029E+02  0.3014E+03  0.3009E+03
      0.324  0.5104E+02  0.5333E+02  0.3053E+03  0.3049E+03
      0.399  0.2989E+02  0.3189E+02  0.3076E+03  0.3074E+03
      0.474  0.3125E+02  0.3034E+02  0.3099E+03  0.3097E+03
      0.549  0.2986E+02  0.3107E+02  0.3122E+03  0.3120E+03
      0.624  0.4682E+02  0.4109E+02  0.3157E+03  0.3151E+03
      0.699  0.3964E+02  0.4259E+02  0.3188E+03  0.3184E+03
      0.774  0.2071E+02  0.2129E+02  0.3204E+03  0.3200E+03
      0.849  0.4078E+02  0.3730E+02  0.3235E+03  0.3229E+03
      0.924  0.4306E+02  0.4021E+02  0.3267E+03  0.3259E+03
      0.999  0.3016E+02  0.3770E+02  0.3290E+03  0.3288E+03
      1.074  0.5022E+02  0.4105E+02  0.3328E+03  0.3320E+03
      1.149  0.4491E+02  0.5246E+02  0.3363E+03  0.3359E+03
      1.224  0.3612E+02  0.3281E+02  0.3390E+03  0.3384E+03
      1.299  0.4055E+02  0.3874E+02  0.3421E+03  0.3414E+03
      1.374  0.3998E+02  0.4163E+02  0.3452E+03  0.3446E+03
      1.449  0.5145E+02  0.5241E+02  0.3491E+03  0.3486E+03
      1.525  0.4287E+02  0.4326E+02  0.3524E+03  0.3519E+03
      1.600  0.3742E+02  0.3908E+02  0.3552E+03  0.3549E+03
      1.675  0.3806E+02  0.3414E+02  0.3581E+03  0.3575E+03
      1.750  0.3545E+02  0.3877E+02  0.3608E+03  0.3605E+03
      1.825  0.4111E+02  0.3817E+02  0.3639E+03  0.3634E+03
      1.900  0.5580E+02  0.5390E+02  0.3682E+03  0.3675E+03
      1.975  0.5275E+02  0.4834E+02  0.3722E+03  0.3712E+03
      2.050  0.4362E+02  0.4615E+02  0.3755E+03  0.3747E+03
      2.125  0.4715E+02  0.5035E+02  0.3791E+03  0.3785E+03
      2.200  0.4835E+02  0.5120E+02  0.3828E+03  0.3824E+03
      2.275  0.5159E+02  0.4482E+02  0.3867E+03  0.3858E+03
      2.350  0.4027E+02  0.4474E+02  0.3898E+03  0.3892E+03
      2.425  0.4344E+02  0.4641E+02  0.3931E+03  0.3927E+03
      2.500  0.4365E+02  0.4389E+02  0.3964E+03  0.3961E+03
      2.575  0.4544E+02  0.3853E+02  0.3998E+03  0.3990E+03
      2.650  0.4962E+02  0.4922E+02  0.4035E+03  0.4028E+03
      2.725  0.3890E+02  0.4396E+02  0.4065E+03  0.4061E+03
      2.801  0.3982E+02  0.3376E+02  0.4095E+03  0.4087E+03
      2.876  0.4918E+02  0.5198E+02  0.4133E+03  0.4126E+03
      2.951  0.5024E+02  0.4893E+02  0.4171E+03  0.4164E+03
      3.026  0.5579E+02  0.5328E+02  0.4213E+03  0.4204E+03
      3.101  0.5034E+02  0.4855E+02  0.4252E+03  0.4242E+03
      3.176  0.5264E+02  0.5363E+02  0.4292E+03  0.4283E+03
      3.251  0.2978E+02  0.3458E+02  0.4316E+03  0.4309E+03
      3.326  0.4061E+02  0.3999E+02  0.4347E+03  0.4339E+03
      3.401  0.3666E+02  0.3959E+02  0.4375E+03  0.4369E+03
      3.476  0.4529E+02  0.4435E+02  0.4409E+03  0.4403E+03
      3.551  0.5113E+02  0.5488E+02  0.4448E+03  0.4444E+03
      3.626  0.3347E+02  0.2756E+02  0.4473E+03  0.4465E+03
      3.701  0.4045E+02  0.4163E+02  0.4504E+03  0.4498E+03
      3.776  0.4540E+02  0.4400E+02  0.4539E+03  0.4531E+03
      3.851  0.4000E+02  0.4238E+02  0.4569E+03  0.4564E+03
      3.926  0.4480E+02  0.3512E+02  0.4603E+03  0.4591E+03
      4.001  0.4462E+02  0.4735E+02  0.4637E+03  0.4626E+03
      4.077  0.4440E+02  0.4320E+02  0.4670E+03  0.4659E+03
      4.152  0.4968E+02  0.4795E+02  0.4708E+03  0.4695E+03
      4.227  0.4351E+02  0.3895E+02  0.4741E+03  0.4725E+03
      4.302  0.4525E+02  0.5120E+02  0.4775E+03  0.4764E+03
      4.377  0.5337E+02  0.4936E+02  0.4816E+03  0.4801E+03
      4.452  0.4891E+02  0.4986E+02  0.4853E+03  0.4839E+03
      4.527  0.4545E+02  0.5512E+02  0.4888E+03  0.4881E+03
      4.602  0.5485E+02  0.5092E+02  0.4929E+03  0.4919E+03
      4.677  0.5033E+02  0.4490E+02  0.4967E+03  0.4953E+03
      4.752  0.4916E+02  0.5015E+02  0.5005E+03  0.4991E+03
      4.827  0.3372E+02  0.3592E+02  0.5030E+03  0.5018E+03
      4.902  0.3878E+02  0.4863E+02  0.5060E+03  0.5055E+03
      4.977  0.4595E+02  0.4417E+02  0.5094E+03  0.5089E+03
      5.052  0.4218E+02  0.3918E+02  0.5126E+03  0.5119E+03
      5.127  0.3558E+02  0.3965E+02  0.5153E+03  0.5149E+03
      5.202  0.4689E+02  0.4433E+02  0.5189E+03  0.5182E+03
      5.277  0.4934E+02  0.4706E+02  0.5226E+03  0.5217E+03
      5.353  0.4298E+02  0.4574E+02  0.5259E+03  0.5252E+03
      5.428  0.4880E+02  0.4196E+02  0.5296E+03  0.5285E+03
      5.503  0.4814E+02  0.5339E+02  0.5333E+03  0.5325E+03
      5.578  0.3664E+02  0.3905E+02  0.5361E+03  0.5355E+03
      5.653  0.2745E+02  0.2904E+02  0.5381E+03  0.5377E+03
      5.728  0.4232E+02  0.3878E+02  0.5413E+03  0.5406E+03
      5.803  0.4143E+02  0.3813E+02  0.5445E+03  0.5436E+03
      5.878  0.3895E+02  0.4095E+02  0.5474E+03  0.5467E+03
      5.953  0.4950E+02  0.4802E+02  0.5512E+03  0.5504E+03
      6.028  0.4738E+02  0.4310E+02  0.5548E+03  0.5537E+03
      6.103  0.4720E+02  0.5061E+02  0.5583E+03  0.5575E+03
      6.178  0.3752E+02  0.3644E+02  0.5612E+03  0.5603E+03
      6.253  0.4572E+02  0.4646E+02  0.5647E+03  0.5639E+03
      6.328  0.3799E+02  0.4067E+02  0.5676E+03  0.5669E+03
      6.403  0.3190E+02  0.3253E+02  0.5700E+03  0.5694E+03
      6.478  0.3913E+02  0.3990E+02  0.5730E+03  0.5724E+03
      6.554  0.2583E+02  0.3195E+02  0.5750E+03  0.5748E+03
      6.629  0.1125E+02  0.1250E+02  0.5758E+03  0.5757E+03
      6.704  0.2469E+01  0.3306E+01  0.5760E+03  0.5760E+03
      6.779  0.0000E+00  0.0000E+00  0.5760E+03  0.5760E+03
      6.854  0.0000E+00  0.0000E+00  0.5760E+03  0.5760E+03
      6.929  0.0000E+00  0.0000E+00  0.5760E+03  0.5760E+03
      7.004  0.0000E+00  0.0000E+00  0.5760E+03  0.5760E+03
      7.079  0.0000E+00  0.0000E+00  0.5760E+03  0.5760E+03
      7.154  0.0000E+00  0.0000E+00  0.5760E+03  0.5760E+03
      7.229  0.0000E+00  0.0000E+00  0.5760E+03  0.5760E+03
      7.304  0.0000E+00  0.0000E+00  0.5760E+03  0.5760E+03
      7.379  0.0000E+00  0.0000E+00  0.5760E+03  0.5760E+03
      7.454  0.0000E+00  0.0000E+00  0.5760E+03  0.5760E+03
      7.529  0.0000E+00  0.0000E+00  0.5760E+03  0.5760E+03
      7.604  0.0000E+00  0.0000E+00  0.5760E+03  0.5760E+03
      7.679  0.0000E+00  0.0000E+00  0.5760E+03  0.5760E+03
