Si and Ge interface calculation         
           1
    13.303180    0.000000    0.000000
     6.651589   14.873406    0.000000
     0.000000    0.000000    7.994750
   Si   C 
    36    84
Direct configuration=     1
   0.28324950  0.64162475  0.00000005
   0.81658280  0.40829128  0.15190087
   0.34991598  0.17495777  0.30380175
   0.61658275  0.30829138  0.00000006
   0.14991605  0.07495793  0.15190087
   0.68324923  0.84162444  0.30380171
   0.94991612  0.97495806  0.00000004
   0.48324949  0.74162459  0.15190087
   0.01658267  0.50829112  0.30380171
   0.79991627  0.77495801  0.07595031
   0.33324951  0.54162455  0.22785117
   0.86658275  0.30829108  0.37975204
   0.13324969  0.44162476  0.07595033
   0.66658294  0.20829128  0.22785117
   0.19991624  0.97495776  0.37975204
   0.46658289  0.10829154  0.07595033
   0.99991614  0.87495804  0.22785117
   0.53324938  0.64162457  0.37975204
   0.78324956  0.64162475  0.00000000
   0.31658283  0.40829128  0.15190086
   0.84991604  0.17495778  0.30380175
   0.11658280  0.30829140  0.00000006
   0.64991605  0.07495795  0.15190090
   0.18324930  0.84162450  0.30380175
   0.44991612  0.97495806  0.00000006
   0.98324943  0.74162459  0.15190090
   0.51658267  0.50829112  0.30380175
   0.29991618  0.77495813  0.07595033
   0.83324945  0.54162467  0.22785120
   0.36658269  0.30829120  0.37975201
   0.63324940  0.44162473  0.07595035
   0.16658264  0.20829126  0.22785120
   0.69991595  0.97495782  0.37975198
   0.96658272  0.10829155  0.07595033
   0.49991596  0.87495804  0.22785120
   0.03324926  0.64162463  0.37975204
   0.01980794  0.14501810  0.56517535
   0.99123627  0.41644672  0.66493601
   0.96266472  0.68787533  0.76469654
   0.16266501  0.28787524  0.56517535
   0.13409346  0.55930388  0.66493601
   0.10552193  0.83073252  0.76469654
   0.30552217  0.43073240  0.56517535
   0.27695060  0.70216101  0.66493601
   0.24837908  0.97358972  0.76469660
   0.44837931  0.57358956  0.56517535
   0.41980776  0.84501821  0.66493601
   0.39123622  0.11644685  0.76469660
   0.59123641  0.71644670  0.56517535
   0.56266481  0.98787528  0.66493601
   0.53409326  0.25930393  0.76469660
   0.73409355  0.85930377  0.56517535
   0.70552200  0.13073242  0.66493601
   0.67695045  0.40216100  0.76469654
   0.87695074  0.00216103  0.56517535
   0.84837919  0.27358961  0.66493601
   0.81980753  0.54501820  0.76469660
   0.11266506  0.88787508  0.61505556
   0.08409351  0.15930367  0.71481621
   0.05552202  0.43073237  0.81457681
   0.25552216  0.03073239  0.61505556
   0.22695062  0.30216098  0.71481615
   0.19837904  0.57358968  0.81457681
   0.39837933  0.17358947  0.61505556
   0.36980775  0.44501817  0.71481615
   0.34123614  0.71644676  0.81457681
   0.54123640  0.31644654  0.61505556
   0.51266491  0.58787519  0.71481621
   0.48409328  0.85930371  0.81457681
   0.68409354  0.45930383  0.61505556
   0.65552199  0.73073244  0.71481621
   0.62695044  0.00216115  0.81457681
   0.82695067  0.60216093  0.61505556
   0.79837912  0.87358957  0.71481621
   0.76980764  0.14501822  0.81457681
   0.96980786  0.74501806  0.61505556
   0.94123638  0.01644671  0.71481621
   0.91266471  0.28787518  0.81457681
   0.09123641  0.71644664  0.56517535
   0.06266490  0.98787528  0.66493601
   0.03409331  0.25930393  0.76469654
   0.23409355  0.85930377  0.56517535
   0.20552203  0.13073242  0.66493601
   0.17695054  0.40216112  0.76469660
   0.37695077  0.00216091  0.56517535
   0.34837925  0.27358961  0.66493601
   0.31980762  0.54501820  0.76469654
   0.51980787  0.14501810  0.56517535
   0.49123630  0.41644672  0.66493601
   0.46266478  0.68787533  0.76469660
   0.66266501  0.28787518  0.56517535
   0.63409346  0.55930382  0.66493601
   0.60552192  0.83073246  0.76469660
   0.80552220  0.43073240  0.56517535
   0.77695060  0.70216101  0.66493601
   0.74837911  0.97358966  0.76469660
   0.94837934  0.57358950  0.56517535
   0.91980773  0.84501815  0.66493601
   0.89123619  0.11644673  0.76469660
   0.04123645  0.31644657  0.61505556
   0.01266491  0.58787519  0.71481615
   0.98409331  0.85930383  0.81457681
   0.18409360  0.45930362  0.61505556
   0.15552205  0.73073226  0.71481621
   0.12695052  0.00216091  0.81457681
   0.32695073  0.60216093  0.61505556
   0.29837918  0.87358952  0.71481621
   0.26980761  0.14501810  0.81457681
   0.46980789  0.74501800  0.61505556
   0.44123632  0.01644659  0.71481615
   0.41266480  0.28787518  0.81457681
   0.61266494  0.88787502  0.61505556
   0.58409345  0.15930367  0.71481615
   0.55552190  0.43073237  0.81457681
   0.75552207  0.03073227  0.61505556
   0.72695053  0.30216098  0.71481621
   0.69837898  0.57358944  0.81457681
   0.89837927  0.17358935  0.61505556
   0.86980766  0.44501793  0.71481615
   0.84123606  0.71644652  0.81457681
