Si and Ge interface calculation         
           1
    16.002676    0.000000    0.000000
     0.000000   16.973402    0.000000
     0.000000    0.000000   13.293920
   Ge   Si
    48   108
Direct configuration=     1
   0.91323775  0.91002428  0.00000002
   0.53823775  0.52113539  0.05015674
   0.16323781  0.13224649  0.10031344
   0.78823781  0.74335742  0.15047023
   0.41323781  0.35446858  0.20062693
   0.03823769  0.96557951  0.25078365
   0.41323769  0.91002428  0.00000002
   0.03823772  0.52113533  0.05015674
   0.66323775  0.13224643  0.10031344
   0.28823769  0.74335742  0.15047018
   0.91323781  0.35446846  0.20062693
   0.53823781  0.96557975  0.25078374
   0.03823773  0.66002423  0.00000002
   0.66323775  0.27113530  0.05015672
   0.28823781  0.88224638  0.10031345
   0.91323781  0.49335742  0.15047018
   0.53823769  0.10446840  0.20062689
   0.16323769  0.71557963  0.25078365
   0.53823769  0.66002423  0.00000002
   0.16323771  0.27113530  0.05015672
   0.78823775  0.88224638  0.10031345
   0.41323769  0.49335748  0.15047018
   0.03823775  0.10446846  0.20062694
   0.66323769  0.71557963  0.25078368
   0.28823775  0.66002423  0.00000002
   0.91323775  0.27113530  0.05015672
   0.53823781  0.88224638  0.10031345
   0.16323781  0.49335742  0.15047018
   0.78823781  0.10446846  0.20062689
   0.41323781  0.71557951  0.25078365
   0.78823769  0.66002417  0.00000000
   0.41323772  0.27113530  0.05015672
   0.03823778  0.88224638  0.10031345
   0.66323775  0.49335742  0.15047017
   0.28823769  0.10446846  0.20062689
   0.91323781  0.71557963  0.25078368
   0.16323772  0.91002428  0.00000002
   0.78823769  0.52113533  0.05015674
   0.41323781  0.13224649  0.10031347
   0.03823775  0.74335742  0.15047023
   0.66323781  0.35446858  0.20062688
   0.28823769  0.96557951  0.25078365
   0.66323769  0.91002428  0.00000003
   0.28823775  0.52113533  0.05015672
   0.91323775  0.13224649  0.10031347
   0.53823781  0.74335742  0.15047023
   0.16323769  0.35446846  0.20062688
   0.78823781  0.96557975  0.25078365
   0.28930819  0.21891975  0.37005895
   0.28930819  0.05225313  0.57432526
   0.28930819  0.88558638  0.77859163
   0.62264156  0.21891975  0.37005895
   0.62264156  0.05225313  0.57432526
   0.62264156  0.88558638  0.77859163
   0.95597488  0.21891975  0.37005895
   0.95597488  0.05225313  0.57432526
   0.95597488  0.88558638  0.77859163
   0.28930819  0.55225313  0.37005895
   0.28930819  0.38558644  0.57432526
   0.28930819  0.21891975  0.77859163
   0.62264156  0.55225313  0.37005895
   0.62264156  0.38558644  0.57432526
   0.62264156  0.21891975  0.77859163
   0.95597488  0.55225313  0.37005895
   0.95597488  0.38558644  0.57432526
   0.95597488  0.21891975  0.77859163
   0.28930819  0.88558650  0.37005895
   0.28930819  0.71891975  0.57432526
   0.28930819  0.55225313  0.77859163
   0.62264156  0.88558650  0.37005895
   0.62264156  0.71891975  0.57432526
   0.62264156  0.55225313  0.77859163
   0.95597488  0.88558650  0.37005895
   0.95597488  0.71891975  0.57432526
   0.95597488  0.55225313  0.77859163
   0.37264153  0.30225313  0.47219214
   0.37264153  0.13558638  0.67645836
   0.37264153  0.96891975  0.88072479
   0.70597488  0.30225313  0.47219214
   0.70597488  0.13558638  0.67645836
   0.70597488  0.96891975  0.88072479
   0.03930819  0.30225313  0.47219214
   0.03930819  0.13558638  0.67645836
   0.03930819  0.96891975  0.88072479
   0.37264153  0.63558644  0.47219214
   0.37264153  0.46891975  0.67645836
   0.37264153  0.30225307  0.88072479
   0.70597488  0.63558644  0.47219214
   0.70597488  0.46891975  0.67645836
   0.70597488  0.30225307  0.88072479
   0.03930819  0.63558644  0.47219214
   0.03930819  0.46891975  0.67645836
   0.03930819  0.30225307  0.88072479
   0.37264153  0.96891981  0.47219214
   0.37264153  0.80225313  0.67645836
   0.37264153  0.63558644  0.88072479
   0.70597488  0.96891981  0.47219214
   0.70597488  0.80225313  0.67645836
   0.70597488  0.63558644  0.88072479
   0.03930819  0.96891981  0.47219214
   0.03930819  0.80225313  0.67645836
   0.03930819  0.63558644  0.88072479
   0.45597488  0.38558644  0.37005895
   0.45597488  0.21891975  0.57432526
   0.45597488  0.05225301  0.77859163
   0.78930819  0.38558644  0.37005895
   0.78930819  0.21891975  0.57432526
   0.78930819  0.05225301  0.77859163
   0.12264156  0.38558644  0.37005895
   0.12264156  0.21891975  0.57432526
   0.12264156  0.05225301  0.77859163
   0.45597488  0.71891975  0.37005895
   0.45597488  0.55225313  0.57432526
   0.45597488  0.38558638  0.77859163
   0.78930819  0.71891975  0.37005895
   0.78930819  0.55225313  0.57432526
   0.78930819  0.38558638  0.77859163
   0.12264156  0.71891975  0.37005895
   0.12264156  0.55225313  0.57432526
   0.12264156  0.38558638  0.77859163
   0.45597488  0.05225313  0.37005895
   0.45597488  0.88558644  0.57432526
   0.45597488  0.71891969  0.77859163
   0.78930819  0.05225313  0.37005895
   0.78930819  0.88558644  0.57432526
   0.78930819  0.71891969  0.77859163
   0.12264156  0.05225313  0.37005895
   0.12264156  0.88558644  0.57432526
   0.12264156  0.71891969  0.77859163
   0.53930819  0.46891978  0.47219214
   0.53930819  0.30225310  0.67645836
   0.53930819  0.13558638  0.88072479
   0.87264156  0.46891978  0.47219214
   0.87264156  0.30225310  0.67645836
   0.87264156  0.13558638  0.88072479
   0.20597482  0.46891978  0.47219214
   0.20597482  0.30225310  0.67645836
   0.20597482  0.13558638  0.88072479
   0.53930819  0.80225325  0.47219214
   0.53930819  0.63558650  0.67645836
   0.53930819  0.46891981  0.88072479
   0.87264156  0.80225325  0.47219214
   0.87264156  0.63558650  0.67645836
   0.87264156  0.46891981  0.88072479
   0.20597482  0.80225325  0.47219214
   0.20597482  0.63558650  0.67645836
   0.20597482  0.46891981  0.88072479
   0.53930819  0.13558638  0.47219214
   0.53930819  0.96891975  0.67645836
   0.53930819  0.80225313  0.88072479
   0.87264156  0.13558638  0.47219214
   0.87264156  0.96891975  0.67645836
   0.87264156  0.80225313  0.88072479
   0.20597482  0.13558638  0.47219214
   0.20597482  0.96891975  0.67645836
   0.20597482  0.80225313  0.88072479
