 264 264   0   0
  0.2774202E+02  0.1958175E-08  0.1958175E-08  0.1910025E-08  0.5000000E-15
  1.000000000000000E-004
  CAR 
 Si and Ge interface calculation         
      6.64581505     -9.19031820  301      4.04534392      1.00000000
     -9.190  0.0000E+00  0.0000E+00  0.0000E+00  0.0000E+00
     -9.138  0.0000E+00  0.0000E+00  0.0000E+00  0.0000E+00
     -9.085  0.0000E+00  0.0000E+00  0.0000E+00  0.0000E+00
     -9.032  0.0000E+00  0.0000E+00  0.0000E+00  0.0000E+00
     -8.979  0.0000E+00  0.0000E+00  0.0000E+00  0.0000E+00
     -8.926  0.0000E+00  0.0000E+00  0.0000E+00  0.0000E+00
     -8.874  0.0000E+00  0.0000E+00  0.0000E+00  0.0000E+00
     -8.821  0.0000E+00  0.0000E+00  0.0000E+00  0.0000E+00
     -8.768  0.0000E+00  0.0000E+00  0.0000E+00  0.0000E+00
     -8.715  0.0000E+00  0.0000E+00  0.0000E+00  0.0000E+00
     -8.662  0.0000E+00  0.0000E+00  0.0000E+00  0.0000E+00
     -8.610  0.0000E+00  0.0000E+00  0.0000E+00  0.0000E+00
     -8.557  0.0000E+00  0.0000E+00  0.0000E+00  0.0000E+00
     -8.504  0.9526E-05  0.3004E-05  0.5029E-06  0.1586E-06
     -8.451  0.3364E+02  0.3217E+02  0.1776E+01  0.1698E+01
     -8.399  0.4245E+01  0.5715E+01  0.2000E+01  0.2000E+01
     -8.346  0.0000E+00  0.0000E+00  0.2000E+01  0.2000E+01
     -8.293  0.0000E+00  0.0000E+00  0.2000E+01  0.2000E+01
     -8.240  0.5258E-15  0.0000E+00  0.2000E+01  0.2000E+01
     -8.187  0.2012E+01  0.1373E+01  0.2106E+01  0.2072E+01
     -8.135  0.2645E+02  0.2707E+02  0.3502E+01  0.3501E+01
     -8.082  0.9428E+01  0.9448E+01  0.4000E+01  0.4000E+01
     -8.029  0.1825E+02  0.1782E+02  0.4963E+01  0.4941E+01
     -7.976  0.3064E+02  0.3056E+02  0.6581E+01  0.6554E+01
     -7.923  0.7938E+01  0.8456E+01  0.7000E+01  0.7000E+01
     -7.871  0.2761E+02  0.2691E+02  0.8458E+01  0.8421E+01
     -7.818  0.1041E+02  0.1104E+02  0.9007E+01  0.9004E+01
     -7.765  0.9357E+01  0.9411E+01  0.9501E+01  0.9501E+01
     -7.712  0.2337E+02  0.2095E+02  0.1073E+02  0.1061E+02
     -7.659  0.1449E+02  0.1693E+02  0.1150E+02  0.1150E+02
     -7.607  0.1494E+02  0.1345E+02  0.1229E+02  0.1221E+02
     -7.554  0.2295E+02  0.2444E+02  0.1350E+02  0.1350E+02
     -7.501  0.3004E+02  0.2945E+02  0.1509E+02  0.1505E+02
     -7.448  0.2630E+02  0.2657E+02  0.1647E+02  0.1646E+02
     -7.396  0.3638E+01  0.3143E+01  0.1667E+02  0.1662E+02
     -7.343  0.5386E+02  0.5244E+02  0.1951E+02  0.1939E+02
     -7.290  0.1876E+02  0.2101E+02  0.2050E+02  0.2050E+02
     -7.237  0.9478E+01  0.9439E+01  0.2100E+02  0.2100E+02
     -7.184  0.4001E+02  0.3806E+02  0.2311E+02  0.2301E+02
     -7.132  0.2665E+02  0.2771E+02  0.2452E+02  0.2447E+02
     -7.079  0.2810E+02  0.2900E+02  0.2600E+02  0.2600E+02
     -7.026  0.4253E+02  0.4101E+02  0.2825E+02  0.2817E+02
     -6.973  0.3606E+02  0.3668E+02  0.3015E+02  0.3010E+02
     -6.920  0.3471E+02  0.3526E+02  0.3198E+02  0.3196E+02
     -6.868  0.3789E+02  0.3772E+02  0.3398E+02  0.3395E+02
     -6.815  0.2221E+02  0.2052E+02  0.3516E+02  0.3504E+02
     -6.762  0.5139E+02  0.5176E+02  0.3787E+02  0.3777E+02
     -6.709  0.4944E+02  0.4915E+02  0.4048E+02  0.4036E+02
     -6.657  0.3992E+02  0.3861E+02  0.4259E+02  0.4240E+02
     -6.604  0.2780E+02  0.2830E+02  0.4405E+02  0.4390E+02
     -6.551  0.4180E+02  0.4260E+02  0.4626E+02  0.4615E+02
     -6.498  0.4269E+02  0.4356E+02  0.4851E+02  0.4845E+02
     -6.445  0.3892E+02  0.3705E+02  0.5057E+02  0.5040E+02
     -6.393  0.3953E+02  0.4103E+02  0.5266E+02  0.5257E+02
     -6.340  0.4333E+02  0.4331E+02  0.5494E+02  0.5485E+02
     -6.287  0.3888E+02  0.3685E+02  0.5699E+02  0.5680E+02
     -6.234  0.5944E+02  0.6000E+02  0.6013E+02  0.5997E+02
     -6.181  0.5539E+02  0.5579E+02  0.6306E+02  0.6291E+02
     -6.129  0.5226E+02  0.5223E+02  0.6581E+02  0.6567E+02
     -6.076  0.9140E+02  0.8998E+02  0.7064E+02  0.7042E+02
     -6.023  0.8071E+02  0.8167E+02  0.7490E+02  0.7473E+02
     -5.970  0.6961E+02  0.7091E+02  0.7858E+02  0.7847E+02
     -5.918  0.7292E+02  0.7256E+02  0.8242E+02  0.8230E+02
     -5.865  0.5597E+02  0.5611E+02  0.8538E+02  0.8526E+02
     -5.812  0.7304E+02  0.7293E+02  0.8923E+02  0.8911E+02
     -5.759  0.5228E+02  0.5170E+02  0.9199E+02  0.9184E+02
     -5.706  0.1025E+03  0.1004E+03  0.9741E+02  0.9714E+02
     -5.654  0.8660E+02  0.8799E+02  0.1020E+03  0.1018E+03
     -5.601  0.7316E+02  0.7370E+02  0.1058E+03  0.1057E+03
     -5.548  0.5773E+02  0.5735E+02  0.1089E+03  0.1087E+03
     -5.495  0.6253E+02  0.6121E+02  0.1122E+03  0.1119E+03
     -5.442  0.6995E+02  0.7029E+02  0.1159E+03  0.1156E+03
     -5.390  0.9366E+02  0.9364E+02  0.1208E+03  0.1206E+03
     -5.337  0.9884E+02  0.1002E+03  0.1260E+03  0.1259E+03
     -5.284  0.7600E+02  0.7526E+02  0.1301E+03  0.1299E+03
     -5.231  0.6378E+02  0.6422E+02  0.1334E+03  0.1332E+03
     -5.178  0.8497E+02  0.8373E+02  0.1379E+03  0.1377E+03
     -5.126  0.7713E+02  0.7663E+02  0.1420E+03  0.1417E+03
     -5.073  0.7602E+02  0.7872E+02  0.1460E+03  0.1459E+03
     -5.020  0.6575E+02  0.6507E+02  0.1495E+03  0.1493E+03
     -4.967  0.5450E+02  0.5478E+02  0.1523E+03  0.1522E+03
     -4.915  0.7924E+02  0.7821E+02  0.1565E+03  0.1563E+03
     -4.862  0.8519E+02  0.8368E+02  0.1610E+03  0.1607E+03
     -4.809  0.1055E+03  0.1067E+03  0.1666E+03  0.1664E+03
     -4.756  0.1144E+03  0.1134E+03  0.1726E+03  0.1724E+03
     -4.703  0.1051E+03  0.1059E+03  0.1782E+03  0.1779E+03
     -4.651  0.9398E+02  0.9337E+02  0.1831E+03  0.1829E+03
     -4.598  0.9798E+02  0.9678E+02  0.1883E+03  0.1880E+03
     -4.545  0.1059E+03  0.1044E+03  0.1939E+03  0.1935E+03
     -4.492  0.1109E+03  0.1096E+03  0.1998E+03  0.1993E+03
     -4.439  0.7163E+02  0.7319E+02  0.2035E+03  0.2031E+03
     -4.387  0.1071E+03  0.1076E+03  0.2092E+03  0.2088E+03
     -4.334  0.9693E+02  0.9676E+02  0.2143E+03  0.2139E+03
     -4.281  0.7543E+02  0.7783E+02  0.2183E+03  0.2180E+03
     -4.228  0.6828E+02  0.6851E+02  0.2219E+03  0.2216E+03
     -4.176  0.8826E+02  0.8585E+02  0.2265E+03  0.2262E+03
     -4.123  0.8860E+02  0.9236E+02  0.2312E+03  0.2311E+03
     -4.070  0.7639E+02  0.7480E+02  0.2353E+03  0.2350E+03
     -4.017  0.5576E+02  0.5791E+02  0.2382E+03  0.2381E+03
     -3.964  0.5364E+02  0.5359E+02  0.2410E+03  0.2409E+03
     -3.912  0.3476E+02  0.3438E+02  0.2429E+03  0.2427E+03
     -3.859  0.5940E+02  0.5858E+02  0.2460E+03  0.2458E+03
     -3.806  0.5852E+02  0.6010E+02  0.2491E+03  0.2490E+03
     -3.753  0.6942E+02  0.6662E+02  0.2528E+03  0.2525E+03
     -3.700  0.5657E+02  0.5734E+02  0.2557E+03  0.2555E+03
     -3.648  0.7859E+02  0.7672E+02  0.2599E+03  0.2596E+03
     -3.595  0.7099E+02  0.7170E+02  0.2636E+03  0.2633E+03
     -3.542  0.4270E+02  0.4426E+02  0.2659E+03  0.2657E+03
     -3.489  0.7410E+02  0.7313E+02  0.2698E+03  0.2695E+03
     -3.437  0.8558E+02  0.8615E+02  0.2743E+03  0.2741E+03
     -3.384  0.7486E+02  0.7318E+02  0.2783E+03  0.2780E+03
     -3.331  0.8414E+02  0.8645E+02  0.2827E+03  0.2825E+03
     -3.278  0.7287E+02  0.7065E+02  0.2866E+03  0.2862E+03
     -3.225  0.8033E+02  0.8177E+02  0.2908E+03  0.2906E+03
     -3.173  0.6224E+02  0.6200E+02  0.2941E+03  0.2938E+03
     -3.120  0.7805E+02  0.7650E+02  0.2982E+03  0.2979E+03
     -3.067  0.7808E+02  0.7654E+02  0.3023E+03  0.3019E+03
     -3.014  0.6666E+02  0.6954E+02  0.3058E+03  0.3056E+03
     -2.961  0.6841E+02  0.6902E+02  0.3095E+03  0.3092E+03
     -2.909  0.1110E+03  0.1081E+03  0.3153E+03  0.3149E+03
     -2.856  0.8300E+02  0.8379E+02  0.3197E+03  0.3194E+03
     -2.803  0.9422E+02  0.9378E+02  0.3247E+03  0.3243E+03
     -2.750  0.1220E+03  0.1210E+03  0.3311E+03  0.3307E+03
     -2.698  0.7803E+02  0.8078E+02  0.3352E+03  0.3350E+03
     -2.645  0.8528E+02  0.8534E+02  0.3397E+03  0.3395E+03
     -2.592  0.1188E+03  0.1177E+03  0.3460E+03  0.3457E+03
     -2.539  0.1363E+03  0.1342E+03  0.3532E+03  0.3528E+03
     -2.486  0.1098E+03  0.1121E+03  0.3590E+03  0.3587E+03
     -2.434  0.8723E+02  0.8841E+02  0.3636E+03  0.3634E+03
     -2.381  0.7993E+02  0.7799E+02  0.3678E+03  0.3675E+03
     -2.328  0.9973E+02  0.1019E+03  0.3731E+03  0.3728E+03
     -2.275  0.1096E+03  0.1059E+03  0.3789E+03  0.3784E+03
     -2.222  0.8286E+02  0.8902E+02  0.3832E+03  0.3831E+03
     -2.170  0.2773E+02  0.2814E+02  0.3847E+03  0.3846E+03
     -2.117  0.4770E+02  0.4363E+02  0.3872E+03  0.3869E+03
     -2.064  0.7430E+02  0.7659E+02  0.3911E+03  0.3910E+03
     -2.011  0.7527E+02  0.7253E+02  0.3951E+03  0.3948E+03
     -1.958  0.9391E+02  0.9275E+02  0.4001E+03  0.3997E+03
     -1.906  0.1195E+03  0.1208E+03  0.4064E+03  0.4061E+03
     -1.853  0.6335E+02  0.6542E+02  0.4097E+03  0.4095E+03
     -1.800  0.6138E+02  0.6100E+02  0.4130E+03  0.4127E+03
     -1.747  0.1224E+03  0.1203E+03  0.4194E+03  0.4191E+03
     -1.695  0.1022E+03  0.1012E+03  0.4248E+03  0.4244E+03
     -1.642  0.6928E+02  0.7324E+02  0.4285E+03  0.4283E+03
     -1.589  0.9116E+02  0.8740E+02  0.4333E+03  0.4329E+03
     -1.536  0.7324E+02  0.7865E+02  0.4372E+03  0.4371E+03
     -1.483  0.5414E+02  0.5277E+02  0.4400E+03  0.4399E+03
     -1.431  0.4831E+02  0.4914E+02  0.4426E+03  0.4425E+03
     -1.378  0.6686E+02  0.6457E+02  0.4461E+03  0.4459E+03
     -1.325  0.7243E+02  0.7452E+02  0.4499E+03  0.4498E+03
     -1.272  0.3288E+02  0.3201E+02  0.4517E+03  0.4515E+03
     -1.219  0.6613E+02  0.6592E+02  0.4552E+03  0.4550E+03
     -1.167  0.5408E+02  0.5614E+02  0.4580E+03  0.4579E+03
     -1.114  0.5601E+02  0.5638E+02  0.4610E+03  0.4609E+03
     -1.061  0.4069E+02  0.3777E+02  0.4631E+03  0.4629E+03
     -1.008  0.5434E+02  0.5539E+02  0.4660E+03  0.4658E+03
     -0.956  0.3513E+02  0.3647E+02  0.4678E+03  0.4677E+03
     -0.903  0.3681E+02  0.3341E+02  0.4698E+03  0.4695E+03
     -0.850  0.9638E+02  0.9610E+02  0.4749E+03  0.4746E+03
     -0.797  0.5014E+02  0.5122E+02  0.4775E+03  0.4773E+03
     -0.744  0.4574E+02  0.4645E+02  0.4799E+03  0.4797E+03
     -0.692  0.6510E+02  0.6402E+02  0.4834E+03  0.4831E+03
     -0.639  0.6234E+02  0.6406E+02  0.4867E+03  0.4865E+03
     -0.586  0.3581E+02  0.3762E+02  0.4885E+03  0.4885E+03
     -0.533  0.1529E+02  0.1541E+02  0.4894E+03  0.4893E+03
     -0.480  0.3071E+02  0.3035E+02  0.4910E+03  0.4909E+03
     -0.428  0.3081E+02  0.3022E+02  0.4926E+03  0.4925E+03
     -0.375  0.3769E+02  0.3798E+02  0.4946E+03  0.4945E+03
     -0.322  0.6337E+02  0.6094E+02  0.4979E+03  0.4977E+03
     -0.269  0.6101E+02  0.6231E+02  0.5012E+03  0.5010E+03
     -0.217  0.8203E+02  0.8070E+02  0.5055E+03  0.5053E+03
     -0.164  0.1110E+03  0.1105E+03  0.5113E+03  0.5111E+03
     -0.111  0.9490E+02  0.9340E+02  0.5164E+03  0.5160E+03
     -0.058  0.1263E+03  0.1289E+03  0.5230E+03  0.5228E+03
     -0.005  0.1079E+03  0.1044E+03  0.5287E+03  0.5283E+03
      0.047  0.1249E+03  0.1233E+03  0.5353E+03  0.5349E+03
      0.100  0.1394E+03  0.1427E+03  0.5427E+03  0.5424E+03
      0.153  0.1202E+03  0.1213E+03  0.5490E+03  0.5488E+03
      0.206  0.7749E+02  0.7801E+02  0.5531E+03  0.5529E+03
      0.259  0.7980E+02  0.7919E+02  0.5573E+03  0.5571E+03
      0.311  0.1043E+03  0.1060E+03  0.5628E+03  0.5627E+03
      0.364  0.6780E+02  0.6495E+02  0.5664E+03  0.5661E+03
      0.417  0.1099E+03  0.1100E+03  0.5722E+03  0.5719E+03
      0.470  0.9268E+02  0.9323E+02  0.5771E+03  0.5768E+03
      0.523  0.8494E+02  0.8350E+02  0.5816E+03  0.5812E+03
      0.575  0.1280E+03  0.1275E+03  0.5883E+03  0.5880E+03
      0.628  0.1229E+03  0.1247E+03  0.5948E+03  0.5946E+03
      0.681  0.1318E+03  0.1276E+03  0.6018E+03  0.6013E+03
      0.734  0.1556E+03  0.1598E+03  0.6100E+03  0.6097E+03
      0.786  0.1266E+03  0.1240E+03  0.6167E+03  0.6163E+03
      0.839  0.9970E+02  0.1025E+03  0.6219E+03  0.6217E+03
      0.892  0.1177E+03  0.1174E+03  0.6282E+03  0.6279E+03
      0.945  0.9214E+02  0.9246E+02  0.6330E+03  0.6328E+03
      0.998  0.1325E+03  0.1315E+03  0.6400E+03  0.6397E+03
      1.050  0.1366E+03  0.1336E+03  0.6472E+03  0.6468E+03
      1.103  0.1867E+03  0.1883E+03  0.6571E+03  0.6567E+03
      1.156  0.1607E+03  0.1591E+03  0.6656E+03  0.6651E+03
      1.209  0.1802E+03  0.1807E+03  0.6751E+03  0.6746E+03
      1.262  0.1691E+03  0.1714E+03  0.6840E+03  0.6837E+03
      1.314  0.1994E+03  0.1942E+03  0.6945E+03  0.6939E+03
      1.367  0.1799E+03  0.1837E+03  0.7040E+03  0.7036E+03
      1.420  0.1394E+03  0.1374E+03  0.7114E+03  0.7109E+03
      1.473  0.1574E+03  0.1544E+03  0.7197E+03  0.7190E+03
      1.525  0.2109E+03  0.2133E+03  0.7308E+03  0.7303E+03
      1.578  0.1781E+03  0.1756E+03  0.7402E+03  0.7396E+03
      1.631  0.1857E+03  0.1884E+03  0.7500E+03  0.7495E+03
      1.684  0.1893E+03  0.1893E+03  0.7600E+03  0.7595E+03
      1.737  0.1855E+03  0.1829E+03  0.7698E+03  0.7691E+03
      1.789  0.1732E+03  0.1763E+03  0.7789E+03  0.7785E+03
      1.842  0.1745E+03  0.1756E+03  0.7882E+03  0.7877E+03
      1.895  0.1412E+03  0.1382E+03  0.7956E+03  0.7950E+03
      1.948  0.2273E+03  0.2255E+03  0.8076E+03  0.8069E+03
      2.001  0.1620E+03  0.1673E+03  0.8162E+03  0.8158E+03
      2.053  0.1662E+03  0.1635E+03  0.8249E+03  0.8244E+03
      2.106  0.1891E+03  0.1844E+03  0.8349E+03  0.8341E+03
      2.159  0.1959E+03  0.2014E+03  0.8453E+03  0.8448E+03
      2.212  0.1386E+03  0.1399E+03  0.8526E+03  0.8521E+03
      2.264  0.1666E+03  0.1630E+03  0.8614E+03  0.8607E+03
      2.317  0.1479E+03  0.1540E+03  0.8692E+03  0.8689E+03
      2.370  0.1823E+03  0.1725E+03  0.8788E+03  0.8780E+03
      2.423  0.1881E+03  0.1943E+03  0.8887E+03  0.8882E+03
      2.476  0.1422E+03  0.1435E+03  0.8962E+03  0.8958E+03
      2.528  0.1349E+03  0.1336E+03  0.9034E+03  0.9029E+03
      2.581  0.1288E+03  0.1287E+03  0.9102E+03  0.9096E+03
      2.634  0.1420E+03  0.1412E+03  0.9177E+03  0.9171E+03
      2.687  0.1104E+03  0.1135E+03  0.9235E+03  0.9231E+03
      2.740  0.1600E+03  0.1536E+03  0.9319E+03  0.9312E+03
      2.792  0.1448E+03  0.1514E+03  0.9396E+03  0.9392E+03
      2.845  0.1327E+03  0.1258E+03  0.9466E+03  0.9458E+03
      2.898  0.1705E+03  0.1745E+03  0.9556E+03  0.9551E+03
      2.951  0.1043E+03  0.1028E+03  0.9611E+03  0.9605E+03
      3.004  0.1252E+03  0.1206E+03  0.9677E+03  0.9668E+03
      3.056  0.1305E+03  0.1328E+03  0.9746E+03  0.9739E+03
      3.109  0.1118E+03  0.1161E+03  0.9805E+03  0.9800E+03
      3.162  0.1056E+03  0.1074E+03  0.9861E+03  0.9857E+03
      3.215  0.1206E+03  0.1175E+03  0.9924E+03  0.9919E+03
      3.267  0.1012E+03  0.9805E+02  0.9978E+03  0.9970E+03
      3.320  0.1218E+03  0.1246E+03  0.1004E+04  0.1004E+04
      3.373  0.8916E+02  0.9155E+02  0.1009E+04  0.1008E+04
      3.426  0.5356E+02  0.5559E+02  0.1012E+04  0.1011E+04
      3.479  0.1005E+03  0.9919E+02  0.1017E+04  0.1017E+04
      3.531  0.9792E+02  0.9376E+02  0.1022E+04  0.1022E+04
      3.584  0.8177E+02  0.8346E+02  0.1027E+04  0.1026E+04
      3.637  0.8598E+02  0.8780E+02  0.1031E+04  0.1031E+04
      3.690  0.8105E+02  0.7990E+02  0.1035E+04  0.1035E+04
      3.743  0.4255E+02  0.4626E+02  0.1038E+04  0.1037E+04
      3.795  0.5738E+02  0.5117E+02  0.1041E+04  0.1040E+04
      3.848  0.5259E+02  0.5070E+02  0.1043E+04  0.1043E+04
      3.901  0.3169E+02  0.3493E+02  0.1045E+04  0.1044E+04
      3.954  0.6437E+02  0.6774E+02  0.1048E+04  0.1048E+04
      4.006  0.6846E+02  0.6602E+02  0.1052E+04  0.1052E+04
      4.059  0.1074E+03  0.9717E+02  0.1058E+04  0.1057E+04
      4.112  0.1187E+03  0.1247E+03  0.1064E+04  0.1063E+04
      4.165  0.7513E+02  0.7089E+02  0.1068E+04  0.1067E+04
      4.218  0.1052E+03  0.9831E+02  0.1074E+04  0.1072E+04
      4.270  0.1044E+03  0.1099E+03  0.1079E+04  0.1078E+04
      4.323  0.1049E+03  0.1070E+03  0.1085E+04  0.1084E+04
      4.376  0.1248E+03  0.1242E+03  0.1091E+04  0.1090E+04
      4.429  0.1305E+03  0.1291E+03  0.1098E+04  0.1097E+04
      4.482  0.1176E+03  0.1186E+03  0.1104E+04  0.1103E+04
      4.534  0.9653E+02  0.1009E+03  0.1109E+04  0.1109E+04
      4.587  0.1043E+03  0.1030E+03  0.1115E+04  0.1114E+04
      4.640  0.1260E+03  0.1216E+03  0.1122E+04  0.1120E+04
      4.693  0.1221E+03  0.1318E+03  0.1128E+04  0.1127E+04
      4.745  0.1203E+03  0.1110E+03  0.1134E+04  0.1133E+04
      4.798  0.1365E+03  0.1397E+03  0.1142E+04  0.1141E+04
      4.851  0.1107E+03  0.1137E+03  0.1147E+04  0.1147E+04
      4.904  0.1145E+03  0.1096E+03  0.1153E+04  0.1152E+04
      4.957  0.1025E+03  0.1118E+03  0.1159E+04  0.1158E+04
      5.009  0.1416E+03  0.1301E+03  0.1166E+04  0.1165E+04
      5.062  0.1228E+03  0.1348E+03  0.1173E+04  0.1172E+04
      5.115  0.8899E+02  0.8445E+02  0.1177E+04  0.1177E+04
      5.168  0.1060E+03  0.1103E+03  0.1183E+04  0.1183E+04
      5.221  0.7655E+02  0.7759E+02  0.1187E+04  0.1187E+04
      5.273  0.9798E+02  0.9287E+02  0.1192E+04  0.1192E+04
      5.326  0.1200E+03  0.1223E+03  0.1199E+04  0.1198E+04
      5.379  0.1203E+03  0.1191E+03  0.1205E+04  0.1204E+04
      5.432  0.1331E+03  0.1335E+03  0.1212E+04  0.1211E+04
      5.484  0.1494E+03  0.1477E+03  0.1220E+04  0.1219E+04
      5.537  0.1587E+03  0.1591E+03  0.1228E+04  0.1228E+04
      5.590  0.1550E+03  0.1551E+03  0.1236E+04  0.1236E+04
      5.643  0.1235E+03  0.1275E+03  0.1243E+04  0.1242E+04
      5.696  0.1126E+03  0.1134E+03  0.1249E+04  0.1248E+04
      5.748  0.1060E+03  0.1047E+03  0.1254E+04  0.1254E+04
      5.801  0.1196E+03  0.1177E+03  0.1261E+04  0.1260E+04
      5.854  0.1162E+03  0.1233E+03  0.1267E+04  0.1267E+04
      5.907  0.9106E+02  0.9400E+02  0.1272E+04  0.1272E+04
      5.960  0.4807E+01  0.5956E+01  0.1272E+04  0.1272E+04
      6.012  0.0000E+00  0.0000E+00  0.1272E+04  0.1272E+04
      6.065  0.0000E+00  0.0000E+00  0.1272E+04  0.1272E+04
      6.118  0.0000E+00  0.0000E+00  0.1272E+04  0.1272E+04
      6.171  0.0000E+00  0.0000E+00  0.1272E+04  0.1272E+04
      6.224  0.0000E+00  0.0000E+00  0.1272E+04  0.1272E+04
      6.276  0.0000E+00  0.0000E+00  0.1272E+04  0.1272E+04
      6.329  0.0000E+00  0.0000E+00  0.1272E+04  0.1272E+04
      6.382  0.0000E+00  0.0000E+00  0.1272E+04  0.1272E+04
      6.435  0.0000E+00  0.0000E+00  0.1272E+04  0.1272E+04
      6.487  0.0000E+00  0.0000E+00  0.1272E+04  0.1272E+04
      6.540  0.0000E+00  0.0000E+00  0.1272E+04  0.1272E+04
      6.593  0.0000E+00  0.0000E+00  0.1272E+04  0.1272E+04
      6.646  0.0000E+00  0.0000E+00  0.1272E+04  0.1272E+04
