  72  72   0   0
  0.2358891E+02  0.8001338E-09  0.1600268E-08  0.1326432E-08  0.5000000E-15
  1.000000000000000E-004
  CAR 
 Si and Ge interface calculation         
      6.83733256     -9.52542927  301      3.67863028      1.00000000
     -9.525  0.0000E+00  0.0000E+00  0.0000E+00  0.0000E+00
     -9.471  0.0000E+00  0.0000E+00  0.0000E+00  0.0000E+00
     -9.416  0.0000E+00  0.0000E+00  0.0000E+00  0.0000E+00
     -9.362  0.0000E+00  0.0000E+00  0.0000E+00  0.0000E+00
     -9.307  0.0000E+00  0.0000E+00  0.0000E+00  0.0000E+00
     -9.253  0.0000E+00  0.0000E+00  0.0000E+00  0.0000E+00
     -9.198  0.0000E+00  0.0000E+00  0.0000E+00  0.0000E+00
     -9.144  0.0000E+00  0.0000E+00  0.0000E+00  0.0000E+00
     -9.089  0.0000E+00  0.0000E+00  0.0000E+00  0.0000E+00
     -9.035  0.0000E+00  0.0000E+00  0.0000E+00  0.0000E+00
     -8.980  0.0000E+00  0.0000E+00  0.0000E+00  0.0000E+00
     -8.925  0.0000E+00  0.0000E+00  0.0000E+00  0.0000E+00
     -8.871  0.0000E+00  0.0000E+00  0.0000E+00  0.0000E+00
     -8.816  0.1051E-05  0.5241E-08  0.5734E-07  0.2859E-09
     -8.762  0.2328E+01  0.2221E+01  0.1270E+00  0.1212E+00
     -8.707  0.2573E+01  0.2449E+01  0.2673E+00  0.2547E+00
     -8.653  0.6999E+01  0.5000E+01  0.6491E+00  0.5274E+00
     -8.598  0.1095E+02  0.1262E+02  0.1246E+01  0.1216E+01
     -8.544  0.4862E+01  0.5254E+01  0.1512E+01  0.1502E+01
     -8.489  0.1090E+02  0.8497E+01  0.2106E+01  0.1966E+01
     -8.435  0.2632E+01  0.5212E+01  0.2250E+01  0.2250E+01
     -8.380  0.3730E+01  0.3001E+01  0.2453E+01  0.2414E+01
     -8.325  0.8533E+00  0.1583E+01  0.2500E+01  0.2500E+01
     -8.271  0.1220E+02  0.1096E+02  0.3166E+01  0.3098E+01
     -8.216  0.1427E+02  0.1455E+02  0.3944E+01  0.3891E+01
     -8.162  0.1081E+02  0.8339E+01  0.4534E+01  0.4346E+01
     -8.107  0.2196E+02  0.2373E+02  0.5731E+01  0.5640E+01
     -8.053  0.1196E+01  0.2118E+01  0.5796E+01  0.5756E+01
     -7.998  0.7554E+01  0.6820E+01  0.6208E+01  0.6128E+01
     -7.944  0.9334E+01  0.8453E+01  0.6718E+01  0.6589E+01
     -7.889  0.1874E+02  0.2026E+02  0.7740E+01  0.7694E+01
     -7.835  0.1256E+02  0.9029E+01  0.8425E+01  0.8187E+01
     -7.780  0.1651E+02  0.1588E+02  0.9326E+01  0.9053E+01
     -7.726  0.1150E+02  0.1506E+02  0.9953E+01  0.9874E+01
     -7.671  0.1394E+02  0.1356E+02  0.1071E+02  0.1061E+02
     -7.616  0.1894E+02  0.1890E+02  0.1175E+02  0.1164E+02
     -7.562  0.2680E+02  0.2572E+02  0.1321E+02  0.1305E+02
     -7.507  0.2503E+02  0.2361E+02  0.1457E+02  0.1433E+02
     -7.453  0.9792E+01  0.1219E+02  0.1511E+02  0.1500E+02
     -7.398  0.1582E+02  0.1458E+02  0.1597E+02  0.1580E+02
     -7.344  0.9045E+01  0.1079E+02  0.1646E+02  0.1638E+02
     -7.289  0.2739E+02  0.2507E+02  0.1796E+02  0.1775E+02
     -7.235  0.9488E+01  0.1097E+02  0.1847E+02  0.1835E+02
     -7.180  0.2540E+02  0.2189E+02  0.1986E+02  0.1954E+02
     -7.126  0.2499E+02  0.2651E+02  0.2122E+02  0.2099E+02
     -7.071  0.3101E+02  0.2998E+02  0.2291E+02  0.2262E+02
     -7.016  0.2019E+02  0.2439E+02  0.2402E+02  0.2395E+02
     -6.962  0.2217E+02  0.1806E+02  0.2522E+02  0.2494E+02
     -6.907  0.3112E+02  0.2993E+02  0.2692E+02  0.2657E+02
     -6.853  0.3046E+02  0.3142E+02  0.2858E+02  0.2829E+02
     -6.798  0.2033E+02  0.2464E+02  0.2969E+02  0.2963E+02
     -6.744  0.1608E+02  0.1269E+02  0.3057E+02  0.3032E+02
     -6.689  0.2386E+02  0.2465E+02  0.3187E+02  0.3167E+02
     -6.635  0.2661E+02  0.2736E+02  0.3332E+02  0.3316E+02
     -6.580  0.2316E+02  0.2164E+02  0.3459E+02  0.3434E+02
     -6.526  0.2800E+02  0.2445E+02  0.3611E+02  0.3567E+02
     -6.471  0.3849E+02  0.4385E+02  0.3821E+02  0.3806E+02
     -6.417  0.1976E+02  0.1773E+02  0.3929E+02  0.3903E+02
     -6.362  0.1861E+02  0.2234E+02  0.4031E+02  0.4025E+02
     -6.307  0.9577E+01  0.8865E+01  0.4083E+02  0.4073E+02
     -6.253  0.1832E+02  0.1659E+02  0.4183E+02  0.4164E+02
     -6.198  0.2061E+02  0.1801E+02  0.4295E+02  0.4262E+02
     -6.144  0.2378E+02  0.2728E+02  0.4425E+02  0.4411E+02
     -6.089  0.1580E+02  0.1438E+02  0.4511E+02  0.4489E+02
     -6.035  0.1392E+02  0.1553E+02  0.4587E+02  0.4574E+02
     -5.980  0.2184E+02  0.1866E+02  0.4706E+02  0.4676E+02
     -5.926  0.2016E+02  0.2260E+02  0.4816E+02  0.4799E+02
     -5.871  0.3549E+02  0.3157E+02  0.5010E+02  0.4971E+02
     -5.817  0.2088E+02  0.2212E+02  0.5123E+02  0.5092E+02
     -5.762  0.2024E+02  0.2099E+02  0.5234E+02  0.5206E+02
     -5.707  0.1509E+02  0.1944E+02  0.5316E+02  0.5312E+02
     -5.653  0.1434E+02  0.9531E+01  0.5394E+02  0.5364E+02
     -5.598  0.2844E+02  0.2800E+02  0.5550E+02  0.5517E+02
     -5.544  0.1616E+02  0.2157E+02  0.5638E+02  0.5635E+02
     -5.489  0.8132E+01  0.5061E+01  0.5682E+02  0.5662E+02
     -5.435  0.2461E+02  0.2208E+02  0.5816E+02  0.5783E+02
     -5.380  0.2008E+02  0.2449E+02  0.5926E+02  0.5916E+02
     -5.326  0.2020E+02  0.1351E+02  0.6036E+02  0.5990E+02
     -5.271  0.1389E+02  0.1752E+02  0.6112E+02  0.6086E+02
     -5.217  0.1655E+02  0.1683E+02  0.6202E+02  0.6177E+02
     -5.162  0.1699E+02  0.1597E+02  0.6295E+02  0.6264E+02
     -5.107  0.1319E+02  0.1652E+02  0.6367E+02  0.6355E+02
     -5.053  0.4648E+02  0.4222E+02  0.6620E+02  0.6585E+02
     -4.998  0.7784E+01  0.1424E+02  0.6663E+02  0.6662E+02
     -4.944  0.9219E+01  0.7265E+01  0.6713E+02  0.6702E+02
     -4.889  0.3005E+01  0.4264E+01  0.6729E+02  0.6725E+02
     -4.835  0.1132E+02  0.9605E+01  0.6791E+02  0.6778E+02
     -4.780  0.1742E+01  0.4076E+01  0.6800E+02  0.6800E+02
     -4.726  0.1040E+02  0.3447E+01  0.6857E+02  0.6819E+02
     -4.671  0.1232E+02  0.1101E+02  0.6924E+02  0.6879E+02
     -4.617  0.1676E+02  0.1526E+02  0.7016E+02  0.6962E+02
     -4.562  0.1969E+02  0.2431E+02  0.7123E+02  0.7095E+02
     -4.508  0.2315E+02  0.2092E+02  0.7249E+02  0.7209E+02
     -4.453  0.2213E+02  0.2736E+02  0.7370E+02  0.7358E+02
     -4.398  0.7838E+01  0.9419E+01  0.7413E+02  0.7409E+02
     -4.344  0.2890E+02  0.2024E+02  0.7570E+02  0.7520E+02
     -4.289  0.2637E+02  0.3246E+02  0.7714E+02  0.7697E+02
     -4.235  0.3435E+02  0.2945E+02  0.7902E+02  0.7858E+02
     -4.180  0.2089E+02  0.1923E+02  0.8016E+02  0.7962E+02
     -4.126  0.3718E+02  0.4000E+02  0.8218E+02  0.8181E+02
     -4.071  0.1351E+02  0.1653E+02  0.8292E+02  0.8271E+02
     -4.017  0.1314E+02  0.1123E+02  0.8364E+02  0.8332E+02
     -3.962  0.5633E+01  0.1041E+02  0.8394E+02  0.8389E+02
     -3.908  0.7558E+01  0.6926E+01  0.8436E+02  0.8427E+02
     -3.853  0.2039E+02  0.1656E+02  0.8547E+02  0.8517E+02
     -3.798  0.1437E+02  0.1772E+02  0.8625E+02  0.8614E+02
     -3.744  0.1720E+02  0.1332E+02  0.8719E+02  0.8686E+02
     -3.689  0.1938E+02  0.1940E+02  0.8825E+02  0.8792E+02
     -3.635  0.4175E+02  0.3987E+02  0.9053E+02  0.9009E+02
     -3.580  0.2825E+02  0.2901E+02  0.9207E+02  0.9168E+02
     -3.526  0.2413E+02  0.2538E+02  0.9338E+02  0.9306E+02
     -3.471  0.2780E+02  0.2706E+02  0.9490E+02  0.9454E+02
     -3.417  0.2160E+02  0.2512E+02  0.9608E+02  0.9591E+02
     -3.362  0.4011E+02  0.4044E+02  0.9826E+02  0.9811E+02
     -3.308  0.2296E+02  0.1993E+02  0.9952E+02  0.9920E+02
     -3.253  0.2472E+02  0.2896E+02  0.1009E+03  0.1008E+03
     -3.198  0.1650E+02  0.1560E+02  0.1018E+03  0.1016E+03
     -3.144  0.1805E+02  0.2024E+02  0.1027E+03  0.1027E+03
     -3.089  0.1678E+02  0.1305E+02  0.1037E+03  0.1034E+03
     -3.035  0.8497E+01  0.1243E+02  0.1041E+03  0.1041E+03
     -2.980  0.1956E+02  0.1666E+02  0.1052E+03  0.1050E+03
     -2.926  0.7104E+01  0.8041E+01  0.1056E+03  0.1055E+03
     -2.871  0.2729E+02  0.2431E+02  0.1071E+03  0.1068E+03
     -2.817  0.2540E+02  0.2635E+02  0.1085E+03  0.1082E+03
     -2.762  0.2863E+02  0.2565E+02  0.1100E+03  0.1096E+03
     -2.708  0.1919E+02  0.2376E+02  0.1111E+03  0.1109E+03
     -2.653  0.2025E+02  0.2203E+02  0.1122E+03  0.1121E+03
     -2.599  0.6748E+01  0.5820E+01  0.1125E+03  0.1124E+03
     -2.544  0.1346E+02  0.7583E+01  0.1133E+03  0.1129E+03
     -2.489  0.2095E+02  0.2698E+02  0.1144E+03  0.1143E+03
     -2.435  0.1889E+02  0.1501E+02  0.1154E+03  0.1152E+03
     -2.380  0.2487E+02  0.2342E+02  0.1168E+03  0.1164E+03
     -2.326  0.9977E+01  0.1544E+02  0.1173E+03  0.1173E+03
     -2.271  0.2291E+02  0.1417E+02  0.1186E+03  0.1180E+03
     -2.217  0.2076E+02  0.2590E+02  0.1197E+03  0.1195E+03
     -2.162  0.7715E+01  0.1056E+02  0.1201E+03  0.1200E+03
     -2.108  0.1591E+02  0.1335E+02  0.1210E+03  0.1208E+03
     -2.053  0.2566E+02  0.2702E+02  0.1224E+03  0.1222E+03
     -1.999  0.8628E+01  0.1171E+02  0.1229E+03  0.1229E+03
     -1.944  0.1583E+02  0.1585E+02  0.1237E+03  0.1237E+03
     -1.889  0.3271E+01  0.1083E+01  0.1239E+03  0.1238E+03
     -1.835  0.1557E+02  0.1320E+02  0.1248E+03  0.1245E+03
     -1.780  0.1368E+02  0.1414E+02  0.1255E+03  0.1253E+03
     -1.726  0.8126E+01  0.9086E+01  0.1260E+03  0.1258E+03
     -1.671  0.2085E+02  0.1828E+02  0.1271E+03  0.1268E+03
     -1.617  0.7050E+01  0.8807E+01  0.1275E+03  0.1273E+03
     -1.562  0.1860E+02  0.2030E+02  0.1285E+03  0.1284E+03
     -1.508  0.1139E+02  0.1362E+02  0.1291E+03  0.1291E+03
     -1.453  0.9418E+01  0.5167E+01  0.1296E+03  0.1294E+03
     -1.399  0.2289E+02  0.2515E+02  0.1309E+03  0.1308E+03
     -1.344  0.1520E+02  0.1305E+02  0.1317E+03  0.1315E+03
     -1.290  0.2399E+02  0.2159E+02  0.1330E+03  0.1327E+03
     -1.235  0.7419E+01  0.1323E+02  0.1334E+03  0.1334E+03
     -1.180  0.9887E+01  0.8571E+01  0.1340E+03  0.1338E+03
     -1.126  0.7422E+01  0.8279E+01  0.1344E+03  0.1343E+03
     -1.071  0.4188E+01  0.3811E+01  0.1346E+03  0.1345E+03
     -1.017  0.7854E+01  0.7132E+01  0.1350E+03  0.1349E+03
     -0.962  0.3669E+01  0.5048E+01  0.1352E+03  0.1352E+03
     -0.908  0.4946E+01  0.6062E+01  0.1355E+03  0.1355E+03
     -0.853  0.8976E+01  0.2221E+01  0.1360E+03  0.1356E+03
     -0.799  0.1767E+02  0.2177E+02  0.1370E+03  0.1368E+03
     -0.744  0.1935E+02  0.1356E+02  0.1380E+03  0.1375E+03
     -0.690  0.1828E+02  0.2253E+02  0.1390E+03  0.1388E+03
     -0.635  0.1805E+02  0.1949E+02  0.1400E+03  0.1398E+03
     -0.580  0.1185E+01  0.2986E+01  0.1401E+03  0.1400E+03
     -0.526  0.2777E+02  0.2409E+02  0.1416E+03  0.1413E+03
     -0.471  0.2618E+02  0.2943E+02  0.1430E+03  0.1429E+03
     -0.417  0.1323E+02  0.1297E+02  0.1437E+03  0.1436E+03
     -0.362  0.3120E+02  0.2591E+02  0.1454E+03  0.1450E+03
     -0.308  0.3475E+02  0.3842E+02  0.1473E+03  0.1471E+03
     -0.253  0.2114E+02  0.1859E+02  0.1485E+03  0.1482E+03
     -0.199  0.5797E+02  0.5651E+02  0.1516E+03  0.1512E+03
     -0.144  0.2640E+02  0.3184E+02  0.1531E+03  0.1530E+03
     -0.090  0.4087E+02  0.3513E+02  0.1553E+03  0.1549E+03
     -0.035  0.3370E+02  0.3757E+02  0.1571E+03  0.1569E+03
      0.020  0.4479E+02  0.3958E+02  0.1596E+03  0.1591E+03
      0.074  0.4645E+02  0.4297E+02  0.1621E+03  0.1614E+03
      0.129  0.3819E+02  0.4259E+02  0.1642E+03  0.1638E+03
      0.183  0.3039E+02  0.3093E+02  0.1659E+03  0.1654E+03
      0.238  0.2903E+02  0.2763E+02  0.1674E+03  0.1670E+03
      0.292  0.4391E+02  0.4330E+02  0.1698E+03  0.1693E+03
      0.347  0.5353E+02  0.5123E+02  0.1728E+03  0.1721E+03
      0.401  0.3587E+02  0.4281E+02  0.1747E+03  0.1744E+03
      0.456  0.2980E+02  0.3051E+02  0.1763E+03  0.1761E+03
      0.510  0.4765E+02  0.4783E+02  0.1789E+03  0.1787E+03
      0.565  0.4312E+02  0.4222E+02  0.1813E+03  0.1810E+03
      0.619  0.5463E+02  0.4948E+02  0.1843E+03  0.1837E+03
      0.674  0.5201E+02  0.4265E+02  0.1871E+03  0.1860E+03
      0.729  0.3195E+02  0.4960E+02  0.1888E+03  0.1888E+03
      0.783  0.4534E+02  0.3552E+02  0.1913E+03  0.1907E+03
      0.838  0.3461E+02  0.3937E+02  0.1932E+03  0.1928E+03
      0.892  0.3396E+02  0.3364E+02  0.1951E+03  0.1947E+03
      0.947  0.4141E+02  0.3871E+02  0.1973E+03  0.1968E+03
      1.001  0.2960E+02  0.3044E+02  0.1989E+03  0.1984E+03
      1.056  0.3949E+02  0.3466E+02  0.2011E+03  0.2003E+03
      1.110  0.5101E+02  0.6004E+02  0.2039E+03  0.2036E+03
      1.165  0.5286E+02  0.3975E+02  0.2067E+03  0.2058E+03
      1.219  0.3239E+02  0.4428E+02  0.2085E+03  0.2082E+03
      1.274  0.5467E+02  0.4193E+02  0.2115E+03  0.2105E+03
      1.329  0.4198E+02  0.5280E+02  0.2138E+03  0.2134E+03
      1.383  0.4091E+02  0.3796E+02  0.2160E+03  0.2154E+03
      1.438  0.4863E+02  0.4651E+02  0.2187E+03  0.2180E+03
      1.492  0.4926E+02  0.5034E+02  0.2214E+03  0.2207E+03
      1.547  0.4218E+02  0.4850E+02  0.2237E+03  0.2234E+03
      1.601  0.3278E+02  0.2354E+02  0.2254E+03  0.2246E+03
      1.656  0.4803E+02  0.4834E+02  0.2281E+03  0.2273E+03
      1.710  0.4629E+02  0.5012E+02  0.2306E+03  0.2300E+03
      1.765  0.3875E+02  0.4278E+02  0.2327E+03  0.2323E+03
      1.819  0.3894E+02  0.3754E+02  0.2348E+03  0.2344E+03
      1.874  0.4269E+02  0.3988E+02  0.2372E+03  0.2366E+03
      1.929  0.4909E+02  0.5193E+02  0.2398E+03  0.2394E+03
      1.983  0.3532E+02  0.3091E+02  0.2418E+03  0.2411E+03
      2.038  0.2687E+02  0.3116E+02  0.2432E+03  0.2428E+03
      2.092  0.3102E+02  0.2580E+02  0.2449E+03  0.2442E+03
      2.147  0.3732E+02  0.4622E+02  0.2470E+03  0.2467E+03
      2.201  0.2506E+02  0.2180E+02  0.2483E+03  0.2479E+03
      2.256  0.3400E+02  0.3294E+02  0.2502E+03  0.2497E+03
      2.310  0.5645E+02  0.5598E+02  0.2533E+03  0.2528E+03
      2.365  0.2747E+02  0.2686E+02  0.2548E+03  0.2542E+03
      2.419  0.3075E+02  0.3100E+02  0.2564E+03  0.2559E+03
      2.474  0.3286E+02  0.3894E+02  0.2582E+03  0.2580E+03
      2.528  0.2650E+02  0.1930E+02  0.2597E+03  0.2591E+03
      2.583  0.4111E+02  0.4524E+02  0.2619E+03  0.2616E+03
      2.638  0.3436E+02  0.2580E+02  0.2638E+03  0.2630E+03
      2.692  0.1925E+02  0.3115E+02  0.2648E+03  0.2647E+03
      2.747  0.2351E+02  0.2054E+02  0.2661E+03  0.2658E+03
      2.801  0.2534E+02  0.2582E+02  0.2675E+03  0.2672E+03
      2.856  0.3073E+02  0.3013E+02  0.2692E+03  0.2688E+03
      2.910  0.3299E+02  0.3403E+02  0.2710E+03  0.2707E+03
      2.965  0.3099E+02  0.2894E+02  0.2727E+03  0.2723E+03
      3.019  0.2525E+02  0.2338E+02  0.2740E+03  0.2735E+03
      3.074  0.2650E+02  0.2677E+02  0.2755E+03  0.2750E+03
      3.128  0.1423E+02  0.1562E+02  0.2763E+03  0.2759E+03
      3.183  0.1077E+02  0.1267E+02  0.2768E+03  0.2765E+03
      3.238  0.1192E+02  0.1655E+02  0.2775E+03  0.2774E+03
      3.292  0.3920E+01  0.1021E+01  0.2777E+03  0.2775E+03
      3.347  0.3505E+02  0.2171E+02  0.2796E+03  0.2787E+03
      3.401  0.2280E+02  0.2101E+02  0.2809E+03  0.2798E+03
      3.456  0.2352E+02  0.3517E+02  0.2822E+03  0.2817E+03
      3.510  0.1625E+02  0.1142E+02  0.2830E+03  0.2824E+03
      3.565  0.3994E+02  0.2173E+02  0.2852E+03  0.2836E+03
      3.619  0.1508E+02  0.3572E+02  0.2860E+03  0.2855E+03
      3.674  0.3773E+02  0.2433E+02  0.2881E+03  0.2868E+03
      3.728  0.3233E+02  0.2297E+02  0.2899E+03  0.2881E+03
      3.783  0.4180E+02  0.4107E+02  0.2921E+03  0.2903E+03
      3.837  0.2534E+02  0.3783E+02  0.2935E+03  0.2924E+03
      3.892  0.2409E+02  0.2642E+02  0.2948E+03  0.2938E+03
      3.947  0.2538E+02  0.2585E+02  0.2962E+03  0.2952E+03
      4.001  0.2802E+02  0.4163E+02  0.2977E+03  0.2975E+03
      4.056  0.2945E+02  0.1854E+02  0.2994E+03  0.2985E+03
      4.110  0.2158E+02  0.3368E+02  0.3005E+03  0.3004E+03
      4.165  0.2469E+02  0.1935E+02  0.3019E+03  0.3014E+03
      4.219  0.2281E+02  0.2491E+02  0.3031E+03  0.3028E+03
      4.274  0.2279E+02  0.1682E+02  0.3044E+03  0.3037E+03
      4.328  0.3175E+02  0.2585E+02  0.3061E+03  0.3051E+03
      4.383  0.2394E+02  0.3463E+02  0.3074E+03  0.3070E+03
      4.437  0.2517E+02  0.2229E+02  0.3088E+03  0.3082E+03
      4.492  0.4221E+02  0.3361E+02  0.3111E+03  0.3100E+03
      4.547  0.2870E+02  0.3880E+02  0.3126E+03  0.3122E+03
      4.601  0.3594E+02  0.2316E+02  0.3146E+03  0.3134E+03
      4.656  0.2102E+02  0.3435E+02  0.3158E+03  0.3153E+03
      4.710  0.3195E+02  0.2909E+02  0.3175E+03  0.3169E+03
      4.765  0.2267E+02  0.2770E+02  0.3187E+03  0.3184E+03
      4.819  0.1731E+02  0.1407E+02  0.3197E+03  0.3192E+03
      4.874  0.3016E+02  0.3326E+02  0.3213E+03  0.3210E+03
      4.928  0.2759E+02  0.2378E+02  0.3228E+03  0.3223E+03
      4.983  0.2956E+02  0.3191E+02  0.3244E+03  0.3240E+03
      5.037  0.2124E+02  0.2090E+02  0.3256E+03  0.3251E+03
      5.092  0.4719E+02  0.4479E+02  0.3282E+03  0.3276E+03
      5.147  0.2975E+02  0.3114E+02  0.3298E+03  0.3293E+03
      5.201  0.3126E+02  0.3075E+02  0.3315E+03  0.3310E+03
      5.256  0.2794E+02  0.3123E+02  0.3330E+03  0.3327E+03
      5.310  0.3439E+02  0.3049E+02  0.3349E+03  0.3343E+03
      5.365  0.2524E+02  0.2621E+02  0.3363E+03  0.3358E+03
      5.419  0.5717E+02  0.5685E+02  0.3394E+03  0.3389E+03
      5.474  0.2169E+02  0.2634E+02  0.3406E+03  0.3403E+03
      5.528  0.3000E+02  0.2860E+02  0.3422E+03  0.3419E+03
      5.583  0.2367E+02  0.2563E+02  0.3435E+03  0.3433E+03
      5.637  0.1175E+02  0.1245E+02  0.3441E+03  0.3439E+03
      5.692  0.2958E+02  0.2986E+02  0.3458E+03  0.3456E+03
      5.746  0.2306E+02  0.2537E+02  0.3470E+03  0.3469E+03
      5.801  0.3274E+02  0.1796E+02  0.3488E+03  0.3479E+03
      5.856  0.2207E+02  0.3758E+02  0.3500E+03  0.3500E+03
      5.910  0.1374E+02  0.1323E+02  0.3508E+03  0.3507E+03
      5.965  0.8265E+01  0.6328E+01  0.3512E+03  0.3510E+03
      6.019  0.5550E+01  0.6897E+01  0.3515E+03  0.3514E+03
      6.074  0.5447E+01  0.6067E+01  0.3518E+03  0.3518E+03
      6.128  0.3639E+01  0.4562E+01  0.3520E+03  0.3520E+03
      6.183  0.0000E+00  0.0000E+00  0.3520E+03  0.3520E+03
      6.237  0.0000E+00  0.0000E+00  0.3520E+03  0.3520E+03
      6.292  0.0000E+00  0.0000E+00  0.3520E+03  0.3520E+03
      6.346  0.0000E+00  0.0000E+00  0.3520E+03  0.3520E+03
      6.401  0.0000E+00  0.0000E+00  0.3520E+03  0.3520E+03
      6.456  0.0000E+00  0.0000E+00  0.3520E+03  0.3520E+03
      6.510  0.0000E+00  0.0000E+00  0.3520E+03  0.3520E+03
      6.565  0.0000E+00  0.0000E+00  0.3520E+03  0.3520E+03
      6.619  0.0000E+00  0.0000E+00  0.3520E+03  0.3520E+03
      6.674  0.0000E+00  0.0000E+00  0.3520E+03  0.3520E+03
      6.728  0.0000E+00  0.0000E+00  0.3520E+03  0.3520E+03
      6.783  0.0000E+00  0.0000E+00  0.3520E+03  0.3520E+03
      6.837  0.0000E+00  0.0000E+00  0.3520E+03  0.3520E+03
