 120 120   0   0
  0.2169524E+02  0.7680595E-09  0.1629300E-08  0.2080414E-08  0.5000000E-15
  1.000000000000000E-004
  CAR 
 Si and Ge interface calculation         
      7.90184939     -8.53441137  301      4.86233884      1.00000000
     -8.534  0.0000E+00  0.0000E+00  0.0000E+00  0.0000E+00
     -8.480  0.0000E+00  0.0000E+00  0.0000E+00  0.0000E+00
     -8.425  0.0000E+00  0.0000E+00  0.0000E+00  0.0000E+00
     -8.370  0.0000E+00  0.0000E+00  0.0000E+00  0.0000E+00
     -8.315  0.0000E+00  0.0000E+00  0.0000E+00  0.0000E+00
     -8.260  0.0000E+00  0.0000E+00  0.0000E+00  0.0000E+00
     -8.206  0.0000E+00  0.0000E+00  0.0000E+00  0.0000E+00
     -8.151  0.0000E+00  0.0000E+00  0.0000E+00  0.0000E+00
     -8.096  0.0000E+00  0.0000E+00  0.0000E+00  0.0000E+00
     -8.041  0.0000E+00  0.0000E+00  0.0000E+00  0.0000E+00
     -7.987  0.0000E+00  0.0000E+00  0.0000E+00  0.0000E+00
     -7.932  0.0000E+00  0.0000E+00  0.0000E+00  0.0000E+00
     -7.877  0.0000E+00  0.0000E+00  0.0000E+00  0.0000E+00
     -7.822  0.9351E-06  0.2976E-08  0.5123E-07  0.1631E-09
     -7.767  0.4128E+01  0.3193E+01  0.2261E+00  0.1749E+00
     -7.713  0.4355E+00  0.1370E+01  0.2500E+00  0.2500E+00
     -7.658  0.9531E+01  0.7637E+01  0.7722E+00  0.6684E+00
     -7.603  0.8721E+01  0.1061E+02  0.1250E+01  0.1250E+01
     -7.548  0.5432E+01  0.2876E+01  0.1548E+01  0.1408E+01
     -7.493  0.1510E+02  0.1766E+02  0.2375E+01  0.2375E+01
     -7.439  0.7598E+01  0.6998E+01  0.2791E+01  0.2758E+01
     -7.384  0.1034E+02  0.9633E+01  0.3358E+01  0.3286E+01
     -7.329  0.1348E+02  0.1084E+02  0.4096E+01  0.3880E+01
     -7.274  0.2025E+02  0.1997E+02  0.5206E+01  0.4974E+01
     -7.220  0.2494E+02  0.2755E+02  0.6572E+01  0.6484E+01
     -7.165  0.1968E+02  0.2016E+02  0.7651E+01  0.7588E+01
     -7.110  0.2521E+02  0.2553E+02  0.9032E+01  0.8987E+01
     -7.055  0.1347E+02  0.1204E+02  0.9770E+01  0.9646E+01
     -7.000  0.2273E+02  0.2120E+02  0.1102E+02  0.1081E+02
     -6.946  0.2836E+02  0.3075E+02  0.1257E+02  0.1249E+02
     -6.891  0.3358E+02  0.2732E+02  0.1441E+02  0.1399E+02
     -6.836  0.2495E+02  0.2746E+02  0.1578E+02  0.1549E+02
     -6.781  0.1695E+02  0.2023E+02  0.1670E+02  0.1660E+02
     -6.726  0.1699E+02  0.1849E+02  0.1764E+02  0.1762E+02
     -6.672  0.2127E+02  0.1997E+02  0.1880E+02  0.1871E+02
     -6.617  0.2307E+02  0.2109E+02  0.2006E+02  0.1987E+02
     -6.562  0.2813E+02  0.2891E+02  0.2161E+02  0.2145E+02
     -6.507  0.2594E+02  0.2354E+02  0.2303E+02  0.2274E+02
     -6.452  0.3312E+02  0.3685E+02  0.2484E+02  0.2476E+02
     -6.398  0.3107E+02  0.3016E+02  0.2654E+02  0.2641E+02
     -6.343  0.2313E+02  0.2421E+02  0.2781E+02  0.2774E+02
     -6.288  0.1631E+02  0.1634E+02  0.2871E+02  0.2863E+02
     -6.233  0.4561E+02  0.4251E+02  0.3120E+02  0.3096E+02
     -6.179  0.1156E+02  0.1268E+02  0.3184E+02  0.3166E+02
     -6.124  0.4309E+02  0.4135E+02  0.3420E+02  0.3392E+02
     -6.069  0.4077E+02  0.4264E+02  0.3643E+02  0.3626E+02
     -6.014  0.3685E+02  0.3431E+02  0.3845E+02  0.3814E+02
     -5.959  0.2411E+02  0.2715E+02  0.3977E+02  0.3962E+02
     -5.905  0.3048E+02  0.2949E+02  0.4144E+02  0.4124E+02
     -5.850  0.3617E+02  0.3469E+02  0.4342E+02  0.4314E+02
     -5.795  0.3341E+02  0.3338E+02  0.4525E+02  0.4497E+02
     -5.740  0.4552E+02  0.4854E+02  0.4775E+02  0.4763E+02
     -5.685  0.3948E+02  0.3735E+02  0.4991E+02  0.4968E+02
     -5.631  0.4047E+02  0.4122E+02  0.5213E+02  0.5193E+02
     -5.576  0.2800E+02  0.2860E+02  0.5366E+02  0.5350E+02
     -5.521  0.3608E+02  0.3444E+02  0.5564E+02  0.5539E+02
     -5.466  0.5075E+02  0.5071E+02  0.5842E+02  0.5817E+02
     -5.412  0.4987E+02  0.5054E+02  0.6115E+02  0.6094E+02
     -5.357  0.4813E+02  0.4765E+02  0.6379E+02  0.6355E+02
     -5.302  0.4516E+02  0.4483E+02  0.6626E+02  0.6600E+02
     -5.247  0.3492E+02  0.3663E+02  0.6818E+02  0.6801E+02
     -5.192  0.3765E+02  0.3671E+02  0.7024E+02  0.7002E+02
     -5.138  0.4603E+02  0.4490E+02  0.7276E+02  0.7248E+02
     -5.083  0.4439E+02  0.4599E+02  0.7519E+02  0.7500E+02
     -5.028  0.4380E+02  0.4177E+02  0.7759E+02  0.7729E+02
     -4.973  0.4916E+02  0.5183E+02  0.8029E+02  0.8013E+02
     -4.918  0.2769E+02  0.2784E+02  0.8180E+02  0.8165E+02
     -4.864  0.3281E+02  0.3169E+02  0.8360E+02  0.8339E+02
     -4.809  0.3064E+02  0.3127E+02  0.8528E+02  0.8510E+02
     -4.754  0.3568E+02  0.3388E+02  0.8723E+02  0.8696E+02
     -4.699  0.3324E+02  0.3448E+02  0.8906E+02  0.8885E+02
     -4.644  0.3581E+02  0.3566E+02  0.9102E+02  0.9080E+02
     -4.590  0.2187E+02  0.2424E+02  0.9222E+02  0.9213E+02
     -4.535  0.2746E+02  0.2283E+02  0.9372E+02  0.9338E+02
     -4.480  0.5127E+02  0.5284E+02  0.9653E+02  0.9628E+02
     -4.425  0.4681E+02  0.4910E+02  0.9909E+02  0.9896E+02
     -4.371  0.4213E+02  0.4105E+02  0.1014E+03  0.1012E+03
     -4.316  0.3074E+02  0.3264E+02  0.1031E+03  0.1030E+03
     -4.261  0.2749E+02  0.2528E+02  0.1046E+03  0.1044E+03
     -4.206  0.3274E+02  0.3395E+02  0.1064E+03  0.1062E+03
     -4.151  0.2481E+02  0.2466E+02  0.1077E+03  0.1076E+03
     -4.097  0.1735E+02  0.1779E+02  0.1087E+03  0.1086E+03
     -4.042  0.2474E+02  0.2619E+02  0.1101E+03  0.1100E+03
     -3.987  0.1994E+02  0.1935E+02  0.1111E+03  0.1111E+03
     -3.932  0.5959E+01  0.5956E+01  0.1115E+03  0.1114E+03
     -3.877  0.2555E+02  0.2119E+02  0.1129E+03  0.1126E+03
     -3.823  0.1975E+02  0.2404E+02  0.1140E+03  0.1139E+03
     -3.768  0.7692E+01  0.9162E+01  0.1144E+03  0.1144E+03
     -3.713  0.1396E+02  0.9748E+01  0.1151E+03  0.1149E+03
     -3.658  0.3212E+02  0.3211E+02  0.1169E+03  0.1167E+03
     -3.604  0.1341E+02  0.1531E+02  0.1176E+03  0.1175E+03
     -3.549  0.1332E+02  0.1458E+02  0.1184E+03  0.1183E+03
     -3.494  0.2523E+02  0.2432E+02  0.1197E+03  0.1196E+03
     -3.439  0.1507E+02  0.1472E+02  0.1206E+03  0.1204E+03
     -3.384  0.1234E+02  0.1238E+02  0.1212E+03  0.1211E+03
     -3.330  0.1753E+02  0.1593E+02  0.1222E+03  0.1220E+03
     -3.275  0.3508E+02  0.3616E+02  0.1241E+03  0.1240E+03
     -3.220  0.1180E+02  0.1369E+02  0.1248E+03  0.1247E+03
     -3.165  0.2796E+02  0.2428E+02  0.1263E+03  0.1261E+03
     -3.110  0.2547E+02  0.2345E+02  0.1277E+03  0.1273E+03
     -3.056  0.3906E+02  0.3947E+02  0.1298E+03  0.1295E+03
     -3.001  0.2244E+02  0.2617E+02  0.1311E+03  0.1309E+03
     -2.946  0.1578E+02  0.1595E+02  0.1319E+03  0.1318E+03
     -2.891  0.3073E+02  0.2999E+02  0.1336E+03  0.1335E+03
     -2.837  0.2533E+02  0.2366E+02  0.1350E+03  0.1348E+03
     -2.782  0.3227E+02  0.3386E+02  0.1368E+03  0.1366E+03
     -2.727  0.4141E+02  0.3612E+02  0.1390E+03  0.1386E+03
     -2.672  0.2700E+02  0.3163E+02  0.1405E+03  0.1403E+03
     -2.617  0.3779E+02  0.3598E+02  0.1426E+03  0.1423E+03
     -2.563  0.3036E+02  0.3069E+02  0.1443E+03  0.1440E+03
     -2.508  0.4233E+02  0.4429E+02  0.1466E+03  0.1464E+03
     -2.453  0.5727E+02  0.5281E+02  0.1497E+03  0.1493E+03
     -2.398  0.6266E+02  0.6510E+02  0.1531E+03  0.1529E+03
     -2.343  0.4860E+02  0.4929E+02  0.1558E+03  0.1556E+03
     -2.289  0.7740E+02  0.7651E+02  0.1601E+03  0.1598E+03
     -2.234  0.4938E+02  0.5124E+02  0.1628E+03  0.1626E+03
     -2.179  0.5956E+02  0.5633E+02  0.1660E+03  0.1656E+03
     -2.124  0.5393E+02  0.5554E+02  0.1690E+03  0.1687E+03
     -2.069  0.3579E+02  0.3480E+02  0.1709E+03  0.1706E+03
     -2.015  0.3314E+02  0.3308E+02  0.1728E+03  0.1724E+03
     -1.960  0.3893E+02  0.4324E+02  0.1749E+03  0.1748E+03
     -1.905  0.4283E+02  0.3722E+02  0.1772E+03  0.1768E+03
     -1.850  0.4268E+02  0.4546E+02  0.1796E+03  0.1793E+03
     -1.796  0.3204E+02  0.3550E+02  0.1813E+03  0.1813E+03
     -1.741  0.2673E+02  0.2351E+02  0.1828E+03  0.1825E+03
     -1.686  0.3471E+02  0.3465E+02  0.1847E+03  0.1844E+03
     -1.631  0.2489E+02  0.2466E+02  0.1861E+03  0.1858E+03
     -1.576  0.2649E+02  0.2827E+02  0.1875E+03  0.1873E+03
     -1.522  0.4469E+02  0.4184E+02  0.1900E+03  0.1896E+03
     -1.467  0.3256E+02  0.3017E+02  0.1917E+03  0.1913E+03
     -1.412  0.3576E+02  0.3924E+02  0.1937E+03  0.1934E+03
     -1.357  0.3655E+02  0.3783E+02  0.1957E+03  0.1955E+03
     -1.302  0.3086E+02  0.3031E+02  0.1974E+03  0.1972E+03
     -1.248  0.1384E+02  0.1733E+02  0.1981E+03  0.1981E+03
     -1.193  0.9836E+01  0.8272E+01  0.1987E+03  0.1986E+03
     -1.138  0.1952E+02  0.2026E+02  0.1998E+03  0.1997E+03
     -1.083  0.2750E+02  0.2394E+02  0.2013E+03  0.2010E+03
     -1.029  0.2197E+02  0.2333E+02  0.2025E+03  0.2023E+03
     -0.974  0.2270E+02  0.2009E+02  0.2037E+03  0.2034E+03
     -0.919  0.2229E+02  0.2373E+02  0.2049E+03  0.2047E+03
     -0.864  0.2358E+02  0.2511E+02  0.2062E+03  0.2060E+03
     -0.809  0.9576E+01  0.1286E+02  0.2068E+03  0.2067E+03
     -0.755  0.2204E+02  0.2004E+02  0.2080E+03  0.2078E+03
     -0.700  0.1114E+02  0.1101E+02  0.2086E+03  0.2084E+03
     -0.645  0.2567E+02  0.2228E+02  0.2100E+03  0.2097E+03
     -0.590  0.1749E+02  0.2155E+02  0.2109E+03  0.2109E+03
     -0.535  0.2167E+02  0.2107E+02  0.2121E+03  0.2120E+03
     -0.481  0.5301E+02  0.4993E+02  0.2150E+03  0.2147E+03
     -0.426  0.2430E+02  0.2646E+02  0.2164E+03  0.2162E+03
     -0.371  0.2275E+02  0.2313E+02  0.2176E+03  0.2175E+03
     -0.316  0.1557E+02  0.1545E+02  0.2185E+03  0.2183E+03
     -0.261  0.9647E+01  0.1121E+02  0.2190E+03  0.2189E+03
     -0.207  0.2119E+02  0.1739E+02  0.2201E+03  0.2199E+03
     -0.152  0.1656E+02  0.2071E+02  0.2211E+03  0.2210E+03
     -0.097  0.1026E+02  0.8129E+01  0.2216E+03  0.2215E+03
     -0.042  0.1012E+02  0.1177E+02  0.2222E+03  0.2221E+03
      0.012  0.1924E+02  0.1496E+02  0.2232E+03  0.2229E+03
      0.067  0.1876E+02  0.2417E+02  0.2242E+03  0.2242E+03
      0.122  0.9599E+01  0.8595E+01  0.2248E+03  0.2247E+03
      0.177  0.2137E+02  0.1989E+02  0.2259E+03  0.2258E+03
      0.232  0.4490E+02  0.4256E+02  0.2284E+03  0.2281E+03
      0.286  0.5386E+02  0.4747E+02  0.2314E+03  0.2307E+03
      0.341  0.5815E+02  0.6390E+02  0.2345E+03  0.2342E+03
      0.396  0.3173E+02  0.3419E+02  0.2363E+03  0.2361E+03
      0.451  0.3012E+02  0.3108E+02  0.2379E+03  0.2378E+03
      0.506  0.6124E+02  0.5718E+02  0.2413E+03  0.2409E+03
      0.560  0.5464E+02  0.5062E+02  0.2443E+03  0.2437E+03
      0.615  0.5735E+02  0.6436E+02  0.2474E+03  0.2472E+03
      0.670  0.5270E+02  0.4828E+02  0.2503E+03  0.2499E+03
      0.725  0.4985E+02  0.5418E+02  0.2530E+03  0.2529E+03
      0.779  0.6294E+02  0.5618E+02  0.2565E+03  0.2559E+03
      0.834  0.8947E+02  0.8848E+02  0.2614E+03  0.2608E+03
      0.889  0.7023E+02  0.7570E+02  0.2652E+03  0.2649E+03
      0.944  0.7166E+02  0.6825E+02  0.2692E+03  0.2687E+03
      0.999  0.4263E+02  0.4307E+02  0.2715E+03  0.2710E+03
      1.053  0.3804E+02  0.4315E+02  0.2736E+03  0.2734E+03
      1.108  0.8049E+02  0.7067E+02  0.2780E+03  0.2773E+03
      1.163  0.7382E+02  0.7967E+02  0.2820E+03  0.2816E+03
      1.218  0.6397E+02  0.6176E+02  0.2855E+03  0.2850E+03
      1.273  0.8495E+02  0.8450E+02  0.2902E+03  0.2896E+03
      1.327  0.7393E+02  0.7197E+02  0.2942E+03  0.2936E+03
      1.382  0.8027E+02  0.8310E+02  0.2986E+03  0.2981E+03
      1.437  0.4999E+02  0.5453E+02  0.3014E+03  0.3011E+03
      1.492  0.7943E+02  0.7208E+02  0.3057E+03  0.3051E+03
      1.546  0.8287E+02  0.8798E+02  0.3103E+03  0.3099E+03
      1.601  0.3579E+02  0.3739E+02  0.3122E+03  0.3119E+03
      1.656  0.8130E+02  0.8173E+02  0.3167E+03  0.3164E+03
      1.711  0.8581E+02  0.8188E+02  0.3214E+03  0.3209E+03
      1.766  0.7439E+02  0.7728E+02  0.3255E+03  0.3251E+03
      1.820  0.8185E+02  0.8047E+02  0.3300E+03  0.3296E+03
      1.875  0.1019E+03  0.9768E+02  0.3355E+03  0.3349E+03
      1.930  0.7955E+02  0.8161E+02  0.3399E+03  0.3394E+03
      1.985  0.7105E+02  0.6986E+02  0.3438E+03  0.3432E+03
      2.040  0.7338E+02  0.7587E+02  0.3478E+03  0.3474E+03
      2.094  0.5878E+02  0.6144E+02  0.3510E+03  0.3507E+03
      2.149  0.5690E+02  0.5621E+02  0.3541E+03  0.3538E+03
      2.204  0.8065E+02  0.7837E+02  0.3586E+03  0.3581E+03
      2.259  0.6628E+02  0.5853E+02  0.3622E+03  0.3613E+03
      2.314  0.9265E+02  0.1021E+03  0.3673E+03  0.3669E+03
      2.368  0.4998E+02  0.5006E+02  0.3700E+03  0.3696E+03
      2.423  0.6878E+02  0.6881E+02  0.3738E+03  0.3734E+03
      2.478  0.6343E+02  0.6176E+02  0.3773E+03  0.3768E+03
      2.533  0.9237E+02  0.8851E+02  0.3823E+03  0.3816E+03
      2.587  0.7007E+02  0.7162E+02  0.3862E+03  0.3856E+03
      2.642  0.6609E+02  0.6847E+02  0.3898E+03  0.3893E+03
      2.697  0.6806E+02  0.6623E+02  0.3935E+03  0.3929E+03
      2.752  0.6054E+02  0.6502E+02  0.3968E+03  0.3965E+03
      2.807  0.5121E+02  0.4683E+02  0.3996E+03  0.3991E+03
      2.861  0.5053E+02  0.5679E+02  0.4024E+03  0.4022E+03
      2.916  0.4501E+02  0.4217E+02  0.4049E+03  0.4045E+03
      2.971  0.7555E+02  0.7419E+02  0.4090E+03  0.4086E+03
      3.026  0.7256E+02  0.6881E+02  0.4130E+03  0.4123E+03
      3.081  0.5803E+02  0.6054E+02  0.4162E+03  0.4157E+03
      3.135  0.7290E+02  0.7142E+02  0.4202E+03  0.4196E+03
      3.190  0.6587E+02  0.7099E+02  0.4238E+03  0.4235E+03
      3.245  0.6324E+02  0.5772E+02  0.4272E+03  0.4266E+03
      3.300  0.6277E+02  0.5882E+02  0.4307E+03  0.4298E+03
      3.354  0.7452E+02  0.7944E+02  0.4347E+03  0.4342E+03
      3.409  0.6187E+02  0.6759E+02  0.4381E+03  0.4379E+03
      3.464  0.5459E+02  0.4760E+02  0.4411E+03  0.4405E+03
      3.519  0.6163E+02  0.6513E+02  0.4445E+03  0.4441E+03
      3.574  0.4669E+02  0.4863E+02  0.4471E+03  0.4467E+03
      3.628  0.4154E+02  0.3661E+02  0.4493E+03  0.4487E+03
      3.683  0.4375E+02  0.4879E+02  0.4517E+03  0.4514E+03
      3.738  0.4711E+02  0.4580E+02  0.4543E+03  0.4539E+03
      3.793  0.3219E+02  0.3539E+02  0.4561E+03  0.4559E+03
      3.848  0.4067E+02  0.3824E+02  0.4583E+03  0.4580E+03
      3.902  0.2238E+02  0.2634E+02  0.4595E+03  0.4594E+03
      3.957  0.3162E+02  0.2984E+02  0.4613E+03  0.4610E+03
      4.012  0.3393E+02  0.3092E+02  0.4631E+03  0.4627E+03
      4.067  0.4215E+02  0.4184E+02  0.4654E+03  0.4650E+03
      4.122  0.2065E+02  0.2424E+02  0.4666E+03  0.4663E+03
      4.176  0.2479E+02  0.2273E+02  0.4679E+03  0.4676E+03
      4.231  0.1896E+02  0.1752E+02  0.4690E+03  0.4686E+03
      4.286  0.3487E+02  0.2646E+02  0.4709E+03  0.4700E+03
      4.341  0.1525E+02  0.2731E+02  0.4717E+03  0.4715E+03
      4.395  0.2114E+02  0.2287E+02  0.4729E+03  0.4728E+03
      4.450  0.5390E+01  0.2219E+01  0.4732E+03  0.4729E+03
      4.505  0.1950E+02  0.1123E+02  0.4742E+03  0.4735E+03
      4.560  0.1998E+02  0.1859E+02  0.4753E+03  0.4745E+03
      4.615  0.1056E+02  0.1599E+02  0.4759E+03  0.4754E+03
      4.669  0.1085E+02  0.1091E+02  0.4765E+03  0.4760E+03
      4.724  0.1401E+02  0.9515E+01  0.4773E+03  0.4765E+03
      4.779  0.1430E+02  0.1372E+02  0.4780E+03  0.4773E+03
      4.834  0.2659E+02  0.1404E+02  0.4795E+03  0.4780E+03
      4.889  0.3059E+02  0.3372E+02  0.4812E+03  0.4799E+03
      4.943  0.1596E+02  0.3313E+02  0.4821E+03  0.4817E+03
      4.998  0.2614E+02  0.1582E+02  0.4835E+03  0.4826E+03
      5.053  0.3137E+02  0.2914E+02  0.4852E+03  0.4842E+03
      5.108  0.3457E+02  0.3238E+02  0.4871E+03  0.4859E+03
      5.162  0.3505E+02  0.2803E+02  0.4890E+03  0.4875E+03
      5.217  0.4076E+02  0.3527E+02  0.4913E+03  0.4894E+03
      5.272  0.3694E+02  0.5120E+02  0.4933E+03  0.4922E+03
      5.327  0.2239E+02  0.3128E+02  0.4945E+03  0.4939E+03
      5.382  0.4734E+02  0.4018E+02  0.4971E+03  0.4961E+03
      5.436  0.2959E+02  0.4088E+02  0.4987E+03  0.4984E+03
      5.491  0.4320E+02  0.3448E+02  0.5011E+03  0.5002E+03
      5.546  0.3235E+02  0.3423E+02  0.5029E+03  0.5021E+03
      5.601  0.3970E+02  0.4126E+02  0.5050E+03  0.5044E+03
      5.656  0.4889E+02  0.5174E+02  0.5077E+03  0.5072E+03
      5.710  0.3481E+02  0.3496E+02  0.5096E+03  0.5091E+03
      5.765  0.4832E+02  0.4119E+02  0.5123E+03  0.5114E+03
      5.820  0.6190E+02  0.6134E+02  0.5157E+03  0.5147E+03
      5.875  0.4372E+02  0.5522E+02  0.5181E+03  0.5178E+03
      5.929  0.4851E+02  0.3780E+02  0.5207E+03  0.5198E+03
      5.984  0.6128E+02  0.6296E+02  0.5241E+03  0.5233E+03
      6.039  0.6760E+02  0.6907E+02  0.5278E+03  0.5271E+03
      6.094  0.3548E+02  0.3948E+02  0.5297E+03  0.5292E+03
      6.149  0.4486E+02  0.4155E+02  0.5322E+03  0.5315E+03
      6.203  0.4357E+02  0.4733E+02  0.5346E+03  0.5341E+03
      6.258  0.5669E+02  0.5657E+02  0.5377E+03  0.5372E+03
      6.313  0.6057E+02  0.5606E+02  0.5410E+03  0.5403E+03
      6.368  0.3726E+02  0.4214E+02  0.5430E+03  0.5426E+03
      6.423  0.4773E+02  0.4711E+02  0.5456E+03  0.5452E+03
      6.477  0.6448E+02  0.6122E+02  0.5492E+03  0.5485E+03
      6.532  0.4997E+02  0.5413E+02  0.5519E+03  0.5515E+03
      6.587  0.6859E+02  0.6488E+02  0.5557E+03  0.5550E+03
      6.642  0.6244E+02  0.6387E+02  0.5591E+03  0.5585E+03
      6.697  0.5083E+02  0.5797E+02  0.5619E+03  0.5617E+03
      6.751  0.4008E+02  0.3845E+02  0.5641E+03  0.5638E+03
      6.806  0.4250E+02  0.4090E+02  0.5664E+03  0.5661E+03
      6.861  0.4266E+02  0.4336E+02  0.5687E+03  0.5684E+03
      6.916  0.4525E+02  0.4563E+02  0.5712E+03  0.5709E+03
      6.970  0.3789E+02  0.3860E+02  0.5733E+03  0.5731E+03
      7.025  0.1748E+02  0.2004E+02  0.5743E+03  0.5742E+03
      7.080  0.1203E+02  0.1023E+02  0.5749E+03  0.5747E+03
      7.135  0.1724E+02  0.1964E+02  0.5759E+03  0.5758E+03
      7.190  0.2667E+01  0.3851E+01  0.5760E+03  0.5760E+03
      7.244  0.0000E+00  0.0000E+00  0.5760E+03  0.5760E+03
      7.299  0.0000E+00  0.0000E+00  0.5760E+03  0.5760E+03
      7.354  0.0000E+00  0.0000E+00  0.5760E+03  0.5760E+03
      7.409  0.0000E+00  0.0000E+00  0.5760E+03  0.5760E+03
      7.464  0.0000E+00  0.0000E+00  0.5760E+03  0.5760E+03
      7.518  0.0000E+00  0.0000E+00  0.5760E+03  0.5760E+03
      7.573  0.0000E+00  0.0000E+00  0.5760E+03  0.5760E+03
      7.628  0.0000E+00  0.0000E+00  0.5760E+03  0.5760E+03
      7.683  0.0000E+00  0.0000E+00  0.5760E+03  0.5760E+03
      7.737  0.0000E+00  0.0000E+00  0.5760E+03  0.5760E+03
      7.792  0.0000E+00  0.0000E+00  0.5760E+03  0.5760E+03
      7.847  0.0000E+00  0.0000E+00  0.5760E+03  0.5760E+03
      7.902  0.0000E+00  0.0000E+00  0.5760E+03  0.5760E+03
