 216 216   0   0
  0.2071827E+02  0.1297840E-08  0.1946760E-08  0.1771224E-08  0.5000000E-15
  1.000000000000000E-004
  CAR 
 Si and Ge interface calculation         
      9.47648404     -9.51555191  301      6.80209166      1.00000000
     -9.516  0.0000E+00  0.0000E+00  0.0000E+00  0.0000E+00
     -9.452  0.0000E+00  0.0000E+00  0.0000E+00  0.0000E+00
     -9.389  0.0000E+00  0.0000E+00  0.0000E+00  0.0000E+00
     -9.326  0.0000E+00  0.0000E+00  0.0000E+00  0.0000E+00
     -9.262  0.0000E+00  0.0000E+00  0.0000E+00  0.0000E+00
     -9.199  0.0000E+00  0.0000E+00  0.0000E+00  0.0000E+00
     -9.136  0.0000E+00  0.0000E+00  0.0000E+00  0.0000E+00
     -9.072  0.0000E+00  0.0000E+00  0.0000E+00  0.0000E+00
     -9.009  0.0000E+00  0.0000E+00  0.0000E+00  0.0000E+00
     -8.946  0.0000E+00  0.0000E+00  0.0000E+00  0.0000E+00
     -8.882  0.0000E+00  0.0000E+00  0.0000E+00  0.0000E+00
     -8.819  0.0000E+00  0.0000E+00  0.0000E+00  0.0000E+00
     -8.756  0.0000E+00  0.0000E+00  0.0000E+00  0.0000E+00
     -8.693  0.8651E-07  0.1908E-08  0.5477E-08  0.1208E-09
     -8.629  0.1579E+02  0.1573E+02  0.9994E+00  0.9956E+00
     -8.566  0.3016E+02  0.2749E+02  0.2910E+01  0.2740E+01
     -8.503  0.1578E+01  0.4141E+01  0.3009E+01  0.3002E+01
     -8.439  0.1565E+02  0.1576E+02  0.4000E+01  0.4000E+01
     -8.376  0.0000E+00  0.0000E+00  0.4000E+01  0.4000E+01
     -8.313  0.0000E+00  0.0000E+00  0.4000E+01  0.4000E+01
     -8.249  0.2269E+00  0.2096E-01  0.4014E+01  0.4001E+01
     -8.186  0.4217E+02  0.3274E+02  0.6684E+01  0.6074E+01
     -8.123  0.2078E+02  0.3042E+02  0.8000E+01  0.8000E+01
     -8.059  0.2968E+01  0.1261E+01  0.8188E+01  0.8080E+01
     -7.996  0.1283E+02  0.1454E+02  0.9000E+01  0.9000E+01
     -7.933  0.3159E+02  0.3159E+02  0.1100E+02  0.1100E+02
     -7.870  0.1564E+02  0.1464E+02  0.1199E+02  0.1193E+02
     -7.806  0.4578E+02  0.4184E+02  0.1489E+02  0.1458E+02
     -7.743  0.1748E+01  0.6707E+01  0.1500E+02  0.1500E+02
     -7.680  0.1579E+02  0.1574E+02  0.1600E+02  0.1600E+02
     -7.616  0.0000E+00  0.0000E+00  0.1600E+02  0.1600E+02
     -7.553  0.0000E+00  0.0000E+00  0.1600E+02  0.1600E+02
     -7.490  0.4455E-09  0.7694E-13  0.1600E+02  0.1600E+02
     -7.426  0.1567E+02  0.1401E+02  0.1699E+02  0.1689E+02
     -7.363  0.2591E+02  0.1636E+02  0.1864E+02  0.1792E+02
     -7.300  0.2147E+02  0.3281E+02  0.2000E+02  0.2000E+02
     -7.237  0.0000E+00  0.0000E+00  0.2000E+02  0.2000E+02
     -7.173  0.0000E+00  0.0000E+00  0.2000E+02  0.2000E+02
     -7.110  0.0000E+00  0.0000E+00  0.2000E+02  0.2000E+02
     -7.047  0.1089E-04  0.1035E-05  0.2000E+02  0.2000E+02
     -6.983  0.1580E+02  0.1579E+02  0.2100E+02  0.2100E+02
     -6.920  0.3552E+02  0.3378E+02  0.2325E+02  0.2314E+02
     -6.857  0.1187E+02  0.1361E+02  0.2400E+02  0.2400E+02
     -6.793  0.0000E+00  0.0000E+00  0.2400E+02  0.2400E+02
     -6.730  0.2604E-05  0.3553E-06  0.2400E+02  0.2400E+02
     -6.667  0.1579E+02  0.1579E+02  0.2500E+02  0.2500E+02
     -6.603  0.2975E+02  0.2806E+02  0.2688E+02  0.2678E+02
     -6.540  0.1848E+01  0.3537E+01  0.2700E+02  0.2700E+02
     -6.477  0.1579E+02  0.1579E+02  0.2800E+02  0.2800E+02
     -6.414  0.5755E+00  0.7765E-01  0.2804E+02  0.2800E+02
     -6.350  0.1522E+02  0.1572E+02  0.2900E+02  0.2900E+02
     -6.287  0.4084E+01  0.2250E+01  0.2926E+02  0.2914E+02
     -6.224  0.2772E+02  0.2933E+02  0.3101E+02  0.3100E+02
     -6.160  0.3572E+02  0.3282E+02  0.3327E+02  0.3308E+02
     -6.097  0.4693E+02  0.4770E+02  0.3625E+02  0.3610E+02
     -6.034  0.2771E+02  0.3003E+02  0.3800E+02  0.3800E+02
     -5.970  0.0000E+00  0.0000E+00  0.3800E+02  0.3800E+02
     -5.907  0.7981E-01  0.2023E-01  0.3801E+02  0.3800E+02
     -5.844  0.1577E+02  0.1578E+02  0.3900E+02  0.3900E+02
     -5.780  0.1575E+02  0.1579E+02  0.4000E+02  0.4000E+02
     -5.717  0.0000E+00  0.0000E+00  0.4000E+02  0.4000E+02
     -5.654  0.1693E-10  0.1208E-12  0.4000E+02  0.4000E+02
     -5.591  0.1742E+02  0.1262E+02  0.4110E+02  0.4080E+02
     -5.527  0.5464E+02  0.5619E+02  0.4456E+02  0.4436E+02
     -5.464  0.4911E+02  0.5099E+02  0.4767E+02  0.4758E+02
     -5.401  0.5167E+01  0.6491E+01  0.4800E+02  0.4800E+02
     -5.337  0.1826E+02  0.1664E+02  0.4916E+02  0.4905E+02
     -5.274  0.4502E+02  0.4653E+02  0.5201E+02  0.5200E+02
     -5.211  0.1565E+02  0.1577E+02  0.5300E+02  0.5300E+02
     -5.147  0.4652E+02  0.4538E+02  0.5595E+02  0.5587E+02
     -5.084  0.2331E+01  0.2344E+01  0.5610E+02  0.5603E+02
     -5.021  0.6706E+01  0.7597E+01  0.5652E+02  0.5651E+02
     -4.957  0.4848E+02  0.4783E+02  0.5959E+02  0.5953E+02
     -4.894  0.3760E+02  0.3629E+02  0.6197E+02  0.6183E+02
     -4.831  0.3132E+02  0.3251E+02  0.6396E+02  0.6389E+02
     -4.768  0.1539E+02  0.1485E+02  0.6493E+02  0.6483E+02
     -4.704  0.3333E+02  0.3168E+02  0.6704E+02  0.6684E+02
     -4.641  0.5145E+02  0.4584E+02  0.7030E+02  0.6974E+02
     -4.578  0.2390E+02  0.3132E+02  0.7181E+02  0.7172E+02
     -4.514  0.5506E+01  0.5233E+01  0.7216E+02  0.7206E+02
     -4.451  0.4495E+02  0.4653E+02  0.7501E+02  0.7500E+02
     -4.388  0.6277E+02  0.6233E+02  0.7898E+02  0.7895E+02
     -4.324  0.4735E+02  0.4729E+02  0.8198E+02  0.8195E+02
     -4.261  0.2006E+02  0.1965E+02  0.8326E+02  0.8319E+02
     -4.198  0.2814E+02  0.2555E+02  0.8504E+02  0.8481E+02
     -4.134  0.2945E+02  0.3212E+02  0.8690E+02  0.8684E+02
     -4.071  0.4648E+02  0.4550E+02  0.8985E+02  0.8973E+02
     -4.008  0.3983E+02  0.4047E+02  0.9237E+02  0.9229E+02
     -3.945  0.5324E+02  0.5311E+02  0.9574E+02  0.9565E+02
     -3.881  0.5544E+02  0.5055E+02  0.9925E+02  0.9886E+02
     -3.818  0.4717E+02  0.5068E+02  0.1022E+03  0.1021E+03
     -3.755  0.4079E+02  0.4041E+02  0.1048E+03  0.1046E+03
     -3.691  0.5248E+02  0.5451E+02  0.1081E+03  0.1081E+03
     -3.628  0.3864E+02  0.3351E+02  0.1106E+03  0.1102E+03
     -3.565  0.5044E+02  0.5207E+02  0.1138E+03  0.1135E+03
     -3.501  0.5216E+02  0.5482E+02  0.1171E+03  0.1170E+03
     -3.438  0.6192E+02  0.6034E+02  0.1210E+03  0.1208E+03
     -3.375  0.5200E+02  0.5061E+02  0.1243E+03  0.1240E+03
     -3.311  0.4860E+02  0.5105E+02  0.1274E+03  0.1272E+03
     -3.248  0.3967E+02  0.3906E+02  0.1299E+03  0.1297E+03
     -3.185  0.4904E+02  0.4886E+02  0.1330E+03  0.1328E+03
     -3.122  0.5735E+02  0.5784E+02  0.1366E+03  0.1365E+03
     -3.058  0.7445E+02  0.7406E+02  0.1413E+03  0.1411E+03
     -2.995  0.4719E+02  0.4739E+02  0.1443E+03  0.1441E+03
     -2.932  0.4293E+02  0.4266E+02  0.1471E+03  0.1469E+03
     -2.868  0.5366E+02  0.5389E+02  0.1504E+03  0.1503E+03
     -2.805  0.5398E+02  0.5500E+02  0.1539E+03  0.1537E+03
     -2.742  0.6224E+02  0.5896E+02  0.1578E+03  0.1575E+03
     -2.678  0.5783E+02  0.6013E+02  0.1615E+03  0.1613E+03
     -2.615  0.6851E+02  0.6654E+02  0.1658E+03  0.1655E+03
     -2.552  0.5466E+02  0.5712E+02  0.1693E+03  0.1691E+03
     -2.488  0.7225E+02  0.7065E+02  0.1738E+03  0.1736E+03
     -2.425  0.5891E+02  0.6075E+02  0.1776E+03  0.1774E+03
     -2.362  0.6130E+02  0.5603E+02  0.1815E+03  0.1810E+03
     -2.299  0.5721E+02  0.6200E+02  0.1851E+03  0.1849E+03
     -2.235  0.7889E+02  0.7678E+02  0.1901E+03  0.1898E+03
     -2.172  0.5353E+02  0.5595E+02  0.1935E+03  0.1933E+03
     -2.109  0.6474E+02  0.6418E+02  0.1976E+03  0.1974E+03
     -2.045  0.5430E+02  0.5402E+02  0.2010E+03  0.2008E+03
     -1.982  0.4981E+02  0.5102E+02  0.2042E+03  0.2040E+03
     -1.919  0.4635E+02  0.4412E+02  0.2071E+03  0.2068E+03
     -1.855  0.6601E+02  0.6672E+02  0.2113E+03  0.2111E+03
     -1.792  0.6257E+02  0.6459E+02  0.2152E+03  0.2152E+03
     -1.729  0.2488E+02  0.2366E+02  0.2168E+03  0.2167E+03
     -1.666  0.6891E+02  0.6798E+02  0.2212E+03  0.2210E+03
     -1.602  0.3702E+02  0.3504E+02  0.2235E+03  0.2232E+03
     -1.539  0.6442E+02  0.6860E+02  0.2276E+03  0.2275E+03
     -1.476  0.5764E+02  0.5277E+02  0.2312E+03  0.2309E+03
     -1.412  0.6568E+02  0.6826E+02  0.2354E+03  0.2352E+03
     -1.349  0.4575E+02  0.4588E+02  0.2383E+03  0.2381E+03
     -1.286  0.5777E+02  0.5813E+02  0.2420E+03  0.2418E+03
     -1.222  0.7027E+02  0.6763E+02  0.2464E+03  0.2460E+03
     -1.159  0.4666E+02  0.4846E+02  0.2494E+03  0.2491E+03
     -1.096  0.6739E+02  0.6598E+02  0.2536E+03  0.2533E+03
     -1.032  0.8044E+02  0.7603E+02  0.2587E+03  0.2581E+03
     -0.969  0.6241E+02  0.6990E+02  0.2627E+03  0.2625E+03
     -0.906  0.5028E+02  0.5131E+02  0.2659E+03  0.2658E+03
     -0.843  0.7687E+02  0.7370E+02  0.2707E+03  0.2705E+03
     -0.779  0.4856E+02  0.5032E+02  0.2738E+03  0.2736E+03
     -0.716  0.6457E+02  0.6284E+02  0.2779E+03  0.2776E+03
     -0.653  0.4810E+02  0.4586E+02  0.2809E+03  0.2805E+03
     -0.589  0.7471E+02  0.7771E+02  0.2857E+03  0.2854E+03
     -0.526  0.6015E+02  0.5596E+02  0.2895E+03  0.2890E+03
     -0.463  0.6969E+02  0.7266E+02  0.2939E+03  0.2936E+03
     -0.399  0.5288E+02  0.5641E+02  0.2972E+03  0.2972E+03
     -0.336  0.5343E+02  0.5228E+02  0.3006E+03  0.3005E+03
     -0.273  0.5624E+02  0.5515E+02  0.3042E+03  0.3040E+03
     -0.209  0.6645E+02  0.6703E+02  0.3084E+03  0.3082E+03
     -0.146  0.6485E+02  0.6380E+02  0.3125E+03  0.3123E+03
     -0.083  0.3785E+02  0.3693E+02  0.3149E+03  0.3146E+03
     -0.020  0.5938E+02  0.6143E+02  0.3187E+03  0.3185E+03
      0.044  0.6420E+02  0.6210E+02  0.3227E+03  0.3224E+03
      0.107  0.5261E+02  0.5411E+02  0.3261E+03  0.3259E+03
      0.170  0.6165E+02  0.6374E+02  0.3300E+03  0.3299E+03
      0.234  0.7038E+02  0.6689E+02  0.3344E+03  0.3341E+03
      0.297  0.6930E+02  0.7118E+02  0.3388E+03  0.3386E+03
      0.360  0.8474E+02  0.8182E+02  0.3442E+03  0.3438E+03
      0.424  0.5231E+02  0.5483E+02  0.3475E+03  0.3473E+03
      0.487  0.6418E+02  0.6318E+02  0.3516E+03  0.3513E+03
      0.550  0.5207E+02  0.4680E+02  0.3549E+03  0.3543E+03
      0.614  0.7165E+02  0.7687E+02  0.3594E+03  0.3591E+03
      0.677  0.5698E+02  0.5687E+02  0.3630E+03  0.3627E+03
      0.740  0.7714E+02  0.7931E+02  0.3679E+03  0.3678E+03
      0.803  0.5812E+02  0.5673E+02  0.3716E+03  0.3713E+03
      0.867  0.5936E+02  0.5824E+02  0.3753E+03  0.3750E+03
      0.930  0.4503E+02  0.4756E+02  0.3782E+03  0.3780E+03
      0.993  0.6585E+02  0.6341E+02  0.3823E+03  0.3821E+03
      1.057  0.7104E+02  0.7228E+02  0.3868E+03  0.3866E+03
      1.120  0.6088E+02  0.6009E+02  0.3907E+03  0.3904E+03
      1.183  0.4657E+02  0.4634E+02  0.3936E+03  0.3934E+03
      1.247  0.5056E+02  0.5158E+02  0.3969E+03  0.3967E+03
      1.310  0.5575E+02  0.5367E+02  0.4004E+03  0.4000E+03
      1.373  0.7089E+02  0.7101E+02  0.4049E+03  0.4045E+03
      1.437  0.5366E+02  0.5291E+02  0.4083E+03  0.4079E+03
      1.500  0.7992E+02  0.7986E+02  0.4133E+03  0.4130E+03
      1.563  0.7561E+02  0.7702E+02  0.4181E+03  0.4178E+03
      1.626  0.6078E+02  0.5922E+02  0.4220E+03  0.4216E+03
      1.690  0.6227E+02  0.6302E+02  0.4259E+03  0.4256E+03
      1.753  0.7863E+02  0.8142E+02  0.4309E+03  0.4307E+03
      1.816  0.8329E+02  0.7620E+02  0.4362E+03  0.4356E+03
      1.880  0.7674E+02  0.8107E+02  0.4410E+03  0.4407E+03
      1.943  0.6912E+02  0.6719E+02  0.4454E+03  0.4449E+03
      2.006  0.8505E+02  0.8745E+02  0.4508E+03  0.4505E+03
      2.070  0.8230E+02  0.8099E+02  0.4560E+03  0.4556E+03
      2.133  0.9227E+02  0.9675E+02  0.4618E+03  0.4617E+03
      2.196  0.7124E+02  0.6685E+02  0.4664E+03  0.4660E+03
      2.260  0.8085E+02  0.7960E+02  0.4715E+03  0.4710E+03
      2.323  0.7669E+02  0.8101E+02  0.4763E+03  0.4761E+03
      2.386  0.9648E+02  0.9513E+02  0.4824E+03  0.4822E+03
      2.449  0.8258E+02  0.8029E+02  0.4877E+03  0.4872E+03
      2.513  0.7876E+02  0.8189E+02  0.4927E+03  0.4924E+03
      2.576  0.6573E+02  0.6836E+02  0.4968E+03  0.4968E+03
      2.639  0.9009E+02  0.8523E+02  0.5025E+03  0.5022E+03
      2.703  0.1030E+03  0.1025E+03  0.5091E+03  0.5087E+03
      2.766  0.9734E+02  0.9802E+02  0.5152E+03  0.5149E+03
      2.829  0.6899E+02  0.6780E+02  0.5196E+03  0.5191E+03
      2.893  0.9559E+02  0.9877E+02  0.5256E+03  0.5254E+03
      2.956  0.8955E+02  0.9006E+02  0.5313E+03  0.5311E+03
      3.019  0.9453E+02  0.9153E+02  0.5373E+03  0.5369E+03
      3.082  0.9078E+02  0.8890E+02  0.5430E+03  0.5425E+03
      3.146  0.8948E+02  0.9135E+02  0.5487E+03  0.5483E+03
      3.209  0.1068E+03  0.1080E+03  0.5555E+03  0.5552E+03
      3.272  0.1132E+03  0.1147E+03  0.5626E+03  0.5624E+03
      3.336  0.8457E+02  0.8057E+02  0.5680E+03  0.5675E+03
      3.399  0.1235E+03  0.1247E+03  0.5758E+03  0.5754E+03
      3.462  0.1061E+03  0.1055E+03  0.5825E+03  0.5821E+03
      3.526  0.9841E+02  0.9872E+02  0.5888E+03  0.5884E+03
      3.589  0.9873E+02  0.9871E+02  0.5950E+03  0.5946E+03
      3.652  0.1131E+03  0.1147E+03  0.6022E+03  0.6019E+03
      3.716  0.1025E+03  0.9992E+02  0.6087E+03  0.6082E+03
      3.779  0.1014E+03  0.1022E+03  0.6151E+03  0.6147E+03
      3.842  0.1208E+03  0.1182E+03  0.6227E+03  0.6221E+03
      3.905  0.9738E+02  0.1009E+03  0.6289E+03  0.6285E+03
      3.969  0.1080E+03  0.1076E+03  0.6357E+03  0.6354E+03
      4.032  0.1058E+03  0.1056E+03  0.6424E+03  0.6420E+03
      4.095  0.1103E+03  0.1111E+03  0.6494E+03  0.6491E+03
      4.159  0.1100E+03  0.1057E+03  0.6564E+03  0.6558E+03
      4.222  0.1074E+03  0.1116E+03  0.6632E+03  0.6628E+03
      4.285  0.1159E+03  0.1156E+03  0.6705E+03  0.6702E+03
      4.349  0.1045E+03  0.1038E+03  0.6772E+03  0.6767E+03
      4.412  0.9099E+02  0.9401E+02  0.6829E+03  0.6827E+03
      4.475  0.1353E+03  0.1337E+03  0.6915E+03  0.6911E+03
      4.539  0.8781E+02  0.8688E+02  0.6970E+03  0.6966E+03
      4.602  0.1090E+03  0.1069E+03  0.7039E+03  0.7034E+03
      4.665  0.9939E+02  0.1013E+03  0.7102E+03  0.7098E+03
      4.728  0.9831E+02  0.9817E+02  0.7165E+03  0.7161E+03
      4.792  0.1028E+03  0.1050E+03  0.7230E+03  0.7227E+03
      4.855  0.7904E+02  0.7773E+02  0.7280E+03  0.7276E+03
      4.918  0.9239E+02  0.9009E+02  0.7338E+03  0.7333E+03
      4.982  0.7124E+02  0.7106E+02  0.7383E+03  0.7378E+03
      5.045  0.1093E+03  0.1099E+03  0.7453E+03  0.7448E+03
      5.108  0.7285E+02  0.7588E+02  0.7499E+03  0.7496E+03
      5.172  0.9380E+02  0.9074E+02  0.7558E+03  0.7553E+03
      5.235  0.8304E+02  0.8633E+02  0.7611E+03  0.7608E+03
      5.298  0.5568E+02  0.5484E+02  0.7646E+03  0.7643E+03
      5.362  0.6419E+02  0.6337E+02  0.7687E+03  0.7683E+03
      5.425  0.7375E+02  0.7498E+02  0.7733E+03  0.7731E+03
      5.488  0.4523E+02  0.4673E+02  0.7762E+03  0.7760E+03
      5.551  0.4823E+02  0.4807E+02  0.7793E+03  0.7791E+03
      5.615  0.7268E+02  0.7141E+02  0.7839E+03  0.7836E+03
      5.678  0.6811E+02  0.6813E+02  0.7882E+03  0.7879E+03
      5.741  0.5452E+02  0.5243E+02  0.7916E+03  0.7912E+03
      5.805  0.8234E+02  0.7980E+02  0.7968E+03  0.7963E+03
      5.868  0.5891E+02  0.6163E+02  0.8006E+03  0.8002E+03
      5.931  0.8890E+02  0.8506E+02  0.8062E+03  0.8056E+03
      5.995  0.6129E+02  0.6631E+02  0.8101E+03  0.8097E+03
      6.058  0.5720E+02  0.5694E+02  0.8137E+03  0.8134E+03
      6.121  0.4824E+02  0.5020E+02  0.8168E+03  0.8165E+03
      6.185  0.7262E+02  0.7002E+02  0.8214E+03  0.8210E+03
      6.248  0.5699E+02  0.5607E+02  0.8250E+03  0.8245E+03
      6.311  0.7101E+02  0.7247E+02  0.8295E+03  0.8291E+03
      6.374  0.5858E+02  0.5193E+02  0.8332E+03  0.8324E+03
      6.438  0.5851E+02  0.6641E+02  0.8369E+03  0.8366E+03
      6.501  0.8109E+02  0.7458E+02  0.8420E+03  0.8413E+03
      6.564  0.6188E+02  0.6441E+02  0.8459E+03  0.8454E+03
      6.628  0.7347E+02  0.7489E+02  0.8506E+03  0.8501E+03
      6.691  0.8946E+02  0.7696E+02  0.8563E+03  0.8550E+03
      6.754  0.5112E+02  0.5700E+02  0.8595E+03  0.8586E+03
      6.818  0.9740E+02  0.9615E+02  0.8657E+03  0.8647E+03
      6.881  0.7709E+02  0.8320E+02  0.8705E+03  0.8700E+03
      6.944  0.7834E+02  0.7500E+02  0.8755E+03  0.8747E+03
      7.008  0.9775E+02  0.9336E+02  0.8817E+03  0.8806E+03
      7.071  0.9419E+02  0.9577E+02  0.8877E+03  0.8867E+03
      7.134  0.9799E+02  0.9329E+02  0.8939E+03  0.8926E+03
      7.197  0.8560E+02  0.9160E+02  0.8993E+03  0.8984E+03
      7.261  0.8741E+02  0.9362E+02  0.9048E+03  0.9043E+03
      7.324  0.8782E+02  0.8592E+02  0.9104E+03  0.9098E+03
      7.387  0.9235E+02  0.9164E+02  0.9162E+03  0.9156E+03
      7.451  0.9148E+02  0.9015E+02  0.9220E+03  0.9213E+03
      7.514  0.1110E+03  0.1115E+03  0.9291E+03  0.9284E+03
      7.577  0.9341E+02  0.9765E+02  0.9350E+03  0.9345E+03
      7.641  0.9281E+02  0.8764E+02  0.9408E+03  0.9401E+03
      7.704  0.8909E+02  0.9489E+02  0.9465E+03  0.9461E+03
      7.767  0.7990E+02  0.7380E+02  0.9516E+03  0.9508E+03
      7.831  0.1166E+03  0.1186E+03  0.9589E+03  0.9583E+03
      7.894  0.1010E+03  0.1001E+03  0.9653E+03  0.9646E+03
      7.957  0.1039E+03  0.1039E+03  0.9719E+03  0.9712E+03
      8.020  0.9224E+02  0.9496E+02  0.9778E+03  0.9772E+03
      8.084  0.9629E+02  0.1006E+03  0.9839E+03  0.9836E+03
      8.147  0.1065E+03  0.9683E+02  0.9906E+03  0.9897E+03
      8.210  0.1051E+03  0.1097E+03  0.9972E+03  0.9967E+03
      8.274  0.1064E+03  0.1064E+03  0.1004E+04  0.1003E+04
      8.337  0.1020E+03  0.1003E+03  0.1010E+04  0.1010E+04
      8.400  0.1288E+03  0.1352E+03  0.1019E+04  0.1018E+04
      8.464  0.1163E+03  0.1067E+03  0.1026E+04  0.1025E+04
      8.527  0.1155E+03  0.1201E+03  0.1033E+04  0.1033E+04
      8.590  0.9408E+02  0.9682E+02  0.1039E+04  0.1039E+04
      8.653  0.1205E+02  0.1857E+02  0.1040E+04  0.1040E+04
      8.717  0.0000E+00  0.0000E+00  0.1040E+04  0.1040E+04
      8.780  0.0000E+00  0.0000E+00  0.1040E+04  0.1040E+04
      8.843  0.0000E+00  0.0000E+00  0.1040E+04  0.1040E+04
      8.907  0.0000E+00  0.0000E+00  0.1040E+04  0.1040E+04
      8.970  0.0000E+00  0.0000E+00  0.1040E+04  0.1040E+04
      9.033  0.0000E+00  0.0000E+00  0.1040E+04  0.1040E+04
      9.097  0.0000E+00  0.0000E+00  0.1040E+04  0.1040E+04
      9.160  0.0000E+00  0.0000E+00  0.1040E+04  0.1040E+04
      9.223  0.0000E+00  0.0000E+00  0.1040E+04  0.1040E+04
      9.287  0.0000E+00  0.0000E+00  0.1040E+04  0.1040E+04
      9.350  0.0000E+00  0.0000E+00  0.1040E+04  0.1040E+04
      9.413  0.0000E+00  0.0000E+00  0.1040E+04  0.1040E+04
      9.476  0.0000E+00  0.0000E+00  0.1040E+04  0.1040E+04
