   8   8   0   0
  0.2266519E+02  0.5660000E-09  0.5660000E-09  0.5660000E-09  0.5000000E-15
   1.0000000000000000E-004
  CAR 
 Si and Ge interface calculation         
      7.59893617     -9.89902475  301      2.84252726      1.00000000
     -9.899  0.0000E+00  0.0000E+00  0.0000E+00  0.0000E+00
     -9.841  0.0000E+00  0.0000E+00  0.0000E+00  0.0000E+00
     -9.782  0.0000E+00  0.0000E+00  0.0000E+00  0.0000E+00
     -9.724  0.0000E+00  0.0000E+00  0.0000E+00  0.0000E+00
     -9.666  0.0000E+00  0.0000E+00  0.0000E+00  0.0000E+00
     -9.607  0.0000E+00  0.0000E+00  0.0000E+00  0.0000E+00
     -9.549  0.0000E+00  0.0000E+00  0.0000E+00  0.0000E+00
     -9.491  0.0000E+00  0.0000E+00  0.0000E+00  0.0000E+00
     -9.432  0.0000E+00  0.0000E+00  0.0000E+00  0.0000E+00
     -9.374  0.0000E+00  0.0000E+00  0.0000E+00  0.0000E+00
     -9.316  0.0000E+00  0.0000E+00  0.0000E+00  0.0000E+00
     -9.257  0.0000E+00  0.0000E+00  0.0000E+00  0.0000E+00
     -9.199  0.0000E+00  0.0000E+00  0.0000E+00  0.0000E+00
     -9.141  0.1213E-07  0.0000E+00  0.7075E-09  0.0000E+00
     -9.082  0.1585E+00  0.0000E+00  0.9247E-02  0.0000E+00
     -9.024  0.2158E-03  0.3512E-07  0.9259E-02  0.2048E-08
     -8.966  0.9523E+00  0.1586E+00  0.6480E-01  0.9253E-02
     -8.907  0.5330E-04  0.3132E-05  0.6482E-01  0.9259E-02
     -8.849  0.1905E+01  0.9524E+00  0.1759E+00  0.6481E-01
     -8.791  0.1080E-02  0.1391E-03  0.1760E+00  0.6482E-01
     -8.732  0.1269E+01  0.1905E+01  0.2500E+00  0.1759E+00
     -8.674  0.1632E-02  0.2453E-02  0.2501E+00  0.1761E+00
     -8.616  0.9509E+00  0.1268E+01  0.3056E+00  0.2500E+00
     -8.558  0.1726E+00  0.3675E-02  0.3156E+00  0.2502E+00
     -8.499  0.3637E+01  0.9488E+00  0.5278E+00  0.3056E+00
     -8.441  0.1690E+01  0.3016E+00  0.6264E+00  0.3231E+00
     -8.383  0.2120E+01  0.3508E+01  0.7500E+00  0.5278E+00
     -8.324  0.0000E+00  0.2147E+01  0.7500E+00  0.6530E+00
     -8.266  0.5327E-08  0.1663E+01  0.7500E+00  0.7500E+00
     -8.208  0.1890E+01  0.0000E+00  0.8602E+00  0.7500E+00
     -8.149  0.1748E-01  0.3830E-07  0.8613E+00  0.7500E+00
     -8.091  0.4562E+01  0.1899E+01  0.1127E+01  0.8608E+00
     -8.033  0.1973E+00  0.1446E-01  0.1139E+01  0.8616E+00
     -7.974  0.3806E+01  0.4636E+01  0.1361E+01  0.1132E+01
     -7.916  0.4855E-01  0.1174E+00  0.1364E+01  0.1139E+01
     -7.858  0.3770E+01  0.3809E+01  0.1584E+01  0.1361E+01
     -7.799  0.1261E+01  0.1244E+00  0.1657E+01  0.1368E+01
     -7.741  0.1621E-07  0.3713E+01  0.1657E+01  0.1585E+01
     -7.683  0.3786E+01  0.1242E+01  0.1878E+01  0.1657E+01
     -7.624  0.1797E+01  0.1937E-06  0.1983E+01  0.1657E+01
     -7.566  0.5847E+01  0.3803E+01  0.2324E+01  0.1879E+01
     -7.508  0.0000E+00  0.3024E+01  0.2324E+01  0.2056E+01
     -7.449  0.1903E-14  0.4603E+01  0.2324E+01  0.2324E+01
     -7.391  0.2232E+01  0.0000E+00  0.2454E+01  0.2324E+01
     -7.333  0.1875E+01  0.1489E-12  0.2564E+01  0.2324E+01
     -7.274  0.6557E+00  0.2975E+01  0.2602E+01  0.2498E+01
     -7.216  0.5523E+01  0.1298E+01  0.2924E+01  0.2573E+01
     -7.158  0.7136E+01  0.4898E+00  0.3340E+01  0.2602E+01
     -7.099  0.6813E+00  0.5650E+01  0.3380E+01  0.2931E+01
     -7.041  0.3806E+01  0.7402E+01  0.3602E+01  0.3363E+01
     -6.983  0.3911E+01  0.3455E+00  0.3830E+01  0.3383E+01
     -6.924  0.8139E+01  0.3777E+01  0.4305E+01  0.3604E+01
     -6.866  0.2820E-01  0.4228E+01  0.4307E+01  0.3850E+01
     -6.808  0.3872E+01  0.7807E+01  0.4533E+01  0.4305E+01
     -6.749  0.3729E+01  0.1157E+00  0.4750E+01  0.4312E+01
     -6.691  0.1466E-11  0.4090E+01  0.4750E+01  0.4551E+01
     -6.633  0.6388E+01  0.3414E+01  0.5123E+01  0.4750E+01
     -6.574  0.5041E+01  0.2513E-09  0.5417E+01  0.4750E+01
     -6.516  0.0000E+00  0.7294E+01  0.5417E+01  0.5175E+01
     -6.458  0.0000E+00  0.4135E+01  0.5417E+01  0.5417E+01
     -6.399  0.5638E-06  0.0000E+00  0.5417E+01  0.5417E+01
     -6.341  0.3976E+01  0.0000E+00  0.5649E+01  0.5417E+01
     -6.283  0.4584E+01  0.9839E-05  0.5916E+01  0.5417E+01
     -6.224  0.3822E+01  0.4565E+01  0.6139E+01  0.5683E+01
     -6.166  0.6370E+01  0.4038E+01  0.6510E+01  0.5918E+01
     -6.108  0.1071E+02  0.3778E+01  0.7135E+01  0.6139E+01
     -6.049  0.6065E-01  0.7313E+01  0.7139E+01  0.6565E+01
     -5.991  0.0000E+00  0.9827E+01  0.7139E+01  0.7139E+01
     -5.933  0.2882E-11  0.0000E+00  0.7139E+01  0.7139E+01
     -5.874  0.3353E+01  0.0000E+00  0.7334E+01  0.7139E+01
     -5.816  0.4570E+00  0.8145E-09  0.7361E+01  0.7139E+01
     -5.758  0.0000E+00  0.3724E+01  0.7361E+01  0.7356E+01
     -5.700  0.0000E+00  0.8565E-01  0.7361E+01  0.7361E+01
     -5.641  0.4580E+00  0.0000E+00  0.7388E+01  0.7361E+01
     -5.583  0.3352E+01  0.0000E+00  0.7583E+01  0.7361E+01
     -5.525  0.0000E+00  0.1478E+01  0.7583E+01  0.7447E+01
     -5.466  0.1121E-13  0.2332E+01  0.7583E+01  0.7583E+01
     -5.408  0.1337E+01  0.0000E+00  0.7661E+01  0.7583E+01
     -5.350  0.5679E+00  0.6801E-11  0.7694E+01  0.7583E+01
     -5.291  0.0000E+00  0.1749E+01  0.7694E+01  0.7685E+01
     -5.233  0.1247E+00  0.1556E+00  0.7702E+01  0.7694E+01
     -5.175  0.4641E+01  0.0000E+00  0.7972E+01  0.7694E+01
     -5.116  0.5595E+01  0.3459E+00  0.8299E+01  0.7715E+01
     -5.058  0.1168E+00  0.4465E+01  0.8306E+01  0.7975E+01
     -5.000  0.9342E-07  0.5653E+01  0.8306E+01  0.8305E+01
     -4.941  0.1902E+01  0.1347E-01  0.8416E+01  0.8306E+01
     -4.883  0.3351E-02  0.5031E-05  0.8417E+01  0.8306E+01
     -4.825  0.0000E+00  0.1905E+01  0.8417E+01  0.8417E+01
     -4.766  0.0000E+00  0.0000E+00  0.8417E+01  0.8417E+01
     -4.708  0.2913E-04  0.0000E+00  0.8417E+01  0.8417E+01
     -4.650  0.3810E+01  0.0000E+00  0.8639E+01  0.8417E+01
     -4.591  0.0000E+00  0.8622E-03  0.8639E+01  0.8417E+01
     -4.533  0.0000E+00  0.3809E+01  0.8639E+01  0.8639E+01
     -4.475  0.0000E+00  0.0000E+00  0.8639E+01  0.8639E+01
     -4.416  0.1056E-06  0.0000E+00  0.8639E+01  0.8639E+01
     -4.358  0.3801E+01  0.0000E+00  0.8861E+01  0.8639E+01
     -4.300  0.9270E-02  0.1114E-04  0.8861E+01  0.8639E+01
     -4.241  0.1695E-06  0.3810E+01  0.8861E+01  0.8861E+01
     -4.183  0.3964E+01  0.0000E+00  0.9092E+01  0.8861E+01
     -4.125  0.1199E+02  0.7357E-05  0.9791E+01  0.8861E+01
     -4.066  0.3626E+01  0.4346E+01  0.1000E+02  0.9115E+01
     -4.008  0.5185E+01  0.1255E+02  0.1031E+02  0.9846E+01
     -3.950  0.3862E+01  0.3368E+01  0.1053E+02  0.1004E+02
     -3.891  0.5350E+01  0.4513E+01  0.1084E+02  0.1031E+02
     -3.833  0.1041E-09  0.3984E+01  0.1084E+02  0.1054E+02
     -3.775  0.7192E+01  0.5213E+01  0.1126E+02  0.1084E+02
     -3.716  0.6278E+01  0.2848E-08  0.1163E+02  0.1084E+02
     -3.658  0.1767E+01  0.7481E+01  0.1173E+02  0.1128E+02
     -3.600  0.3810E+01  0.5962E+01  0.1195E+02  0.1163E+02
     -3.541  0.0000E+00  0.1803E+01  0.1195E+02  0.1173E+02
     -3.483  0.0000E+00  0.3802E+01  0.1195E+02  0.1195E+02
     -3.425  0.0000E+00  0.0000E+00  0.1195E+02  0.1195E+02
     -3.366  0.2183E-04  0.0000E+00  0.1195E+02  0.1195E+02
     -3.308  0.7619E+01  0.0000E+00  0.1240E+02  0.1195E+02
     -3.250  0.1626E-10  0.4250E-03  0.1240E+02  0.1195E+02
     -3.191  0.3770E+01  0.7619E+01  0.1262E+02  0.1240E+02
     -3.133  0.3850E+01  0.3070E-09  0.1284E+02  0.1240E+02
     -3.075  0.3809E+01  0.4032E+01  0.1306E+02  0.1263E+02
     -3.016  0.0000E+00  0.3589E+01  0.1306E+02  0.1284E+02
     -2.958  0.0000E+00  0.3810E+01  0.1306E+02  0.1306E+02
     -2.900  0.1126E+00  0.0000E+00  0.1307E+02  0.1306E+02
     -2.842  0.5600E+01  0.0000E+00  0.1340E+02  0.1306E+02
     -2.783  0.2146E-02  0.6502E+00  0.1340E+02  0.1310E+02
     -2.725  0.1341E-05  0.5065E+01  0.1340E+02  0.1340E+02
     -2.667  0.3808E+01  0.0000E+00  0.1362E+02  0.1340E+02
     -2.608  0.0000E+00  0.1955E-03  0.1362E+02  0.1340E+02
     -2.550  0.7867E-02  0.3810E+01  0.1362E+02  0.1362E+02
     -2.492  0.2679E+01  0.0000E+00  0.1378E+02  0.1362E+02
     -2.433  0.6117E+01  0.9549E-01  0.1413E+02  0.1363E+02
     -2.375  0.1038E+01  0.4050E+01  0.1419E+02  0.1386E+02
     -2.317  0.0000E+00  0.4749E+01  0.1419E+02  0.1414E+02
     -2.258  0.0000E+00  0.9484E+00  0.1419E+02  0.1419E+02
     -2.200  0.0000E+00  0.0000E+00  0.1419E+02  0.1419E+02
     -2.142  0.0000E+00  0.0000E+00  0.1419E+02  0.1419E+02
     -2.083  0.6772E+00  0.0000E+00  0.1423E+02  0.1419E+02
     -2.025  0.3133E+01  0.2115E-15  0.1442E+02  0.1419E+02
     -1.967  0.0000E+00  0.1906E+01  0.1442E+02  0.1431E+02
     -1.908  0.0000E+00  0.1904E+01  0.1442E+02  0.1442E+02
     -1.850  0.0000E+00  0.0000E+00  0.1442E+02  0.1442E+02
     -1.792  0.1109E-06  0.0000E+00  0.1442E+02  0.1442E+02
     -1.733  0.3801E+01  0.0000E+00  0.1464E+02  0.1442E+02
     -1.675  0.9021E-02  0.8427E-05  0.1464E+02  0.1442E+02
     -1.617  0.8469E-10  0.3809E+01  0.1464E+02  0.1464E+02
     -1.558  0.3625E+01  0.0000E+00  0.1485E+02  0.1464E+02
     -1.500  0.1845E+00  0.2732E-08  0.1486E+02  0.1464E+02
     -1.442  0.0000E+00  0.3757E+01  0.1486E+02  0.1486E+02
     -1.383  0.2501E+00  0.5337E-01  0.1488E+02  0.1486E+02
     -1.325  0.3560E+01  0.0000E+00  0.1508E+02  0.1486E+02
     -1.267  0.0000E+00  0.1306E+01  0.1508E+02  0.1494E+02
     -1.208  0.0000E+00  0.2504E+01  0.1508E+02  0.1508E+02
     -1.150  0.0000E+00  0.0000E+00  0.1508E+02  0.1508E+02
     -1.092  0.3773E-09  0.0000E+00  0.1508E+02  0.1508E+02
     -1.033  0.2781E+01  0.0000E+00  0.1525E+02  0.1508E+02
     -0.975  0.7664E-01  0.2428E-06  0.1525E+02  0.1508E+02
     -0.917  0.0000E+00  0.2853E+01  0.1525E+02  0.1525E+02
     -0.858  0.0000E+00  0.3957E-02  0.1525E+02  0.1525E+02
     -0.800  0.8336E+00  0.0000E+00  0.1530E+02  0.1525E+02
     -0.742  0.1071E+01  0.0000E+00  0.1536E+02  0.1525E+02
     -0.683  0.7569E-12  0.1054E+00  0.1536E+02  0.1526E+02
     -0.625  0.4854E+01  0.1800E+01  0.1564E+02  0.1536E+02
     -0.567  0.1001E+02  0.3003E-13  0.1623E+02  0.1536E+02
     -0.508  0.4037E+00  0.4077E+01  0.1625E+02  0.1560E+02
     -0.450  0.3786E+01  0.9191E+01  0.1647E+02  0.1613E+02
     -0.392  0.1116E+02  0.1973E+01  0.1712E+02  0.1625E+02
     -0.333  0.2696E+00  0.3810E+01  0.1714E+02  0.1647E+02
     -0.275  0.7674E+00  0.9303E+01  0.1718E+02  0.1701E+02
     -0.217  0.5356E+01  0.2126E+01  0.1750E+02  0.1714E+02
     -0.158  0.1005E+02  0.1622E+00  0.1808E+02  0.1715E+02
     -0.100  0.1008E+01  0.4212E+01  0.1814E+02  0.1739E+02
     -0.042  0.1258E+02  0.9432E+01  0.1888E+02  0.1794E+02
      0.016  0.2615E+01  0.3340E+01  0.1903E+02  0.1814E+02
      0.075  0.0000E+00  0.1166E+02  0.1903E+02  0.1882E+02
      0.133  0.4886E-12  0.3574E+01  0.1903E+02  0.1903E+02
      0.191  0.6094E+01  0.0000E+00  0.1938E+02  0.1903E+02
      0.250  0.1526E+01  0.4230E-15  0.1947E+02  0.1903E+02
      0.308  0.2526E-02  0.3752E+01  0.1947E+02  0.1925E+02
      0.366  0.1017E+02  0.3868E+01  0.2007E+02  0.1947E+02
      0.425  0.7702E+01  0.1652E-03  0.2051E+02  0.1947E+02
      0.483  0.7565E+01  0.9134E+01  0.2096E+02  0.2000E+02
      0.541  0.5743E+01  0.7160E+01  0.2129E+02  0.2042E+02
      0.600  0.6270E+01  0.7697E+01  0.2166E+02  0.2087E+02
      0.658  0.2847E+01  0.6263E+01  0.2182E+02  0.2124E+02
      0.716  0.8130E+01  0.7179E+01  0.2230E+02  0.2166E+02
      0.775  0.4073E+01  0.1914E+01  0.2253E+02  0.2177E+02
      0.833  0.4008E+01  0.8264E+01  0.2277E+02  0.2225E+02
      0.891  0.8510E+01  0.3910E+01  0.2326E+02  0.2248E+02
      0.950  0.1032E+02  0.4992E+01  0.2387E+02  0.2277E+02
      1.008  0.2193E+00  0.7796E+01  0.2388E+02  0.2322E+02
      1.066  0.1913E+01  0.1055E+02  0.2399E+02  0.2384E+02
      1.125  0.5668E+01  0.6999E+00  0.2432E+02  0.2388E+02
      1.183  0.2285E+01  0.1810E+01  0.2446E+02  0.2399E+02
      1.241  0.1100E+02  0.5617E+01  0.2510E+02  0.2431E+02
      1.300  0.8895E-01  0.1559E+01  0.2510E+02  0.2440E+02
      1.358  0.2532E+01  0.1181E+02  0.2525E+02  0.2509E+02
      1.416  0.1358E+02  0.1619E+00  0.2604E+02  0.2510E+02
      1.475  0.8654E+01  0.2066E+01  0.2655E+02  0.2522E+02
      1.533  0.7552E+01  0.1350E+02  0.2699E+02  0.2601E+02
      1.591  0.6805E-01  0.9203E+01  0.2699E+02  0.2655E+02
      1.650  0.1905E+01  0.7457E+01  0.2710E+02  0.2698E+02
      1.708  0.3821E+01  0.1626E+00  0.2732E+02  0.2699E+02
      1.766  0.1103E+02  0.1905E+01  0.2797E+02  0.2710E+02
      1.825  0.1413E+01  0.3785E+01  0.2805E+02  0.2732E+02
      1.883  0.6595E+01  0.1091E+02  0.2844E+02  0.2796E+02
      1.941  0.3809E+01  0.1340E+01  0.2866E+02  0.2804E+02
      2.000  0.0000E+00  0.6823E+01  0.2866E+02  0.2844E+02
      2.058  0.1809E+00  0.3810E+01  0.2867E+02  0.2866E+02
      2.116  0.4582E+01  0.0000E+00  0.2894E+02  0.2866E+02
      2.175  0.1059E+02  0.1707E+00  0.2955E+02  0.2867E+02
      2.233  0.9387E+01  0.4592E+01  0.3010E+02  0.2894E+02
      2.291  0.2246E+01  0.1048E+02  0.3023E+02  0.2955E+02
      2.350  0.3362E-02  0.9455E+01  0.3023E+02  0.3010E+02
      2.408  0.1902E+01  0.2287E+01  0.3034E+02  0.3023E+02
      2.466  0.7368E+01  0.2225E-02  0.3077E+02  0.3023E+02
      2.525  0.2792E+01  0.1903E+01  0.3094E+02  0.3034E+02
      2.583  0.0000E+00  0.7318E+01  0.3094E+02  0.3077E+02
      2.641  0.0000E+00  0.2841E+01  0.3094E+02  0.3094E+02
      2.700  0.8514E-03  0.0000E+00  0.3094E+02  0.3094E+02
      2.758  0.1904E+01  0.0000E+00  0.3105E+02  0.3094E+02
      2.816  0.3832E+01  0.4135E-03  0.3127E+02  0.3094E+02
      2.874  0.3787E+01  0.1905E+01  0.3149E+02  0.3105E+02
      2.933  0.3238E-05  0.3837E+01  0.3149E+02  0.3127E+02
      2.991  0.1905E+01  0.3782E+01  0.3160E+02  0.3149E+02
      3.049  0.0000E+00  0.5136E-05  0.3160E+02  0.3149E+02
      3.108  0.1832E-04  0.1905E+01  0.3160E+02  0.3160E+02
      3.166  0.2540E+01  0.0000E+00  0.3175E+02  0.3160E+02
      3.224  0.1905E+01  0.2521E-04  0.3186E+02  0.3160E+02
      3.283  0.0000E+00  0.2540E+01  0.3186E+02  0.3175E+02
      3.341  0.0000E+00  0.1905E+01  0.3186E+02  0.3186E+02
      3.399  0.0000E+00  0.0000E+00  0.3186E+02  0.3186E+02
      3.458  0.2803E-07  0.0000E+00  0.3186E+02  0.3186E+02
      3.516  0.1898E+01  0.0000E+00  0.3197E+02  0.3186E+02
      3.574  0.6529E-02  0.7586E-07  0.3197E+02  0.3186E+02
      3.633  0.1504E-04  0.1901E+01  0.3197E+02  0.3197E+02
      3.691  0.4762E+00  0.3780E-02  0.3200E+02  0.3197E+02
      3.749  0.1587E+00  0.3203E-04  0.3201E+02  0.3197E+02
      3.808  0.3544E-08  0.4981E+00  0.3201E+02  0.3200E+02
      3.866  0.6314E+00  0.1369E+00  0.3205E+02  0.3201E+02
      3.924  0.3554E-02  0.4261E-08  0.3205E+02  0.3201E+02
      3.983  0.0000E+00  0.6317E+00  0.3205E+02  0.3205E+02
      4.041  0.8343E-06  0.3248E-02  0.3205E+02  0.3205E+02
      4.099  0.1270E+01  0.0000E+00  0.3212E+02  0.3205E+02
      4.158  0.5605E-14  0.1301E-05  0.3212E+02  0.3205E+02
      4.216  0.6687E+00  0.1270E+01  0.3216E+02  0.3212E+02
      4.274  0.2838E+00  0.0000E+00  0.3218E+02  0.3212E+02
      4.333  0.9520E+00  0.2582E-01  0.3223E+02  0.3212E+02
      4.391  0.6456E-01  0.9267E+00  0.3224E+02  0.3218E+02
      4.449  0.4117E+00  0.7966E+00  0.3226E+02  0.3222E+02
      4.508  0.0000E+00  0.1560E+00  0.3226E+02  0.3223E+02
      4.566  0.3417E-02  0.4762E+00  0.3226E+02  0.3226E+02
      4.624  0.6074E+01  0.0000E+00  0.3261E+02  0.3226E+02
      4.683  0.1955E+01  0.1413E-05  0.3273E+02  0.3226E+02
      4.741  0.7502E+01  0.6378E+01  0.3317E+02  0.3263E+02
      4.799  0.2047E-01  0.1198E+01  0.3317E+02  0.3270E+02
      4.858  0.3805E+01  0.7965E+01  0.3339E+02  0.3317E+02
      4.916  0.3718E+01  0.1443E-01  0.3361E+02  0.3317E+02
      4.974  0.5067E+01  0.3009E+01  0.3390E+02  0.3334E+02
      5.033  0.5506E+01  0.4948E+01  0.3422E+02  0.3363E+02
      5.091  0.9038E+00  0.1060E+01  0.3427E+02  0.3369E+02
      5.149  0.2906E+01  0.8891E+01  0.3444E+02  0.3421E+02
      5.208  0.3810E+01  0.4244E+00  0.3467E+02  0.3424E+02
      5.266  0.5032E+01  0.3576E+01  0.3496E+02  0.3444E+02
      5.324  0.3797E+01  0.3783E+01  0.3518E+02  0.3467E+02
      5.383  0.1117E+02  0.4853E+01  0.3583E+02  0.3495E+02
      5.441  0.1086E+02  0.3853E+01  0.3647E+02  0.3517E+02
      5.499  0.4375E+01  0.1132E+02  0.3672E+02  0.3583E+02
      5.558  0.7193E+01  0.7221E+01  0.3714E+02  0.3625E+02
      5.616  0.2845E+01  0.8018E+01  0.3731E+02  0.3672E+02
      5.674  0.2604E+01  0.7310E+01  0.3746E+02  0.3715E+02
      5.732  0.7361E+01  0.2299E+01  0.3789E+02  0.3728E+02
      5.791  0.0000E+00  0.2787E+01  0.3789E+02  0.3745E+02
      5.849  0.1274E+00  0.7606E+01  0.3790E+02  0.3789E+02
      5.907  0.1072E+02  0.0000E+00  0.3852E+02  0.3789E+02
      5.966  0.8115E+01  0.5414E-01  0.3899E+02  0.3789E+02
      6.024  0.8603E-01  0.8854E+01  0.3900E+02  0.3841E+02
      6.082  0.0000E+00  0.1014E+02  0.3900E+02  0.3900E+02
      6.141  0.1215E-08  0.0000E+00  0.3900E+02  0.3900E+02
      6.199  0.3736E+01  0.0000E+00  0.3922E+02  0.3900E+02
      6.257  0.7364E-01  0.1036E-06  0.3922E+02  0.3900E+02
      6.316  0.6021E-06  0.3801E+01  0.3922E+02  0.3922E+02
      6.374  0.9522E+00  0.9372E-02  0.3928E+02  0.3922E+02
      6.432  0.1230E+01  0.6618E-10  0.3935E+02  0.3922E+02
      6.491  0.3533E+01  0.9206E+00  0.3956E+02  0.3928E+02
      6.549  0.3810E+01  0.9926E+00  0.3978E+02  0.3933E+02
      6.607  0.0000E+00  0.3802E+01  0.3978E+02  0.3956E+02
      6.666  0.5258E-02  0.3810E+01  0.3978E+02  0.3978E+02
      6.724  0.3805E+01  0.0000E+00  0.4000E+02  0.3978E+02
      6.782  0.0000E+00  0.8626E-02  0.4000E+02  0.3978E+02
      6.841  0.0000E+00  0.3801E+01  0.4000E+02  0.4000E+02
      6.899  0.0000E+00  0.0000E+00  0.4000E+02  0.4000E+02
      6.957  0.0000E+00  0.0000E+00  0.4000E+02  0.4000E+02
      7.016  0.0000E+00  0.0000E+00  0.4000E+02  0.4000E+02
      7.074  0.0000E+00  0.0000E+00  0.4000E+02  0.4000E+02
      7.132  0.0000E+00  0.0000E+00  0.4000E+02  0.4000E+02
      7.191  0.0000E+00  0.0000E+00  0.4000E+02  0.4000E+02
      7.249  0.0000E+00  0.0000E+00  0.4000E+02  0.4000E+02
      7.307  0.0000E+00  0.0000E+00  0.4000E+02  0.4000E+02
      7.366  0.0000E+00  0.0000E+00  0.4000E+02  0.4000E+02
      7.424  0.0000E+00  0.0000E+00  0.4000E+02  0.4000E+02
      7.482  0.0000E+00  0.0000E+00  0.4000E+02  0.4000E+02
      7.541  0.0000E+00  0.0000E+00  0.4000E+02  0.4000E+02
      7.599  0.0000E+00  0.0000E+00  0.4000E+02  0.4000E+02
