Si and Ge interface calculation         
           1
     5.660000    0.000000    0.000000
     0.000000    5.660000    0.000000
     0.000000    0.000000    5.660000
   Ge
     8
Direct configuration=     1
   0.00000000  0.00000000  0.00000000
   0.25000000  0.25000000  0.25000000
   0.00000000  0.50000000  0.50000000
   0.25000000  0.75000000  0.75000000
   0.50000000  0.00000000  0.50000000
   0.75000000  0.25000000  0.75000000
   0.50000000  0.50000000  0.00000000
   0.75000000  0.75000000  0.25000000
