Si and Ge interface calculation         
           1
    15.895228    0.000000    0.000000
   -15.895230   11.239625    0.000000
     0.000000    0.000000   25.604219
   Sn   Ge
    72    96
Direct configuration=     1
   0.65814054  0.36743808  0.00000001
   0.57480711  0.70077145  0.08960550
   0.49147368  0.03410494  0.17921105
   0.40814021  0.36743832  0.26881653
   0.32480687  0.70077193  0.35842207
   0.24147330  0.03410530  0.44802758
   0.99147379  0.03410473  0.00000001
   0.90814036  0.36743814  0.08960552
   0.82480693  0.70077163  0.17921105
   0.74147356  0.03410494  0.26881653
   0.65814006  0.36743855  0.35842207
   0.57480669  0.70077193  0.44802758
   0.32480717  0.70077139  0.00000000
   0.24147373  0.03410482  0.08960549
   0.15814032  0.36743832  0.17921099
   0.07480685  0.70077169  0.26881653
   0.99147344  0.03410506  0.35842201
   0.90814006  0.36743855  0.44802755
   0.49147382  0.03410473  0.00000001
   0.40814039  0.36743811  0.08960552
   0.32480696  0.70077163  0.17921102
   0.24147351  0.03410494  0.26881653
   0.15814012  0.36743855  0.35842207
   0.07480662  0.70077193  0.44802758
   0.82480717  0.70077139  0.00000001
   0.74147379  0.03410482  0.08960547
   0.65814030  0.36743820  0.17921102
   0.57480693  0.70077169  0.26881653
   0.49147350  0.03410506  0.35842201
   0.40813991  0.36743855  0.44802755
   0.15814048  0.36743805  0.00000001
   0.07480706  0.70077145  0.08960551
   0.99147356  0.03410482  0.17921102
   0.90814018  0.36743832  0.26881653
   0.82480675  0.70077181  0.35842207
   0.74147332  0.03410530  0.44802755
   0.74147379  0.28410470  0.00000002
   0.65814048  0.61743808  0.08960550
   0.57480699  0.95077157  0.17921102
   0.49147359  0.28410506  0.26881656
   0.40814012  0.61743844  0.35842207
   0.32480669  0.95077193  0.44802752
   0.40814051  0.61743808  0.00000000
   0.32480708  0.95077151  0.08960552
   0.24147364  0.28410494  0.17921105
   0.15814030  0.61743844  0.26881656
   0.07480682  0.95077193  0.35842198
   0.99147332  0.28410530  0.44802761
   0.07480715  0.95077145  0.00000002
   0.99147368  0.28410482  0.08960549
   0.90814030  0.61743832  0.17921105
   0.82480693  0.95077181  0.26881653
   0.74147356  0.28410530  0.35842201
   0.65814018  0.61743879  0.44802764
   0.90814048  0.61743808  0.00000002
   0.82480705  0.95077151  0.08960550
   0.74147361  0.28410494  0.17921102
   0.65814018  0.61743832  0.26881653
   0.57480675  0.95077193  0.35842204
   0.49147326  0.28410530  0.44802752
   0.24147384  0.28410473  0.00000001
   0.15814044  0.61743814  0.08960553
   0.07480702  0.95077163  0.17921105
   0.99147361  0.28410506  0.26881656
   0.90814012  0.61743844  0.35842207
   0.82480669  0.95077193  0.44802755
   0.57480711  0.95077151  0.00000003
   0.49147368  0.28410482  0.08960552
   0.40814021  0.61743832  0.17921102
   0.32480681  0.95077169  0.26881653
   0.24147344  0.28410530  0.35842204
   0.15813996  0.61743879  0.44802758
   0.65894103  0.55154341  0.52870083
   0.28394103  0.30154341  0.60682601
   0.90894103  0.05154335  0.68495125
   0.53394103  0.80154341  0.76307648
   0.15894127  0.55154347  0.84120160
   0.78394109  0.30154341  0.91932684
   0.65894103  0.05154335  0.52870083
   0.28394103  0.80154341  0.60682601
   0.90894103  0.55154335  0.68495119
   0.53394103  0.30154341  0.76307648
   0.15894127  0.05154347  0.84120160
   0.78394109  0.80154341  0.91932684
   0.15894115  0.55154341  0.52870083
   0.78394109  0.30154341  0.60682601
   0.40894103  0.05154335  0.68495119
   0.03394115  0.80154341  0.76307648
   0.65894127  0.55154347  0.84120160
   0.28394103  0.30154341  0.91932684
   0.15894103  0.05154335  0.52870083
   0.78394109  0.80154341  0.60682601
   0.40894103  0.55154335  0.68495119
   0.03394103  0.30154341  0.76307648
   0.65894127  0.05154347  0.84120160
   0.28394103  0.80154341  0.91932678
   0.90894109  0.55154341  0.52870083
   0.53394103  0.30154341  0.60682601
   0.15894103  0.05154335  0.68495119
   0.78394109  0.80154341  0.76307648
   0.40894127  0.55154347  0.84120160
   0.03394103  0.30154341  0.91932678
   0.90894109  0.05154335  0.52870083
   0.53394103  0.80154341  0.60682601
   0.15894103  0.55154335  0.68495119
   0.78394109  0.30154341  0.76307648
   0.40894127  0.05154347  0.84120160
   0.03394103  0.80154341  0.91932684
   0.40894103  0.55154341  0.52870083
   0.03394115  0.30154341  0.60682601
   0.65894103  0.05154335  0.68495119
   0.28394103  0.80154341  0.76307648
   0.90894115  0.55154347  0.84120160
   0.53394103  0.30154341  0.91932678
   0.40894103  0.05154335  0.52870083
   0.03394103  0.80154341  0.60682601
   0.65894103  0.55154335  0.68495119
   0.28394103  0.30154341  0.76307648
   0.90894127  0.05154347  0.84120160
   0.53394103  0.80154341  0.91932684
   0.90894115  0.92654347  0.52870083
   0.53394103  0.67654341  0.60682601
   0.15894103  0.42654341  0.68495119
   0.78394115  0.17654344  0.76307648
   0.40894127  0.92654347  0.84120160
   0.03394103  0.67654347  0.91932684
   0.90894109  0.42654341  0.52870083
   0.53394103  0.17654341  0.60682601
   0.15894103  0.92654335  0.68495119
   0.78394103  0.67654341  0.76307648
   0.40894103  0.42654341  0.84120160
   0.03394103  0.17654335  0.91932678
   0.40894115  0.92654347  0.52870083
   0.03394103  0.67654341  0.60682601
   0.65894103  0.42654341  0.68495119
   0.28394103  0.17654344  0.76307648
   0.90894121  0.92654347  0.84120160
   0.53394103  0.67654347  0.91932678
   0.40894103  0.42654341  0.52870083
   0.03394103  0.17654341  0.60682601
   0.65894103  0.92654335  0.68495125
   0.28394103  0.67654341  0.76307648
   0.90894115  0.42654341  0.84120160
   0.53394103  0.17654335  0.91932684
   0.65894103  0.92654347  0.52870083
   0.28394103  0.67654341  0.60682601
   0.90894103  0.42654341  0.68495119
   0.53394103  0.17654344  0.76307648
   0.15894127  0.92654347  0.84120160
   0.78394109  0.67654347  0.91932684
   0.65894103  0.42654341  0.52870083
   0.28394103  0.17654341  0.60682601
   0.90894103  0.92654335  0.68495119
   0.53394103  0.67654341  0.76307648
   0.15894103  0.42654341  0.84120160
   0.78394109  0.17654335  0.91932678
   0.15894115  0.92654347  0.52870083
   0.78394109  0.67654341  0.60682601
   0.40894103  0.42654341  0.68495119
   0.03394115  0.17654344  0.76307648
   0.65894127  0.92654347  0.84120160
   0.28394127  0.67654347  0.91932678
   0.15894103  0.42654341  0.52870083
   0.78394109  0.17654341  0.60682601
   0.40894103  0.92654335  0.68495119
   0.03394103  0.67654341  0.76307648
   0.65894103  0.42654341  0.84120160
   0.28394103  0.17654335  0.91932678
