<?xml version="1.0" encoding="ISO-8859-1"?>
<modeling>
 <generator>
  <i name="program" type="string">vasp </i>
  <i name="version" type="string">6.4.3  </i>
  <i name="subversion" type="string">19Mar24 (build Oct 22 2024 11:23:12) complex                          parallel </i>
  <i name="platform" type="string">LinuxIFC </i>
  <i name="date" type="string">2025 06 08 </i>
  <i name="time" type="string">19:14:03 </i>
 </generator>
 <incar>
  <i type="string" name="SYSTEM">Si and Ge interface calculation</i>
  <i type="int" name="ISTART">     0</i>
  <i type="logical" name="ADDGRID"> T  </i>
  <i type="int" name="ISPIN">     2</i>
  <i name="AMIX">      0.60000000</i>
  <i type="int" name="ICHARG">     2</i>
  <i type="int" name="NELM">   100</i>
  <i name="EDIFF">      0.00000010</i>
  <i name="ENCUT">    700.00000000</i>
  <i name="ENAUG">    900.00000000</i>
  <i type="int" name="NBANDS">   375</i>
  <i name="NUPDOWN">      1.00000000</i>
  <i name="NELECT">    624.00000000</i>
  <i type="string" name="LREAL">AUTO</i>
  <i type="int" name="ISMEAR">     0</i>
  <i name="SIGMA">      0.01000000</i>
  <i type="int" name="LMAXMIX">     6</i>
  <i type="logical" name="LWAVE"> F  </i>
  <i type="logical" name="LVTOT"> F  </i>
  <i type="logical" name="LVHAR"> T  </i>
  <i type="logical" name="LASPH"> T  </i>
  <i type="logical" name="LMIXTAU"> T  </i>
 </incar>
 <primitive_cell>
  <structure name="primitive_cell" >
   <crystal>
    <varray name="basis" >
     <v>      16.29300118       0.00000000       0.00000000 </v>
     <v>       0.00000000      16.29300118       0.00000000 </v>
     <v>       0.00000000       0.00000000      13.88852978 </v>
    </varray>
    <i name="volume">   3686.87532653 </i>
    <varray name="rec_basis" >
     <v>       0.06137605       0.00000000       0.00000000 </v>
     <v>       0.00000000       0.06137605       0.00000000 </v>
     <v>       0.00000000       0.00000000       0.07200186 </v>
    </varray>
   </crystal>
   <varray name="positions" >
    <v>       0.00000000       0.99406773       0.00000000 </v>
    <v>       0.00000000       0.82740104       0.19552107 </v>
    <v>       0.00000000       0.66073430       0.39104217 </v>
    <v>       0.33333334       0.99406773       0.00000000 </v>
    <v>       0.33333334       0.82740104       0.19552107 </v>
    <v>       0.33333334       0.66073430       0.39104217 </v>
    <v>       0.66666669       0.99406773       0.00000000 </v>
    <v>       0.66666669       0.82740104       0.19552107 </v>
    <v>       0.66666669       0.66073430       0.39104217 </v>
    <v>       0.00000000       0.32740104       0.00000000 </v>
    <v>       0.00000000       0.16073437       0.19552107 </v>
    <v>       0.00000000       0.99406767       0.39104217 </v>
    <v>       0.33333334       0.32740104       0.00000000 </v>
    <v>       0.33333334       0.16073437       0.19552107 </v>
    <v>       0.33333334       0.99406767       0.39104217 </v>
    <v>       0.66666669       0.32740104       0.00000000 </v>
    <v>       0.66666669       0.16073437       0.19552107 </v>
    <v>       0.66666669       0.99406767       0.39104217 </v>
    <v>       0.00000000       0.66073442       0.00000000 </v>
    <v>       0.00000000       0.49406770       0.19552107 </v>
    <v>       0.00000000       0.32740104       0.39104217 </v>
    <v>       0.33333334       0.66073442       0.00000000 </v>
    <v>       0.33333334       0.49406770       0.19552107 </v>
    <v>       0.33333334       0.32740104       0.39104217 </v>
    <v>       0.66666669       0.66073442       0.00000000 </v>
    <v>       0.66666669       0.49406770       0.19552107 </v>
    <v>       0.66666669       0.32740104       0.39104217 </v>
    <v>       0.08333334       0.07740105       0.09776054 </v>
    <v>       0.08333334       0.91073436       0.29328156 </v>
    <v>       0.08333334       0.74406767       0.48880270 </v>
    <v>       0.41666669       0.07740105       0.09776054 </v>
    <v>       0.41666669       0.91073436       0.29328156 </v>
    <v>       0.41666669       0.74406767       0.48880270 </v>
    <v>       0.75000000       0.07740105       0.09776054 </v>
    <v>       0.75000000       0.91073436       0.29328156 </v>
    <v>       0.75000000       0.74406767       0.48880270 </v>
    <v>       0.08333334       0.41073436       0.09776054 </v>
    <v>       0.08333334       0.24406767       0.29328156 </v>
    <v>       0.08333334       0.07740098       0.48880270 </v>
    <v>       0.41666669       0.41073436       0.09776054 </v>
    <v>       0.41666669       0.24406767       0.29328156 </v>
    <v>       0.41666669       0.07740098       0.48880270 </v>
    <v>       0.75000000       0.41073436       0.09776054 </v>
    <v>       0.75000000       0.24406767       0.29328156 </v>
    <v>       0.75000000       0.07740098       0.48880270 </v>
    <v>       0.08333334       0.74406773       0.09776054 </v>
    <v>       0.08333334       0.57740104       0.29328156 </v>
    <v>       0.08333334       0.41073436       0.48880270 </v>
    <v>       0.41666669       0.74406773       0.09776054 </v>
    <v>       0.41666669       0.57740104       0.29328156 </v>
    <v>       0.41666669       0.41073436       0.48880270 </v>
    <v>       0.75000000       0.74406773       0.09776054 </v>
    <v>       0.75000000       0.57740104       0.29328156 </v>
    <v>       0.75000000       0.41073436       0.48880270 </v>
    <v>       0.16666667       0.16073438       0.00000000 </v>
    <v>       0.16666667       0.99406767       0.19552107 </v>
    <v>       0.16666667       0.82740098       0.39104217 </v>
    <v>       0.50000000       0.16073438       0.00000000 </v>
    <v>       0.50000000       0.99406767       0.19552107 </v>
    <v>       0.50000000       0.82740098       0.39104217 </v>
    <v>       0.83333337       0.16073438       0.00000000 </v>
    <v>       0.83333337       0.99406767       0.19552107 </v>
    <v>       0.83333337       0.82740098       0.39104217 </v>
    <v>       0.16666667       0.49406770       0.00000000 </v>
    <v>       0.16666667       0.32740104       0.19552107 </v>
    <v>       0.16666667       0.16073431       0.39104217 </v>
    <v>       0.50000000       0.49406770       0.00000000 </v>
    <v>       0.50000000       0.32740104       0.19552107 </v>
    <v>       0.50000000       0.16073431       0.39104217 </v>
    <v>       0.83333337       0.49406770       0.00000000 </v>
    <v>       0.83333337       0.32740104       0.19552107 </v>
    <v>       0.83333337       0.16073431       0.39104217 </v>
    <v>       0.16666667       0.82740104       0.00000000 </v>
    <v>       0.16666667       0.66073436       0.19552107 </v>
    <v>       0.16666667       0.49406764       0.39104217 </v>
    <v>       0.50000000       0.82740104       0.00000000 </v>
    <v>       0.50000000       0.66073436       0.19552107 </v>
    <v>       0.50000000       0.49406764       0.39104217 </v>
    <v>       0.83333337       0.82740104       0.00000000 </v>
    <v>       0.83333337       0.66073436       0.19552107 </v>
    <v>       0.83333337       0.49406764       0.39104217 </v>
    <v>       0.25000000       0.24406771       0.09776054 </v>
    <v>       0.25000000       0.07740103       0.29328156 </v>
    <v>       0.25000000       0.91073436       0.48880270 </v>
    <v>       0.58333337       0.24406771       0.09776054 </v>
    <v>       0.58333337       0.07740103       0.29328156 </v>
    <v>       0.58333337       0.91073436       0.48880270 </v>
    <v>       0.91666669       0.24406771       0.09776054 </v>
    <v>       0.91666669       0.07740103       0.29328156 </v>
    <v>       0.91666669       0.91073436       0.48880270 </v>
    <v>       0.25000000       0.57740116       0.09776054 </v>
    <v>       0.25000000       0.41073445       0.29328156 </v>
    <v>       0.25000000       0.24406774       0.48880270 </v>
    <v>       0.58333337       0.57740116       0.09776054 </v>
    <v>       0.58333337       0.41073445       0.29328156 </v>
    <v>       0.58333337       0.24406774       0.48880270 </v>
    <v>       0.91666669       0.57740116       0.09776054 </v>
    <v>       0.91666669       0.41073445       0.29328156 </v>
    <v>       0.91666669       0.24406774       0.48880270 </v>
    <v>       0.25000000       0.91073436       0.09776054 </v>
    <v>       0.25000000       0.74406767       0.29328156 </v>
    <v>       0.25000000       0.57740104       0.48880270 </v>
    <v>       0.58333337       0.91073436       0.09776054 </v>
    <v>       0.58333337       0.74406767       0.29328156 </v>
    <v>       0.58333337       0.57740104       0.48880270 </v>
    <v>       0.91666669       0.91073436       0.09776054 </v>
    <v>       0.91666669       0.74406767       0.29328156 </v>
    <v>       0.91666669       0.57740104       0.48880270 </v>
    <v>       0.08286381       0.49965751       0.62437797 </v>
    <v>       0.69397485       0.12465739       0.67238736 </v>
    <v>       0.30508590       0.74965751       0.72039670 </v>
    <v>       0.91619682       0.37465763       0.76840609 </v>
    <v>       0.52730799       0.99965757       0.81641537 </v>
    <v>       0.13841903       0.62465745       0.86442477 </v>
    <v>       0.08286381       0.99965739       0.62437797 </v>
    <v>       0.69397485       0.62465739       0.67238736 </v>
    <v>       0.30508590       0.24965739       0.72039676 </v>
    <v>       0.91619682       0.87465745       0.76840609 </v>
    <v>       0.52730799       0.49965763       0.81641537 </v>
    <v>       0.13841903       0.12465739       0.86442471 </v>
    <v>       0.83286369       0.62465745       0.62437797 </v>
    <v>       0.44397473       0.24965739       0.67238736 </v>
    <v>       0.05508578       0.87465751       0.72039670 </v>
    <v>       0.66619688       0.49965763       0.76840603 </v>
    <v>       0.27730793       0.12465763       0.81641543 </v>
    <v>       0.88841879       0.74965757       0.86442471 </v>
    <v>       0.83286375       0.12465739       0.62437797 </v>
    <v>       0.44397473       0.74965739       0.67238736 </v>
    <v>       0.05508578       0.37465739       0.72039670 </v>
    <v>       0.66619688       0.99965739       0.76840603 </v>
    <v>       0.27730793       0.62465751       0.81641543 </v>
    <v>       0.88841891       0.24965739       0.86442471 </v>
    <v>       0.83286375       0.87465751       0.62437803 </v>
    <v>       0.44397473       0.49965739       0.67238736 </v>
    <v>       0.05508578       0.12465751       0.72039670 </v>
    <v>       0.66619682       0.74965751       0.76840603 </v>
    <v>       0.27730799       0.37465763       0.81641543 </v>
    <v>       0.88841891       0.99965757       0.86442477 </v>
    <v>       0.83286375       0.37465739       0.62437797 </v>
    <v>       0.44397473       0.99965739       0.67238736 </v>
    <v>       0.05508578       0.62465739       0.72039670 </v>
    <v>       0.66619688       0.24965739       0.76840603 </v>
    <v>       0.27730799       0.87465751       0.81641543 </v>
    <v>       0.88841879       0.49965739       0.86442471 </v>
    <v>       0.08286381       0.74965745       0.62437797 </v>
    <v>       0.69397485       0.37465739       0.67238736 </v>
    <v>       0.30508590       0.99965757       0.72039676 </v>
    <v>       0.91619682       0.62465751       0.76840609 </v>
    <v>       0.52730823       0.24965763       0.81641543 </v>
    <v>       0.13841903       0.87465745       0.86442477 </v>
    <v>       0.08286381       0.24965739       0.62437797 </v>
    <v>       0.69397485       0.87465739       0.67238736 </v>
    <v>       0.30508590       0.49965751       0.72039676 </v>
    <v>       0.91619694       0.12465751       0.76840609 </v>
    <v>       0.52730811       0.74965757       0.81641537 </v>
    <v>       0.13841879       0.37465739       0.86442471 </v>
   </varray>
  </structure>
  <varray name="primitive_index" >
   <v type="int" >        1 </v>
   <v type="int" >        2 </v>
   <v type="int" >        3 </v>
   <v type="int" >        4 </v>
   <v type="int" >        5 </v>
   <v type="int" >        6 </v>
   <v type="int" >        7 </v>
   <v type="int" >        8 </v>
   <v type="int" >        9 </v>
   <v type="int" >       10 </v>
   <v type="int" >       11 </v>
   <v type="int" >       12 </v>
   <v type="int" >       13 </v>
   <v type="int" >       14 </v>
   <v type="int" >       15 </v>
   <v type="int" >       16 </v>
   <v type="int" >       17 </v>
   <v type="int" >       18 </v>
   <v type="int" >       19 </v>
   <v type="int" >       20 </v>
   <v type="int" >       21 </v>
   <v type="int" >       22 </v>
   <v type="int" >       23 </v>
   <v type="int" >       24 </v>
   <v type="int" >       25 </v>
   <v type="int" >       26 </v>
   <v type="int" >       27 </v>
   <v type="int" >       28 </v>
   <v type="int" >       29 </v>
   <v type="int" >       30 </v>
   <v type="int" >       31 </v>
   <v type="int" >       32 </v>
   <v type="int" >       33 </v>
   <v type="int" >       34 </v>
   <v type="int" >       35 </v>
   <v type="int" >       36 </v>
   <v type="int" >       37 </v>
   <v type="int" >       38 </v>
   <v type="int" >       39 </v>
   <v type="int" >       40 </v>
   <v type="int" >       41 </v>
   <v type="int" >       42 </v>
   <v type="int" >       43 </v>
   <v type="int" >       44 </v>
   <v type="int" >       45 </v>
   <v type="int" >       46 </v>
   <v type="int" >       47 </v>
   <v type="int" >       48 </v>
   <v type="int" >       49 </v>
   <v type="int" >       50 </v>
   <v type="int" >       51 </v>
   <v type="int" >       52 </v>
   <v type="int" >       53 </v>
   <v type="int" >       54 </v>
   <v type="int" >       55 </v>
   <v type="int" >       56 </v>
   <v type="int" >       57 </v>
   <v type="int" >       58 </v>
   <v type="int" >       59 </v>
   <v type="int" >       60 </v>
   <v type="int" >       61 </v>
   <v type="int" >       62 </v>
   <v type="int" >       63 </v>
   <v type="int" >       64 </v>
   <v type="int" >       65 </v>
   <v type="int" >       66 </v>
   <v type="int" >       67 </v>
   <v type="int" >       68 </v>
   <v type="int" >       69 </v>
   <v type="int" >       70 </v>
   <v type="int" >       71 </v>
   <v type="int" >       72 </v>
   <v type="int" >       73 </v>
   <v type="int" >       74 </v>
   <v type="int" >       75 </v>
   <v type="int" >       76 </v>
   <v type="int" >       77 </v>
   <v type="int" >       78 </v>
   <v type="int" >       79 </v>
   <v type="int" >       80 </v>
   <v type="int" >       81 </v>
   <v type="int" >       82 </v>
   <v type="int" >       83 </v>
   <v type="int" >       84 </v>
   <v type="int" >       85 </v>
   <v type="int" >       86 </v>
   <v type="int" >       87 </v>
   <v type="int" >       88 </v>
   <v type="int" >       89 </v>
   <v type="int" >       90 </v>
   <v type="int" >       91 </v>
   <v type="int" >       92 </v>
   <v type="int" >       93 </v>
   <v type="int" >       94 </v>
   <v type="int" >       95 </v>
   <v type="int" >       96 </v>
   <v type="int" >       97 </v>
   <v type="int" >       98 </v>
   <v type="int" >       99 </v>
   <v type="int" >      100 </v>
   <v type="int" >      101 </v>
   <v type="int" >      102 </v>
   <v type="int" >      103 </v>
   <v type="int" >      104 </v>
   <v type="int" >      105 </v>
   <v type="int" >      106 </v>
   <v type="int" >      107 </v>
   <v type="int" >      108 </v>
   <v type="int" >      109 </v>
   <v type="int" >      110 </v>
   <v type="int" >      111 </v>
   <v type="int" >      112 </v>
   <v type="int" >      113 </v>
   <v type="int" >      114 </v>
   <v type="int" >      115 </v>
   <v type="int" >      116 </v>
   <v type="int" >      117 </v>
   <v type="int" >      118 </v>
   <v type="int" >      119 </v>
   <v type="int" >      120 </v>
   <v type="int" >      121 </v>
   <v type="int" >      122 </v>
   <v type="int" >      123 </v>
   <v type="int" >      124 </v>
   <v type="int" >      125 </v>
   <v type="int" >      126 </v>
   <v type="int" >      127 </v>
   <v type="int" >      128 </v>
   <v type="int" >      129 </v>
   <v type="int" >      130 </v>
   <v type="int" >      131 </v>
   <v type="int" >      132 </v>
   <v type="int" >      133 </v>
   <v type="int" >      134 </v>
   <v type="int" >      135 </v>
   <v type="int" >      136 </v>
   <v type="int" >      137 </v>
   <v type="int" >      138 </v>
   <v type="int" >      139 </v>
   <v type="int" >      140 </v>
   <v type="int" >      141 </v>
   <v type="int" >      142 </v>
   <v type="int" >      143 </v>
   <v type="int" >      144 </v>
   <v type="int" >      145 </v>
   <v type="int" >      146 </v>
   <v type="int" >      147 </v>
   <v type="int" >      148 </v>
   <v type="int" >      149 </v>
   <v type="int" >      150 </v>
   <v type="int" >      151 </v>
   <v type="int" >      152 </v>
   <v type="int" >      153 </v>
   <v type="int" >      154 </v>
   <v type="int" >      155 </v>
   <v type="int" >      156 </v>
  </varray>
 </primitive_cell>
 <kpoints>
  <generation param="Gamma">
   <v type="int" name="divisions">       2        2        2 </v>
   <v name="usershift">      0.00000000       0.00000000       0.00000000 </v>
   <v name="genvec1">      0.50000000       0.00000000       0.00000000 </v>
   <v name="genvec2">      0.00000000       0.50000000       0.00000000 </v>
   <v name="genvec3">      0.00000000       0.00000000       0.50000000 </v>
   <v name="shift">      0.00000000       0.00000000       0.00000000 </v>
  </generation>
  <varray name="kpointlist" >
   <v>       0.00000000       0.00000000       0.00000000 </v>
   <v>       0.50000000       0.00000000       0.00000000 </v>
   <v>       0.00000000       0.50000000       0.00000000 </v>
   <v>       0.50000000       0.50000000       0.00000000 </v>
   <v>       0.00000000       0.00000000       0.50000000 </v>
   <v>       0.50000000       0.00000000       0.50000000 </v>
   <v>       0.00000000       0.50000000       0.50000000 </v>
   <v>       0.50000000       0.50000000       0.50000000 </v>
  </varray>
  <varray name="weights" >
   <v>       0.12500000 </v>
   <v>       0.12500000 </v>
   <v>       0.12500000 </v>
   <v>       0.12500000 </v>
   <v>       0.12500000 </v>
   <v>       0.12500000 </v>
   <v>       0.12500000 </v>
   <v>       0.12500000 </v>
  </varray>
 </kpoints>
 <parameters>
  <separator name="general" >
   <i type="string" name="SYSTEM">Si and Ge interface calculation</i>
   <i type="logical" name="LCOMPAT"> F  </i>
  </separator>
  <separator name="electronic" >
   <i type="string" name="PREC">normal</i>
   <i name="ENMAX">    700.00000000</i>
   <i name="ENAUG">    900.00000000</i>
   <i name="EDIFF">      0.00000010</i>
   <i type="int" name="IALGO">    38</i>
   <i type="int" name="IWAVPR">    10</i>
   <i type="int" name="NBANDS">   376</i>
   <i type="int" name="NBANDSLOW">    -1</i>
   <i type="int" name="NBANDSHIGH">    -1</i>
   <i name="NELECT">    624.00000000</i>
   <i type="int" name="TURBO">     0</i>
   <i type="int" name="IRESTART">     0</i>
   <i type="int" name="NREBOOT">     0</i>
   <i type="int" name="NMIN">     0</i>
   <i name="EREF">      0.00000000</i>
   <separator name="electronic smearing" >
    <i type="int" name="ISMEAR">     0</i>
    <i name="SIGMA">      0.01000000</i>
    <i name="KSPACING">      0.50000000</i>
    <i type="logical" name="KGAMMA"> T  </i>
    <i type="logical" name="KBLOWUP"> T  </i>
   </separator>
   <separator name="electronic projectors" >
    <i type="logical" name="LREAL"> T  </i>
    <v name="ROPT">     -0.00050000     -0.00050000</v>
    <i type="int" name="LMAXPAW">  -100</i>
    <i type="int" name="LMAXMIX">     6</i>
    <i type="logical" name="NLSPLINE"> F  </i>
   </separator>
   <separator name="electronic startup" >
    <i type="int" name="ISTART">     0</i>
    <i type="int" name="ICHARG">     2</i>
    <i type="int" name="INIWAV">     1</i>
   </separator>
   <separator name="electronic spin" >
    <i type="int" name="ISPIN">     2</i>
    <i type="logical" name="LNONCOLLINEAR"> F  </i>
    <v name="MAGMOM">      0.00641026      0.00641026      0.00641026      0.00641026      0.00641026      0.00641026      0.00641026      0.00641026      0.00641026      0.00641026      0.00641026      0.00641026      0.00641026      0.00641026      0.00641026      0.00641026      0.00641026      0.00641026      0.00641026      0.00641026
      0.00641026      0.00641026      0.00641026      0.00641026      0.00641026      0.00641026      0.00641026      0.00641026      0.00641026      0.00641026      0.00641026      0.00641026      0.00641026      0.00641026      0.00641026      0.00641026      0.00641026      0.00641026      0.00641026      0.00641026
      0.00641026      0.00641026      0.00641026      0.00641026      0.00641026      0.00641026      0.00641026      0.00641026      0.00641026      0.00641026      0.00641026      0.00641026      0.00641026      0.00641026      0.00641026      0.00641026      0.00641026      0.00641026      0.00641026      0.00641026
      0.00641026      0.00641026      0.00641026      0.00641026      0.00641026      0.00641026      0.00641026      0.00641026      0.00641026      0.00641026      0.00641026      0.00641026      0.00641026      0.00641026      0.00641026      0.00641026      0.00641026      0.00641026      0.00641026      0.00641026
      0.00641026      0.00641026      0.00641026      0.00641026      0.00641026      0.00641026      0.00641026      0.00641026      0.00641026      0.00641026      0.00641026      0.00641026      0.00641026      0.00641026      0.00641026      0.00641026      0.00641026      0.00641026      0.00641026      0.00641026
      0.00641026      0.00641026      0.00641026      0.00641026      0.00641026      0.00641026      0.00641026      0.00641026      0.00641026      0.00641026      0.00641026      0.00641026      0.00641026      0.00641026      0.00641026      0.00641026      0.00641026      0.00641026      0.00641026      0.00641026
      0.00641026      0.00641026      0.00641026      0.00641026      0.00641026      0.00641026      0.00641026      0.00641026      0.00641026      0.00641026      0.00641026      0.00641026      0.00641026      0.00641026      0.00641026      0.00641026      0.00641026      0.00641026      0.00641026      0.00641026
      0.00641026      0.00641026      0.00641026      0.00641026      0.00641026      0.00641026      0.00641026      0.00641026      0.00641026      0.00641026      0.00641026      0.00641026      0.00641026      0.00641026      0.00641026      0.00641026</v>
    <i name="NUPDOWN">      1.00000000</i>
    <i type="logical" name="LSORBIT"> F  </i>
    <v name="SAXIS">      0.00000000      0.00000000      1.00000000</v>
    <i type="logical" name="LSPIRAL"> F  </i>
    <v name="QSPIRAL">      0.00000000      0.00000000      0.00000000</v>
    <i type="logical" name="LZEROZ"> F  </i>
   </separator>
   <separator name="electronic exchange-correlation" >
    <i type="logical" name="LASPH"> T  </i>
   </separator>
   <separator name="electronic convergence" >
    <i type="int" name="NELM">   100</i>
    <i type="int" name="NELMDL">    -5</i>
    <i type="int" name="NELMIN">     2</i>
    <i name="ENINI">    700.00000000</i>
    <separator name="electronic convergence detail" >
     <i type="logical" name="LDIAG"> T  </i>
     <i type="logical" name="LSUBROT"> F  </i>
     <i name="WEIMIN">      0.00000000</i>
     <i name="EBREAK">      0.00000000</i>
     <i name="DEPER">      0.30000000</i>
     <i type="int" name="NRMM">     4</i>
     <i name="TIME">      0.40000000</i>
    </separator>
   </separator>
   <separator name="electronic mixer" >
    <i name="AMIX">      0.60000000</i>
    <i name="BMIX">      1.00000000</i>
    <i name="AMIN">      0.10000000</i>
    <i name="AMIX_MAG">      2.40000000</i>
    <i name="BMIX_MAG">      1.00000000</i>
    <separator name="electronic mixer details" >
     <i type="int" name="IMIX">     4</i>
     <i type="logical" name="MIXFIRST"> F  </i>
     <i type="int" name="MAXMIX">   -45</i>
     <i name="WC">    100.00000000</i>
     <i type="int" name="INIMIX">     1</i>
     <i type="int" name="MIXPRE">     1</i>
     <i type="int" name="MREMOVE">     5</i>
    </separator>
   </separator>
   <separator name="electronic dipolcorrection" >
    <i type="logical" name="LDIPOL"> F  </i>
    <i type="logical" name="LMONO"> F  </i>
    <i type="int" name="IDIPOL">     0</i>
    <i name="EPSILON">      1.00000000</i>
    <v name="DIPOL">   -100.00000000   -100.00000000   -100.00000000</v>
    <i name="EFIELD">      0.00000000</i>
    <i type="logical" name="LVACPOTAV"> F  </i>
   </separator>
  </separator>
  <separator name="grids" >
   <i type="int" name="NGX">   108</i>
   <i type="int" name="NGY">   108</i>
   <i type="int" name="NGZ">    90</i>
   <i type="int" name="NGXF">   216</i>
   <i type="int" name="NGYF">   216</i>
   <i type="int" name="NGZF">   180</i>
   <i type="logical" name="ADDGRID"> T  </i>
  </separator>
  <separator name="ionic" >
   <i type="int" name="NSW">     0</i>
   <i type="int" name="IBRION">    -1</i>
   <i type="int" name="MDALGO">     0</i>
   <i type="int" name="ISIF">     2</i>
   <i name="PSTRESS">      0.00000000</i>
   <i name="EDIFFG">      0.00000100</i>
   <i type="int" name="NFREE">     0</i>
   <i name="POTIM">      0.50000000</i>
   <i name="SMASS">     -3.00000000</i>
   <i name="SCALEE">      1.00000000</i>
  </separator>
  <separator name="ionic md" >
   <i name="TEBEG">      0.00010000</i>
   <i name="TEEND">      0.00010000</i>
   <i type="int" name="NBLOCK">     1</i>
   <i type="int" name="KBLOCK">     1</i>
   <i type="int" name="NPACO">   256</i>
   <i name="APACO">     10.00000000</i>
  </separator>
  <separator name="symmetry" >
   <i type="int" name="ISYM">     2</i>
   <i name="SYMPREC">      0.00001000</i>
  </separator>
  <separator name="dos" >
   <i type="int" name="LORBIT">     0</i>
   <v name="RWIGS">     -1.00000000     -1.00000000</v>
   <i type="int" name="NEDOS">   301</i>
   <i name="EMIN">     10.00000000</i>
   <i name="EMAX">    -10.00000000</i>
   <i name="EFERMI">      0.00000000</i>
  </separator>
  <separator name="writing" >
   <i type="int" name="NWRITE">     2</i>
   <i type="logical" name="LWAVE"> F  </i>
   <i type="logical" name="LDOWNSAMPLE"> F  </i>
   <i type="logical" name="LCHARG"> T  </i>
   <i type="logical" name="LPARD"> F  </i>
   <i type="logical" name="LVTOT"> F  </i>
   <i type="logical" name="LVHAR"> T  </i>
   <i type="logical" name="LELF"> F  </i>
   <i type="logical" name="LOPTICS"> F  </i>
   <v name="STM">      0.00000000      0.00000000      0.00000000      0.00000000      0.00000000      0.00000000      0.00000000</v>
  </separator>
  <separator name="performance" >
   <i type="int" name="NPAR">     4</i>
   <i type="int" name="NSIM">     4</i>
   <i type="int" name="NBLK">    -1</i>
   <i type="logical" name="LPLANE"> T  </i>
   <i type="logical" name="LSCALAPACK"> T  </i>
   <i type="logical" name="LSCAAWARE"> F  </i>
   <i type="logical" name="LSCALU"> F  </i>
   <i type="logical" name="LASYNC"> F  </i>
   <i type="logical" name="LORBITALREAL"> F  </i>
  </separator>
  <separator name="miscellaneous" >
   <i type="int" name="IDIOT">     3</i>
   <i type="int" name="PHON_NSTRUCT">    -1</i>
   <i type="logical" name="LMUSIC"> F  </i>
   <v name="POMASS">     28.08500000     72.61000000</v>
   <v name="DARWINR">      0.00000000      0.00000000</v>
   <v name="DARWINV">      1.00000000      1.00000000</v>
   <i type="logical" name="LCORR"> T  </i>
  </separator>
  <i type="logical" name="GGA_COMPAT"> T  </i>
  <i type="logical" name="LBERRY"> F  </i>
  <i type="int" name="ICORELEVEL">     0</i>
  <i type="logical" name="LDAU"> F  </i>
  <i type="int" name="I_CONSTRAINED_M">     0</i>
  <separator name="electronic exchange-correlation" >
   <i type="string" name="GGA    ">PE</i>
   <i type="string" name="XC_C">1</i>
   <i type="int" name="VOSKOWN">     0</i>
   <i type="logical" name="LHFCALC"> F  </i>
   <i type="string" name="PRECFOCK"></i>
   <i type="logical" name="LSYMGRAD"> F  </i>
   <i type="logical" name="LHFONE"> F  </i>
   <i type="logical" name="LRHFCALC"> F  </i>
   <i type="logical" name="LTHOMAS"> F  </i>
   <i type="logical" name="LMODELHF"> F  </i>
   <i type="logical" name="LFOCKACE"> F  </i>
   <i name="ENCUT4O">     -1.00000000</i>
   <i type="int" name="EXXOEP">     0</i>
   <i type="int" name="FOURORBIT">     0</i>
   <i name="AEXX">      0.00000000</i>
   <i name="HFALPHA">      0.00000000</i>
   <i name="MCALPHA">      0.00000000</i>
   <i name="ALDAX">      1.00000000</i>
   <i name="AGGAX">      1.00000000</i>
   <i name="AMGGAX">      1.00000000</i>
   <i name="ALDAC">      1.00000000</i>
   <i name="AGGAC">      1.00000000</i>
   <i name="AMGGAC">      1.00000000</i>
   <i type="int" name="NKREDX">     1</i>
   <i type="int" name="NKREDY">     1</i>
   <i type="int" name="NKREDZ">     1</i>
   <i type="logical" name="SHIFTRED"> F  </i>
   <i type="logical" name="ODDONLY"> F  </i>
   <i type="logical" name="EVENONLY"> F  </i>
   <i type="int" name="LMAXFOCK">     0</i>
   <i type="int" name="NMAXFOCKAE">     0</i>
   <i type="logical" name="LFOCKAEDFT"> F  </i>
   <i name="HFSCREEN">      0.00000000</i>
   <i name="HFSCREENC">      0.00000000</i>
   <i type="int" name="NBANDSGWLOW">     0</i>
  </separator>
  <separator name="vdW DFT" >
   <i type="logical" name="LUSE_VDW"> F  </i>
   <i type="int" name="IVDW_NL">    -1</i>
   <i type="logical" name="LSPIN_VDW"> F  </i>
   <i name="ZAB_VDW">     -0.84910000</i>
   <i name="GAMMA_VDW">      1.39626340</i>
   <i name="ALPHA_VDW">      0.00000000</i>
   <i name="PARAM1">      0.12340000</i>
   <i name="PARAM2">      1.00000000</i>
   <i name="BPARAM">      6.30000000</i>
   <i name="CPARAM">      0.00930000</i>
  </separator>
  <separator name="model GW" >
   <i type="int" name="MODEL_GW">     0</i>
   <i name="MODEL_EPS0">     14.18028972</i>
   <i name="MODEL_ALPHA">      1.00000000</i>
  </separator>
  <separator name="linear response parameters" >
   <i type="logical" name="LEPSILON"> F  </i>
   <i type="logical" name="LRPA"> F  </i>
   <i type="logical" name="LNABLA"> F  </i>
   <i type="logical" name="LVEL"> F  </i>
   <i name="CSHIFT">      0.10000000</i>
   <i name="OMEGAMAX">     -1.00000000</i>
   <i name="DEG_THRESHOLD">      0.00200000</i>
   <i name="RTIME">     -0.10000000</i>
   <i name="WPLASMAI">      0.00000000</i>
   <v name="DFIELD">      0.00000000      0.00000000      0.00000000</v>
   <v name="WPLASMA">      0.00000000      0.00000000      0.00000000      0.00000000      0.00000000      0.00000000      0.00000000      0.00000000      0.00000000</v>
  </separator>
  <separator name="orbital magnetization" >
   <i type="logical" name="NUCIND"> F  </i>
   <v name="MAGPOS">      0.00000000      0.00000000      0.00000000</v>
   <i type="logical" name="LNICSALL"> T  </i>
   <i type="logical" name="ORBITALMAG"> F  </i>
   <i type="logical" name="LMAGBLOCH"> F  </i>
   <i type="logical" name="LCHIMAG"> F  </i>
   <i type="logical" name="LGAUGE"> T  </i>
   <i type="int" name="MAGATOM">     0</i>
   <v name="MAGDIPOL">      0.00000000      0.00000000      0.00000000</v>
   <v name="AVECCONST">      0.00000000      0.00000000      0.00000000</v>
  </separator>
  <separator name="response functions" >
   <i type="logical" name="LALL_IN_ONE"> F  </i>
   <i type="int" name="IALL_IN_ONE">    -1</i>
   <i type="int" name="NBANDS_WAVE">    -1</i>
   <i type="logical" name="LFINITE_TEMPERATURE"> F  </i>
   <i type="logical" name="LADDER"> F  </i>
   <i type="logical" name="LRPAFORCE"> F  </i>
   <i type="logical" name="LFXC"> F  </i>
   <i type="logical" name="LHARTREE"> T  </i>
   <i type="int" name="IBSE">     0</i>
   <v type="int" name="KPOINT">    -1     0     0     0</v>
   <i type="logical" name="LTCTC"> F  </i>
   <i type="logical" name="LTCTE"> F  </i>
   <i type="logical" name="LTETE"> F  </i>
   <i type="logical" name="LTRIPLET"> F  </i>
   <i type="logical" name="LFXCEPS"> F  </i>
   <i type="logical" name="LFXHEG"> F  </i>
   <i type="int" name="NATURALO">     2</i>
   <i type="logical" name="LHOLEGF"> F  </i>
   <i type="logical" name="L2ORDER"> F  </i>
   <i type="logical" name="LDMP1"> F  </i>
   <i type="logical" name="LMP2LT"> F  </i>
   <i type="logical" name="LSMP2LT"> F  </i>
   <i type="logical" name="LGWLF"> F  </i>
   <i name="ENCUTGW">     -1.60000002</i>
   <i name="ENCUTGWSOFT">     -1.60000002</i>
   <i name="ENCUTLF">     -1.00000000</i>
   <i type="logical" name="ESF_SPLINES"> F  </i>
   <i name="ESF_CONV">      0.01000000</i>
   <i type="int" name="ESF_NINTER">    15</i>
   <i type="int" name="LMAXMP2">    -1</i>
   <i name="SCISSOR">      0.00000000</i>
   <i type="int" name="NOMEGA">     0</i>
   <i type="int" name="NOMEGAR">     0</i>
   <i type="int" name="NBANDSGW">    -1</i>
   <i type="int" name="NBANDSO">    -1</i>
   <i type="int" name="NBANDSV">    -1</i>
   <i type="int" name="NELMGW">     1</i>
   <i type="int" name="NELMHF">     1</i>
   <i type="int" name="DIM">     3</i>
   <i type="int" name="IESPILON">     4</i>
   <i type="int" name="ANTIRES">     0</i>
   <i name="OMEGAMAX">    -30.00000000</i>
   <i name="OMEGAMIN">    -30.00000000</i>
   <i name="OMEGATL">   -200.00000000</i>
   <i type="int" name="OMEGAGRID">     0</i>
   <i name="CSHIFT">     -0.10000000</i>
   <i type="logical" name="LSELFENERGY"> F  </i>
   <i type="logical" name="LSPECTRAL"> F  </i>
   <i type="logical" name="LSPECTRALGW"> F  </i>
   <i type="logical" name="LSINGLES"> F  </i>
   <i type="logical" name="LFERMIGW"> F  </i>
   <i type="logical" name="ODDONLYGW"> F  </i>
   <i type="logical" name="EVENONLYGW"> F  </i>
   <i type="int" name="NKREDLFX">     1</i>
   <i type="int" name="NKREDLFY">     1</i>
   <i type="int" name="NKREDLFZ">     1</i>
   <i type="int" name="MAXMEM">  2800</i>
   <i type="int" name="TELESCOPE">     0</i>
   <i type="int" name="NTAUPAR">    -1</i>
   <i type="int" name="NOMEGAPAR">    -1</i>
   <i name="DAMP_NEWTON">      0.80000001</i>
   <i name="LAMBDA">      1.00000000</i>
  </separator>
  <separator name="External order field" >
   <i name="OFIELD_KAPPA">      0.00000000</i>
   <v name="OFIELD_K">      0.00000000      0.00000000      0.00000000</v>
   <i name="OFIELD_Q6_NEAR">      0.00000000</i>
   <i name="OFIELD_Q6_FAR">      0.00000000</i>
   <i name="OFIELD_A">      0.00000000</i>
  </separator>
  <separator name="optional k-points parameters" >
   <i type="int" name="KPOINTS_OPT_MODE">     1</i>
   <i type="logical" name="LKPOINTS_OPT"> F  </i>
  </separator>
 </parameters>
 <atominfo>
  <atoms>     156 </atoms>
  <types>       2 </types>
  <array name="atoms" >
   <dimension dim="1">ion</dimension>
   <field type="string">element</field>
   <field type="int">atomtype</field>
   <set>
    <rc><c>Si</c><c>   1</c></rc>
    <rc><c>Si</c><c>   1</c></rc>
    <rc><c>Si</c><c>   1</c></rc>
    <rc><c>Si</c><c>   1</c></rc>
    <rc><c>Si</c><c>   1</c></rc>
    <rc><c>Si</c><c>   1</c></rc>
    <rc><c>Si</c><c>   1</c></rc>
    <rc><c>Si</c><c>   1</c></rc>
    <rc><c>Si</c><c>   1</c></rc>
    <rc><c>Si</c><c>   1</c></rc>
    <rc><c>Si</c><c>   1</c></rc>
    <rc><c>Si</c><c>   1</c></rc>
    <rc><c>Si</c><c>   1</c></rc>
    <rc><c>Si</c><c>   1</c></rc>
    <rc><c>Si</c><c>   1</c></rc>
    <rc><c>Si</c><c>   1</c></rc>
    <rc><c>Si</c><c>   1</c></rc>
    <rc><c>Si</c><c>   1</c></rc>
    <rc><c>Si</c><c>   1</c></rc>
    <rc><c>Si</c><c>   1</c></rc>
    <rc><c>Si</c><c>   1</c></rc>
    <rc><c>Si</c><c>   1</c></rc>
    <rc><c>Si</c><c>   1</c></rc>
    <rc><c>Si</c><c>   1</c></rc>
    <rc><c>Si</c><c>   1</c></rc>
    <rc><c>Si</c><c>   1</c></rc>
    <rc><c>Si</c><c>   1</c></rc>
    <rc><c>Si</c><c>   1</c></rc>
    <rc><c>Si</c><c>   1</c></rc>
    <rc><c>Si</c><c>   1</c></rc>
    <rc><c>Si</c><c>   1</c></rc>
    <rc><c>Si</c><c>   1</c></rc>
    <rc><c>Si</c><c>   1</c></rc>
    <rc><c>Si</c><c>   1</c></rc>
    <rc><c>Si</c><c>   1</c></rc>
    <rc><c>Si</c><c>   1</c></rc>
    <rc><c>Si</c><c>   1</c></rc>
    <rc><c>Si</c><c>   1</c></rc>
    <rc><c>Si</c><c>   1</c></rc>
    <rc><c>Si</c><c>   1</c></rc>
    <rc><c>Si</c><c>   1</c></rc>
    <rc><c>Si</c><c>   1</c></rc>
    <rc><c>Si</c><c>   1</c></rc>
    <rc><c>Si</c><c>   1</c></rc>
    <rc><c>Si</c><c>   1</c></rc>
    <rc><c>Si</c><c>   1</c></rc>
    <rc><c>Si</c><c>   1</c></rc>
    <rc><c>Si</c><c>   1</c></rc>
    <rc><c>Si</c><c>   1</c></rc>
    <rc><c>Si</c><c>   1</c></rc>
    <rc><c>Si</c><c>   1</c></rc>
    <rc><c>Si</c><c>   1</c></rc>
    <rc><c>Si</c><c>   1</c></rc>
    <rc><c>Si</c><c>   1</c></rc>
    <rc><c>Si</c><c>   1</c></rc>
    <rc><c>Si</c><c>   1</c></rc>
    <rc><c>Si</c><c>   1</c></rc>
    <rc><c>Si</c><c>   1</c></rc>
    <rc><c>Si</c><c>   1</c></rc>
    <rc><c>Si</c><c>   1</c></rc>
    <rc><c>Si</c><c>   1</c></rc>
    <rc><c>Si</c><c>   1</c></rc>
    <rc><c>Si</c><c>   1</c></rc>
    <rc><c>Si</c><c>   1</c></rc>
    <rc><c>Si</c><c>   1</c></rc>
    <rc><c>Si</c><c>   1</c></rc>
    <rc><c>Si</c><c>   1</c></rc>
    <rc><c>Si</c><c>   1</c></rc>
    <rc><c>Si</c><c>   1</c></rc>
    <rc><c>Si</c><c>   1</c></rc>
    <rc><c>Si</c><c>   1</c></rc>
    <rc><c>Si</c><c>   1</c></rc>
    <rc><c>Si</c><c>   1</c></rc>
    <rc><c>Si</c><c>   1</c></rc>
    <rc><c>Si</c><c>   1</c></rc>
    <rc><c>Si</c><c>   1</c></rc>
    <rc><c>Si</c><c>   1</c></rc>
    <rc><c>Si</c><c>   1</c></rc>
    <rc><c>Si</c><c>   1</c></rc>
    <rc><c>Si</c><c>   1</c></rc>
    <rc><c>Si</c><c>   1</c></rc>
    <rc><c>Si</c><c>   1</c></rc>
    <rc><c>Si</c><c>   1</c></rc>
    <rc><c>Si</c><c>   1</c></rc>
    <rc><c>Si</c><c>   1</c></rc>
    <rc><c>Si</c><c>   1</c></rc>
    <rc><c>Si</c><c>   1</c></rc>
    <rc><c>Si</c><c>   1</c></rc>
    <rc><c>Si</c><c>   1</c></rc>
    <rc><c>Si</c><c>   1</c></rc>
    <rc><c>Si</c><c>   1</c></rc>
    <rc><c>Si</c><c>   1</c></rc>
    <rc><c>Si</c><c>   1</c></rc>
    <rc><c>Si</c><c>   1</c></rc>
    <rc><c>Si</c><c>   1</c></rc>
    <rc><c>Si</c><c>   1</c></rc>
    <rc><c>Si</c><c>   1</c></rc>
    <rc><c>Si</c><c>   1</c></rc>
    <rc><c>Si</c><c>   1</c></rc>
    <rc><c>Si</c><c>   1</c></rc>
    <rc><c>Si</c><c>   1</c></rc>
    <rc><c>Si</c><c>   1</c></rc>
    <rc><c>Si</c><c>   1</c></rc>
    <rc><c>Si</c><c>   1</c></rc>
    <rc><c>Si</c><c>   1</c></rc>
    <rc><c>Si</c><c>   1</c></rc>
    <rc><c>Si</c><c>   1</c></rc>
    <rc><c>Si</c><c>   1</c></rc>
    <rc><c>Ge</c><c>   2</c></rc>
    <rc><c>Ge</c><c>   2</c></rc>
    <rc><c>Ge</c><c>   2</c></rc>
    <rc><c>Ge</c><c>   2</c></rc>
    <rc><c>Ge</c><c>   2</c></rc>
    <rc><c>Ge</c><c>   2</c></rc>
    <rc><c>Ge</c><c>   2</c></rc>
    <rc><c>Ge</c><c>   2</c></rc>
    <rc><c>Ge</c><c>   2</c></rc>
    <rc><c>Ge</c><c>   2</c></rc>
    <rc><c>Ge</c><c>   2</c></rc>
    <rc><c>Ge</c><c>   2</c></rc>
    <rc><c>Ge</c><c>   2</c></rc>
    <rc><c>Ge</c><c>   2</c></rc>
    <rc><c>Ge</c><c>   2</c></rc>
    <rc><c>Ge</c><c>   2</c></rc>
    <rc><c>Ge</c><c>   2</c></rc>
    <rc><c>Ge</c><c>   2</c></rc>
    <rc><c>Ge</c><c>   2</c></rc>
    <rc><c>Ge</c><c>   2</c></rc>
    <rc><c>Ge</c><c>   2</c></rc>
    <rc><c>Ge</c><c>   2</c></rc>
    <rc><c>Ge</c><c>   2</c></rc>
    <rc><c>Ge</c><c>   2</c></rc>
    <rc><c>Ge</c><c>   2</c></rc>
    <rc><c>Ge</c><c>   2</c></rc>
    <rc><c>Ge</c><c>   2</c></rc>
    <rc><c>Ge</c><c>   2</c></rc>
    <rc><c>Ge</c><c>   2</c></rc>
    <rc><c>Ge</c><c>   2</c></rc>
    <rc><c>Ge</c><c>   2</c></rc>
    <rc><c>Ge</c><c>   2</c></rc>
    <rc><c>Ge</c><c>   2</c></rc>
    <rc><c>Ge</c><c>   2</c></rc>
    <rc><c>Ge</c><c>   2</c></rc>
    <rc><c>Ge</c><c>   2</c></rc>
    <rc><c>Ge</c><c>   2</c></rc>
    <rc><c>Ge</c><c>   2</c></rc>
    <rc><c>Ge</c><c>   2</c></rc>
    <rc><c>Ge</c><c>   2</c></rc>
    <rc><c>Ge</c><c>   2</c></rc>
    <rc><c>Ge</c><c>   2</c></rc>
    <rc><c>Ge</c><c>   2</c></rc>
    <rc><c>Ge</c><c>   2</c></rc>
    <rc><c>Ge</c><c>   2</c></rc>
    <rc><c>Ge</c><c>   2</c></rc>
    <rc><c>Ge</c><c>   2</c></rc>
    <rc><c>Ge</c><c>   2</c></rc>
   </set>
  </array>
  <array name="atomtypes" >
   <dimension dim="1">type</dimension>
   <field type="int">atomspertype</field>
   <field type="string">element</field>
   <field>mass</field>
   <field>valence</field>
   <field type="string">pseudopotential</field>
   <set>
    <rc><c> 108</c><c>Si</c><c>     28.08500000</c><c>      4.00000000</c><c>  PAW_PBE Si 05Jan2001                  </c></rc>
    <rc><c>  48</c><c>Ge</c><c>     72.61000000</c><c>      4.00000000</c><c>  PAW_PBE Ge 05Jan2001                  </c></rc>
   </set>
  </array>
 </atominfo>
 <structure name="initialpos" >
  <crystal>
   <varray name="basis" >
    <v>      16.29300118       0.00000000       0.00000000 </v>
    <v>       0.00000000      16.29300118       0.00000000 </v>
    <v>       0.00000000       0.00000000      13.88852978 </v>
   </varray>
   <i name="volume">   3686.87532653 </i>
   <varray name="rec_basis" >
    <v>       0.06137605       0.00000000       0.00000000 </v>
    <v>       0.00000000       0.06137605       0.00000000 </v>
    <v>       0.00000000       0.00000000       0.07200186 </v>
   </varray>
  </crystal>
  <varray name="positions" >
   <v>       0.00000000       0.99406773       0.00000000 </v>
   <v>       0.00000000       0.82740104       0.19552107 </v>
   <v>       0.00000000       0.66073430       0.39104217 </v>
   <v>       0.33333334       0.99406773       0.00000000 </v>
   <v>       0.33333334       0.82740104       0.19552107 </v>
   <v>       0.33333334       0.66073430       0.39104217 </v>
   <v>       0.66666669       0.99406773       0.00000000 </v>
   <v>       0.66666669       0.82740104       0.19552107 </v>
   <v>       0.66666669       0.66073430       0.39104217 </v>
   <v>       0.00000000       0.32740104       0.00000000 </v>
   <v>       0.00000000       0.16073437       0.19552107 </v>
   <v>       0.00000000       0.99406767       0.39104217 </v>
   <v>       0.33333334       0.32740104       0.00000000 </v>
   <v>       0.33333334       0.16073437       0.19552107 </v>
   <v>       0.33333334       0.99406767       0.39104217 </v>
   <v>       0.66666669       0.32740104       0.00000000 </v>
   <v>       0.66666669       0.16073437       0.19552107 </v>
   <v>       0.66666669       0.99406767       0.39104217 </v>
   <v>       0.00000000       0.66073442       0.00000000 </v>
   <v>       0.00000000       0.49406770       0.19552107 </v>
   <v>       0.00000000       0.32740104       0.39104217 </v>
   <v>       0.33333334       0.66073442       0.00000000 </v>
   <v>       0.33333334       0.49406770       0.19552107 </v>
   <v>       0.33333334       0.32740104       0.39104217 </v>
   <v>       0.66666669       0.66073442       0.00000000 </v>
   <v>       0.66666669       0.49406770       0.19552107 </v>
   <v>       0.66666669       0.32740104       0.39104217 </v>
   <v>       0.08333334       0.07740105       0.09776054 </v>
   <v>       0.08333334       0.91073436       0.29328156 </v>
   <v>       0.08333334       0.74406767       0.48880270 </v>
   <v>       0.41666669       0.07740105       0.09776054 </v>
   <v>       0.41666669       0.91073436       0.29328156 </v>
   <v>       0.41666669       0.74406767       0.48880270 </v>
   <v>       0.75000000       0.07740105       0.09776054 </v>
   <v>       0.75000000       0.91073436       0.29328156 </v>
   <v>       0.75000000       0.74406767       0.48880270 </v>
   <v>       0.08333334       0.41073436       0.09776054 </v>
   <v>       0.08333334       0.24406767       0.29328156 </v>
   <v>       0.08333334       0.07740098       0.48880270 </v>
   <v>       0.41666669       0.41073436       0.09776054 </v>
   <v>       0.41666669       0.24406767       0.29328156 </v>
   <v>       0.41666669       0.07740098       0.48880270 </v>
   <v>       0.75000000       0.41073436       0.09776054 </v>
   <v>       0.75000000       0.24406767       0.29328156 </v>
   <v>       0.75000000       0.07740098       0.48880270 </v>
   <v>       0.08333334       0.74406773       0.09776054 </v>
   <v>       0.08333334       0.57740104       0.29328156 </v>
   <v>       0.08333334       0.41073436       0.48880270 </v>
   <v>       0.41666669       0.74406773       0.09776054 </v>
   <v>       0.41666669       0.57740104       0.29328156 </v>
   <v>       0.41666669       0.41073436       0.48880270 </v>
   <v>       0.75000000       0.74406773       0.09776054 </v>
   <v>       0.75000000       0.57740104       0.29328156 </v>
   <v>       0.75000000       0.41073436       0.48880270 </v>
   <v>       0.16666667       0.16073438       0.00000000 </v>
   <v>       0.16666667       0.99406767       0.19552107 </v>
   <v>       0.16666667       0.82740098       0.39104217 </v>
   <v>       0.50000000       0.16073438       0.00000000 </v>
   <v>       0.50000000       0.99406767       0.19552107 </v>
   <v>       0.50000000       0.82740098       0.39104217 </v>
   <v>       0.83333337       0.16073438       0.00000000 </v>
   <v>       0.83333337       0.99406767       0.19552107 </v>
   <v>       0.83333337       0.82740098       0.39104217 </v>
   <v>       0.16666667       0.49406770       0.00000000 </v>
   <v>       0.16666667       0.32740104       0.19552107 </v>
   <v>       0.16666667       0.16073431       0.39104217 </v>
   <v>       0.50000000       0.49406770       0.00000000 </v>
   <v>       0.50000000       0.32740104       0.19552107 </v>
   <v>       0.50000000       0.16073431       0.39104217 </v>
   <v>       0.83333337       0.49406770       0.00000000 </v>
   <v>       0.83333337       0.32740104       0.19552107 </v>
   <v>       0.83333337       0.16073431       0.39104217 </v>
   <v>       0.16666667       0.82740104       0.00000000 </v>
   <v>       0.16666667       0.66073436       0.19552107 </v>
   <v>       0.16666667       0.49406764       0.39104217 </v>
   <v>       0.50000000       0.82740104       0.00000000 </v>
   <v>       0.50000000       0.66073436       0.19552107 </v>
   <v>       0.50000000       0.49406764       0.39104217 </v>
   <v>       0.83333337       0.82740104       0.00000000 </v>
   <v>       0.83333337       0.66073436       0.19552107 </v>
   <v>       0.83333337       0.49406764       0.39104217 </v>
   <v>       0.25000000       0.24406771       0.09776054 </v>
   <v>       0.25000000       0.07740103       0.29328156 </v>
   <v>       0.25000000       0.91073436       0.48880270 </v>
   <v>       0.58333337       0.24406771       0.09776054 </v>
   <v>       0.58333337       0.07740103       0.29328156 </v>
   <v>       0.58333337       0.91073436       0.48880270 </v>
   <v>       0.91666669       0.24406771       0.09776054 </v>
   <v>       0.91666669       0.07740103       0.29328156 </v>
   <v>       0.91666669       0.91073436       0.48880270 </v>
   <v>       0.25000000       0.57740116       0.09776054 </v>
   <v>       0.25000000       0.41073445       0.29328156 </v>
   <v>       0.25000000       0.24406774       0.48880270 </v>
   <v>       0.58333337       0.57740116       0.09776054 </v>
   <v>       0.58333337       0.41073445       0.29328156 </v>
   <v>       0.58333337       0.24406774       0.48880270 </v>
   <v>       0.91666669       0.57740116       0.09776054 </v>
   <v>       0.91666669       0.41073445       0.29328156 </v>
   <v>       0.91666669       0.24406774       0.48880270 </v>
   <v>       0.25000000       0.91073436       0.09776054 </v>
   <v>       0.25000000       0.74406767       0.29328156 </v>
   <v>       0.25000000       0.57740104       0.48880270 </v>
   <v>       0.58333337       0.91073436       0.09776054 </v>
   <v>       0.58333337       0.74406767       0.29328156 </v>
   <v>       0.58333337       0.57740104       0.48880270 </v>
   <v>       0.91666669       0.91073436       0.09776054 </v>
   <v>       0.91666669       0.74406767       0.29328156 </v>
   <v>       0.91666669       0.57740104       0.48880270 </v>
   <v>       0.08286381       0.49965751       0.62437797 </v>
   <v>       0.69397485       0.12465739       0.67238736 </v>
   <v>       0.30508590       0.74965751       0.72039670 </v>
   <v>       0.91619682       0.37465763       0.76840609 </v>
   <v>       0.52730799       0.99965757       0.81641537 </v>
   <v>       0.13841903       0.62465745       0.86442477 </v>
   <v>       0.08286381       0.99965739       0.62437797 </v>
   <v>       0.69397485       0.62465739       0.67238736 </v>
   <v>       0.30508590       0.24965739       0.72039676 </v>
   <v>       0.91619682       0.87465745       0.76840609 </v>
   <v>       0.52730799       0.49965763       0.81641537 </v>
   <v>       0.13841903       0.12465739       0.86442471 </v>
   <v>       0.83286369       0.62465745       0.62437797 </v>
   <v>       0.44397473       0.24965739       0.67238736 </v>
   <v>       0.05508578       0.87465751       0.72039670 </v>
   <v>       0.66619688       0.49965763       0.76840603 </v>
   <v>       0.27730793       0.12465763       0.81641543 </v>
   <v>       0.88841879       0.74965757       0.86442471 </v>
   <v>       0.83286375       0.12465739       0.62437797 </v>
   <v>       0.44397473       0.74965739       0.67238736 </v>
   <v>       0.05508578       0.37465739       0.72039670 </v>
   <v>       0.66619688       0.99965739       0.76840603 </v>
   <v>       0.27730793       0.62465751       0.81641543 </v>
   <v>       0.88841891       0.24965739       0.86442471 </v>
   <v>       0.83286375       0.87465751       0.62437803 </v>
   <v>       0.44397473       0.49965739       0.67238736 </v>
   <v>       0.05508578       0.12465751       0.72039670 </v>
   <v>       0.66619682       0.74965751       0.76840603 </v>
   <v>       0.27730799       0.37465763       0.81641543 </v>
   <v>       0.88841891       0.99965757       0.86442477 </v>
   <v>       0.83286375       0.37465739       0.62437797 </v>
   <v>       0.44397473       0.99965739       0.67238736 </v>
   <v>       0.05508578       0.62465739       0.72039670 </v>
   <v>       0.66619688       0.24965739       0.76840603 </v>
   <v>       0.27730799       0.87465751       0.81641543 </v>
   <v>       0.88841879       0.49965739       0.86442471 </v>
   <v>       0.08286381       0.74965745       0.62437797 </v>
   <v>       0.69397485       0.37465739       0.67238736 </v>
   <v>       0.30508590       0.99965757       0.72039676 </v>
   <v>       0.91619682       0.62465751       0.76840609 </v>
   <v>       0.52730823       0.24965763       0.81641543 </v>
   <v>       0.13841903       0.87465745       0.86442477 </v>
   <v>       0.08286381       0.24965739       0.62437797 </v>
   <v>       0.69397485       0.87465739       0.67238736 </v>
   <v>       0.30508590       0.49965751       0.72039676 </v>
   <v>       0.91619694       0.12465751       0.76840609 </v>
   <v>       0.52730811       0.74965757       0.81641537 </v>
   <v>       0.13841879       0.37465739       0.86442471 </v>
  </varray>
 </structure>
 <calculation>
  <scstep>
   <time name="dav">   46.11   46.53</time>
   <time name="total">   47.65   48.08</time>
   <energy>
    <i name="alphaZ">    542.01865616 </i>
    <i name="ewald"> -15546.41656558 </i>
    <i name="hartreedc">  -2217.55214487 </i>
    <i name="XCdc">  -1392.14431830 </i>
    <i name="pawpsdc">  13748.33917439 </i>
    <i name="pawaedc"> -11152.86130582 </i>
    <i name="eentropy">     -0.00079936 </i>
    <i name="bandstr">   2322.50665888 </i>
    <i name="atom">  16170.99902962 </i>
    <i name="e_fr_energy">   2474.88838511 </i>
    <i name="e_wo_entrp">   2474.88918447 </i>
    <i name="e_0_energy">   2474.88878479 </i>
   </energy>
  </scstep>
  <scstep>
   <time name="dav">   51.81   52.31</time>
   <time name="total">   51.81   52.32</time>
   <energy>
    <i name="e_fr_energy">   -456.10425825 </i>
    <i name="e_wo_entrp">   -456.10259197 </i>
    <i name="e_0_energy">   -456.10342511 </i>
   </energy>
  </scstep>
  <scstep>
   <time name="dav">   55.20   55.71</time>
   <time name="total">   55.20   55.72</time>
   <energy>
    <i name="e_fr_energy">   -730.48625336 </i>
    <i name="e_wo_entrp">   -730.48347193 </i>
    <i name="e_0_energy">   -730.48486265 </i>
   </energy>
  </scstep>
  <scstep>
   <time name="dav">   52.69   53.18</time>
   <time name="total">   52.70   53.19</time>
   <energy>
    <i name="e_fr_energy">   -741.48450208 </i>
    <i name="e_wo_entrp">   -741.48184716 </i>
    <i name="e_0_energy">   -741.48317462 </i>
   </energy>
  </scstep>
  <scstep>
   <time name="dav">   59.18   59.73</time>
   <time name="total">   61.34   61.91</time>
   <energy>
    <i name="e_fr_energy">   -741.94273691 </i>
    <i name="e_wo_entrp">   -741.94027681 </i>
    <i name="e_0_energy">   -741.94150686 </i>
   </energy>
  </scstep>
  <scstep>
   <time name="dav">   52.73   53.19</time>
   <time name="total">   56.36   56.86</time>
   <energy>
    <i name="e_fr_energy">   -728.12533656 </i>
    <i name="e_wo_entrp">   -728.12165600 </i>
    <i name="e_0_energy">   -728.12349628 </i>
   </energy>
  </scstep>
  <scstep>
   <time name="dav">   52.93   53.42</time>
   <time name="total">   56.55   57.07</time>
   <energy>
    <i name="e_fr_energy">   -728.15988608 </i>
    <i name="e_wo_entrp">   -728.15721380 </i>
    <i name="e_0_energy">   -728.15854994 </i>
   </energy>
  </scstep>
  <scstep>
   <time name="dav">   52.98   53.49</time>
   <time name="total">   56.60   57.13</time>
   <energy>
    <i name="e_fr_energy">   -727.63746630 </i>
    <i name="e_wo_entrp">   -727.63274970 </i>
    <i name="e_0_energy">   -727.63510800 </i>
   </energy>
  </scstep>
  <scstep>
   <time name="dav">   52.74   53.21</time>
   <time name="total">   56.36   56.86</time>
   <energy>
    <i name="e_fr_energy">   -727.56360109 </i>
    <i name="e_wo_entrp">   -727.55963922 </i>
    <i name="e_0_energy">   -727.56162016 </i>
   </energy>
  </scstep>
  <scstep>
   <time name="dav">   51.98   52.47</time>
   <time name="total">   55.59   56.11</time>
   <energy>
    <i name="e_fr_energy">   -727.53679309 </i>
    <i name="e_wo_entrp">   -727.53284035 </i>
    <i name="e_0_energy">   -727.53481672 </i>
   </energy>
  </scstep>
  <scstep>
   <time name="dav">   50.89   51.38</time>
   <time name="total">   54.51   55.03</time>
   <energy>
    <i name="e_fr_energy">   -727.53203668 </i>
    <i name="e_wo_entrp">   -727.52808731 </i>
    <i name="e_0_energy">   -727.53006200 </i>
   </energy>
  </scstep>
  <scstep>
   <time name="dav">   51.31   51.77</time>
   <time name="total">   54.93   55.42</time>
   <energy>
    <i name="e_fr_energy">   -727.53229791 </i>
    <i name="e_wo_entrp">   -727.52827609 </i>
    <i name="e_0_energy">   -727.53028700 </i>
   </energy>
  </scstep>
  <scstep>
   <time name="dav">   51.67   52.14</time>
   <time name="total">   55.30   55.79</time>
   <energy>
    <i name="e_fr_energy">   -727.53239177 </i>
    <i name="e_wo_entrp">   -727.52848573 </i>
    <i name="e_0_energy">   -727.53043875 </i>
   </energy>
  </scstep>
  <scstep>
   <time name="dav">   51.72   52.18</time>
   <time name="total">   55.35   55.83</time>
   <energy>
    <i name="e_fr_energy">   -727.53246994 </i>
    <i name="e_wo_entrp">   -727.52851686 </i>
    <i name="e_0_energy">   -727.53049340 </i>
   </energy>
  </scstep>
  <scstep>
   <time name="dav">   51.66   52.12</time>
   <time name="total">   55.29   55.78</time>
   <energy>
    <i name="e_fr_energy">   -727.53244322 </i>
    <i name="e_wo_entrp">   -727.52851900 </i>
    <i name="e_0_energy">   -727.53048111 </i>
   </energy>
  </scstep>
  <scstep>
   <time name="dav">   52.88   53.35</time>
   <time name="total">   56.50   56.99</time>
   <energy>
    <i name="e_fr_energy">   -727.53244288 </i>
    <i name="e_wo_entrp">   -727.52850783 </i>
    <i name="e_0_energy">   -727.53047536 </i>
   </energy>
  </scstep>
  <scstep>
   <time name="dav">   52.09   52.53</time>
   <time name="total">   55.69   56.17</time>
   <energy>
    <i name="e_fr_energy">   -727.53244357 </i>
    <i name="e_wo_entrp">   -727.52851250 </i>
    <i name="e_0_energy">   -727.53047803 </i>
   </energy>
  </scstep>
  <scstep>
   <time name="dav">   50.35   50.78</time>
   <time name="total">   53.92   54.38</time>
   <energy>
    <i name="e_fr_energy">   -727.53244291 </i>
    <i name="e_wo_entrp">   -727.52851349 </i>
    <i name="e_0_energy">   -727.53047820 </i>
   </energy>
  </scstep>
  <scstep>
   <time name="dav">   52.26   52.71</time>
   <time name="total">   55.84   56.32</time>
   <energy>
    <i name="e_fr_energy">   -727.53244271 </i>
    <i name="e_wo_entrp">   -727.52851310 </i>
    <i name="e_0_energy">   -727.53047791 </i>
   </energy>
  </scstep>
  <scstep>
   <time name="dav">   35.45   35.77</time>
   <time name="total">   36.94   37.26</time>
   <energy>
    <i name="alphaZ">    542.01865616 </i>
    <i name="ewald"> -15546.41656558 </i>
    <i name="hartreedc">  -2469.32352448 </i>
    <i name="XCdc">  -1354.42296281 </i>
    <i name="pawpsdc">  49604.07515198 </i>
    <i name="pawaedc"> -47024.35515279 </i>
    <i name="eentropy">     -0.00392879 </i>
    <i name="bandstr">   -650.10314602 </i>
    <i name="atom">  16170.99902962 </i>
    <i name="e_fr_energy">   -727.53244272 </i>
    <i name="e_wo_entrp">   -727.52851392 </i>
    <i name="e_0_energy">   -727.53047832 </i>
   </energy>
  </scstep>
  <structure>
   <crystal>
    <varray name="basis" >
     <v>      16.29300118       0.00000000       0.00000000 </v>
     <v>       0.00000000      16.29300118       0.00000000 </v>
     <v>       0.00000000       0.00000000      13.88852978 </v>
    </varray>
    <i name="volume">   3686.87532653 </i>
    <varray name="rec_basis" >
     <v>       0.06137605       0.00000000       0.00000000 </v>
     <v>       0.00000000       0.06137605       0.00000000 </v>
     <v>       0.00000000       0.00000000       0.07200186 </v>
    </varray>
   </crystal>
   <varray name="positions" >
    <v>       0.00000000       0.99406773       0.00000000 </v>
    <v>       0.00000000       0.82740104       0.19552107 </v>
    <v>       0.00000000       0.66073430       0.39104217 </v>
    <v>       0.33333334       0.99406773       0.00000000 </v>
    <v>       0.33333334       0.82740104       0.19552107 </v>
    <v>       0.33333334       0.66073430       0.39104217 </v>
    <v>       0.66666669       0.99406773       0.00000000 </v>
    <v>       0.66666669       0.82740104       0.19552107 </v>
    <v>       0.66666669       0.66073430       0.39104217 </v>
    <v>       0.00000000       0.32740104       0.00000000 </v>
    <v>       0.00000000       0.16073437       0.19552107 </v>
    <v>       0.00000000       0.99406767       0.39104217 </v>
    <v>       0.33333334       0.32740104       0.00000000 </v>
    <v>       0.33333334       0.16073437       0.19552107 </v>
    <v>       0.33333334       0.99406767       0.39104217 </v>
    <v>       0.66666669       0.32740104       0.00000000 </v>
    <v>       0.66666669       0.16073437       0.19552107 </v>
    <v>       0.66666669       0.99406767       0.39104217 </v>
    <v>       0.00000000       0.66073442       0.00000000 </v>
    <v>       0.00000000       0.49406770       0.19552107 </v>
    <v>       0.00000000       0.32740104       0.39104217 </v>
    <v>       0.33333334       0.66073442       0.00000000 </v>
    <v>       0.33333334       0.49406770       0.19552107 </v>
    <v>       0.33333334       0.32740104       0.39104217 </v>
    <v>       0.66666669       0.66073442       0.00000000 </v>
    <v>       0.66666669       0.49406770       0.19552107 </v>
    <v>       0.66666669       0.32740104       0.39104217 </v>
    <v>       0.08333334       0.07740105       0.09776054 </v>
    <v>       0.08333334       0.91073436       0.29328156 </v>
    <v>       0.08333334       0.74406767       0.48880270 </v>
    <v>       0.41666669       0.07740105       0.09776054 </v>
    <v>       0.41666669       0.91073436       0.29328156 </v>
    <v>       0.41666669       0.74406767       0.48880270 </v>
    <v>       0.75000000       0.07740105       0.09776054 </v>
    <v>       0.75000000       0.91073436       0.29328156 </v>
    <v>       0.75000000       0.74406767       0.48880270 </v>
    <v>       0.08333334       0.41073436       0.09776054 </v>
    <v>       0.08333334       0.24406767       0.29328156 </v>
    <v>       0.08333334       0.07740098       0.48880270 </v>
    <v>       0.41666669       0.41073436       0.09776054 </v>
    <v>       0.41666669       0.24406767       0.29328156 </v>
    <v>       0.41666669       0.07740098       0.48880270 </v>
    <v>       0.75000000       0.41073436       0.09776054 </v>
    <v>       0.75000000       0.24406767       0.29328156 </v>
    <v>       0.75000000       0.07740098       0.48880270 </v>
    <v>       0.08333334       0.74406773       0.09776054 </v>
    <v>       0.08333334       0.57740104       0.29328156 </v>
    <v>       0.08333334       0.41073436       0.48880270 </v>
    <v>       0.41666669       0.74406773       0.09776054 </v>
    <v>       0.41666669       0.57740104       0.29328156 </v>
    <v>       0.41666669       0.41073436       0.48880270 </v>
    <v>       0.75000000       0.74406773       0.09776054 </v>
    <v>       0.75000000       0.57740104       0.29328156 </v>
    <v>       0.75000000       0.41073436       0.48880270 </v>
    <v>       0.16666667       0.16073438       0.00000000 </v>
    <v>       0.16666667       0.99406767       0.19552107 </v>
    <v>       0.16666667       0.82740098       0.39104217 </v>
    <v>       0.50000000       0.16073438       0.00000000 </v>
    <v>       0.50000000       0.99406767       0.19552107 </v>
    <v>       0.50000000       0.82740098       0.39104217 </v>
    <v>       0.83333337       0.16073438       0.00000000 </v>
    <v>       0.83333337       0.99406767       0.19552107 </v>
    <v>       0.83333337       0.82740098       0.39104217 </v>
    <v>       0.16666667       0.49406770       0.00000000 </v>
    <v>       0.16666667       0.32740104       0.19552107 </v>
    <v>       0.16666667       0.16073431       0.39104217 </v>
    <v>       0.50000000       0.49406770       0.00000000 </v>
    <v>       0.50000000       0.32740104       0.19552107 </v>
    <v>       0.50000000       0.16073431       0.39104217 </v>
    <v>       0.83333337       0.49406770       0.00000000 </v>
    <v>       0.83333337       0.32740104       0.19552107 </v>
    <v>       0.83333337       0.16073431       0.39104217 </v>
    <v>       0.16666667       0.82740104       0.00000000 </v>
    <v>       0.16666667       0.66073436       0.19552107 </v>
    <v>       0.16666667       0.49406764       0.39104217 </v>
    <v>       0.50000000       0.82740104       0.00000000 </v>
    <v>       0.50000000       0.66073436       0.19552107 </v>
    <v>       0.50000000       0.49406764       0.39104217 </v>
    <v>       0.83333337       0.82740104       0.00000000 </v>
    <v>       0.83333337       0.66073436       0.19552107 </v>
    <v>       0.83333337       0.49406764       0.39104217 </v>
    <v>       0.25000000       0.24406771       0.09776054 </v>
    <v>       0.25000000       0.07740103       0.29328156 </v>
    <v>       0.25000000       0.91073436       0.48880270 </v>
    <v>       0.58333337       0.24406771       0.09776054 </v>
    <v>       0.58333337       0.07740103       0.29328156 </v>
    <v>       0.58333337       0.91073436       0.48880270 </v>
    <v>       0.91666669       0.24406771       0.09776054 </v>
    <v>       0.91666669       0.07740103       0.29328156 </v>
    <v>       0.91666669       0.91073436       0.48880270 </v>
    <v>       0.25000000       0.57740116       0.09776054 </v>
    <v>       0.25000000       0.41073445       0.29328156 </v>
    <v>       0.25000000       0.24406774       0.48880270 </v>
    <v>       0.58333337       0.57740116       0.09776054 </v>
    <v>       0.58333337       0.41073445       0.29328156 </v>
    <v>       0.58333337       0.24406774       0.48880270 </v>
    <v>       0.91666669       0.57740116       0.09776054 </v>
    <v>       0.91666669       0.41073445       0.29328156 </v>
    <v>       0.91666669       0.24406774       0.48880270 </v>
    <v>       0.25000000       0.91073436       0.09776054 </v>
    <v>       0.25000000       0.74406767       0.29328156 </v>
    <v>       0.25000000       0.57740104       0.48880270 </v>
    <v>       0.58333337       0.91073436       0.09776054 </v>
    <v>       0.58333337       0.74406767       0.29328156 </v>
    <v>       0.58333337       0.57740104       0.48880270 </v>
    <v>       0.91666669       0.91073436       0.09776054 </v>
    <v>       0.91666669       0.74406767       0.29328156 </v>
    <v>       0.91666669       0.57740104       0.48880270 </v>
    <v>       0.08286381       0.49965751       0.62437797 </v>
    <v>       0.69397485       0.12465739       0.67238736 </v>
    <v>       0.30508590       0.74965751       0.72039670 </v>
    <v>       0.91619682       0.37465763       0.76840609 </v>
    <v>       0.52730799       0.99965757       0.81641537 </v>
    <v>       0.13841903       0.62465745       0.86442477 </v>
    <v>       0.08286381       0.99965739       0.62437797 </v>
    <v>       0.69397485       0.62465739       0.67238736 </v>
    <v>       0.30508590       0.24965739       0.72039676 </v>
    <v>       0.91619682       0.87465745       0.76840609 </v>
    <v>       0.52730799       0.49965763       0.81641537 </v>
    <v>       0.13841903       0.12465739       0.86442471 </v>
    <v>       0.83286369       0.62465745       0.62437797 </v>
    <v>       0.44397473       0.24965739       0.67238736 </v>
    <v>       0.05508578       0.87465751       0.72039670 </v>
    <v>       0.66619688       0.49965763       0.76840603 </v>
    <v>       0.27730793       0.12465763       0.81641543 </v>
    <v>       0.88841879       0.74965757       0.86442471 </v>
    <v>       0.83286375       0.12465739       0.62437797 </v>
    <v>       0.44397473       0.74965739       0.67238736 </v>
    <v>       0.05508578       0.37465739       0.72039670 </v>
    <v>       0.66619688       0.99965739       0.76840603 </v>
    <v>       0.27730793       0.62465751       0.81641543 </v>
    <v>       0.88841891       0.24965739       0.86442471 </v>
    <v>       0.83286375       0.87465751       0.62437803 </v>
    <v>       0.44397473       0.49965739       0.67238736 </v>
    <v>       0.05508578       0.12465751       0.72039670 </v>
    <v>       0.66619682       0.74965751       0.76840603 </v>
    <v>       0.27730799       0.37465763       0.81641543 </v>
    <v>       0.88841891       0.99965757       0.86442477 </v>
    <v>       0.83286375       0.37465739       0.62437797 </v>
    <v>       0.44397473       0.99965739       0.67238736 </v>
    <v>       0.05508578       0.62465739       0.72039670 </v>
    <v>       0.66619688       0.24965739       0.76840603 </v>
    <v>       0.27730799       0.87465751       0.81641543 </v>
    <v>       0.88841879       0.49965739       0.86442471 </v>
    <v>       0.08286381       0.74965745       0.62437797 </v>
    <v>       0.69397485       0.37465739       0.67238736 </v>
    <v>       0.30508590       0.99965757       0.72039676 </v>
    <v>       0.91619682       0.62465751       0.76840609 </v>
    <v>       0.52730823       0.24965763       0.81641543 </v>
    <v>       0.13841903       0.87465745       0.86442477 </v>
    <v>       0.08286381       0.24965739       0.62437797 </v>
    <v>       0.69397485       0.87465739       0.67238736 </v>
    <v>       0.30508590       0.49965751       0.72039676 </v>
    <v>       0.91619694       0.12465751       0.76840609 </v>
    <v>       0.52730811       0.74965757       0.81641537 </v>
    <v>       0.13841879       0.37465739       0.86442471 </v>
   </varray>
  </structure>
  <varray name="forces" >
   <v>      -0.45878231      -0.15856076      -0.83398106 </v>
   <v>      -0.02889032      -0.09341609       0.09516282 </v>
   <v>       0.05469974      -0.05690654       0.37650623 </v>
   <v>      -0.04163985      -0.18192046      -0.88096303 </v>
   <v>      -0.08898448       0.00001931      -0.01286723 </v>
   <v>      -0.08324752      -0.11997367       0.39246402 </v>
   <v>      -0.01847478       0.00548502      -0.83639032 </v>
   <v>       0.00933024      -0.00897383       0.05172797 </v>
   <v>      -0.15338960      -0.07490965       0.14248392 </v>
   <v>       0.11965187      -0.17651285      -0.75479302 </v>
   <v>      -0.08306592       0.02160785       0.19238383 </v>
   <v>       0.12808188       0.27133422       0.20756089 </v>
   <v>      -0.01593364       0.06709321      -0.86806107 </v>
   <v>      -0.06817305       0.02067636      -0.04699703 </v>
   <v>      -0.14221926       0.01435391       0.22468241 </v>
   <v>      -0.23573181      -0.15518036      -0.69444187 </v>
   <v>      -0.06409697       0.06053245       0.02334527 </v>
   <v>      -0.17212368      -0.27410045       0.27167533 </v>
   <v>       0.35754606       0.70089888      -1.09602434 </v>
   <v>       0.01800122      -0.09800962       0.13448534 </v>
   <v>      -0.23920835       0.12849361       0.26364191 </v>
   <v>      -0.34981541      -0.51692163      -0.76434224 </v>
   <v>      -0.08601311      -0.02267283       0.05367598 </v>
   <v>      -0.15736394       0.08926712       0.29380855 </v>
   <v>      -0.03275551       0.15941233      -0.59846813 </v>
   <v>       0.02993739       0.07791048      -0.01408979 </v>
   <v>       0.02400191      -0.22600547       0.24559686 </v>
   <v>      -0.07874204       0.22844911      -0.08812618 </v>
   <v>      -0.12685277      -0.16061407      -0.06562487 </v>
   <v>       0.06454298      -0.42891718     -10.79659948 </v>
   <v>      -0.11150045      -0.04376644      -0.31588983 </v>
   <v>      -0.04235249       0.02657016      -0.00837935 </v>
   <v>       0.24482501       0.23069399       0.44508935 </v>
   <v>      -0.40597518       0.03277162      -0.32180265 </v>
   <v>      -0.07582283      -0.02262779      -0.07541826 </v>
   <v>       0.32663139       0.18356309       0.78217793 </v>
   <v>      -0.34846799       0.41570291      -0.02950374 </v>
   <v>      -0.09836291      -0.09156617       0.08557018 </v>
   <v>      -0.59086317       0.22033062      -1.19067316 </v>
   <v>      -0.13148847       0.01241413      -0.53330341 </v>
   <v>      -0.09516824      -0.02728506       0.02833410 </v>
   <v>       0.00633205      -0.08630742       0.95988751 </v>
   <v>      -0.05527921      -0.29414826      -0.37199794 </v>
   <v>       0.01895950      -0.03768193      -0.14842322 </v>
   <v>      -0.09738997       0.11785666       0.03712659 </v>
   <v>      -0.19266433       0.07220871      -0.15911265 </v>
   <v>      -0.09737161      -0.07734807      -0.03254645 </v>
   <v>       0.40988346      -0.07246265      -0.52766052 </v>
   <v>       0.03253966       0.02857105      -0.47464535 </v>
   <v>      -0.03563332       0.00643984       0.00750785 </v>
   <v>       0.18198197       0.35590707       0.72242380 </v>
   <v>      -0.08826432      -0.00496399      -0.18151819 </v>
   <v>       0.03874670      -0.03413195      -0.06098661 </v>
   <v>      -0.27364722       0.52909153      -0.21084236 </v>
   <v>       0.66812424       1.40074513       5.29588183 </v>
   <v>      -0.13631329      -0.10247290       0.08531046 </v>
   <v>      -0.13952132       0.30518819       0.22690693 </v>
   <v>       0.36229419       0.36579279      -0.96440820 </v>
   <v>       0.07024596      -0.02771510       0.00578936 </v>
   <v>       0.10518487      -0.18042418       0.37233310 </v>
   <v>       0.45349581       0.38513655      -0.16324432 </v>
   <v>       0.04316682       0.04363323      -0.08741621 </v>
   <v>       0.19956674      -0.06363157      -0.01529179 </v>
   <v>      -0.45187280      -0.12643495      -1.05704975 </v>
   <v>      -0.00188341      -0.09501861       0.00934172 </v>
   <v>       0.37561938       0.07638850       0.37309300 </v>
   <v>       0.20855223       0.12936346      -0.54908291 </v>
   <v>       0.10043772      -0.08858326       0.04745734 </v>
   <v>       0.17875796      -0.07248399       0.24488171 </v>
   <v>      -1.60508290       0.23679523       3.65434914 </v>
   <v>       0.07359219       0.04087424       0.08988836 </v>
   <v>      -0.20016994       0.17959054      -0.06286085 </v>
   <v>       0.60950026      -1.90601357       3.67886503 </v>
   <v>      -0.10672892      -0.00893315       0.02265691 </v>
   <v>       0.19975742      -0.12573741      -0.07427848 </v>
   <v>       0.04763101      -0.20068890      -0.83357281 </v>
   <v>       0.02869093      -0.06568825       0.03675520 </v>
   <v>      -0.01168661      -0.11501060       0.26802702 </v>
   <v>      -0.56003684      -0.00517134       0.03383635 </v>
   <v>       0.09590254       0.09948064       0.08242922 </v>
   <v>      -0.05201350       0.10173941       0.15768537 </v>
   <v>       0.23064677       0.11519100      -0.48026292 </v>
   <v>       0.05888404      -0.01927178      -0.05179835 </v>
   <v>       0.22231444       0.03742238       0.82154252 </v>
   <v>       0.13137816      -0.01493177      -0.14875980 </v>
   <v>       0.12626614       0.07247189       0.00328832 </v>
   <v>       0.34720772       0.04198857       0.88499974 </v>
   <v>       0.03508007      -0.29392891       0.12711884 </v>
   <v>      -0.05195204      -0.05414383      -0.07354274 </v>
   <v>      -0.30147890      -0.31567283      -0.07990662 </v>
   <v>       0.35137863      -0.00605695      -0.25485779 </v>
   <v>       0.06474167       0.12566074      -0.09901343 </v>
   <v>      -0.10292489      -0.24358250       1.04379382 </v>
   <v>       0.07258669       0.07659050      -0.38851414 </v>
   <v>       0.09667800       0.07541545       0.00900311 </v>
   <v>      -0.16366303      -0.16491935       0.82730721 </v>
   <v>      -0.16116218      -0.06744666      -0.22357131 </v>
   <v>      -0.04156555       0.11100752      -0.05306160 </v>
   <v>      -0.16336604      -0.01525593       1.33523465 </v>
   <v>       0.11074298       0.17607218      -0.22292299 </v>
   <v>       0.08576668      -0.01036633       0.01617316 </v>
   <v>      -0.00537897      -0.39315799       0.63117198 </v>
   <v>       0.15105576       0.01856273      -0.34048998 </v>
   <v>       0.12784863       0.08234258      -0.07846279 </v>
   <v>       0.27682072       0.21828733       0.73709799 </v>
   <v>       0.42529849      -0.21400077      -0.23519614 </v>
   <v>       0.02408781       0.12915548      -0.10034030 </v>
   <v>      -0.03376810      -0.50572097       0.40558229 </v>
   <v>       0.04278840      -0.05055247      -0.29799943 </v>
   <v>      -1.15050966       0.27547968      -0.61937264 </v>
   <v>      -1.40502320       0.20467520       0.06881807 </v>
   <v>      -0.76916642       0.42715621       0.29012462 </v>
   <v>      -0.86740993       0.11621062       1.30190310 </v>
   <v>      -1.35400838      -0.39866791       2.05027522 </v>
   <v>       0.84888368      -0.07846361       0.63716266 </v>
   <v>      -1.54101718      -0.37424940      -0.42717190 </v>
   <v>      -1.06520871      -0.15786300      -0.61448378 </v>
   <v>      -0.41900645      -0.16972963       0.30886724 </v>
   <v>      -0.75883292      -0.14551252       1.60993163 </v>
   <v>      -1.60129023      -1.51054194      -4.55285449 </v>
   <v>       0.50552200       0.47906417      -1.65464870 </v>
   <v>       1.03931764       0.02524800      -1.33148966 </v>
   <v>       0.59524735      -0.50790048      -0.59659076 </v>
   <v>       1.21626195      -0.04009769       0.05232120 </v>
   <v>       1.21641122      -0.26879920       0.13199641 </v>
   <v>       0.27513420       0.02524416       0.98170647 </v>
   <v>       1.35596725       0.33420871      -0.76657520 </v>
   <v>       0.26709213       0.01672523      -1.67446591 </v>
   <v>       0.46752596       0.16541713      -0.17466177 </v>
   <v>       1.05422091       0.03998759       0.63244635 </v>
   <v>       1.58564288       0.49779195       0.91148979 </v>
   <v>      -0.27690491      -0.36859392       0.64934056 </v>
   <v>       0.99552435       0.03680224      -0.69337806 </v>
   <v>       0.86752093      -0.14638043      -1.58591595 </v>
   <v>       0.81267759      -0.31915987       0.03745223 </v>
   <v>       1.40474464      -0.23994630       0.23372621 </v>
   <v>       1.27964554      -0.46415130       0.95757605 </v>
   <v>       0.05666556       0.41781786       1.38057828 </v>
   <v>       1.08347033      -0.60090358      -0.99938669 </v>
   <v>       0.66755646       0.39639547      -2.02106727 </v>
   <v>       0.56823709       0.22800052      -0.55655447 </v>
   <v>       0.86195543       0.24028231       0.42826353 </v>
   <v>       1.28545788       0.40724886       0.02151579 </v>
   <v>       1.38711401      -0.28427937      -3.37152402 </v>
   <v>       0.25765352       0.39916876      10.50805074 </v>
   <v>      -1.20662159       0.13252533       0.02533121 </v>
   <v>      -1.13056020      -0.32193402      -0.07691598 </v>
   <v>      -0.79377845       0.08947160       0.76064369 </v>
   <v>      -1.00000136      -0.40829658       1.51752199 </v>
   <v>      -1.35201763       1.73097688      -2.52646509 </v>
   <v>       0.34354533       0.19872048      -1.41374122 </v>
   <v>      -1.57070384      -0.02719077      -0.96323896 </v>
   <v>      -1.43099125       0.15178316      -0.23665154 </v>
   <v>      -0.21676364      -0.03893737       0.33497303 </v>
   <v>      -0.71545335       0.07777441       1.80346045 </v>
   <v>      -0.78518636       0.13377283       1.58693627 </v>
  </varray>
  <varray name="stress" >
   <v>      15.30954460       9.85854683      -6.58153218 </v>
   <v>       9.85854690     -10.60589475       0.15351559 </v>
   <v>      -6.58153466       0.15351467      16.61752531 </v>
  </varray>
  <energy>
   <i name="e_fr_energy">   -727.53244272 </i>
   <i name="e_wo_entrp">   -727.52851392 </i>
   <i name="e_0_energy">   -727.53047832 </i>
  </energy>
  <time name="totalsc"> 1146.28 1157.22</time>
  <eigenvalues>
   <array>
    <dimension dim="1">band</dimension>
    <dimension dim="2">kpoint</dimension>
    <dimension dim="3">spin</dimension>
    <field>eigene</field>
    <field>occ</field>
    <set>
     <set comment="spin 1">
      <set comment="kpoint 1">
       <r>   -8.0564    1.0000 </r>
       <r>   -7.6982    1.0000 </r>
       <r>   -7.6403    1.0000 </r>
       <r>   -7.6144    1.0000 </r>
       <r>   -7.4745    1.0000 </r>
       <r>   -7.3091    1.0000 </r>
       <r>   -7.2144    1.0000 </r>
       <r>   -7.2096    1.0000 </r>
       <r>   -7.1813    1.0000 </r>
       <r>   -7.1369    1.0000 </r>
       <r>   -7.1025    1.0000 </r>
       <r>   -7.0613    1.0000 </r>
       <r>   -7.0501    1.0000 </r>
       <r>   -6.9291    1.0000 </r>
       <r>   -6.8702    1.0000 </r>
       <r>   -6.8663    1.0000 </r>
       <r>   -6.7645    1.0000 </r>
       <r>   -6.7289    1.0000 </r>
       <r>   -6.6869    1.0000 </r>
       <r>   -6.6773    1.0000 </r>
       <r>   -6.6253    1.0000 </r>
       <r>   -6.5887    1.0000 </r>
       <r>   -6.4701    1.0000 </r>
       <r>   -6.4421    1.0000 </r>
       <r>   -6.3887    1.0000 </r>
       <r>   -6.3146    1.0000 </r>
[...]
       <r>    -3.1898    37.3286   185.3899 </r>
       <r>    -3.1382    30.7317   186.9749 </r>
       <r>    -3.0866    14.5179   187.7236 </r>
       <r>    -3.0351    31.5283   189.3496 </r>
       <r>    -2.9835    54.1062   192.1401 </r>
       <r>    -2.9319    47.5527   194.5925 </r>
       <r>    -2.8803    35.2217   196.4090 </r>
       <r>    -2.8288    41.2852   198.5382 </r>
       <r>    -2.7772    47.7681   201.0018 </r>
       <r>    -2.7256    48.0065   203.4777 </r>
       <r>    -2.6740    46.9457   205.8988 </r>
       <r>    -2.6225    45.0668   208.2230 </r>
       <r>    -2.5709    76.5043   212.1686 </r>
       <r>    -2.5193    71.2105   215.8412 </r>
       <r>    -2.4678    68.7716   219.3880 </r>
       <r>    -2.4162    57.6849   222.3630 </r>
       <r>    -2.3646    58.5996   225.3851 </r>
       <r>    -2.3130    46.6189   227.7894 </r>
       <r>    -2.2615    40.7319   229.8901 </r>
       <r>    -2.2099    43.1727   232.1167 </r>
       <r>    -2.1583    50.8644   234.7399 </r>
       <r>    -2.1067    58.5062   237.7573 </r>
       <r>    -2.0552    51.8463   240.4312 </r>
       <r>    -2.0036    57.8412   243.4142 </r>
       <r>    -1.9520    24.1960   244.6621 </r>
       <r>    -1.9004    19.0374   245.6439 </r>
       <r>    -1.8489    40.7927   247.7477 </r>
       <r>    -1.7973    41.7063   249.8987 </r>
       <r>    -1.7457    43.7624   252.1556 </r>
       <r>    -1.6942    38.3522   254.1336 </r>
       <r>    -1.6426    52.7663   256.8549 </r>
       <r>    -1.5910    30.7064   258.4386 </r>
       <r>    -1.5394    37.7661   260.3863 </r>
       <r>    -1.4879    43.5081   262.6301 </r>
       <r>    -1.4363    29.6281   264.1582 </r>
       <r>    -1.3847    46.1293   266.5372 </r>
       <r>    -1.3331    37.6229   268.4775 </r>
       <r>    -1.2816    33.2603   270.1929 </r>
       <r>    -1.2300    43.9445   272.4593 </r>
       <r>    -1.1784    28.6171   273.9351 </r>
       <r>    -1.1269    20.5191   274.9934 </r>
       <r>    -1.0753    26.1938   276.3443 </r>
       <r>    -1.0237    12.0752   276.9670 </r>
       <r>    -0.9721    36.3012   278.8392 </r>
       <r>    -0.9206    33.3246   280.5579 </r>
       <r>    -0.8690    23.2874   281.7589 </r>
       <r>    -0.8174    26.8045   283.1413 </r>
       <r>    -0.7658    40.2213   285.2156 </r>
       <r>    -0.7143    27.6235   286.6402 </r>
       <r>    -0.6627    52.3548   289.3404 </r>
       <r>    -0.6111    40.1654   291.4118 </r>
       <r>    -0.5595    35.1967   293.2270 </r>
       <r>    -0.5080    17.0754   294.1077 </r>
       <r>    -0.4564    12.9885   294.7775 </r>
       <r>    -0.4048    22.7331   295.9500 </r>
       <r>    -0.3533    30.0524   297.4999 </r>
       <r>    -0.3017    27.3273   298.9092 </r>
       <r>    -0.2501    30.9866   300.5073 </r>
       <r>    -0.1985    23.1844   301.7030 </r>
       <r>    -0.1470    41.4370   303.8400 </r>
       <r>    -0.0954    37.7787   305.7884 </r>
       <r>    -0.0438    51.0449   308.4210 </r>
       <r>     0.0078    41.1733   310.5444 </r>
       <r>     0.0593    78.3599   314.5857 </r>
       <r>     0.1109    94.8382   319.4768 </r>
       <r>     0.1625    81.1173   323.6603 </r>
       <r>     0.2141    75.6960   327.5642 </r>
       <r>     0.2656    96.4719   332.5396 </r>
       <r>     0.3172    75.2948   336.4228 </r>
       <r>     0.3688    72.8684   340.1808 </r>
       <r>     0.4203   108.9726   345.8009 </r>
       <r>     0.4719    82.9779   350.0804 </r>
       <r>     0.5235    69.1168   353.6450 </r>
       <r>     0.5751    80.8053   357.8124 </r>
       <r>     0.6266    82.7296   362.0790 </r>
       <r>     0.6782    71.3061   365.7565 </r>
       <r>     0.7298    79.3162   369.8471 </r>
       <r>     0.7814    93.2523   374.6564 </r>
       <r>     0.8329    95.7882   379.5966 </r>
       <r>     0.8845    90.9184   384.2855 </r>
       <r>     0.9361    89.5272   388.9027 </r>
       <r>     0.9877    88.6617   393.4753 </r>
       <r>     1.0392   104.8188   398.8812 </r>
       <r>     1.0908   115.3294   404.8291 </r>
       <r>     1.1424    86.7132   409.3012 </r>
       <r>     1.1939    97.4666   414.3278 </r>
       <r>     1.2455    66.6179   417.7635 </r>
       <r>     1.2971    95.8935   422.7091 </r>
       <r>     1.3487    90.8662   427.3954 </r>
       <r>     1.4002   105.6426   432.8437 </r>
       <r>     1.4518    74.5288   436.6874 </r>
       <r>     1.5034    98.0700   441.7452 </r>
       <r>     1.5550   107.3601   447.2821 </r>
       <r>     1.6065    88.8144   451.8626 </r>
       <r>     1.6581    79.9630   455.9865 </r>
       <r>     1.7097    84.8290   460.3614 </r>
       <r>     1.7613    82.3491   464.6085 </r>
       <r>     1.8128    61.8230   467.7969 </r>
       <r>     1.8644    91.1109   472.4958 </r>
       <r>     1.9160    78.1876   476.5282 </r>
       <r>     1.9675   101.5280   481.7643 </r>
       <r>     2.0191    90.2746   486.4201 </r>
       <r>     2.0707    85.3078   490.8197 </r>
       <r>     2.1223    99.0840   495.9298 </r>
       <r>     2.1738    86.6809   500.4002 </r>
       <r>     2.2254    99.5569   505.5347 </r>
       <r>     2.2770    85.4170   509.9399 </r>
       <r>     2.3286    96.8877   514.9367 </r>
       <r>     2.3801    82.4360   519.1882 </r>
       <r>     2.4317    94.2436   524.0487 </r>
       <r>     2.4833    88.1494   528.5949 </r>
       <r>     2.5349    65.8018   531.9885 </r>
       <r>     2.5864   126.4457   538.5097 </r>
       <r>     2.6380    74.8446   542.3697 </r>
       <r>     2.6896    94.7684   547.2572 </r>
       <r>     2.7411    81.4327   551.4570 </r>
       <r>     2.7927    70.8369   555.1103 </r>
       <r>     2.8443    62.3651   558.3266 </r>
       <r>     2.8959    76.7800   562.2864 </r>
       <r>     2.9474    68.3088   565.8093 </r>
       <r>     2.9990    57.1736   568.7580 </r>
       <r>     3.0506    61.7410   571.9422 </r>
       <r>     3.1022    63.3643   575.2101 </r>
       <r>     3.1537    75.5180   579.1048 </r>
       <r>     3.2053    65.5089   582.4833 </r>
       <r>     3.2569    51.7646   585.1530 </r>
       <r>     3.3085    62.5546   588.3791 </r>
       <r>     3.3600    38.6811   590.3740 </r>
       <r>     3.4116    50.1684   592.9614 </r>
       <r>     3.4632    43.5844   595.2092 </r>
       <r>     3.5147    48.6726   597.7194 </r>
       <r>     3.5663    49.1371   600.2535 </r>
       <r>     3.6179    52.0806   602.9395 </r>
       <r>     3.6695    48.4132   605.4363 </r>
       <r>     3.7210    62.1498   608.6416 </r>
       <r>     3.7726    54.5639   611.4557 </r>
       <r>     3.8242    51.9754   614.1362 </r>
       <r>     3.8758    66.8122   617.5819 </r>
       <r>     3.9273    48.0268   620.0588 </r>
       <r>     3.9789    69.9073   623.6642 </r>
       <r>     4.0305    62.3720   626.8809 </r>
       <r>     4.0820    51.3797   629.5307 </r>
       <r>     4.1336    50.5034   632.1354 </r>
       <r>     4.1852    73.9495   635.9492 </r>
       <r>     4.2368    57.7150   638.9257 </r>
       <r>     4.2883    64.6364   642.2593 </r>
       <r>     4.3399    60.7942   645.3946 </r>
       <r>     4.3915    58.9665   648.4357 </r>
       <r>     4.4431    61.3536   651.5999 </r>
       <r>     4.4946    51.9668   654.2800 </r>
       <r>     4.5462    53.7399   657.0516 </r>
       <r>     4.5978    58.8274   660.0855 </r>
       <r>     4.6494    49.2558   662.6258 </r>
       <r>     4.7009    64.3810   665.9461 </r>
       <r>     4.7525    48.6725   668.4563 </r>
       <r>     4.8041    42.6734   670.6571 </r>
       <r>     4.8556    79.1720   674.7403 </r>
       <r>     4.9072    55.4065   677.5978 </r>
       <r>     4.9588    56.9713   680.5360 </r>
       <r>     5.0104    69.1784   684.1037 </r>
       <r>     5.0619    54.8904   686.9346 </r>
       <r>     5.1135    71.8272   690.6390 </r>
       <r>     5.1651    53.0931   693.3772 </r>
       <r>     5.2167    75.9765   697.2955 </r>
       <r>     5.2682    66.8437   700.7429 </r>
       <r>     5.3198    83.2113   705.0344 </r>
       <r>     5.3714    67.2046   708.5003 </r>
       <r>     5.4230    63.0808   711.7536 </r>
       <r>     5.4745    76.6608   715.7073 </r>
       <r>     5.5261    89.2351   720.3094 </r>
       <r>     5.5777    70.1216   723.9258 </r>
       <r>     5.6292    68.2841   727.4475 </r>
       <r>     5.6808    68.5499   730.9828 </r>
       <r>     5.7324    68.7770   734.5299 </r>
       <r>     5.7840    67.5403   738.0131 </r>
       <r>     5.8355    90.0675   742.6582 </r>
       <r>     5.8871    75.8582   746.5705 </r>
       <r>     5.9387    66.2593   749.9877 </r>
       <r>     5.9903    32.1355   751.6450 </r>
       <r>     6.0418     6.8827   752.0000 </r>
       <r>     6.0934     0.0000   752.0000 </r>
       <r>     6.1450     0.0000   752.0000 </r>
       <r>     6.1966     0.0000   752.0000 </r>
       <r>     6.2481     0.0000   752.0000 </r>
       <r>     6.2997     0.0000   752.0000 </r>
       <r>     6.3513     0.0000   752.0000 </r>
       <r>     6.4028     0.0000   752.0000 </r>
       <r>     6.4544     0.0000   752.0000 </r>
       <r>     6.5060     0.0000   752.0000 </r>
       <r>     6.5576     0.0000   752.0000 </r>
       <r>     6.6091     0.0000   752.0000 </r>
       <r>     6.6607     0.0000   752.0000 </r>
       <r>     6.7123     0.0000   752.0000 </r>
      </set>
     </set>
    </array>
   </total>
  </dos>
 </calculation>
 <structure name="finalpos" >
  <crystal>
   <varray name="basis" >
    <v>      16.29300118       0.00000000       0.00000000 </v>
    <v>       0.00000000      16.29300118       0.00000000 </v>
    <v>       0.00000000       0.00000000      13.88852978 </v>
   </varray>
   <i name="volume">   3686.87532653 </i>
   <varray name="rec_basis" >
    <v>       0.06137605       0.00000000       0.00000000 </v>
    <v>       0.00000000       0.06137605       0.00000000 </v>
    <v>       0.00000000       0.00000000       0.07200186 </v>
   </varray>
  </crystal>
  <varray name="positions" >
   <v>       0.00000000       0.99406773       0.00000000 </v>
   <v>       0.00000000       0.82740104       0.19552107 </v>
   <v>       0.00000000       0.66073430       0.39104217 </v>
   <v>       0.33333334       0.99406773       0.00000000 </v>
   <v>       0.33333334       0.82740104       0.19552107 </v>
   <v>       0.33333334       0.66073430       0.39104217 </v>
   <v>       0.66666669       0.99406773       0.00000000 </v>
   <v>       0.66666669       0.82740104       0.19552107 </v>
   <v>       0.66666669       0.66073430       0.39104217 </v>
   <v>       0.00000000       0.32740104       0.00000000 </v>
   <v>       0.00000000       0.16073437       0.19552107 </v>
   <v>       0.00000000       0.99406767       0.39104217 </v>
   <v>       0.33333334       0.32740104       0.00000000 </v>
   <v>       0.33333334       0.16073437       0.19552107 </v>
   <v>       0.33333334       0.99406767       0.39104217 </v>
   <v>       0.66666669       0.32740104       0.00000000 </v>
   <v>       0.66666669       0.16073437       0.19552107 </v>
   <v>       0.66666669       0.99406767       0.39104217 </v>
   <v>       0.00000000       0.66073442       0.00000000 </v>
   <v>       0.00000000       0.49406770       0.19552107 </v>
   <v>       0.00000000       0.32740104       0.39104217 </v>
   <v>       0.33333334       0.66073442       0.00000000 </v>
   <v>       0.33333334       0.49406770       0.19552107 </v>
   <v>       0.33333334       0.32740104       0.39104217 </v>
   <v>       0.66666669       0.66073442       0.00000000 </v>
   <v>       0.66666669       0.49406770       0.19552107 </v>
   <v>       0.66666669       0.32740104       0.39104217 </v>
   <v>       0.08333334       0.07740105       0.09776054 </v>
   <v>       0.08333334       0.91073436       0.29328156 </v>
   <v>       0.08333334       0.74406767       0.48880270 </v>
   <v>       0.41666669       0.07740105       0.09776054 </v>
   <v>       0.41666669       0.91073436       0.29328156 </v>
   <v>       0.41666669       0.74406767       0.48880270 </v>
   <v>       0.75000000       0.07740105       0.09776054 </v>
   <v>       0.75000000       0.91073436       0.29328156 </v>
   <v>       0.75000000       0.74406767       0.48880270 </v>
   <v>       0.08333334       0.41073436       0.09776054 </v>
   <v>       0.08333334       0.24406767       0.29328156 </v>
   <v>       0.08333334       0.07740098       0.48880270 </v>
   <v>       0.41666669       0.41073436       0.09776054 </v>
   <v>       0.41666669       0.24406767       0.29328156 </v>
   <v>       0.41666669       0.07740098       0.48880270 </v>
   <v>       0.75000000       0.41073436       0.09776054 </v>
   <v>       0.75000000       0.24406767       0.29328156 </v>
   <v>       0.75000000       0.07740098       0.48880270 </v>
   <v>       0.08333334       0.74406773       0.09776054 </v>
   <v>       0.08333334       0.57740104       0.29328156 </v>
   <v>       0.08333334       0.41073436       0.48880270 </v>
   <v>       0.41666669       0.74406773       0.09776054 </v>
   <v>       0.41666669       0.57740104       0.29328156 </v>
   <v>       0.41666669       0.41073436       0.48880270 </v>
   <v>       0.75000000       0.74406773       0.09776054 </v>
   <v>       0.75000000       0.57740104       0.29328156 </v>
   <v>       0.75000000       0.41073436       0.48880270 </v>
   <v>       0.16666667       0.16073438       0.00000000 </v>
   <v>       0.16666667       0.99406767       0.19552107 </v>
   <v>       0.16666667       0.82740098       0.39104217 </v>
   <v>       0.50000000       0.16073438       0.00000000 </v>
   <v>       0.50000000       0.99406767       0.19552107 </v>
   <v>       0.50000000       0.82740098       0.39104217 </v>
   <v>       0.83333337       0.16073438       0.00000000 </v>
   <v>       0.83333337       0.99406767       0.19552107 </v>
   <v>       0.83333337       0.82740098       0.39104217 </v>
   <v>       0.16666667       0.49406770       0.00000000 </v>
   <v>       0.16666667       0.32740104       0.19552107 </v>
   <v>       0.16666667       0.16073431       0.39104217 </v>
   <v>       0.50000000       0.49406770       0.00000000 </v>
   <v>       0.50000000       0.32740104       0.19552107 </v>
   <v>       0.50000000       0.16073431       0.39104217 </v>
   <v>       0.83333337       0.49406770       0.00000000 </v>
   <v>       0.83333337       0.32740104       0.19552107 </v>
   <v>       0.83333337       0.16073431       0.39104217 </v>
   <v>       0.16666667       0.82740104       0.00000000 </v>
   <v>       0.16666667       0.66073436       0.19552107 </v>
   <v>       0.16666667       0.49406764       0.39104217 </v>
   <v>       0.50000000       0.82740104       0.00000000 </v>
   <v>       0.50000000       0.66073436       0.19552107 </v>
   <v>       0.50000000       0.49406764       0.39104217 </v>
   <v>       0.83333337       0.82740104       0.00000000 </v>
   <v>       0.83333337       0.66073436       0.19552107 </v>
   <v>       0.83333337       0.49406764       0.39104217 </v>
   <v>       0.25000000       0.24406771       0.09776054 </v>
   <v>       0.25000000       0.07740103       0.29328156 </v>
   <v>       0.25000000       0.91073436       0.48880270 </v>
   <v>       0.58333337       0.24406771       0.09776054 </v>
   <v>       0.58333337       0.07740103       0.29328156 </v>
   <v>       0.58333337       0.91073436       0.48880270 </v>
   <v>       0.91666669       0.24406771       0.09776054 </v>
   <v>       0.91666669       0.07740103       0.29328156 </v>
   <v>       0.91666669       0.91073436       0.48880270 </v>
   <v>       0.25000000       0.57740116       0.09776054 </v>
   <v>       0.25000000       0.41073445       0.29328156 </v>
   <v>       0.25000000       0.24406774       0.48880270 </v>
   <v>       0.58333337       0.57740116       0.09776054 </v>
   <v>       0.58333337       0.41073445       0.29328156 </v>
   <v>       0.58333337       0.24406774       0.48880270 </v>
   <v>       0.91666669       0.57740116       0.09776054 </v>
   <v>       0.91666669       0.41073445       0.29328156 </v>
   <v>       0.91666669       0.24406774       0.48880270 </v>
   <v>       0.25000000       0.91073436       0.09776054 </v>
   <v>       0.25000000       0.74406767       0.29328156 </v>
   <v>       0.25000000       0.57740104       0.48880270 </v>
   <v>       0.58333337       0.91073436       0.09776054 </v>
   <v>       0.58333337       0.74406767       0.29328156 </v>
   <v>       0.58333337       0.57740104       0.48880270 </v>
   <v>       0.91666669       0.91073436       0.09776054 </v>
   <v>       0.91666669       0.74406767       0.29328156 </v>
   <v>       0.91666669       0.57740104       0.48880270 </v>
   <v>       0.08286381       0.49965751       0.62437797 </v>
   <v>       0.69397485       0.12465739       0.67238736 </v>
   <v>       0.30508590       0.74965751       0.72039670 </v>
   <v>       0.91619682       0.37465763       0.76840609 </v>
   <v>       0.52730799       0.99965757       0.81641537 </v>
   <v>       0.13841903       0.62465745       0.86442477 </v>
   <v>       0.08286381       0.99965739       0.62437797 </v>
   <v>       0.69397485       0.62465739       0.67238736 </v>
   <v>       0.30508590       0.24965739       0.72039676 </v>
   <v>       0.91619682       0.87465745       0.76840609 </v>
   <v>       0.52730799       0.49965763       0.81641537 </v>
   <v>       0.13841903       0.12465739       0.86442471 </v>
   <v>       0.83286369       0.62465745       0.62437797 </v>
   <v>       0.44397473       0.24965739       0.67238736 </v>
   <v>       0.05508578       0.87465751       0.72039670 </v>
   <v>       0.66619688       0.49965763       0.76840603 </v>
   <v>       0.27730793       0.12465763       0.81641543 </v>
   <v>       0.88841879       0.74965757       0.86442471 </v>
   <v>       0.83286375       0.12465739       0.62437797 </v>
   <v>       0.44397473       0.74965739       0.67238736 </v>
   <v>       0.05508578       0.37465739       0.72039670 </v>
   <v>       0.66619688       0.99965739       0.76840603 </v>
   <v>       0.27730793       0.62465751       0.81641543 </v>
   <v>       0.88841891       0.24965739       0.86442471 </v>
   <v>       0.83286375       0.87465751       0.62437803 </v>
   <v>       0.44397473       0.49965739       0.67238736 </v>
   <v>       0.05508578       0.12465751       0.72039670 </v>
   <v>       0.66619682       0.74965751       0.76840603 </v>
   <v>       0.27730799       0.37465763       0.81641543 </v>
   <v>       0.88841891       0.99965757       0.86442477 </v>
   <v>       0.83286375       0.37465739       0.62437797 </v>
   <v>       0.44397473       0.99965739       0.67238736 </v>
   <v>       0.05508578       0.62465739       0.72039670 </v>
   <v>       0.66619688       0.24965739       0.76840603 </v>
   <v>       0.27730799       0.87465751       0.81641543 </v>
   <v>       0.88841879       0.49965739       0.86442471 </v>
   <v>       0.08286381       0.74965745       0.62437797 </v>
   <v>       0.69397485       0.37465739       0.67238736 </v>
   <v>       0.30508590       0.99965757       0.72039676 </v>
   <v>       0.91619682       0.62465751       0.76840609 </v>
   <v>       0.52730823       0.24965763       0.81641543 </v>
   <v>       0.13841903       0.87465745       0.86442477 </v>
   <v>       0.08286381       0.24965739       0.62437797 </v>
   <v>       0.69397485       0.87465739       0.67238736 </v>
   <v>       0.30508590       0.49965751       0.72039676 </v>
   <v>       0.91619694       0.12465751       0.76840609 </v>
   <v>       0.52730811       0.74965757       0.81641537 </v>
   <v>       0.13841879       0.37465739       0.86442471 </v>
  </varray>
 </structure>
</modeling>
