 264 264   0   0
  0.2139018E+02  0.1946760E-08  0.1946760E-08  0.1490025E-08  0.5000000E-15
  1.000000000000000E-004
  CAR 
 Si and Ge interface calculation         
      9.29572924     -9.20902515  301      6.51527960      1.00000000
     -9.209  0.0000E+00  0.0000E+00  0.0000E+00  0.0000E+00
     -9.147  0.0000E+00  0.0000E+00  0.0000E+00  0.0000E+00
     -9.086  0.0000E+00  0.0000E+00  0.0000E+00  0.0000E+00
     -9.024  0.0000E+00  0.0000E+00  0.0000E+00  0.0000E+00
     -8.962  0.0000E+00  0.0000E+00  0.0000E+00  0.0000E+00
     -8.901  0.0000E+00  0.0000E+00  0.0000E+00  0.0000E+00
     -8.839  0.0000E+00  0.0000E+00  0.0000E+00  0.0000E+00
     -8.777  0.0000E+00  0.0000E+00  0.0000E+00  0.0000E+00
     -8.716  0.0000E+00  0.0000E+00  0.0000E+00  0.0000E+00
     -8.654  0.0000E+00  0.0000E+00  0.0000E+00  0.0000E+00
     -8.592  0.0000E+00  0.0000E+00  0.0000E+00  0.0000E+00
     -8.531  0.0000E+00  0.0000E+00  0.0000E+00  0.0000E+00
     -8.469  0.0000E+00  0.0000E+00  0.0000E+00  0.0000E+00
     -8.407  0.1297E-06  0.8575E-10  0.7999E-08  0.5289E-11
     -8.345  0.3231E+02  0.3049E+02  0.1993E+01  0.1881E+01
     -8.284  0.1859E+00  0.1960E+01  0.2008E+01  0.2002E+01
     -8.222  0.3229E+02  0.3240E+02  0.4000E+01  0.4000E+01
     -8.160  0.1603E+02  0.2891E+02  0.4989E+01  0.5783E+01
     -8.099  0.1640E+02  0.3518E+01  0.6000E+01  0.6000E+01
     -8.037  0.1589E+02  0.1419E+02  0.6980E+01  0.6876E+01
     -7.975  0.1653E+02  0.1823E+02  0.8000E+01  0.8000E+01
     -7.914  0.4293E+02  0.3171E+02  0.1065E+02  0.9956E+01
     -7.852  0.2186E+02  0.3312E+02  0.1200E+02  0.1200E+02
     -7.790  0.6016E+01  0.4167E+01  0.1237E+02  0.1226E+02
     -7.729  0.2641E+02  0.2826E+02  0.1400E+02  0.1400E+02
     -7.667  0.3257E-03  0.4686E-03  0.1400E+02  0.1400E+02
     -7.605  0.4430E+02  0.4205E+02  0.1673E+02  0.1659E+02
     -7.544  0.4685E+02  0.4655E+02  0.1962E+02  0.1947E+02
     -7.482  0.6172E+01  0.8650E+01  0.2000E+02  0.2000E+02
     -7.420  0.2978E+02  0.2668E+02  0.2184E+02  0.2165E+02
     -7.359  0.3501E+02  0.3814E+02  0.2400E+02  0.2400E+02
     -7.297  0.3239E+02  0.3237E+02  0.2600E+02  0.2600E+02
     -7.235  0.2491E-01  0.2617E-01  0.2600E+02  0.2600E+02
     -7.174  0.4308E+02  0.3637E+02  0.2866E+02  0.2824E+02
     -7.112  0.4537E+02  0.4912E+02  0.3146E+02  0.3127E+02
     -7.050  0.8794E+01  0.1178E+02  0.3200E+02  0.3200E+02
     -6.988  0.6146E+02  0.5980E+02  0.3579E+02  0.3569E+02
     -6.927  0.3365E+01  0.5002E+01  0.3600E+02  0.3600E+02
     -6.865  0.0000E+00  0.0000E+00  0.3600E+02  0.3600E+02
     -6.803  0.1246E-08  0.1973E-09  0.3600E+02  0.3600E+02
     -6.742  0.3183E+02  0.3143E+02  0.3796E+02  0.3794E+02
     -6.680  0.3302E+02  0.3342E+02  0.4000E+02  0.4000E+02
     -6.618  0.4864E-04  0.3499E-03  0.4000E+02  0.4000E+02
     -6.557  0.3239E+02  0.3242E+02  0.4200E+02  0.4200E+02
     -6.495  0.0000E+00  0.0000E+00  0.4200E+02  0.4200E+02
     -6.433  0.0000E+00  0.0000E+00  0.4200E+02  0.4200E+02
     -6.372  0.2012E-07  0.5895E-12  0.4200E+02  0.4200E+02
     -6.310  0.2719E+02  0.1596E+02  0.4368E+02  0.4298E+02
     -6.248  0.3751E+02  0.4791E+02  0.4599E+02  0.4594E+02
     -6.187  0.3269E+02  0.3340E+02  0.4801E+02  0.4800E+02
     -6.125  0.3212E+02  0.2961E+02  0.4999E+02  0.4983E+02
     -6.063  0.2917E+00  0.3610E+01  0.5001E+02  0.5005E+02
     -6.002  0.3192E+02  0.3157E+02  0.5198E+02  0.5200E+02
     -5.940  0.3269E+02  0.2814E+02  0.5399E+02  0.5374E+02
     -5.878  0.8276E-01  0.4255E+01  0.5400E+02  0.5400E+02
     -5.816  0.2983E+02  0.2121E+02  0.5584E+02  0.5531E+02
     -5.755  0.3627E+02  0.4375E+02  0.5808E+02  0.5801E+02
     -5.693  0.4557E+02  0.4180E+02  0.6089E+02  0.6059E+02
     -5.631  0.1814E+02  0.2294E+02  0.6201E+02  0.6200E+02
     -5.570  0.2877E+02  0.2653E+02  0.6378E+02  0.6364E+02
     -5.508  0.3171E+02  0.2524E+02  0.6574E+02  0.6520E+02
     -5.446  0.4217E+01  0.1302E+02  0.6600E+02  0.6600E+02
     -5.385  0.3211E+02  0.2468E+02  0.6798E+02  0.6752E+02
     -5.323  0.1884E+02  0.1918E+02  0.6914E+02  0.6871E+02
     -5.261  0.4629E+02  0.5229E+02  0.7200E+02  0.7193E+02
     -5.200  0.1980E-01  0.1104E+01  0.7200E+02  0.7200E+02
     -5.138  0.1656E+02  0.1493E+02  0.7302E+02  0.7292E+02
     -5.076  0.2371E+02  0.2074E+02  0.7448E+02  0.7420E+02
     -5.015  0.2566E+02  0.2623E+02  0.7607E+02  0.7582E+02
     -4.953  0.2364E+02  0.2728E+02  0.7753E+02  0.7750E+02
     -4.891  0.5542E+02  0.5307E+02  0.8094E+02  0.8078E+02
     -4.830  0.4529E+02  0.4605E+02  0.8374E+02  0.8362E+02
     -4.768  0.4246E+02  0.4203E+02  0.8636E+02  0.8621E+02
     -4.706  0.3219E+02  0.3475E+02  0.8834E+02  0.8836E+02
     -4.645  0.4399E+02  0.4191E+02  0.9106E+02  0.9094E+02
     -4.583  0.5704E+02  0.5704E+02  0.9458E+02  0.9446E+02
     -4.521  0.3402E+02  0.3025E+02  0.9667E+02  0.9633E+02
     -4.459  0.3014E+02  0.3357E+02  0.9853E+02  0.9840E+02
     -4.398  0.5206E+02  0.5162E+02  0.1017E+03  0.1016E+03
     -4.336  0.5468E+02  0.5283E+02  0.1051E+03  0.1048E+03
     -4.274  0.5246E+02  0.5189E+02  0.1084E+03  0.1080E+03
     -4.213  0.5522E+02  0.5405E+02  0.1118E+03  0.1114E+03
     -4.151  0.6449E+02  0.6328E+02  0.1157E+03  0.1153E+03
     -4.089  0.5402E+02  0.5610E+02  0.1191E+03  0.1187E+03
     -4.028  0.6858E+02  0.6811E+02  0.1233E+03  0.1229E+03
     -3.966  0.3269E+02  0.3278E+02  0.1253E+03  0.1250E+03
     -3.904  0.5037E+02  0.5108E+02  0.1284E+03  0.1281E+03
     -3.843  0.7903E+02  0.7543E+02  0.1333E+03  0.1328E+03
     -3.781  0.6086E+02  0.6288E+02  0.1371E+03  0.1366E+03
     -3.719  0.6840E+02  0.7012E+02  0.1413E+03  0.1410E+03
     -3.658  0.5973E+02  0.6199E+02  0.1450E+03  0.1448E+03
     -3.596  0.5842E+02  0.5700E+02  0.1486E+03  0.1483E+03
     -3.534  0.5072E+02  0.5068E+02  0.1517E+03  0.1514E+03
     -3.473  0.4836E+02  0.4705E+02  0.1547E+03  0.1543E+03
     -3.411  0.3866E+02  0.4227E+02  0.1571E+03  0.1570E+03
     -3.349  0.4552E+02  0.4360E+02  0.1599E+03  0.1596E+03
     -3.288  0.3944E+02  0.4120E+02  0.1623E+03  0.1622E+03
     -3.226  0.5559E+02  0.5473E+02  0.1657E+03  0.1656E+03
     -3.164  0.5092E+02  0.5166E+02  0.1689E+03  0.1687E+03
     -3.102  0.5200E+02  0.5198E+02  0.1721E+03  0.1720E+03
     -3.041  0.4782E+02  0.4217E+02  0.1750E+03  0.1746E+03
     -2.979  0.4178E+02  0.4367E+02  0.1776E+03  0.1772E+03
     -2.917  0.3711E+02  0.3734E+02  0.1799E+03  0.1796E+03
     -2.856  0.5429E+02  0.5289E+02  0.1832E+03  0.1828E+03
     -2.794  0.5370E+02  0.5568E+02  0.1866E+03  0.1862E+03
     -2.732  0.5137E+02  0.5199E+02  0.1897E+03  0.1895E+03
     -2.671  0.8099E+02  0.7967E+02  0.1947E+03  0.1944E+03
     -2.609  0.8015E+02  0.7949E+02  0.1997E+03  0.1993E+03
     -2.547  0.6919E+02  0.6956E+02  0.2039E+03  0.2036E+03
     -2.486  0.6066E+02  0.6320E+02  0.2077E+03  0.2075E+03
     -2.424  0.6298E+02  0.6105E+02  0.2116E+03  0.2112E+03
     -2.362  0.6161E+02  0.6183E+02  0.2154E+03  0.2150E+03
     -2.301  0.6971E+02  0.7046E+02  0.2197E+03  0.2194E+03
     -2.239  0.7135E+02  0.7162E+02  0.2241E+03  0.2238E+03
     -2.177  0.7730E+02  0.7754E+02  0.2288E+03  0.2286E+03
     -2.116  0.7350E+02  0.7689E+02  0.2334E+03  0.2333E+03
     -2.054  0.8892E+02  0.8604E+02  0.2389E+03  0.2386E+03
     -1.992  0.8020E+02  0.7804E+02  0.2438E+03  0.2435E+03
     -1.930  0.6874E+02  0.7200E+02  0.2480E+03  0.2479E+03
     -1.869  0.6819E+02  0.7049E+02  0.2523E+03  0.2523E+03
     -1.807  0.7272E+02  0.7120E+02  0.2567E+03  0.2566E+03
     -1.745  0.7442E+02  0.7043E+02  0.2613E+03  0.2610E+03
     -1.684  0.6664E+02  0.6662E+02  0.2654E+03  0.2651E+03
     -1.622  0.5597E+02  0.6344E+02  0.2689E+03  0.2690E+03
     -1.560  0.7998E+02  0.8073E+02  0.2738E+03  0.2740E+03
     -1.499  0.6895E+02  0.6090E+02  0.2781E+03  0.2778E+03
     -1.437  0.6541E+02  0.6510E+02  0.2821E+03  0.2818E+03
     -1.375  0.6279E+02  0.7121E+02  0.2860E+03  0.2862E+03
     -1.314  0.6511E+02  0.6329E+02  0.2900E+03  0.2901E+03
     -1.252  0.6802E+02  0.6884E+02  0.2942E+03  0.2943E+03
     -1.190  0.7604E+02  0.7649E+02  0.2989E+03  0.2990E+03
     -1.129  0.6900E+02  0.6294E+02  0.3032E+03  0.3029E+03
     -1.067  0.5473E+02  0.6836E+02  0.3065E+03  0.3071E+03
     -1.005  0.7661E+02  0.6761E+02  0.3113E+03  0.3113E+03
     -0.944  0.8075E+02  0.8450E+02  0.3162E+03  0.3165E+03
     -0.882  0.5990E+02  0.5573E+02  0.3199E+03  0.3200E+03
     -0.820  0.7225E+02  0.7652E+02  0.3244E+03  0.3247E+03
     -0.759  0.5970E+02  0.5700E+02  0.3281E+03  0.3282E+03
     -0.697  0.5389E+02  0.5587E+02  0.3314E+03  0.3316E+03
     -0.635  0.5345E+02  0.5388E+02  0.3347E+03  0.3350E+03
     -0.573  0.6132E+02  0.5676E+02  0.3385E+03  0.3385E+03
     -0.512  0.6280E+02  0.6953E+02  0.3424E+03  0.3428E+03
     -0.450  0.7321E+02  0.7706E+02  0.3469E+03  0.3475E+03
     -0.388  0.6977E+02  0.6899E+02  0.3512E+03  0.3518E+03
     -0.327  0.6743E+02  0.5706E+02  0.3553E+03  0.3553E+03
     -0.265  0.7339E+02  0.7155E+02  0.3599E+03  0.3597E+03
     -0.203  0.8620E+02  0.8985E+02  0.3652E+03  0.3652E+03
     -0.142  0.7279E+02  0.7331E+02  0.3697E+03  0.3698E+03
     -0.080  0.7044E+02  0.6920E+02  0.3740E+03  0.3740E+03
     -0.018  0.8996E+02  0.8824E+02  0.3796E+03  0.3795E+03
      0.043  0.9057E+02  0.9124E+02  0.3852E+03  0.3851E+03
      0.105  0.9211E+02  0.9488E+02  0.3908E+03  0.3910E+03
      0.167  0.8442E+02  0.8051E+02  0.3960E+03  0.3959E+03
      0.228  0.7828E+02  0.8709E+02  0.4009E+03  0.4013E+03
      0.290  0.9001E+02  0.8914E+02  0.4064E+03  0.4068E+03
      0.352  0.9233E+02  0.9092E+02  0.4121E+03  0.4124E+03
      0.413  0.9119E+02  0.9155E+02  0.4177E+03  0.4181E+03
      0.475  0.7139E+02  0.7848E+02  0.4221E+03  0.4229E+03
      0.537  0.1079E+03  0.9661E+02  0.4288E+03  0.4289E+03
      0.598  0.8259E+02  0.8475E+02  0.4339E+03  0.4341E+03
      0.660  0.7265E+02  0.7371E+02  0.4384E+03  0.4386E+03
      0.722  0.8702E+02  0.8979E+02  0.4438E+03  0.4442E+03
      0.784  0.9469E+02  0.8940E+02  0.4496E+03  0.4497E+03
      0.845  0.9427E+02  0.1032E+03  0.4554E+03  0.4561E+03
      0.907  0.8483E+02  0.8164E+02  0.4606E+03  0.4611E+03
      0.969  0.8869E+02  0.8104E+02  0.4661E+03  0.4661E+03
      1.030  0.1001E+03  0.9991E+02  0.4723E+03  0.4723E+03
      1.092  0.7965E+02  0.8392E+02  0.4772E+03  0.4774E+03
      1.154  0.7892E+02  0.7917E+02  0.4821E+03  0.4823E+03
      1.215  0.6832E+02  0.7833E+02  0.4863E+03  0.4871E+03
      1.277  0.7396E+02  0.6604E+02  0.4908E+03  0.4912E+03
      1.339  0.8710E+02  0.8854E+02  0.4962E+03  0.4967E+03
      1.400  0.8038E+02  0.8324E+02  0.5012E+03  0.5018E+03
      1.462  0.9054E+02  0.8623E+02  0.5068E+03  0.5071E+03
      1.524  0.7743E+02  0.8177E+02  0.5115E+03  0.5122E+03
      1.585  0.8303E+02  0.7818E+02  0.5167E+03  0.5170E+03
      1.647  0.9364E+02  0.9313E+02  0.5224E+03  0.5227E+03
      1.709  0.9409E+02  0.9315E+02  0.5282E+03  0.5285E+03
      1.770  0.9199E+02  0.9747E+02  0.5339E+03  0.5345E+03
      1.832  0.9365E+02  0.9137E+02  0.5397E+03  0.5401E+03
      1.894  0.9951E+02  0.1093E+03  0.5458E+03  0.5469E+03
      1.956  0.8852E+02  0.8492E+02  0.5513E+03  0.5521E+03
      2.017  0.8759E+02  0.8962E+02  0.5567E+03  0.5577E+03
      2.079  0.1034E+03  0.9272E+02  0.5631E+03  0.5634E+03
      2.141  0.9334E+02  0.9403E+02  0.5688E+03  0.5692E+03
      2.202  0.8746E+02  0.1022E+03  0.5742E+03  0.5755E+03
      2.264  0.1013E+03  0.1011E+03  0.5805E+03  0.5817E+03
      2.326  0.9334E+02  0.9033E+02  0.5862E+03  0.5873E+03
      2.387  0.1050E+03  0.1199E+03  0.5927E+03  0.5947E+03
      2.449  0.9606E+02  0.9474E+02  0.5986E+03  0.6005E+03
      2.511  0.1053E+03  0.1220E+03  0.6051E+03  0.6081E+03
      2.572  0.1028E+03  0.1138E+03  0.6115E+03  0.6151E+03
      2.634  0.1095E+03  0.1160E+03  0.6182E+03  0.6222E+03
      2.696  0.1115E+03  0.1113E+03  0.6251E+03  0.6291E+03
      2.757  0.1083E+03  0.1218E+03  0.6318E+03  0.6366E+03
      2.819  0.1243E+03  0.1424E+03  0.6395E+03  0.6454E+03
      2.881  0.1255E+03  0.1315E+03  0.6472E+03  0.6535E+03
      2.942  0.1394E+03  0.1460E+03  0.6558E+03  0.6625E+03
      3.004  0.1366E+03  0.1349E+03  0.6642E+03  0.6708E+03
      3.066  0.1328E+03  0.1369E+03  0.6724E+03  0.6793E+03
      3.127  0.1234E+03  0.1278E+03  0.6800E+03  0.6872E+03
      3.189  0.1324E+03  0.1318E+03  0.6882E+03  0.6953E+03
      3.251  0.1099E+03  0.1224E+03  0.6950E+03  0.7028E+03
      3.313  0.1168E+03  0.1108E+03  0.7022E+03  0.7097E+03
      3.374  0.1225E+03  0.1209E+03  0.7097E+03  0.7171E+03
      3.436  0.1256E+03  0.1279E+03  0.7175E+03  0.7250E+03
      3.498  0.1125E+03  0.1114E+03  0.7244E+03  0.7319E+03
      3.559  0.1052E+03  0.1084E+03  0.7309E+03  0.7386E+03
      3.621  0.1114E+03  0.1166E+03  0.7378E+03  0.7458E+03
      3.683  0.1291E+03  0.1238E+03  0.7458E+03  0.7534E+03
      3.744  0.1257E+03  0.1226E+03  0.7535E+03  0.7610E+03
      3.806  0.1331E+03  0.1299E+03  0.7617E+03  0.7690E+03
      3.868  0.1170E+03  0.1173E+03  0.7689E+03  0.7762E+03
      3.929  0.1264E+03  0.1207E+03  0.7767E+03  0.7837E+03
      3.991  0.1216E+03  0.1243E+03  0.7842E+03  0.7914E+03
      4.053  0.1178E+03  0.1178E+03  0.7915E+03  0.7986E+03
      4.114  0.1131E+03  0.1191E+03  0.7985E+03  0.8060E+03
      4.176  0.1203E+03  0.1149E+03  0.8059E+03  0.8131E+03
      4.238  0.1130E+03  0.1153E+03  0.8129E+03  0.8202E+03
      4.299  0.1218E+03  0.1217E+03  0.8204E+03  0.8277E+03
      4.361  0.1356E+03  0.1127E+03  0.8288E+03  0.8346E+03
      4.423  0.1123E+03  0.1258E+03  0.8357E+03  0.8424E+03
      4.484  0.1278E+03  0.1096E+03  0.8436E+03  0.8492E+03
      4.546  0.1125E+03  0.1270E+03  0.8505E+03  0.8570E+03
      4.608  0.1216E+03  0.1141E+03  0.8580E+03  0.8640E+03
      4.670  0.1115E+03  0.1053E+03  0.8649E+03  0.8705E+03
      4.731  0.1077E+03  0.1122E+03  0.8715E+03  0.8774E+03
      4.793  0.1085E+03  0.1151E+03  0.8782E+03  0.8845E+03
      4.855  0.1037E+03  0.1021E+03  0.8846E+03  0.8908E+03
      4.916  0.1093E+03  0.9775E+02  0.8914E+03  0.8969E+03
      4.978  0.1070E+03  0.1184E+03  0.8980E+03  0.9042E+03
      5.040  0.9443E+02  0.9470E+02  0.9038E+03  0.9100E+03
      5.101  0.9088E+02  0.9578E+02  0.9094E+03  0.9159E+03
      5.163  0.1165E+03  0.1091E+03  0.9166E+03  0.9226E+03
      5.225  0.1106E+03  0.1014E+03  0.9234E+03  0.9289E+03
      5.286  0.1207E+03  0.1128E+03  0.9309E+03  0.9359E+03
      5.348  0.9596E+02  0.8448E+02  0.9368E+03  0.9411E+03
      5.410  0.1021E+03  0.1051E+03  0.9431E+03  0.9476E+03
      5.471  0.1008E+03  0.9282E+02  0.9493E+03  0.9533E+03
      5.533  0.1190E+03  0.1062E+03  0.9566E+03  0.9598E+03
      5.595  0.9606E+02  0.1027E+03  0.9626E+03  0.9662E+03
      5.656  0.1087E+03  0.9182E+02  0.9693E+03  0.9718E+03
      5.718  0.1069E+03  0.1082E+03  0.9759E+03  0.9785E+03
      5.780  0.1039E+03  0.8903E+02  0.9823E+03  0.9840E+03
      5.842  0.9389E+02  0.1039E+03  0.9881E+03  0.9904E+03
      5.903  0.1065E+03  0.9620E+02  0.9946E+03  0.9964E+03
      5.965  0.9422E+02  0.9566E+02  0.1000E+04  0.1002E+04
      6.027  0.9763E+02  0.8741E+02  0.1006E+04  0.1008E+04
      6.088  0.9778E+02  0.8809E+02  0.1013E+04  0.1013E+04
      6.150  0.1240E+03  0.1057E+03  0.1020E+04  0.1020E+04
      6.212  0.9446E+02  0.9506E+02  0.1026E+04  0.1025E+04
      6.273  0.9077E+02  0.9860E+02  0.1032E+04  0.1032E+04
      6.335  0.8428E+02  0.8488E+02  0.1037E+04  0.1037E+04
      6.397  0.1092E+03  0.1047E+03  0.1044E+04  0.1043E+04
      6.458  0.9620E+02  0.9690E+02  0.1049E+04  0.1049E+04
      6.520  0.9150E+02  0.1014E+03  0.1055E+04  0.1055E+04
      6.582  0.1056E+03  0.9910E+02  0.1062E+04  0.1062E+04
      6.643  0.1000E+03  0.9790E+02  0.1068E+04  0.1068E+04
      6.705  0.1080E+03  0.1014E+03  0.1074E+04  0.1074E+04
      6.767  0.1199E+03  0.1124E+03  0.1082E+04  0.1081E+04
      6.828  0.1193E+03  0.1170E+03  0.1089E+04  0.1088E+04
      6.890  0.9997E+02  0.1096E+03  0.1095E+04  0.1095E+04
      6.952  0.1102E+03  0.1026E+03  0.1102E+04  0.1101E+04
      7.013  0.1242E+03  0.1229E+03  0.1110E+04  0.1109E+04
      7.075  0.1170E+03  0.1205E+03  0.1117E+04  0.1116E+04
      7.137  0.1201E+03  0.1165E+03  0.1124E+04  0.1123E+04
      7.199  0.1171E+03  0.1240E+03  0.1132E+04  0.1131E+04
      7.260  0.1227E+03  0.1287E+03  0.1139E+04  0.1139E+04
      7.322  0.1231E+03  0.1336E+03  0.1147E+04  0.1147E+04
      7.384  0.1097E+03  0.1104E+03  0.1154E+04  0.1154E+04
      7.445  0.1123E+03  0.1141E+03  0.1161E+04  0.1161E+04
      7.507  0.1152E+03  0.1357E+03  0.1168E+04  0.1169E+04
      7.569  0.1243E+03  0.1183E+03  0.1175E+04  0.1177E+04
      7.630  0.1158E+03  0.1213E+03  0.1182E+04  0.1184E+04
      7.692  0.1223E+03  0.1253E+03  0.1190E+04  0.1192E+04
      7.754  0.1241E+03  0.1300E+03  0.1198E+04  0.1200E+04
      7.815  0.1322E+03  0.1378E+03  0.1206E+04  0.1208E+04
      7.877  0.1350E+03  0.1398E+03  0.1214E+04  0.1217E+04
      7.939  0.1271E+03  0.1156E+03  0.1222E+04  0.1224E+04
      8.000  0.1354E+03  0.1324E+03  0.1230E+04  0.1232E+04
      8.062  0.1337E+03  0.1386E+03  0.1239E+04  0.1241E+04
      8.124  0.1228E+03  0.1335E+03  0.1246E+04  0.1249E+04
      8.185  0.1466E+03  0.1305E+03  0.1255E+04  0.1257E+04
      8.247  0.1115E+03  0.1245E+03  0.1262E+04  0.1265E+04
      8.309  0.8865E+02  0.9868E+02  0.1268E+04  0.1271E+04
      8.370  0.4391E+02  0.1660E+02  0.1270E+04  0.1272E+04
      8.432  0.1986E+02  0.0000E+00  0.1272E+04  0.1272E+04
      8.494  0.8034E+01  0.0000E+00  0.1272E+04  0.1272E+04
      8.556  0.0000E+00  0.0000E+00  0.1272E+04  0.1272E+04
      8.617  0.0000E+00  0.0000E+00  0.1272E+04  0.1272E+04
      8.679  0.0000E+00  0.0000E+00  0.1272E+04  0.1272E+04
      8.741  0.0000E+00  0.0000E+00  0.1272E+04  0.1272E+04
      8.802  0.0000E+00  0.0000E+00  0.1272E+04  0.1272E+04
      8.864  0.0000E+00  0.0000E+00  0.1272E+04  0.1272E+04
      8.926  0.0000E+00  0.0000E+00  0.1272E+04  0.1272E+04
      8.987  0.0000E+00  0.0000E+00  0.1272E+04  0.1272E+04
      9.049  0.0000E+00  0.0000E+00  0.1272E+04  0.1272E+04
      9.111  0.0000E+00  0.0000E+00  0.1272E+04  0.1272E+04
      9.172  0.0000E+00  0.0000E+00  0.1272E+04  0.1272E+04
      9.234  0.0000E+00  0.0000E+00  0.1272E+04  0.1272E+04
      9.296  0.0000E+00  0.0000E+00  0.1272E+04  0.1272E+04
