<?xml version="1.0" encoding="ISO-8859-1"?>
<modeling>
 <generator>
  <i name="program" type="string">vasp </i>
  <i name="version" type="string">6.4.3  </i>
  <i name="subversion" type="string">19Mar24 (build Oct 22 2024 11:23:12) complex                          parallel </i>
  <i name="platform" type="string">LinuxIFC </i>
  <i name="date" type="string">2025 06 08 </i>
  <i name="time" type="string">12:35:00 </i>
 </generator>
 <incar>
  <i type="string" name="SYSTEM">Si and Ge interface calculation</i>
  <i type="int" name="ISTART">     0</i>
  <i type="logical" name="ADDGRID"> T  </i>
  <i type="int" name="ISPIN">     2</i>
  <i name="AMIX">      0.60000000</i>
  <i type="int" name="ICHARG">     2</i>
  <i type="int" name="NELM">   100</i>
  <i name="EDIFF">      0.00000010</i>
  <i name="ENCUT">    700.00000000</i>
  <i name="ENAUG">    900.00000000</i>
  <i type="int" name="NBANDS">   288</i>
  <i name="NUPDOWN">      1.00000000</i>
  <i name="NELECT">    480.00000000</i>
  <i type="string" name="LREAL">AUTO</i>
  <i type="int" name="ISMEAR">     0</i>
  <i name="SIGMA">      0.01000000</i>
  <i type="int" name="LMAXMIX">     6</i>
  <i type="logical" name="LWAVE"> F  </i>
  <i type="logical" name="LVTOT"> F  </i>
  <i type="logical" name="LVHAR"> T  </i>
  <i type="logical" name="LASPH"> T  </i>
  <i type="logical" name="LMIXTAU"> T  </i>
 </incar>
 <primitive_cell>
  <structure name="primitive_cell" >
   <crystal>
    <varray name="basis" >
     <v>       7.68059444       0.00000000       0.00000000 </v>
     <v>       0.00000000      16.29299927       0.00000000 </v>
     <v>       0.00000000       0.00000000      20.80414009 </v>
    </varray>
    <i name="volume">   2603.42841946 </i>
    <varray name="rec_basis" >
     <v>       0.13019826       0.00000000       0.00000000 </v>
     <v>       0.00000000       0.06137605       0.00000000 </v>
     <v>       0.00000000       0.00000000       0.04806736 </v>
    </varray>
   </crystal>
   <varray name="positions" >
    <v>       0.10116363       0.19633615       0.90071338 </v>
    <v>       0.72851723       0.81901145       0.09229647 </v>
    <v>       0.47851718       0.65234476       0.18459295 </v>
    <v>       0.22851723       0.48567814       0.27688938 </v>
    <v>       0.97851718       0.31901139       0.36918586 </v>
    <v>       0.72851718       0.15234470       0.46148235 </v>
    <v>       0.97851729       0.31901154       0.00000000 </v>
    <v>       0.10116363       0.69633609       0.90071338 </v>
    <v>       0.47851718       0.98567814       0.18459295 </v>
    <v>       0.22851723       0.81901151       0.27688938 </v>
    <v>       0.35116363       0.19633615       0.56076908 </v>
    <v>       0.10116363       0.69633603       0.62875789 </v>
    <v>       0.60116357       0.94633603       0.90071338 </v>
    <v>       0.72851723       0.48567820       0.09229647 </v>
    <v>       0.47851718       0.31901151       0.18459295 </v>
    <v>       0.22851723       0.15234487       0.27688938 </v>
    <v>       0.97851718       0.98567814       0.36918586 </v>
    <v>       0.72851718       0.81901139       0.46148235 </v>
    <v>       0.85116363       0.19633615       0.83272451 </v>
    <v>       0.22851725       0.81901145       0.09229647 </v>
    <v>       0.97851723       0.65234476       0.18459295 </v>
    <v>       0.72851729       0.48567814       0.27688935 </v>
    <v>       0.47851718       0.31901139       0.36918586 </v>
    <v>       0.85116357       0.44633606       0.56076908 </v>
    <v>       0.47851729       0.31901154       0.00000000 </v>
    <v>       0.22851725       0.15234485       0.09229647 </v>
    <v>       0.97851723       0.98567814       0.18459295 </v>
    <v>       0.72851729       0.81901151       0.27688935 </v>
    <v>       0.47851718       0.65234476       0.36918586 </v>
    <v>       0.35116363       0.69633603       0.56076908 </v>
    <v>       0.47851729       0.65234494       0.00000000 </v>
    <v>       0.22851725       0.48567820       0.09229647 </v>
    <v>       0.97851723       0.31901151       0.18459295 </v>
    <v>       0.72851729       0.15234487       0.27688935 </v>
    <v>       0.47851718       0.98567814       0.36918586 </v>
    <v>       0.22851712       0.81901139       0.46148235 </v>
    <v>       0.60116363       0.44633609       0.90071338 </v>
    <v>       0.47851729       0.06901149       0.09229647 </v>
    <v>       0.22851726       0.90234476       0.18459295 </v>
    <v>       0.97851729       0.73567814       0.27688938 </v>
    <v>       0.72851723       0.56901145       0.36918586 </v>
    <v>       0.47851723       0.40234464       0.46148229 </v>
    <v>       0.72851735       0.56901163       0.00000000 </v>
    <v>       0.47851729       0.40234488       0.09229647 </v>
    <v>       0.22851726       0.23567820       0.18459295 </v>
    <v>       0.35116363       0.94633609       0.56076908 </v>
    <v>       0.72851723       0.90234482       0.36918586 </v>
    <v>       0.47851723       0.73567808       0.46148229 </v>
    <v>       0.72851735       0.90234494       0.00000000 </v>
    <v>       0.47851729       0.73567820       0.09229647 </v>
    <v>       0.22851726       0.56901151       0.18459295 </v>
    <v>       0.97851729       0.40234485       0.27688938 </v>
    <v>       0.72851723       0.23567812       0.36918586 </v>
    <v>       0.47851723       0.06901138       0.46148229 </v>
    <v>       0.22851729       0.23567820       0.00000000 </v>
    <v>       0.97851723       0.06901149       0.09229647 </v>
    <v>       0.72851718       0.90234476       0.18459295 </v>
    <v>       0.47851729       0.73567814       0.27688935 </v>
    <v>       0.22851718       0.56901145       0.36918586 </v>
    <v>       0.97851706       0.40234464       0.46148235 </v>
    <v>       0.22851729       0.56901163       0.00000000 </v>
    <v>       0.97851723       0.40234488       0.09229647 </v>
    <v>       0.72851718       0.23567820       0.18459295 </v>
    <v>       0.47851729       0.06901154       0.27688935 </v>
    <v>       0.22851718       0.90234482       0.36918586 </v>
    <v>       0.85116363       0.94633603       0.56076908 </v>
    <v>       0.22851729       0.90234494       0.00000000 </v>
    <v>       0.97851723       0.73567820       0.09229647 </v>
    <v>       0.10116363       0.44633609       0.90071338 </v>
    <v>       0.47851729       0.40234485       0.27688935 </v>
    <v>       0.22851718       0.23567812       0.36918586 </v>
    <v>       0.97851706       0.06901138       0.46148235 </v>
    <v>       0.22851712       0.48567808       0.46148235 </v>
    <v>       0.10116363       0.32133609       0.69674677 </v>
    <v>       0.85116363       0.94633615       0.83272451 </v>
    <v>       0.97851706       0.73567808       0.46148235 </v>
    <v>       0.60116363       0.57133609       0.69674677 </v>
    <v>       0.35116363       0.19633615       0.83272451 </v>
    <v>       0.97851718       0.65234476       0.36918586 </v>
    <v>       0.10116363       0.82133615       0.69674677 </v>
    <v>       0.85116363       0.44633609       0.83272451 </v>
    <v>       0.22851712       0.15234470       0.46148235 </v>
    <v>       0.60116363       0.07133615       0.69674677 </v>
    <v>       0.35116363       0.69633609       0.83272451 </v>
    <v>       0.60116357       0.69633603       0.62875789 </v>
    <v>       0.35116363       0.32133609       0.76473570 </v>
    <v>       0.10116363       0.94633603       0.90071338 </v>
    <v>       0.10116363       0.94633603       0.62875789 </v>
    <v>       0.85116363       0.57133609       0.76473570 </v>
    <v>       0.60116363       0.19633603       0.90071338 </v>
    <v>       0.60116363       0.19633615       0.62875789 </v>
    <v>       0.35116363       0.82133615       0.76473570 </v>
    <v>       0.72851718       0.56901151       0.18459295 </v>
    <v>       0.10116351       0.44633606       0.62875789 </v>
    <v>       0.85116363       0.07133615       0.76473570 </v>
    <v>       0.60116363       0.69633609       0.90071338 </v>
    <v>       0.97851729       0.06901154       0.27688938 </v>
    <v>       0.10116375       0.57133615       0.69674677 </v>
    <v>       0.47851729       0.98567820       0.00000000 </v>
    <v>       0.35116363       0.44633609       0.56076908 </v>
    <v>       0.10116363       0.07133615       0.69674677 </v>
    <v>       0.85116363       0.69633609       0.83272451 </v>
    <v>       0.85116363       0.69633609       0.56076908 </v>
    <v>       0.60116363       0.32133615       0.69674677 </v>
    <v>       0.35116363       0.94633615       0.83272451 </v>
    <v>       0.85116363       0.19633615       0.56076908 </v>
    <v>       0.60116363       0.82133609       0.69674677 </v>
    <v>       0.35116363       0.44633615       0.83272451 </v>
    <v>       0.60116369       0.94633609       0.62875789 </v>
    <v>       0.35116363       0.57133615       0.76473570 </v>
    <v>       0.97851729       0.98567820       0.00000000 </v>
    <v>       0.60116363       0.44633609       0.62875789 </v>
    <v>       0.35116363       0.07133615       0.76473570 </v>
    <v>       0.72851723       0.15234485       0.09229647 </v>
    <v>       0.72851718       0.48567808       0.46148235 </v>
    <v>       0.85116363       0.32133606       0.76473570 </v>
    <v>       0.97851729       0.65234494       0.00000000 </v>
    <v>       0.10116363       0.19633615       0.62875789 </v>
    <v>       0.85116363       0.82133615       0.76473570 </v>
    <v>       0.72851735       0.23567820       0.00000000 </v>
   </varray>
  </structure>
  <varray name="primitive_index" >
   <v type="int" >        1 </v>
   <v type="int" >        2 </v>
   <v type="int" >        3 </v>
   <v type="int" >        4 </v>
   <v type="int" >        5 </v>
   <v type="int" >        6 </v>
   <v type="int" >        7 </v>
   <v type="int" >        8 </v>
   <v type="int" >        9 </v>
   <v type="int" >       10 </v>
   <v type="int" >       11 </v>
   <v type="int" >       12 </v>
   <v type="int" >       13 </v>
   <v type="int" >       14 </v>
   <v type="int" >       15 </v>
   <v type="int" >       16 </v>
   <v type="int" >       17 </v>
   <v type="int" >       18 </v>
   <v type="int" >       19 </v>
   <v type="int" >       20 </v>
   <v type="int" >       21 </v>
   <v type="int" >       22 </v>
   <v type="int" >       23 </v>
   <v type="int" >       24 </v>
   <v type="int" >       25 </v>
   <v type="int" >       26 </v>
   <v type="int" >       27 </v>
   <v type="int" >       28 </v>
   <v type="int" >       29 </v>
   <v type="int" >       30 </v>
   <v type="int" >       31 </v>
   <v type="int" >       32 </v>
   <v type="int" >       33 </v>
   <v type="int" >       34 </v>
   <v type="int" >       35 </v>
   <v type="int" >       36 </v>
   <v type="int" >       37 </v>
   <v type="int" >       38 </v>
   <v type="int" >       39 </v>
   <v type="int" >       40 </v>
   <v type="int" >       41 </v>
   <v type="int" >       42 </v>
   <v type="int" >       43 </v>
   <v type="int" >       44 </v>
   <v type="int" >       45 </v>
   <v type="int" >       46 </v>
   <v type="int" >       47 </v>
   <v type="int" >       48 </v>
   <v type="int" >       49 </v>
   <v type="int" >       50 </v>
   <v type="int" >       51 </v>
   <v type="int" >       52 </v>
   <v type="int" >       53 </v>
   <v type="int" >       54 </v>
   <v type="int" >       55 </v>
   <v type="int" >       56 </v>
   <v type="int" >       57 </v>
   <v type="int" >       58 </v>
   <v type="int" >       59 </v>
   <v type="int" >       60 </v>
   <v type="int" >       61 </v>
   <v type="int" >       62 </v>
   <v type="int" >       63 </v>
   <v type="int" >       64 </v>
   <v type="int" >       65 </v>
   <v type="int" >       66 </v>
   <v type="int" >       67 </v>
   <v type="int" >       68 </v>
   <v type="int" >       69 </v>
   <v type="int" >       70 </v>
   <v type="int" >       71 </v>
   <v type="int" >       72 </v>
   <v type="int" >       73 </v>
   <v type="int" >       74 </v>
   <v type="int" >       75 </v>
   <v type="int" >       76 </v>
   <v type="int" >       77 </v>
   <v type="int" >       78 </v>
   <v type="int" >       79 </v>
   <v type="int" >       80 </v>
   <v type="int" >       81 </v>
   <v type="int" >       82 </v>
   <v type="int" >       83 </v>
   <v type="int" >       84 </v>
   <v type="int" >       85 </v>
   <v type="int" >       86 </v>
   <v type="int" >       87 </v>
   <v type="int" >       88 </v>
   <v type="int" >       89 </v>
   <v type="int" >       90 </v>
   <v type="int" >       91 </v>
   <v type="int" >       92 </v>
   <v type="int" >       93 </v>
   <v type="int" >       94 </v>
   <v type="int" >       95 </v>
   <v type="int" >       96 </v>
   <v type="int" >       97 </v>
   <v type="int" >       98 </v>
   <v type="int" >       99 </v>
   <v type="int" >      100 </v>
   <v type="int" >      101 </v>
   <v type="int" >      102 </v>
   <v type="int" >      103 </v>
   <v type="int" >      104 </v>
   <v type="int" >      105 </v>
   <v type="int" >      106 </v>
   <v type="int" >      107 </v>
   <v type="int" >      108 </v>
   <v type="int" >      109 </v>
   <v type="int" >      110 </v>
   <v type="int" >      111 </v>
   <v type="int" >      112 </v>
   <v type="int" >      113 </v>
   <v type="int" >      114 </v>
   <v type="int" >      115 </v>
   <v type="int" >      116 </v>
   <v type="int" >      117 </v>
   <v type="int" >      118 </v>
   <v type="int" >      119 </v>
   <v type="int" >      120 </v>
  </varray>
 </primitive_cell>
 <kpoints>
  <generation param="Gamma">
   <v type="int" name="divisions">       4        2        2 </v>
   <v name="usershift">      0.00000000       0.00000000       0.00000000 </v>
   <v name="genvec1">      0.25000000       0.00000000       0.00000000 </v>
   <v name="genvec2">      0.00000000       0.50000000       0.00000000 </v>
   <v name="genvec3">      0.00000000       0.00000000       0.50000000 </v>
   <v name="shift">      0.00000000       0.00000000       0.00000000 </v>
  </generation>
  <varray name="kpointlist" >
   <v>       0.00000000       0.00000000       0.00000000 </v>
   <v>       0.25000000       0.00000000       0.00000000 </v>
   <v>       0.50000000       0.00000000       0.00000000 </v>
   <v>       0.00000000       0.50000000       0.00000000 </v>
   <v>       0.25000000       0.50000000       0.00000000 </v>
   <v>       0.50000000       0.50000000       0.00000000 </v>
   <v>       0.00000000       0.00000000       0.50000000 </v>
   <v>       0.25000000       0.00000000       0.50000000 </v>
   <v>       0.50000000       0.00000000       0.50000000 </v>
   <v>       0.00000000       0.50000000       0.50000000 </v>
   <v>       0.25000000       0.50000000       0.50000000 </v>
   <v>       0.50000000       0.50000000       0.50000000 </v>
  </varray>
  <varray name="weights" >
   <v>       0.06250000 </v>
   <v>       0.12500000 </v>
   <v>       0.06250000 </v>
   <v>       0.06250000 </v>
   <v>       0.12500000 </v>
   <v>       0.06250000 </v>
   <v>       0.06250000 </v>
   <v>       0.12500000 </v>
   <v>       0.06250000 </v>
   <v>       0.06250000 </v>
   <v>       0.12500000 </v>
   <v>       0.06250000 </v>
  </varray>
 </kpoints>
 <parameters>
  <separator name="general" >
   <i type="string" name="SYSTEM">Si and Ge interface calculation</i>
   <i type="logical" name="LCOMPAT"> F  </i>
  </separator>
  <separator name="electronic" >
   <i type="string" name="PREC">normal</i>
   <i name="ENMAX">    700.00000000</i>
   <i name="ENAUG">    900.00000000</i>
   <i name="EDIFF">      0.00000010</i>
   <i type="int" name="IALGO">    38</i>
   <i type="int" name="IWAVPR">    10</i>
   <i type="int" name="NBANDS">   288</i>
   <i type="int" name="NBANDSLOW">    -1</i>
   <i type="int" name="NBANDSHIGH">    -1</i>
   <i name="NELECT">    480.00000000</i>
   <i type="int" name="TURBO">     0</i>
   <i type="int" name="IRESTART">     0</i>
   <i type="int" name="NREBOOT">     0</i>
   <i type="int" name="NMIN">     0</i>
   <i name="EREF">      0.00000000</i>
   <separator name="electronic smearing" >
    <i type="int" name="ISMEAR">     0</i>
    <i name="SIGMA">      0.01000000</i>
    <i name="KSPACING">      0.50000000</i>
    <i type="logical" name="KGAMMA"> T  </i>
    <i type="logical" name="KBLOWUP"> T  </i>
   </separator>
   <separator name="electronic projectors" >
    <i type="logical" name="LREAL"> T  </i>
    <v name="ROPT">     -0.00050000     -0.00050000</v>
    <i type="int" name="LMAXPAW">  -100</i>
    <i type="int" name="LMAXMIX">     6</i>
    <i type="logical" name="NLSPLINE"> F  </i>
   </separator>
   <separator name="electronic startup" >
    <i type="int" name="ISTART">     0</i>
    <i type="int" name="ICHARG">     2</i>
    <i type="int" name="INIWAV">     1</i>
   </separator>
   <separator name="electronic spin" >
    <i type="int" name="ISPIN">     2</i>
    <i type="logical" name="LNONCOLLINEAR"> F  </i>
    <v name="MAGMOM">      0.00833333      0.00833333      0.00833333      0.00833333      0.00833333      0.00833333      0.00833333      0.00833333      0.00833333      0.00833333      0.00833333      0.00833333      0.00833333      0.00833333      0.00833333      0.00833333      0.00833333      0.00833333      0.00833333      0.00833333
      0.00833333      0.00833333      0.00833333      0.00833333      0.00833333      0.00833333      0.00833333      0.00833333      0.00833333      0.00833333      0.00833333      0.00833333      0.00833333      0.00833333      0.00833333      0.00833333      0.00833333      0.00833333      0.00833333      0.00833333
      0.00833333      0.00833333      0.00833333      0.00833333      0.00833333      0.00833333      0.00833333      0.00833333      0.00833333      0.00833333      0.00833333      0.00833333      0.00833333      0.00833333      0.00833333      0.00833333      0.00833333      0.00833333      0.00833333      0.00833333
      0.00833333      0.00833333      0.00833333      0.00833333      0.00833333      0.00833333      0.00833333      0.00833333      0.00833333      0.00833333      0.00833333      0.00833333      0.00833333      0.00833333      0.00833333      0.00833333      0.00833333      0.00833333      0.00833333      0.00833333
      0.00833333      0.00833333      0.00833333      0.00833333      0.00833333      0.00833333      0.00833333      0.00833333      0.00833333      0.00833333      0.00833333      0.00833333      0.00833333      0.00833333      0.00833333      0.00833333      0.00833333      0.00833333      0.00833333      0.00833333
      0.00833333      0.00833333      0.00833333      0.00833333      0.00833333      0.00833333      0.00833333      0.00833333      0.00833333      0.00833333      0.00833333      0.00833333      0.00833333      0.00833333      0.00833333      0.00833333      0.00833333      0.00833333      0.00833333      0.00833333
</v>
    <i name="NUPDOWN">      1.00000000</i>
    <i type="logical" name="LSORBIT"> F  </i>
    <v name="SAXIS">      0.00000000      0.00000000      1.00000000</v>
    <i type="logical" name="LSPIRAL"> F  </i>
    <v name="QSPIRAL">      0.00000000      0.00000000      0.00000000</v>
    <i type="logical" name="LZEROZ"> F  </i>
   </separator>
   <separator name="electronic exchange-correlation" >
    <i type="logical" name="LASPH"> T  </i>
   </separator>
   <separator name="electronic convergence" >
    <i type="int" name="NELM">   100</i>
    <i type="int" name="NELMDL">    -5</i>
    <i type="int" name="NELMIN">     2</i>
    <i name="ENINI">    700.00000000</i>
    <separator name="electronic convergence detail" >
     <i type="logical" name="LDIAG"> T  </i>
     <i type="logical" name="LSUBROT"> F  </i>
     <i name="WEIMIN">      0.00000000</i>
     <i name="EBREAK">      0.00000000</i>
     <i name="DEPER">      0.30000000</i>
     <i type="int" name="NRMM">     4</i>
     <i name="TIME">      0.40000000</i>
    </separator>
   </separator>
   <separator name="electronic mixer" >
    <i name="AMIX">      0.60000000</i>
    <i name="BMIX">      1.00000000</i>
    <i name="AMIN">      0.10000000</i>
    <i name="AMIX_MAG">      2.40000000</i>
    <i name="BMIX_MAG">      1.00000000</i>
    <separator name="electronic mixer details" >
     <i type="int" name="IMIX">     4</i>
     <i type="logical" name="MIXFIRST"> F  </i>
     <i type="int" name="MAXMIX">   -45</i>
     <i name="WC">    100.00000000</i>
     <i type="int" name="INIMIX">     1</i>
     <i type="int" name="MIXPRE">     1</i>
     <i type="int" name="MREMOVE">     5</i>
    </separator>
   </separator>
   <separator name="electronic dipolcorrection" >
    <i type="logical" name="LDIPOL"> F  </i>
    <i type="logical" name="LMONO"> F  </i>
    <i type="int" name="IDIPOL">     0</i>
    <i name="EPSILON">      1.00000000</i>
    <v name="DIPOL">   -100.00000000   -100.00000000   -100.00000000</v>
    <i name="EFIELD">      0.00000000</i>
    <i type="logical" name="LVACPOTAV"> F  </i>
   </separator>
  </separator>
  <separator name="grids" >
   <i type="int" name="NGX">    50</i>
   <i type="int" name="NGY">   108</i>
   <i type="int" name="NGZ">   140</i>
   <i type="int" name="NGXF">   100</i>
   <i type="int" name="NGYF">   216</i>
   <i type="int" name="NGZF">   280</i>
   <i type="logical" name="ADDGRID"> T  </i>
  </separator>
  <separator name="ionic" >
   <i type="int" name="NSW">     0</i>
   <i type="int" name="IBRION">    -1</i>
   <i type="int" name="MDALGO">     0</i>
   <i type="int" name="ISIF">     2</i>
   <i name="PSTRESS">      0.00000000</i>
   <i name="EDIFFG">      0.00000100</i>
   <i type="int" name="NFREE">     0</i>
   <i name="POTIM">      0.50000000</i>
   <i name="SMASS">     -3.00000000</i>
   <i name="SCALEE">      1.00000000</i>
  </separator>
  <separator name="ionic md" >
   <i name="TEBEG">      0.00010000</i>
   <i name="TEEND">      0.00010000</i>
   <i type="int" name="NBLOCK">     1</i>
   <i type="int" name="KBLOCK">     1</i>
   <i type="int" name="NPACO">   256</i>
   <i name="APACO">     10.00000000</i>
  </separator>
  <separator name="symmetry" >
   <i type="int" name="ISYM">     2</i>
   <i name="SYMPREC">      0.00001000</i>
  </separator>
  <separator name="dos" >
   <i type="int" name="LORBIT">     0</i>
   <v name="RWIGS">     -1.00000000     -1.00000000</v>
   <i type="int" name="NEDOS">   301</i>
   <i name="EMIN">     10.00000000</i>
   <i name="EMAX">    -10.00000000</i>
   <i name="EFERMI">      0.00000000</i>
  </separator>
  <separator name="writing" >
   <i type="int" name="NWRITE">     2</i>
   <i type="logical" name="LWAVE"> F  </i>
   <i type="logical" name="LDOWNSAMPLE"> F  </i>
   <i type="logical" name="LCHARG"> T  </i>
   <i type="logical" name="LPARD"> F  </i>
   <i type="logical" name="LVTOT"> F  </i>
   <i type="logical" name="LVHAR"> T  </i>
   <i type="logical" name="LELF"> F  </i>
   <i type="logical" name="LOPTICS"> F  </i>
   <v name="STM">      0.00000000      0.00000000      0.00000000      0.00000000      0.00000000      0.00000000      0.00000000</v>
  </separator>
  <separator name="performance" >
   <i type="int" name="NPAR">     4</i>
   <i type="int" name="NSIM">     4</i>
   <i type="int" name="NBLK">    -1</i>
   <i type="logical" name="LPLANE"> T  </i>
   <i type="logical" name="LSCALAPACK"> T  </i>
   <i type="logical" name="LSCAAWARE"> F  </i>
   <i type="logical" name="LSCALU"> F  </i>
   <i type="logical" name="LASYNC"> F  </i>
   <i type="logical" name="LORBITALREAL"> F  </i>
  </separator>
  <separator name="miscellaneous" >
   <i type="int" name="IDIOT">     3</i>
   <i type="int" name="PHON_NSTRUCT">    -1</i>
   <i type="logical" name="LMUSIC"> F  </i>
   <v name="POMASS">     28.08500000     72.61000000</v>
   <v name="DARWINR">      0.00000000      0.00000000</v>
   <v name="DARWINV">      1.00000000      1.00000000</v>
   <i type="logical" name="LCORR"> T  </i>
  </separator>
  <i type="logical" name="GGA_COMPAT"> T  </i>
  <i type="logical" name="LBERRY"> F  </i>
  <i type="int" name="ICORELEVEL">     0</i>
  <i type="logical" name="LDAU"> F  </i>
  <i type="int" name="I_CONSTRAINED_M">     0</i>
  <separator name="electronic exchange-correlation" >
   <i type="string" name="GGA    ">PE</i>
   <i type="string" name="XC_C">1</i>
   <i type="int" name="VOSKOWN">     0</i>
   <i type="logical" name="LHFCALC"> F  </i>
   <i type="string" name="PRECFOCK"></i>
   <i type="logical" name="LSYMGRAD"> F  </i>
   <i type="logical" name="LHFONE"> F  </i>
   <i type="logical" name="LRHFCALC"> F  </i>
   <i type="logical" name="LTHOMAS"> F  </i>
   <i type="logical" name="LMODELHF"> F  </i>
   <i type="logical" name="LFOCKACE"> F  </i>
   <i name="ENCUT4O">     -1.00000000</i>
   <i type="int" name="EXXOEP">     0</i>
   <i type="int" name="FOURORBIT">     0</i>
   <i name="AEXX">      0.00000000</i>
   <i name="HFALPHA">      0.00000000</i>
   <i name="MCALPHA">      0.00000000</i>
   <i name="ALDAX">      1.00000000</i>
   <i name="AGGAX">      1.00000000</i>
   <i name="AMGGAX">      1.00000000</i>
   <i name="ALDAC">      1.00000000</i>
   <i name="AGGAC">      1.00000000</i>
   <i name="AMGGAC">      1.00000000</i>
   <i type="int" name="NKREDX">     1</i>
   <i type="int" name="NKREDY">     1</i>
   <i type="int" name="NKREDZ">     1</i>
   <i type="logical" name="SHIFTRED"> F  </i>
   <i type="logical" name="ODDONLY"> F  </i>
   <i type="logical" name="EVENONLY"> F  </i>
   <i type="int" name="LMAXFOCK">     0</i>
   <i type="int" name="NMAXFOCKAE">     0</i>
   <i type="logical" name="LFOCKAEDFT"> F  </i>
   <i name="HFSCREEN">      0.00000000</i>
   <i name="HFSCREENC">      0.00000000</i>
   <i type="int" name="NBANDSGWLOW">     0</i>
  </separator>
  <separator name="vdW DFT" >
   <i type="logical" name="LUSE_VDW"> F  </i>
   <i type="int" name="IVDW_NL">    -1</i>
   <i type="logical" name="LSPIN_VDW"> F  </i>
   <i name="ZAB_VDW">     -0.84910000</i>
   <i name="GAMMA_VDW">      1.39626340</i>
   <i name="ALPHA_VDW">      0.00000000</i>
   <i name="PARAM1">      0.12340000</i>
   <i name="PARAM2">      1.00000000</i>
   <i name="BPARAM">      6.30000000</i>
   <i name="CPARAM">      0.00930000</i>
  </separator>
  <separator name="model GW" >
   <i type="int" name="MODEL_GW">     0</i>
   <i name="MODEL_EPS0">     13.01714210</i>
   <i name="MODEL_ALPHA">      1.00000000</i>
  </separator>
  <separator name="linear response parameters" >
   <i type="logical" name="LEPSILON"> F  </i>
   <i type="logical" name="LRPA"> F  </i>
   <i type="logical" name="LNABLA"> F  </i>
   <i type="logical" name="LVEL"> F  </i>
   <i name="CSHIFT">      0.10000000</i>
   <i name="OMEGAMAX">     -1.00000000</i>
   <i name="DEG_THRESHOLD">      0.00200000</i>
   <i name="RTIME">     -0.10000000</i>
   <i name="WPLASMAI">      0.00000000</i>
   <v name="DFIELD">      0.00000000      0.00000000      0.00000000</v>
   <v name="WPLASMA">      0.00000000      0.00000000      0.00000000      0.00000000      0.00000000      0.00000000      0.00000000      0.00000000      0.00000000</v>
  </separator>
  <separator name="orbital magnetization" >
   <i type="logical" name="NUCIND"> F  </i>
   <v name="MAGPOS">      0.00000000      0.00000000      0.00000000</v>
   <i type="logical" name="LNICSALL"> T  </i>
   <i type="logical" name="ORBITALMAG"> F  </i>
   <i type="logical" name="LMAGBLOCH"> F  </i>
   <i type="logical" name="LCHIMAG"> F  </i>
   <i type="logical" name="LGAUGE"> T  </i>
   <i type="int" name="MAGATOM">     0</i>
   <v name="MAGDIPOL">      0.00000000      0.00000000      0.00000000</v>
   <v name="AVECCONST">      0.00000000      0.00000000      0.00000000</v>
  </separator>
  <separator name="response functions" >
   <i type="logical" name="LALL_IN_ONE"> F  </i>
   <i type="int" name="IALL_IN_ONE">    -1</i>
   <i type="int" name="NBANDS_WAVE">    -1</i>
   <i type="logical" name="LFINITE_TEMPERATURE"> F  </i>
   <i type="logical" name="LADDER"> F  </i>
   <i type="logical" name="LRPAFORCE"> F  </i>
   <i type="logical" name="LFXC"> F  </i>
   <i type="logical" name="LHARTREE"> T  </i>
   <i type="int" name="IBSE">     0</i>
   <v type="int" name="KPOINT">    -1     0     0     0</v>
   <i type="logical" name="LTCTC"> F  </i>
   <i type="logical" name="LTCTE"> F  </i>
   <i type="logical" name="LTETE"> F  </i>
   <i type="logical" name="LTRIPLET"> F  </i>
   <i type="logical" name="LFXCEPS"> F  </i>
   <i type="logical" name="LFXHEG"> F  </i>
   <i type="int" name="NATURALO">     2</i>
   <i type="logical" name="LHOLEGF"> F  </i>
   <i type="logical" name="L2ORDER"> F  </i>
   <i type="logical" name="LDMP1"> F  </i>
   <i type="logical" name="LMP2LT"> F  </i>
   <i type="logical" name="LSMP2LT"> F  </i>
   <i type="logical" name="LGWLF"> F  </i>
   <i name="ENCUTGW">     -1.60000002</i>
   <i name="ENCUTGWSOFT">     -1.60000002</i>
   <i name="ENCUTLF">     -1.00000000</i>
   <i type="logical" name="ESF_SPLINES"> F  </i>
   <i name="ESF_CONV">      0.01000000</i>
   <i type="int" name="ESF_NINTER">    15</i>
   <i type="int" name="LMAXMP2">    -1</i>
   <i name="SCISSOR">      0.00000000</i>
   <i type="int" name="NOMEGA">     0</i>
   <i type="int" name="NOMEGAR">     0</i>
   <i type="int" name="NBANDSGW">    -1</i>
   <i type="int" name="NBANDSO">    -1</i>
   <i type="int" name="NBANDSV">    -1</i>
   <i type="int" name="NELMGW">     1</i>
   <i type="int" name="NELMHF">     1</i>
   <i type="int" name="DIM">     3</i>
   <i type="int" name="IESPILON">     4</i>
   <i type="int" name="ANTIRES">     0</i>
   <i name="OMEGAMAX">    -30.00000000</i>
   <i name="OMEGAMIN">    -30.00000000</i>
   <i name="OMEGATL">   -200.00000000</i>
   <i type="int" name="OMEGAGRID">     0</i>
   <i name="CSHIFT">     -0.10000000</i>
   <i type="logical" name="LSELFENERGY"> F  </i>
   <i type="logical" name="LSPECTRAL"> F  </i>
   <i type="logical" name="LSPECTRALGW"> F  </i>
   <i type="logical" name="LSINGLES"> F  </i>
   <i type="logical" name="LFERMIGW"> F  </i>
   <i type="logical" name="ODDONLYGW"> F  </i>
   <i type="logical" name="EVENONLYGW"> F  </i>
   <i type="int" name="NKREDLFX">     1</i>
   <i type="int" name="NKREDLFY">     1</i>
   <i type="int" name="NKREDLFZ">     1</i>
   <i type="int" name="MAXMEM">  2800</i>
   <i type="int" name="TELESCOPE">     0</i>
   <i type="int" name="NTAUPAR">    -1</i>
   <i type="int" name="NOMEGAPAR">    -1</i>
   <i name="DAMP_NEWTON">      0.80000001</i>
   <i name="LAMBDA">      1.00000000</i>
  </separator>
  <separator name="External order field" >
   <i name="OFIELD_KAPPA">      0.00000000</i>
   <v name="OFIELD_K">      0.00000000      0.00000000      0.00000000</v>
   <i name="OFIELD_Q6_NEAR">      0.00000000</i>
   <i name="OFIELD_Q6_FAR">      0.00000000</i>
   <i name="OFIELD_A">      0.00000000</i>
  </separator>
  <separator name="optional k-points parameters" >
   <i type="int" name="KPOINTS_OPT_MODE">     1</i>
   <i type="logical" name="LKPOINTS_OPT"> F  </i>
  </separator>
 </parameters>
 <atominfo>
  <atoms>     120 </atoms>
  <types>       2 </types>
  <array name="atoms" >
   <dimension dim="1">ion</dimension>
   <field type="string">element</field>
   <field type="int">atomtype</field>
   <set>
    <rc><c>Si</c><c>   1</c></rc>
    <rc><c>Si</c><c>   1</c></rc>
    <rc><c>Si</c><c>   1</c></rc>
    <rc><c>Si</c><c>   1</c></rc>
    <rc><c>Si</c><c>   1</c></rc>
    <rc><c>Si</c><c>   1</c></rc>
    <rc><c>Si</c><c>   1</c></rc>
    <rc><c>Si</c><c>   1</c></rc>
    <rc><c>Si</c><c>   1</c></rc>
    <rc><c>Si</c><c>   1</c></rc>
    <rc><c>Si</c><c>   1</c></rc>
    <rc><c>Si</c><c>   1</c></rc>
    <rc><c>Si</c><c>   1</c></rc>
    <rc><c>Si</c><c>   1</c></rc>
    <rc><c>Si</c><c>   1</c></rc>
    <rc><c>Si</c><c>   1</c></rc>
    <rc><c>Si</c><c>   1</c></rc>
    <rc><c>Si</c><c>   1</c></rc>
    <rc><c>Si</c><c>   1</c></rc>
    <rc><c>Si</c><c>   1</c></rc>
    <rc><c>Si</c><c>   1</c></rc>
    <rc><c>Si</c><c>   1</c></rc>
    <rc><c>Si</c><c>   1</c></rc>
    <rc><c>Si</c><c>   1</c></rc>
    <rc><c>Si</c><c>   1</c></rc>
    <rc><c>Si</c><c>   1</c></rc>
    <rc><c>Si</c><c>   1</c></rc>
    <rc><c>Si</c><c>   1</c></rc>
    <rc><c>Si</c><c>   1</c></rc>
    <rc><c>Si</c><c>   1</c></rc>
    <rc><c>Si</c><c>   1</c></rc>
    <rc><c>Si</c><c>   1</c></rc>
    <rc><c>Si</c><c>   1</c></rc>
    <rc><c>Si</c><c>   1</c></rc>
    <rc><c>Si</c><c>   1</c></rc>
    <rc><c>Si</c><c>   1</c></rc>
    <rc><c>Si</c><c>   1</c></rc>
    <rc><c>Si</c><c>   1</c></rc>
    <rc><c>Si</c><c>   1</c></rc>
    <rc><c>Si</c><c>   1</c></rc>
    <rc><c>Si</c><c>   1</c></rc>
    <rc><c>Si</c><c>   1</c></rc>
    <rc><c>Si</c><c>   1</c></rc>
    <rc><c>Si</c><c>   1</c></rc>
    <rc><c>Si</c><c>   1</c></rc>
    <rc><c>Si</c><c>   1</c></rc>
    <rc><c>Si</c><c>   1</c></rc>
    <rc><c>Si</c><c>   1</c></rc>
    <rc><c>Si</c><c>   1</c></rc>
    <rc><c>Si</c><c>   1</c></rc>
    <rc><c>Si</c><c>   1</c></rc>
    <rc><c>Si</c><c>   1</c></rc>
    <rc><c>Si</c><c>   1</c></rc>
    <rc><c>Si</c><c>   1</c></rc>
    <rc><c>Si</c><c>   1</c></rc>
    <rc><c>Si</c><c>   1</c></rc>
    <rc><c>Si</c><c>   1</c></rc>
    <rc><c>Si</c><c>   1</c></rc>
    <rc><c>Si</c><c>   1</c></rc>
    <rc><c>Si</c><c>   1</c></rc>
    <rc><c>Si</c><c>   1</c></rc>
    <rc><c>Si</c><c>   1</c></rc>
    <rc><c>Si</c><c>   1</c></rc>
    <rc><c>Si</c><c>   1</c></rc>
    <rc><c>Si</c><c>   1</c></rc>
    <rc><c>Si</c><c>   1</c></rc>
    <rc><c>Si</c><c>   1</c></rc>
    <rc><c>Si</c><c>   1</c></rc>
    <rc><c>Si</c><c>   1</c></rc>
    <rc><c>Si</c><c>   1</c></rc>
    <rc><c>Si</c><c>   1</c></rc>
    <rc><c>Si</c><c>   1</c></rc>
    <rc><c>Ge</c><c>   2</c></rc>
    <rc><c>Ge</c><c>   2</c></rc>
    <rc><c>Ge</c><c>   2</c></rc>
    <rc><c>Ge</c><c>   2</c></rc>
    <rc><c>Ge</c><c>   2</c></rc>
    <rc><c>Ge</c><c>   2</c></rc>
    <rc><c>Ge</c><c>   2</c></rc>
    <rc><c>Ge</c><c>   2</c></rc>
    <rc><c>Ge</c><c>   2</c></rc>
    <rc><c>Ge</c><c>   2</c></rc>
    <rc><c>Ge</c><c>   2</c></rc>
    <rc><c>Ge</c><c>   2</c></rc>
    <rc><c>Ge</c><c>   2</c></rc>
    <rc><c>Ge</c><c>   2</c></rc>
    <rc><c>Ge</c><c>   2</c></rc>
    <rc><c>Ge</c><c>   2</c></rc>
    <rc><c>Ge</c><c>   2</c></rc>
    <rc><c>Ge</c><c>   2</c></rc>
    <rc><c>Ge</c><c>   2</c></rc>
    <rc><c>Ge</c><c>   2</c></rc>
    <rc><c>Ge</c><c>   2</c></rc>
    <rc><c>Ge</c><c>   2</c></rc>
    <rc><c>Ge</c><c>   2</c></rc>
    <rc><c>Ge</c><c>   2</c></rc>
    <rc><c>Ge</c><c>   2</c></rc>
    <rc><c>Ge</c><c>   2</c></rc>
    <rc><c>Ge</c><c>   2</c></rc>
    <rc><c>Ge</c><c>   2</c></rc>
    <rc><c>Ge</c><c>   2</c></rc>
    <rc><c>Ge</c><c>   2</c></rc>
    <rc><c>Ge</c><c>   2</c></rc>
    <rc><c>Ge</c><c>   2</c></rc>
    <rc><c>Ge</c><c>   2</c></rc>
    <rc><c>Ge</c><c>   2</c></rc>
    <rc><c>Ge</c><c>   2</c></rc>
    <rc><c>Ge</c><c>   2</c></rc>
    <rc><c>Ge</c><c>   2</c></rc>
    <rc><c>Ge</c><c>   2</c></rc>
    <rc><c>Ge</c><c>   2</c></rc>
    <rc><c>Ge</c><c>   2</c></rc>
    <rc><c>Ge</c><c>   2</c></rc>
    <rc><c>Ge</c><c>   2</c></rc>
    <rc><c>Ge</c><c>   2</c></rc>
    <rc><c>Ge</c><c>   2</c></rc>
    <rc><c>Ge</c><c>   2</c></rc>
    <rc><c>Ge</c><c>   2</c></rc>
    <rc><c>Ge</c><c>   2</c></rc>
    <rc><c>Ge</c><c>   2</c></rc>
   </set>
  </array>
  <array name="atomtypes" >
   <dimension dim="1">type</dimension>
   <field type="int">atomspertype</field>
   <field type="string">element</field>
   <field>mass</field>
   <field>valence</field>
   <field type="string">pseudopotential</field>
   <set>
    <rc><c>  72</c><c>Si</c><c>     28.08500000</c><c>      4.00000000</c><c>  PAW_PBE Si 05Jan2001                  </c></rc>
    <rc><c>  48</c><c>Ge</c><c>     72.61000000</c><c>      4.00000000</c><c>  PAW_PBE Ge 05Jan2001                  </c></rc>
   </set>
  </array>
 </atominfo>
 <structure name="initialpos" >
  <crystal>
   <varray name="basis" >
    <v>       7.68059444       0.00000000       0.00000000 </v>
    <v>       0.00000000      16.29299927       0.00000000 </v>
    <v>       0.00000000       0.00000000      20.80414009 </v>
   </varray>
   <i name="volume">   2603.42841946 </i>
   <varray name="rec_basis" >
    <v>       0.13019826       0.00000000       0.00000000 </v>
    <v>       0.00000000       0.06137605       0.00000000 </v>
    <v>       0.00000000       0.00000000       0.04806736 </v>
   </varray>
  </crystal>
  <varray name="positions" >
   <v>       0.10116363       0.19633615       0.90071338 </v>
   <v>       0.72851723       0.81901145       0.09229647 </v>
   <v>       0.47851718       0.65234476       0.18459295 </v>
   <v>       0.22851723       0.48567814       0.27688938 </v>
   <v>       0.97851718       0.31901139       0.36918586 </v>
   <v>       0.72851718       0.15234470       0.46148235 </v>
   <v>       0.97851729       0.31901154       0.00000000 </v>
   <v>       0.10116363       0.69633609       0.90071338 </v>
   <v>       0.47851718       0.98567814       0.18459295 </v>
   <v>       0.22851723       0.81901151       0.27688938 </v>
   <v>       0.35116363       0.19633615       0.56076908 </v>
   <v>       0.10116363       0.69633603       0.62875789 </v>
   <v>       0.60116357       0.94633603       0.90071338 </v>
   <v>       0.72851723       0.48567820       0.09229647 </v>
   <v>       0.47851718       0.31901151       0.18459295 </v>
   <v>       0.22851723       0.15234487       0.27688938 </v>
   <v>       0.97851718       0.98567814       0.36918586 </v>
   <v>       0.72851718       0.81901139       0.46148235 </v>
   <v>       0.85116363       0.19633615       0.83272451 </v>
   <v>       0.22851725       0.81901145       0.09229647 </v>
   <v>       0.97851723       0.65234476       0.18459295 </v>
   <v>       0.72851729       0.48567814       0.27688935 </v>
   <v>       0.47851718       0.31901139       0.36918586 </v>
   <v>       0.85116357       0.44633606       0.56076908 </v>
   <v>       0.47851729       0.31901154       0.00000000 </v>
   <v>       0.22851725       0.15234485       0.09229647 </v>
   <v>       0.97851723       0.98567814       0.18459295 </v>
   <v>       0.72851729       0.81901151       0.27688935 </v>
   <v>       0.47851718       0.65234476       0.36918586 </v>
   <v>       0.35116363       0.69633603       0.56076908 </v>
   <v>       0.47851729       0.65234494       0.00000000 </v>
   <v>       0.22851725       0.48567820       0.09229647 </v>
   <v>       0.97851723       0.31901151       0.18459295 </v>
   <v>       0.72851729       0.15234487       0.27688935 </v>
   <v>       0.47851718       0.98567814       0.36918586 </v>
   <v>       0.22851712       0.81901139       0.46148235 </v>
   <v>       0.60116363       0.44633609       0.90071338 </v>
   <v>       0.47851729       0.06901149       0.09229647 </v>
   <v>       0.22851726       0.90234476       0.18459295 </v>
   <v>       0.97851729       0.73567814       0.27688938 </v>
   <v>       0.72851723       0.56901145       0.36918586 </v>
   <v>       0.47851723       0.40234464       0.46148229 </v>
   <v>       0.72851735       0.56901163       0.00000000 </v>
   <v>       0.47851729       0.40234488       0.09229647 </v>
   <v>       0.22851726       0.23567820       0.18459295 </v>
   <v>       0.35116363       0.94633609       0.56076908 </v>
   <v>       0.72851723       0.90234482       0.36918586 </v>
   <v>       0.47851723       0.73567808       0.46148229 </v>
   <v>       0.72851735       0.90234494       0.00000000 </v>
   <v>       0.47851729       0.73567820       0.09229647 </v>
   <v>       0.22851726       0.56901151       0.18459295 </v>
   <v>       0.97851729       0.40234485       0.27688938 </v>
   <v>       0.72851723       0.23567812       0.36918586 </v>
   <v>       0.47851723       0.06901138       0.46148229 </v>
   <v>       0.22851729       0.23567820       0.00000000 </v>
   <v>       0.97851723       0.06901149       0.09229647 </v>
   <v>       0.72851718       0.90234476       0.18459295 </v>
   <v>       0.47851729       0.73567814       0.27688935 </v>
   <v>       0.22851718       0.56901145       0.36918586 </v>
   <v>       0.97851706       0.40234464       0.46148235 </v>
   <v>       0.22851729       0.56901163       0.00000000 </v>
   <v>       0.97851723       0.40234488       0.09229647 </v>
   <v>       0.72851718       0.23567820       0.18459295 </v>
   <v>       0.47851729       0.06901154       0.27688935 </v>
   <v>       0.22851718       0.90234482       0.36918586 </v>
   <v>       0.85116363       0.94633603       0.56076908 </v>
   <v>       0.22851729       0.90234494       0.00000000 </v>
   <v>       0.97851723       0.73567820       0.09229647 </v>
   <v>       0.10116363       0.44633609       0.90071338 </v>
   <v>       0.47851729       0.40234485       0.27688935 </v>
   <v>       0.22851718       0.23567812       0.36918586 </v>
   <v>       0.97851706       0.06901138       0.46148235 </v>
   <v>       0.22851712       0.48567808       0.46148235 </v>
   <v>       0.10116363       0.32133609       0.69674677 </v>
   <v>       0.85116363       0.94633615       0.83272451 </v>
   <v>       0.97851706       0.73567808       0.46148235 </v>
   <v>       0.60116363       0.57133609       0.69674677 </v>
   <v>       0.35116363       0.19633615       0.83272451 </v>
   <v>       0.97851718       0.65234476       0.36918586 </v>
   <v>       0.10116363       0.82133615       0.69674677 </v>
   <v>       0.85116363       0.44633609       0.83272451 </v>
   <v>       0.22851712       0.15234470       0.46148235 </v>
   <v>       0.60116363       0.07133615       0.69674677 </v>
   <v>       0.35116363       0.69633609       0.83272451 </v>
   <v>       0.60116357       0.69633603       0.62875789 </v>
   <v>       0.35116363       0.32133609       0.76473570 </v>
   <v>       0.10116363       0.94633603       0.90071338 </v>
   <v>       0.10116363       0.94633603       0.62875789 </v>
   <v>       0.85116363       0.57133609       0.76473570 </v>
   <v>       0.60116363       0.19633603       0.90071338 </v>
   <v>       0.60116363       0.19633615       0.62875789 </v>
   <v>       0.35116363       0.82133615       0.76473570 </v>
   <v>       0.72851718       0.56901151       0.18459295 </v>
   <v>       0.10116351       0.44633606       0.62875789 </v>
   <v>       0.85116363       0.07133615       0.76473570 </v>
   <v>       0.60116363       0.69633609       0.90071338 </v>
   <v>       0.97851729       0.06901154       0.27688938 </v>
   <v>       0.10116375       0.57133615       0.69674677 </v>
   <v>       0.47851729       0.98567820       0.00000000 </v>
   <v>       0.35116363       0.44633609       0.56076908 </v>
   <v>       0.10116363       0.07133615       0.69674677 </v>
   <v>       0.85116363       0.69633609       0.83272451 </v>
   <v>       0.85116363       0.69633609       0.56076908 </v>
   <v>       0.60116363       0.32133615       0.69674677 </v>
   <v>       0.35116363       0.94633615       0.83272451 </v>
   <v>       0.85116363       0.19633615       0.56076908 </v>
   <v>       0.60116363       0.82133609       0.69674677 </v>
   <v>       0.35116363       0.44633615       0.83272451 </v>
   <v>       0.60116369       0.94633609       0.62875789 </v>
   <v>       0.35116363       0.57133615       0.76473570 </v>
   <v>       0.97851729       0.98567820       0.00000000 </v>
   <v>       0.60116363       0.44633609       0.62875789 </v>
   <v>       0.35116363       0.07133615       0.76473570 </v>
   <v>       0.72851723       0.15234485       0.09229647 </v>
   <v>       0.72851718       0.48567808       0.46148235 </v>
   <v>       0.85116363       0.32133606       0.76473570 </v>
   <v>       0.97851729       0.65234494       0.00000000 </v>
   <v>       0.10116363       0.19633615       0.62875789 </v>
   <v>       0.85116363       0.82133615       0.76473570 </v>
   <v>       0.72851735       0.23567820       0.00000000 </v>
  </varray>
 </structure>
 <calculation>
  <scstep>
   <time name="dav">   36.86   37.21</time>
   <time name="total">   38.18   38.53</time>
   <energy>
    <i name="alphaZ">    534.59184046 </i>
    <i name="ewald"> -12842.21185894 </i>
    <i name="hartreedc">  -1177.67394470 </i>
    <i name="XCdc">  -1034.40138285 </i>
    <i name="pawpsdc">  10575.88222728 </i>
    <i name="pawaedc">  -8613.76247617 </i>
    <i name="eentropy">     -0.00193642 </i>
    <i name="bandstr">   2063.82282361 </i>
    <i name="atom">  12460.60057749 </i>
    <i name="e_fr_energy">   1966.84586977 </i>
    <i name="e_wo_entrp">   1966.84780619 </i>
    <i name="e_0_energy">   1966.84683798 </i>
   </energy>
  </scstep>
  <scstep>
   <time name="dav">   41.40   41.85</time>
   <time name="total">   41.40   41.85</time>
   <energy>
    <i name="e_fr_energy">   -359.32222923 </i>
    <i name="e_wo_entrp">   -359.32015736 </i>
    <i name="e_0_energy">   -359.32119330 </i>
   </energy>
  </scstep>
  <scstep>
   <time name="dav">   43.20   43.66</time>
   <time name="total">   43.20   43.66</time>
   <energy>
    <i name="e_fr_energy">   -576.28309413 </i>
    <i name="e_wo_entrp">   -576.28168535 </i>
    <i name="e_0_energy">   -576.28238974 </i>
   </energy>
  </scstep>
  <scstep>
   <time name="dav">   41.82   42.20</time>
   <time name="total">   41.82   42.21</time>
   <energy>
    <i name="e_fr_energy">   -584.04248775 </i>
    <i name="e_wo_entrp">   -584.04067076 </i>
    <i name="e_0_energy">   -584.04157925 </i>
   </energy>
  </scstep>
  <scstep>
   <time name="dav">   45.58   45.99</time>
   <time name="total">   47.41   47.84</time>
   <energy>
    <i name="e_fr_energy">   -584.33199135 </i>
    <i name="e_wo_entrp">   -584.33020416 </i>
    <i name="e_0_energy">   -584.33109776 </i>
   </energy>
  </scstep>
  <scstep>
   <time name="dav">   42.21   42.59</time>
   <time name="total">   45.38   45.79</time>
   <energy>
    <i name="e_fr_energy">   -575.32346674 </i>
    <i name="e_wo_entrp">   -575.32134295 </i>
    <i name="e_0_energy">   -575.32240484 </i>
   </energy>
  </scstep>
  <scstep>
   <time name="dav">   42.38   42.77</time>
   <time name="total">   45.43   45.84</time>
   <energy>
    <i name="e_fr_energy">   -575.22649783 </i>
    <i name="e_wo_entrp">   -575.22447464 </i>
    <i name="e_0_energy">   -575.22548624 </i>
   </energy>
  </scstep>
  <scstep>
   <time name="dav">   42.23   42.61</time>
   <time name="total">   45.28   45.69</time>
   <energy>
    <i name="e_fr_energy">   -574.55436638 </i>
    <i name="e_wo_entrp">   -574.55309197 </i>
    <i name="e_0_energy">   -574.55372917 </i>
   </energy>
  </scstep>
  <scstep>
   <time name="dav">   41.86   42.25</time>
   <time name="total">   44.90   45.31</time>
   <energy>
    <i name="e_fr_energy">   -574.58366572 </i>
    <i name="e_wo_entrp">   -574.58224028 </i>
    <i name="e_0_energy">   -574.58295300 </i>
   </energy>
  </scstep>
  <scstep>
   <time name="dav">   42.47   42.86</time>
   <time name="total">   45.52   45.93</time>
   <energy>
    <i name="e_fr_energy">   -574.57242042 </i>
    <i name="e_wo_entrp">   -574.57101113 </i>
    <i name="e_0_energy">   -574.57171577 </i>
   </energy>
  </scstep>
  <scstep>
   <time name="dav">   42.63   43.02</time>
   <time name="total">   45.69   46.10</time>
   <energy>
    <i name="e_fr_energy">   -574.57040942 </i>
    <i name="e_wo_entrp">   -574.56888596 </i>
    <i name="e_0_energy">   -574.56964769 </i>
   </energy>
  </scstep>
  <scstep>
   <time name="dav">   42.70   43.09</time>
   <time name="total">   45.75   46.16</time>
   <energy>
    <i name="e_fr_energy">   -574.56928368 </i>
    <i name="e_wo_entrp">   -574.56772543 </i>
    <i name="e_0_energy">   -574.56850456 </i>
   </energy>
  </scstep>
  <scstep>
   <time name="dav">   42.29   42.67</time>
   <time name="total">   45.35   45.75</time>
   <energy>
    <i name="e_fr_energy">   -574.56830982 </i>
    <i name="e_wo_entrp">   -574.56675730 </i>
    <i name="e_0_energy">   -574.56753356 </i>
   </energy>
  </scstep>
  <scstep>
   <time name="dav">   40.11   40.47</time>
   <time name="total">   43.17   43.55</time>
   <energy>
    <i name="e_fr_energy">   -574.56833939 </i>
    <i name="e_wo_entrp">   -574.56676568 </i>
    <i name="e_0_energy">   -574.56755254 </i>
   </energy>
  </scstep>
  <scstep>
   <time name="dav">   40.57   40.93</time>
   <time name="total">   43.62   44.00</time>
   <energy>
    <i name="e_fr_energy">   -574.56835169 </i>
    <i name="e_wo_entrp">   -574.56677147 </i>
    <i name="e_0_energy">   -574.56756158 </i>
   </energy>
  </scstep>
  <scstep>
   <time name="dav">   40.29   40.65</time>
   <time name="total">   43.34   43.73</time>
   <energy>
    <i name="e_fr_energy">   -574.56835694 </i>
    <i name="e_wo_entrp">   -574.56677913 </i>
    <i name="e_0_energy">   -574.56756804 </i>
   </energy>
  </scstep>
  <scstep>
   <time name="dav">   41.48   41.86</time>
   <time name="total">   44.53   44.92</time>
   <energy>
    <i name="e_fr_energy">   -574.56836547 </i>
    <i name="e_wo_entrp">   -574.56678416 </i>
    <i name="e_0_energy">   -574.56757482 </i>
   </energy>
  </scstep>
  <scstep>
   <time name="dav">   42.14   42.53</time>
   <time name="total">   45.20   45.60</time>
   <energy>
    <i name="e_fr_energy">   -574.56837018 </i>
    <i name="e_wo_entrp">   -574.56678723 </i>
    <i name="e_0_energy">   -574.56757870 </i>
   </energy>
  </scstep>
  <scstep>
   <time name="dav">   40.46   40.83</time>
   <time name="total">   43.51   43.90</time>
   <energy>
    <i name="e_fr_energy">   -574.56837348 </i>
    <i name="e_wo_entrp">   -574.56678987 </i>
    <i name="e_0_energy">   -574.56758167 </i>
   </energy>
  </scstep>
  <scstep>
   <time name="dav">   42.33   42.71</time>
   <time name="total">   45.38   45.78</time>
   <energy>
    <i name="e_fr_energy">   -574.56837613 </i>
    <i name="e_wo_entrp">   -574.56679113 </i>
    <i name="e_0_energy">   -574.56758363 </i>
   </energy>
  </scstep>
  <scstep>
   <time name="dav">   41.36   41.73</time>
   <time name="total">   44.41   44.81</time>
   <energy>
    <i name="e_fr_energy">   -574.56837753 </i>
    <i name="e_wo_entrp">   -574.56679185 </i>
    <i name="e_0_energy">   -574.56758469 </i>
   </energy>
  </scstep>
  <scstep>
   <time name="dav">   40.97   41.35</time>
   <time name="total">   44.03   44.43</time>
   <energy>
    <i name="e_fr_energy">   -574.56837848 </i>
    <i name="e_wo_entrp">   -574.56679201 </i>
    <i name="e_0_energy">   -574.56758524 </i>
   </energy>
  </scstep>
  <scstep>
   <time name="dav">   41.03   41.40</time>
   <time name="total">   44.09   44.48</time>
   <energy>
    <i name="e_fr_energy">   -574.56837911 </i>
    <i name="e_wo_entrp">   -574.56679151 </i>
    <i name="e_0_energy">   -574.56758531 </i>
   </energy>
  </scstep>
  <scstep>
   <time name="dav">   29.17   29.44</time>
   <time name="total">   32.23   32.52</time>
   <energy>
    <i name="e_fr_energy">   -574.56837880 </i>
    <i name="e_wo_entrp">   -574.56679091 </i>
    <i name="e_0_energy">   -574.56758486 </i>
   </energy>
  </scstep>
  <scstep>
   <time name="dav">   25.34   25.58</time>
   <time name="total">   28.40   28.65</time>
   <energy>
    <i name="e_fr_energy">   -574.56837848 </i>
    <i name="e_wo_entrp">   -574.56679058 </i>
    <i name="e_0_energy">   -574.56758453 </i>
   </energy>
  </scstep>
  <scstep>
   <time name="dav">   25.35   25.58</time>
   <time name="total">   28.40   28.65</time>
   <energy>
    <i name="e_fr_energy">   -574.56837836 </i>
    <i name="e_wo_entrp">   -574.56679041 </i>
    <i name="e_0_energy">   -574.56758439 </i>
   </energy>
  </scstep>
  <scstep>
   <time name="dav">   25.32   25.55</time>
   <time name="total">   26.60   26.84</time>
   <energy>
    <i name="alphaZ">    534.59184046 </i>
    <i name="ewald"> -12842.21185894 </i>
    <i name="hartreedc">  -1378.28206402 </i>
    <i name="XCdc">  -1000.82118455 </i>
    <i name="pawpsdc">  39610.29110831 </i>
    <i name="pawaedc"> -37663.73315829 </i>
    <i name="eentropy">     -0.00158797 </i>
    <i name="bandstr">   -295.00205083 </i>
    <i name="atom">  12460.60057749 </i>
    <i name="e_fr_energy">   -574.56837832 </i>
    <i name="e_wo_entrp">   -574.56679036 </i>
    <i name="e_0_energy">   -574.56758434 </i>
   </energy>
  </scstep>
  <structure>
   <crystal>
    <varray name="basis" >
     <v>       7.68059444       0.00000000       0.00000000 </v>
     <v>       0.00000000      16.29299927       0.00000000 </v>
     <v>       0.00000000       0.00000000      20.80414009 </v>
    </varray>
    <i name="volume">   2603.42841946 </i>
    <varray name="rec_basis" >
     <v>       0.13019826       0.00000000       0.00000000 </v>
     <v>       0.00000000       0.06137605       0.00000000 </v>
     <v>       0.00000000       0.00000000       0.04806736 </v>
    </varray>
   </crystal>
   <varray name="positions" >
    <v>       0.10116363       0.19633615       0.90071338 </v>
    <v>       0.72851723       0.81901145       0.09229647 </v>
    <v>       0.47851718       0.65234476       0.18459295 </v>
    <v>       0.22851723       0.48567814       0.27688938 </v>
    <v>       0.97851718       0.31901139       0.36918586 </v>
    <v>       0.72851718       0.15234470       0.46148235 </v>
    <v>       0.97851729       0.31901154       0.00000000 </v>
    <v>       0.10116363       0.69633609       0.90071338 </v>
    <v>       0.47851718       0.98567814       0.18459295 </v>
    <v>       0.22851723       0.81901151       0.27688938 </v>
    <v>       0.35116363       0.19633615       0.56076908 </v>
    <v>       0.10116363       0.69633603       0.62875789 </v>
    <v>       0.60116357       0.94633603       0.90071338 </v>
    <v>       0.72851723       0.48567820       0.09229647 </v>
    <v>       0.47851718       0.31901151       0.18459295 </v>
    <v>       0.22851723       0.15234487       0.27688938 </v>
    <v>       0.97851718       0.98567814       0.36918586 </v>
    <v>       0.72851718       0.81901139       0.46148235 </v>
    <v>       0.85116363       0.19633615       0.83272451 </v>
    <v>       0.22851725       0.81901145       0.09229647 </v>
    <v>       0.97851723       0.65234476       0.18459295 </v>
    <v>       0.72851729       0.48567814       0.27688935 </v>
    <v>       0.47851718       0.31901139       0.36918586 </v>
    <v>       0.85116357       0.44633606       0.56076908 </v>
    <v>       0.47851729       0.31901154       0.00000000 </v>
    <v>       0.22851725       0.15234485       0.09229647 </v>
    <v>       0.97851723       0.98567814       0.18459295 </v>
    <v>       0.72851729       0.81901151       0.27688935 </v>
    <v>       0.47851718       0.65234476       0.36918586 </v>
    <v>       0.35116363       0.69633603       0.56076908 </v>
    <v>       0.47851729       0.65234494       0.00000000 </v>
    <v>       0.22851725       0.48567820       0.09229647 </v>
    <v>       0.97851723       0.31901151       0.18459295 </v>
    <v>       0.72851729       0.15234487       0.27688935 </v>
    <v>       0.47851718       0.98567814       0.36918586 </v>
    <v>       0.22851712       0.81901139       0.46148235 </v>
    <v>       0.60116363       0.44633609       0.90071338 </v>
    <v>       0.47851729       0.06901149       0.09229647 </v>
    <v>       0.22851726       0.90234476       0.18459295 </v>
    <v>       0.97851729       0.73567814       0.27688938 </v>
    <v>       0.72851723       0.56901145       0.36918586 </v>
    <v>       0.47851723       0.40234464       0.46148229 </v>
    <v>       0.72851735       0.56901163       0.00000000 </v>
    <v>       0.47851729       0.40234488       0.09229647 </v>
    <v>       0.22851726       0.23567820       0.18459295 </v>
    <v>       0.35116363       0.94633609       0.56076908 </v>
    <v>       0.72851723       0.90234482       0.36918586 </v>
    <v>       0.47851723       0.73567808       0.46148229 </v>
    <v>       0.72851735       0.90234494       0.00000000 </v>
    <v>       0.47851729       0.73567820       0.09229647 </v>
    <v>       0.22851726       0.56901151       0.18459295 </v>
    <v>       0.97851729       0.40234485       0.27688938 </v>
    <v>       0.72851723       0.23567812       0.36918586 </v>
    <v>       0.47851723       0.06901138       0.46148229 </v>
    <v>       0.22851729       0.23567820       0.00000000 </v>
    <v>       0.97851723       0.06901149       0.09229647 </v>
    <v>       0.72851718       0.90234476       0.18459295 </v>
    <v>       0.47851729       0.73567814       0.27688935 </v>
    <v>       0.22851718       0.56901145       0.36918586 </v>
    <v>       0.97851706       0.40234464       0.46148235 </v>
    <v>       0.22851729       0.56901163       0.00000000 </v>
    <v>       0.97851723       0.40234488       0.09229647 </v>
    <v>       0.72851718       0.23567820       0.18459295 </v>
    <v>       0.47851729       0.06901154       0.27688935 </v>
    <v>       0.22851718       0.90234482       0.36918586 </v>
    <v>       0.85116363       0.94633603       0.56076908 </v>
    <v>       0.22851729       0.90234494       0.00000000 </v>
    <v>       0.97851723       0.73567820       0.09229647 </v>
    <v>       0.10116363       0.44633609       0.90071338 </v>
    <v>       0.47851729       0.40234485       0.27688935 </v>
    <v>       0.22851718       0.23567812       0.36918586 </v>
    <v>       0.97851706       0.06901138       0.46148235 </v>
    <v>       0.22851712       0.48567808       0.46148235 </v>
    <v>       0.10116363       0.32133609       0.69674677 </v>
    <v>       0.85116363       0.94633615       0.83272451 </v>
    <v>       0.97851706       0.73567808       0.46148235 </v>
    <v>       0.60116363       0.57133609       0.69674677 </v>
    <v>       0.35116363       0.19633615       0.83272451 </v>
    <v>       0.97851718       0.65234476       0.36918586 </v>
    <v>       0.10116363       0.82133615       0.69674677 </v>
    <v>       0.85116363       0.44633609       0.83272451 </v>
    <v>       0.22851712       0.15234470       0.46148235 </v>
    <v>       0.60116363       0.07133615       0.69674677 </v>
    <v>       0.35116363       0.69633609       0.83272451 </v>
    <v>       0.60116357       0.69633603       0.62875789 </v>
    <v>       0.35116363       0.32133609       0.76473570 </v>
    <v>       0.10116363       0.94633603       0.90071338 </v>
    <v>       0.10116363       0.94633603       0.62875789 </v>
    <v>       0.85116363       0.57133609       0.76473570 </v>
    <v>       0.60116363       0.19633603       0.90071338 </v>
    <v>       0.60116363       0.19633615       0.62875789 </v>
    <v>       0.35116363       0.82133615       0.76473570 </v>
    <v>       0.72851718       0.56901151       0.18459295 </v>
    <v>       0.10116351       0.44633606       0.62875789 </v>
    <v>       0.85116363       0.07133615       0.76473570 </v>
    <v>       0.60116363       0.69633609       0.90071338 </v>
    <v>       0.97851729       0.06901154       0.27688938 </v>
    <v>       0.10116375       0.57133615       0.69674677 </v>
    <v>       0.47851729       0.98567820       0.00000000 </v>
    <v>       0.35116363       0.44633609       0.56076908 </v>
    <v>       0.10116363       0.07133615       0.69674677 </v>
    <v>       0.85116363       0.69633609       0.83272451 </v>
    <v>       0.85116363       0.69633609       0.56076908 </v>
    <v>       0.60116363       0.32133615       0.69674677 </v>
    <v>       0.35116363       0.94633615       0.83272451 </v>
    <v>       0.85116363       0.19633615       0.56076908 </v>
    <v>       0.60116363       0.82133609       0.69674677 </v>
    <v>       0.35116363       0.44633615       0.83272451 </v>
    <v>       0.60116369       0.94633609       0.62875789 </v>
    <v>       0.35116363       0.57133615       0.76473570 </v>
    <v>       0.97851729       0.98567820       0.00000000 </v>
    <v>       0.60116363       0.44633609       0.62875789 </v>
    <v>       0.35116363       0.07133615       0.76473570 </v>
    <v>       0.72851723       0.15234485       0.09229647 </v>
    <v>       0.72851718       0.48567808       0.46148235 </v>
    <v>       0.85116363       0.32133606       0.76473570 </v>
    <v>       0.97851729       0.65234494       0.00000000 </v>
    <v>       0.10116363       0.19633615       0.62875789 </v>
    <v>       0.85116363       0.82133615       0.76473570 </v>
    <v>       0.72851735       0.23567820       0.00000000 </v>
   </varray>
  </structure>
  <varray name="forces" >
   <v>       0.12997714      -0.23531187      -0.07382138 </v>
   <v>       0.05733098      -0.29965441      -0.24699922 </v>
   <v>      -0.45408058       0.22520208      -0.03103414 </v>
   <v>       0.00436680      -0.09575529       0.07016460 </v>
   <v>       0.06658031      -0.29698412       0.23789911 </v>
   <v>       0.45585457      -0.30998291      -0.38985430 </v>
   <v>       1.21692368       1.01834970      -0.85627205 </v>
   <v>      -0.36572979       0.44714258      -0.16772474 </v>
   <v>       0.00499205      -0.10734272      -0.06912246 </v>
   <v>       0.00731227      -0.08161814       0.02827300 </v>
   <v>      -0.35866281       0.45053829       0.17358774 </v>
   <v>       0.27610678       0.15392106      -0.20047019 </v>
   <v>       0.32243081      -0.25560883      -0.20710432 </v>
   <v>       0.17930700      -0.45973236      -0.56814224 </v>
   <v>       0.02296951      -0.09084432      -0.02130473 </v>
   <v>       0.47990132       0.24270241       0.03391654 </v>
   <v>       0.18367574      -0.45776155       0.56165501 </v>
   <v>       0.15112174       1.12203844       0.75800967 </v>
   <v>       0.27425231       0.14365530       0.20411374 </v>
   <v>       0.05363933      -0.29402978      -0.23712764 </v>
   <v>       0.48412775       0.23273857      -0.03056084 </v>
   <v>       0.00406301      -0.44157752       0.54019574 </v>
   <v>       0.05844375      -0.29163436       0.22996147 </v>
   <v>       0.32855135      -0.25277891       0.21058512 </v>
   <v>       0.14922748       1.12640996      -0.75592192 </v>
   <v>       0.03978025      -0.18782037      -0.07557537 </v>
   <v>       0.00713418      -0.44721333      -0.53826189 </v>
   <v>       0.01971406      -0.08705624       0.02120177 </v>
   <v>       0.04524656      -0.18295689       0.06473714 </v>
   <v>       0.13330199      -0.23214643       0.07659415 </v>
   <v>       0.44414532      -0.30878326       0.39446048 </v>
   <v>       0.20545000      -0.10874308      -0.10266607 </v>
   <v>       0.00733663      -0.09491609      -0.02299603 </v>
   <v>      -0.45235192       0.23245881       0.03195469 </v>
   <v>       0.21520699      -0.10551082       0.09382550 </v>
   <v>       1.22184346       1.02083351       0.85142919 </v>
   <v>       0.04205041       0.01094937       1.85208706 </v>
   <v>      -0.51678876       0.29561573       0.21998474 </v>
   <v>      -0.01612464       0.11295196      -0.07784532 </v>
   <v>      -0.01221528       0.44744251      -0.46179353 </v>
   <v>      -0.51353766       0.29171899      -0.23370398 </v>
   <v>       0.06839804      -1.26648552      -0.59937774 </v>
   <v>      -1.23907259      -1.06450884      -0.78115377 </v>
   <v>      -0.18957191       0.14021592      -0.11782018 </v>
   <v>      -0.00284991       0.09859744      -0.02083716 </v>
   <v>       0.08020153      -0.01620663      -1.86236968 </v>
   <v>      -0.18930822       0.14331696       0.10440869 </v>
   <v>      -0.65079062       0.11666387       0.05734710 </v>
   <v>      -0.13434158      -1.10643796       0.08237955 </v>
   <v>      -0.07802280       0.16080668      -0.08629876 </v>
   <v>      -0.01792983       0.10985465      -0.02630426 </v>
   <v>      -0.01794766       0.11930465       0.06606061 </v>
   <v>      -0.07665442       0.17020291       0.07274922 </v>
   <v>      -0.20330573      -1.05903043       0.83602406 </v>
   <v>      -0.64834594       0.11459698      -0.05701392 </v>
   <v>       0.44150909       0.28585796       0.22084143 </v>
   <v>       0.00553435       0.12031935      -0.07344689 </v>
   <v>      -0.02367465       0.09232844       0.01025147 </v>
   <v>       0.44035167       0.29630237      -0.22938006 </v>
   <v>      -0.13139528      -1.10172120      -0.08331372 </v>
   <v>      -0.20619117      -1.06146465      -0.83349303 </v>
   <v>      -0.22123738       0.13128161      -0.09851691 </v>
   <v>      -0.02329140       0.44551876       0.45264457 </v>
   <v>      -0.02192646       0.10986155       0.01445316 </v>
   <v>      -0.21860581       0.13269825       0.08950672 </v>
   <v>       0.04809356       0.01309354      -1.84928857 </v>
   <v>       0.06790274      -1.27093683       0.60171976 </v>
   <v>      -0.04385006       0.51320407       0.40903115 </v>
   <v>       0.07894180      -0.01532858       1.86503725 </v>
   <v>      -0.00329244       0.11098118       0.06561519 </v>
   <v>      -0.04404008       0.50939786      -0.41750946 </v>
   <v>      -1.23841123      -1.06028243       0.77587689 </v>
   <v>      -0.44373475       1.13084732      -1.03216665 </v>
   <v>      -0.32520084       0.02241558      -0.56052918 </v>
   <v>      -0.45305173      -0.00847148      -0.43445261 </v>
   <v>      -0.13522886       0.44525707      -0.07388139 </v>
   <v>       0.32026199      -0.00938628      -0.56201321 </v>
   <v>      -0.73643196       0.11039420       0.06317234 </v>
   <v>       0.03216283      -0.55973887      -0.44226167 </v>
   <v>       0.24702582      -0.33211819      -0.78895170 </v>
   <v>      -0.01313159      -0.00535086       0.19517624 </v>
   <v>       0.36627481       0.08738650       0.02947530 </v>
   <v>      -0.22427272      -0.03968982      -0.52746151 </v>
   <v>      -0.22640997      -0.12773022       0.04897737 </v>
   <v>      -0.74301498       0.08694712      -0.05775062 </v>
   <v>       0.24315212       0.04699258       0.52098048 </v>
   <v>       0.34647752      -0.25315661      -0.73090884 </v>
   <v>      -0.02302019      -0.02941639      -0.19784338 </v>
   <v>      -0.23725987      -0.07336005       0.53677934 </v>
   <v>       0.55020212      -0.68972192      -0.50660048 </v>
   <v>      -0.24454318      -0.14689094      -0.05062063 </v>
   <v>      -0.32677709      -0.00188575       0.56787678 </v>
   <v>      -0.01976728       0.10262293       0.01737568 </v>
   <v>      -0.46279523      -0.03126582       0.43235963 </v>
   <v>       0.28162779       0.35847262       0.85070377 </v>
   <v>      -0.34186392       0.51269192       0.45046002 </v>
   <v>      -0.02003164       0.11253068       0.03292888 </v>
   <v>       0.29846780       0.38263339      -0.84056424 </v>
   <v>      -0.21276556       1.00738727       0.45245714 </v>
   <v>       0.34569814      -0.24851316       0.72168976 </v>
   <v>      -0.22558378      -0.03900635      -0.52421994 </v>
   <v>       0.72366613      -0.08561735       0.07615891 </v>
   <v>       0.55178998      -0.68811692       0.50078938 </v>
   <v>      -0.31804373       0.02732000      -0.56690147 </v>
   <v>       0.49692534       0.00596375      -0.42661858 </v>
   <v>      -0.33894566       0.51493444      -0.46424244 </v>
   <v>       0.25278065       0.07506866      -0.51610310 </v>
   <v>      -0.01327302      -0.00726173       0.21061579 </v>
   <v>      -0.02456914      -0.02201433      -0.19696919 </v>
   <v>      -0.23348463      -0.04888987       0.53061920 </v>
   <v>      -0.42913904       1.14855967       1.03623593 </v>
   <v>       0.48914340      -0.01929395       0.43995626 </v>
   <v>       0.31769282      -0.02820814       0.56690833 </v>
   <v>       0.04302494      -0.53016382       0.45335511 </v>
   <v>      -0.22738017       0.98203482      -0.44981507 </v>
   <v>       0.23545644      -0.34807418       0.79784665 </v>
   <v>       0.38558192       0.10914149      -0.02677213 </v>
   <v>       0.72369523      -0.10945664      -0.06675910 </v>
   <v>      -0.33646814       0.00757218       0.57271669 </v>
   <v>      -0.12466881       0.44471786       0.06463529 </v>
  </varray>
  <varray name="stress" >
   <v>      50.97506039     -10.48377097       0.06352065 </v>
   <v>     -10.48376918      19.92340228       0.09310622 </v>
   <v>       0.06352057       0.09310622      29.97193392 </v>
  </varray>
  <energy>
   <i name="e_fr_energy">   -574.56837832 </i>
   <i name="e_wo_entrp">   -574.56679036 </i>
   <i name="e_0_energy">   -574.56758434 </i>
  </energy>
  <time name="totalsc"> 1182.20 1193.22</time>
  <eigenvalues>
   <array>
    <dimension dim="1">band</dimension>
    <dimension dim="2">kpoint</dimension>
    <dimension dim="3">spin</dimension>
    <field>eigene</field>
    <field>occ</field>
    <set>
     <set comment="spin 1">
      <set comment="kpoint 1">
       <r>   -7.8497    1.0000 </r>
       <r>   -7.6698    1.0000 </r>
       <r>   -7.5079    1.0000 </r>
       <r>   -7.3449    1.0000 </r>
       <r>   -7.2796    1.0000 </r>
       <r>   -7.2277    1.0000 </r>
       <r>   -7.0644    1.0000 </r>
       <r>   -6.9969    1.0000 </r>
       <r>   -6.9721    1.0000 </r>
       <r>   -6.6309    1.0000 </r>
       <r>   -6.5383    1.0000 </r>
       <r>   -6.4819    1.0000 </r>
       <r>   -6.2811    1.0000 </r>
       <r>   -6.2695    1.0000 </r>
       <r>   -6.2428    1.0000 </r>
       <r>   -6.0831    1.0000 </r>
       <r>   -5.9112    1.0000 </r>
       <r>   -5.8904    1.0000 </r>
       <r>   -5.8533    1.0000 </r>
       <r>   -5.7923    1.0000 </r>
       <r>   -5.7814    1.0000 </r>
       <r>   -5.6622    1.0000 </r>
       <r>   -5.6216    1.0000 </r>
       <r>   -5.5901    1.0000 </r>
       <r>   -5.5395    1.0000 </r>
       <r>   -5.4778    1.0000 </r>
       <r>   -5.4252    1.0000 </r>
       <r>   -5.4100    1.0000 </r>
       <r>   -5.4063    1.0000 </r>
       <r>   -5.3608    1.0000 </r>
       <r>   -5.3161    1.0000 </r>
       <r>   -5.2914    1.0000 </r>
       <r>   -5.2514    1.0000 </r>
       <r>   -5.2250    1.0000 </r>
       <r>   -5.1844    1.0000 </r>
       <r>   -5.1674    1.0000 </r>
       <r>   -5.1251    1.0000 </r>
       <r>   -5.0891    1.0000 </r>
       <r>   -5.0768    1.0000 </r>
       <r>   -5.0358    1.0000 </r>
       <r>   -4.9972    1.0000 </r>
       <r>   -4.9631    1.0000 </r>
       <r>   -4.8262    1.0000 </r>
       <r>   -4.8021    1.0000 </r>
       <r>   -4.7284    1.0000 </r>
       <r>   -4.6904    1.0000 </r>
       <r>   -4.5091    1.0000 </r>
       <r>   -4.4813    1.0000 </r>
       <r>   -4.3601    1.0000 </r>
       <r>   -4.3570    1.0000 </r>
       <r>   -4.1361    1.0000 </r>
       <r>   -4.1169    1.0000 </r>
       <r>   -4.0750    1.0000 </r>
       <r>   -4.0741    1.0000 </r>
       <r>   -3.9515    1.0000 </r>
       <r>   -3.9454    1.0000 </r>
       <r>   -3.9320    1.0000 </r>
       <r>   -3.7782    1.0000 </r>
       <r>   -3.7514    1.0000 </r>
       <r>   -3.6389    1.0000 </r>
       <r>   -3.5427    1.0000 </r>
       <r>   -3.5391    1.0000 </r>
       <r>   -3.3252    1.0000 </r>
       <r>   -3.3061    1.0000 </r>
       <r>   -3.2126    1.0000 </r>
       <r>   -3.0242    1.0000 </r>
       <r>   -3.0070    1.0000 </r>
       <r>   -2.7983    1.0000 </r>
       <r>   -2.7452    1.0000 </r>
       <r>   -2.7299    1.0000 </r>
       <r>   -2.6549    1.0000 </r>
       <r>   -2.6346    1.0000 </r>
       <r>   -2.5943    1.0000 </r>
       <r>   -2.5880    1.0000 </r>
       <r>   -2.5669    1.0000 </r>
       <r>   -2.5551    1.0000 </r>
       <r>   -2.5378    1.0000 </r>
       <r>   -2.4750    1.0000 </r>
       <r>   -2.4315    1.0000 </r>
       <r>   -2.4140    1.0000 </r>
       <r>   -2.3989    1.0000 </r>
       <r>   -2.3843    1.0000 </r>
       <r>   -2.3627    1.0000 </r>
       <r>   -2.3099    1.0000 </r>
       <r>   -2.2687    1.0000 </r>
       <r>   -2.2314    1.0000 </r>
       <r>   -2.2246    1.0000 </r>
       <r>   -2.2224    1.0000 </r>
       <r>   -2.1992    1.0000 </r>
       <r>   -2.1839    1.0000 </r>
       <r>   -2.1685    1.0000 </r>
       <r>   -2.0490    1.0000 </r>
       <r>   -2.0310    1.0000 </r>
       <r>   -1.9259    1.0000 </r>
       <r>   -1.9024    1.0000 </r>
       <r>   -1.8743    1.0000 </r>
       <r>   -1.6897    1.0000 </r>
       <r>   -1.6523    1.0000 </r>
       <r>   -1.6009    1.0000 </r>
       <r>   -1.5181    1.0000 </r>
       <r>   -1.5086    1.0000 </r>
       <r>   -1.4433    1.0000 </r>
       <r>   -1.2286    1.0000 </r>
       <r>   -1.2190    1.0000 </r>
       <r>   -0.9399    1.0000 </r>
       <r>   -0.9313    1.0000 </r>
       <r>   -0.7664    1.0000 </r>
       <r>   -0.5172    1.0000 </r>
       <r>   -0.4877    1.0000 </r>
       <r>   -0.2578    1.0000 </r>
       <r>   -0.2382    1.0000 </r>
       <r>   -0.1138    1.0000 </r>
       <r>    0.1923    1.0000 </r>
       <r>    0.2803    1.0000 </r>
       <r>    0.3252    1.0000 </r>
       <r>    0.3376    1.0000 </r>
       <r>    0.5435    1.0000 </r>
       <r>    0.5436    1.0000 </r>
       <r>    0.5984    1.0000 </r>
       <r>    0.5991    1.0000 </r>
       <r>    0.6057    1.0000 </r>
       <r>    0.6061    1.0000 </r>
       <r>    0.6873    1.0000 </r>
       <r>    0.7923    1.0000 </r>
       <r>    0.7929    1.0000 </r>
       <r>    0.8201    1.0000 </r>
       <r>    0.8219    1.0000 </r>
       <r>    0.8527    1.0000 </r>
       <r>    0.9314    1.0000 </r>
       <r>    0.9317    1.0000 </r>
       <r>    0.9825    1.0000 </r>
       <r>    1.0648    1.0000 </r>
       <r>    1.0650    1.0000 </r>
       <r>    1.1101    1.0000 </r>
       <r>    1.1111    1.0000 </r>
       <r>    1.1717    1.0000 </r>
       <r>    1.1719    1.0000 </r>
       <r>    1.2349    1.0000 </r>
       <r>    1.2652    1.0000 </r>
       <r>    1.2663    1.0000 </r>
       <r>    1.2820    1.0000 </r>
       <r>    1.3136    1.0000 </r>
       <r>    1.3362    1.0000 </r>
       <r>    1.3365    1.0000 </r>
       <r>    1.3944    1.0000 </r>
       <r>    1.4305    1.0000 </r>
       <r>    1.4309    1.0000 </r>
       <r>    1.4937    1.0000 </r>
       <r>    1.4942    1.0000 </r>
       <r>    1.5503    1.0000 </r>
       <r>    1.5506    1.0000 </r>
       <r>    1.5812    1.0000 </r>
       <r>    1.5819    1.0000 </r>
       <r>    1.6816    1.0000 </r>
       <r>    1.7256    1.0000 </r>
       <r>    1.7446    1.0000 </r>
       <r>    1.7749    1.0000 </r>
       <r>    1.8066    1.0000 </r>
       <r>    1.8223    1.0000 </r>
       <r>    1.8247    1.0000 </r>
       <r>    1.8495    1.0000 </r>
       <r>    1.8532    1.0000 </r>
       <r>    1.8604    1.0000 </r>
       <r>    1.9433    1.0000 </r>
       <r>    1.9613    1.0000 </r>
       <r>    1.9626    1.0000 </r>
       <r>    2.0128    1.0000 </r>
       <r>    2.1093    1.0000 </r>
       <r>    2.1109    1.0000 </r>
       <r>    2.1184    1.0000 </r>
       <r>    2.1513    1.0000 </r>
       <r>    2.1757    1.0000 </r>
       <r>    2.2087    1.0000 </r>
       <r>    2.2099    1.0000 </r>
       <r>    2.2676    1.0000 </r>
       <r>    2.2869    1.0000 </r>
       <r>    2.3208    1.0000 </r>
       <r>    2.3217    1.0000 </r>
       <r>    2.4064    1.0000 </r>
       <r>    2.4113    1.0000 </r>
       <r>    2.4232    1.0000 </r>
       <r>    2.4679    1.0000 </r>
       <r>    2.4700    1.0000 </r>
       <r>    2.5405    1.0000 </r>
       <r>    2.5435    1.0000 </r>
       <r>    2.6327    1.0000 </r>
       <r>    2.6614    1.0000 </r>
       <r>    2.6855    1.0000 </r>
       <r>    2.7371    1.0000 </r>
       <r>    2.7379    1.0000 </r>
       <r>    2.8399    1.0000 </r>
       <r>    2.8413    1.0000 </r>
       <r>    2.8791    1.0000 </r>
       <r>    2.9213    1.0000 </r>
       <r>    2.9539    1.0000 </r>
       <r>    3.0181    1.0000 </r>
       <r>    3.0351    1.0000 </r>
       <r>    3.0410    1.0000 </r>
       <r>    3.0562    1.0000 </r>
       <r>    3.0767    1.0000 </r>
       <r>    3.1156    1.0000 </r>
       <r>    3.1312    1.0000 </r>
       <r>    3.1382    1.0000 </r>
       <r>    3.2017    1.0000 </r>
       <r>    3.2173    1.0000 </r>
       <r>    3.2361    1.0000 </r>
       <r>    3.2389    1.0000 </r>
       <r>    3.2398    1.0000 </r>
       <r>    3.2585    1.0000 </r>
       <r>    3.2761    1.0000 </r>
       <r>    3.2782    1.0000 </r>
       <r>    3.2901    1.0000 </r>
       <r>    3.3398    1.0000 </r>
       <r>    3.3505    1.0000 </r>
       <r>    3.3516    1.0000 </r>
       <r>    3.3812    1.0000 </r>
       <r>    3.3865    1.0000 </r>
       <r>    3.4137    1.0000 </r>
       <r>    3.4562    1.0000 </r>
       <r>    3.4732    1.0000 </r>
       <r>    3.4898    1.0000 </r>
       <r>    3.4950    1.0000 </r>
       <r>    3.5327    1.0000 </r>
       <r>    3.5510    1.0000 </r>
       <r>    3.6737    1.0000 </r>
       <r>    3.7551    1.0000 </r>
       <r>    3.7881    1.0000 </r>
       <r>    3.9065    1.0000 </r>
       <r>    3.9557    1.0000 </r>
       <r>    4.0202    1.0000 </r>
       <r>    4.0319    1.0000 </r>
       <r>    4.1279    1.0000 </r>
       <r>    4.2218    1.0000 </r>
       <r>    4.2779    1.0000 </r>
       <r>    4.2801    1.0000 </r>
       <r>    4.2919    1.0000 </r>
       <r>    4.3761    1.0000 </r>
       <r>    4.5456    1.0000 </r>
       <r>    4.8265    1.0000 </r>
       <r>    4.8273    1.0000 </r>
       <r>    4.9030    0.0013 </r>
       <r>    4.9190    0.0000 </r>
       <r>    4.9769    0.0000 </r>
       <r>    5.0133    0.0000 </r>
       <r>    5.0168    0.0000 </r>
       <r>    5.0401    0.0000 </r>
       <r>    5.0461    0.0000 </r>
       <r>    5.1395    0.0000 </r>
       <r>    5.1612    0.0000 </r>
       <r>    5.3754    0.0000 </r>
       <r>    5.3764    0.0000 </r>
       <r>    5.4032    0.0000 </r>
       <r>    5.4398    0.0000 </r>
       <r>    5.4464    0.0000 </r>
       <r>    5.5248    0.0000 </r>
       <r>    5.5530    0.0000 </r>
       <r>    5.5795    0.0000 </r>
       <r>    5.6038    0.0000 </r>
       <r>    5.6150    0.0000 </r>
       <r>    5.6415    0.0000 </r>
       <r>    5.7012    0.0000 </r>
       <r>    5.7520    0.0000 </r>
       <r>    5.7710    0.0000 </r>
       <r>    5.7888    0.0000 </r>
       <r>    5.8138    0.0000 </r>
       <r>    5.9305    0.0000 </r>
       <r>    5.9430    0.0000 </r>
       <r>    5.9677    0.0000 </r>
       <r>    5.9721    0.0000 </r>
       <r>    6.0599    0.0000 </r>
       <r>    6.1198    0.0000 </r>
       <r>    6.1353    0.0000 </r>
       <r>    6.2301    0.0000 </r>
       <r>    6.3076    0.0000 </r>
       <r>    6.3144    0.0000 </r>
       <r>    6.3654    0.0000 </r>
       <r>    6.3984    0.0000 </r>
       <r>    6.4165    0.0000 </r>
       <r>    6.4420    0.0000 </r>
       <r>    6.5044    0.0000 </r>
       <r>    6.5151    0.0000 </r>
       <r>    6.5288    0.0000 </r>
       <r>    6.5456    0.0000 </r>
       <r>    6.5540    0.0000 </r>
       <r>    6.5669    0.0000 </r>
       <r>    6.5764    0.0000 </r>
       <r>    6.6057    0.0000 </r>
       <r>    6.6268    0.0000 </r>
      </set>
      <set comment="kpoint 2">
       <r>   -7.7124    1.0000 </r>
       <r>   -7.5343    1.0000 </r>
       <r>   -7.3756    1.0000 </r>
       <r>   -7.2130    1.0000 </r>
       <r>   -7.1544    1.0000 </r>
       <r>   -7.0985    1.0000 </r>
       <r>   -6.9389    1.0000 </r>
       <r>   -6.8757    1.0000 </r>
       <r>   -6.8624    1.0000 </r>
[...]
       <r>    -5.1843    37.7095    69.6407 </r>
       <r>    -5.1292    41.1620    71.9092 </r>
       <r>    -5.0741    50.7552    74.7063 </r>
       <r>    -5.0190    44.6298    77.1659 </r>
       <r>    -4.9639    47.3230    79.7739 </r>
       <r>    -4.9088    32.1183    81.5440 </r>
       <r>    -4.8537    20.3646    82.6663 </r>
       <r>    -4.7986    34.9685    84.5934 </r>
       <r>    -4.7435    29.4846    86.2183 </r>
       <r>    -4.6883    43.2967    88.6044 </r>
       <r>    -4.6332    46.8126    91.1842 </r>
       <r>    -4.5781    34.6253    93.0925 </r>
       <r>    -4.5230    27.1131    94.5867 </r>
       <r>    -4.4679    35.3729    96.5361 </r>
       <r>    -4.4128    38.5834    98.6624 </r>
       <r>    -4.3577    40.4412   100.8912 </r>
       <r>    -4.3026    39.5501   103.0708 </r>
       <r>    -4.2475    34.0802   104.9490 </r>
       <r>    -4.1924    28.2158   106.5039 </r>
       <r>    -4.1372    28.6165   108.0810 </r>
       <r>    -4.0821    21.1628   109.2473 </r>
       <r>    -4.0270     9.3157   109.7607 </r>
       <r>    -3.9719    14.4671   110.5580 </r>
       <r>    -3.9168    23.0285   111.8271 </r>
       <r>    -3.8617    25.8927   113.2540 </r>
       <r>    -3.8066    17.3700   114.2113 </r>
       <r>    -3.7515    16.6931   115.1313 </r>
       <r>    -3.6964    14.7828   115.9460 </r>
       <r>    -3.6413    15.5632   116.8037 </r>
       <r>    -3.5861    10.3732   117.3754 </r>
       <r>    -3.5310    13.8315   118.1376 </r>
       <r>    -3.4759    29.0380   119.7379 </r>
       <r>    -3.4208    16.8884   120.6686 </r>
       <r>    -3.3657    25.4140   122.0692 </r>
       <r>    -3.3106    17.1008   123.0116 </r>
       <r>    -3.2555    20.5470   124.1440 </r>
       <r>    -3.2004    17.5437   125.1108 </r>
       <r>    -3.1453    25.9070   126.5385 </r>
       <r>    -3.0902    31.6608   128.2834 </r>
       <r>    -3.0351    14.6579   129.0912 </r>
       <r>    -2.9799    25.3860   130.4902 </r>
       <r>    -2.9248    12.8559   131.1987 </r>
       <r>    -2.8697    34.1157   133.0788 </r>
       <r>    -2.8146    26.4758   134.5379 </r>
       <r>    -2.7595    31.6430   136.2817 </r>
       <r>    -2.7044    37.2549   138.3349 </r>
       <r>    -2.6493    41.0846   140.5991 </r>
       <r>    -2.5942    43.0033   142.9690 </r>
       <r>    -2.5391    40.4626   145.1990 </r>
       <r>    -2.4840    40.5770   147.4352 </r>
       <r>    -2.4288    66.1187   151.0790 </r>
       <r>    -2.3737    52.4521   153.9696 </r>
       <r>    -2.3186    58.5406   157.1958 </r>
       <r>    -2.2635    56.0271   160.2835 </r>
       <r>    -2.2084    58.5943   163.5126 </r>
       <r>    -2.1533    57.0478   166.6565 </r>
       <r>    -2.0982    41.7237   168.9560 </r>
       <r>    -2.0431    36.4602   170.9653 </r>
       <r>    -1.9880    49.0453   173.6682 </r>
       <r>    -1.9329    41.0805   175.9322 </r>
       <r>    -1.8777    38.2334   178.0392 </r>
       <r>    -1.8226    33.2387   179.8710 </r>
       <r>    -1.7675    23.5044   181.1663 </r>
       <r>    -1.7124    32.4048   182.9522 </r>
       <r>    -1.6573    34.9993   184.8810 </r>
       <r>    -1.6022    34.3267   186.7727 </r>
       <r>    -1.5471    37.8900   188.8609 </r>
       <r>    -1.4920    38.1379   190.9627 </r>
       <r>    -1.4369    31.9315   192.7224 </r>
       <r>    -1.3818    45.7874   195.2458 </r>
       <r>    -1.3266    24.4395   196.5926 </r>
       <r>    -1.2715    23.1862   197.8704 </r>
       <r>    -1.2164    12.7781   198.5746 </r>
       <r>    -1.1613    11.8075   199.2253 </r>
       <r>    -1.1062     9.9930   199.7761 </r>
       <r>    -1.0511    25.4902   201.1808 </r>
       <r>    -0.9960    29.5341   202.8084 </r>
       <r>    -0.9409    25.8876   204.2351 </r>
       <r>    -0.8858    21.0113   205.3930 </r>
       <r>    -0.8307    18.8301   206.4308 </r>
       <r>    -0.7755    20.7369   207.5736 </r>
       <r>    -0.7204    19.1557   208.6292 </r>
       <r>    -0.6653    12.5515   209.3210 </r>
       <r>    -0.6102    20.7403   210.4640 </r>
       <r>    -0.5551    16.9215   211.3965 </r>
       <r>    -0.5000    35.6090   213.3589 </r>
       <r>    -0.4449    35.9742   215.3415 </r>
       <r>    -0.3898    23.5360   216.6385 </r>
       <r>    -0.3347    23.8794   217.9545 </r>
       <r>    -0.2796    16.3003   218.8528 </r>
       <r>    -0.2244    13.5459   219.5994 </r>
       <r>    -0.1693    14.2398   220.3841 </r>
       <r>    -0.1142    16.2321   221.2787 </r>
       <r>    -0.0591    13.7945   222.0389 </r>
       <r>    -0.0040     9.4807   222.5614 </r>
       <r>     0.0511    22.5632   223.8048 </r>
       <r>     0.1062    11.6089   224.4446 </r>
       <r>     0.1613    14.8058   225.2606 </r>
       <r>     0.2164    37.4669   227.3254 </r>
       <r>     0.2715    42.9621   229.6930 </r>
       <r>     0.3267    71.3305   233.6241 </r>
       <r>     0.3818    32.7604   235.4295 </r>
       <r>     0.4369    34.2281   237.3158 </r>
       <r>     0.4920    49.7341   240.0567 </r>
       <r>     0.5471    51.9780   242.9212 </r>
       <r>     0.6022    67.7067   246.6525 </r>
       <r>     0.6573    40.6727   248.8941 </r>
       <r>     0.7124    64.6326   252.4560 </r>
       <r>     0.7675    47.2994   255.0626 </r>
       <r>     0.8226    91.0375   260.0797 </r>
       <r>     0.8778    75.9708   264.2666 </r>
       <r>     0.9329    55.5375   267.3273 </r>
       <r>     0.9880    58.9745   270.5773 </r>
       <r>     1.0431    47.0448   273.1700 </r>
       <r>     1.0982    63.4000   276.6640 </r>
       <r>     1.1533    78.3481   280.9818 </r>
       <r>     1.2084    59.0319   284.2350 </r>
       <r>     1.2635    81.8355   288.7450 </r>
       <r>     1.3186    74.5863   292.8555 </r>
       <r>     1.3737    78.5868   297.1864 </r>
       <r>     1.4289    66.8511   300.8706 </r>
       <r>     1.4840    54.0383   303.8486 </r>
       <r>     1.5391    99.7230   309.3444 </r>
       <r>     1.5942    41.5227   311.6327 </r>
       <r>     1.6493    74.3352   315.7293 </r>
       <r>     1.7044    77.7352   320.0133 </r>
       <r>     1.7595    82.2972   324.5487 </r>
       <r>     1.8146    81.8846   329.0614 </r>
       <r>     1.8697    98.1708   334.4716 </r>
       <r>     1.9248    80.5257   338.9093 </r>
       <r>     1.9799    68.8108   342.7015 </r>
       <r>     2.0351    75.5858   346.8671 </r>
       <r>     2.0902    64.7080   350.4332 </r>
       <r>     2.1453    56.1841   353.5295 </r>
       <r>     2.2004    73.7030   357.5912 </r>
       <r>     2.2555    58.6247   360.8220 </r>
       <r>     2.3106   105.1439   366.6165 </r>
       <r>     2.3657    49.0425   369.3193 </r>
       <r>     2.4208    70.3859   373.1983 </r>
       <r>     2.4759    59.3438   376.4687 </r>
       <r>     2.5310    89.3006   381.3901 </r>
       <r>     2.5862    73.3224   385.4309 </r>
       <r>     2.6413    67.0215   389.1244 </r>
       <r>     2.6964    70.9247   393.0331 </r>
       <r>     2.7515    61.2387   396.4080 </r>
       <r>     2.8066    43.3554   398.7973 </r>
       <r>     2.8617    61.9372   402.2106 </r>
       <r>     2.9168    41.8033   404.5144 </r>
       <r>     2.9719    70.2308   408.3849 </r>
       <r>     3.0270    71.0079   412.2982 </r>
       <r>     3.0821    61.9605   415.7128 </r>
       <r>     3.1373    71.4106   419.6483 </r>
       <r>     3.1924    70.4763   423.5323 </r>
       <r>     3.2475    58.2670   426.7434 </r>
       <r>     3.3026    61.4238   430.1284 </r>
       <r>     3.3577    78.6613   434.4635 </r>
       <r>     3.4128    65.4539   438.0706 </r>
       <r>     3.4679    56.9997   441.2119 </r>
       <r>     3.5230    59.7623   444.5055 </r>
       <r>     3.5781    40.4613   446.7353 </r>
       <r>     3.6332    42.4363   449.0740 </r>
       <r>     3.6884    49.6306   451.8091 </r>
       <r>     3.7435    45.2008   454.3001 </r>
       <r>     3.7986    37.0338   456.3411 </r>
       <r>     3.8537    34.6771   458.2522 </r>
       <r>     3.9088    26.3746   459.7057 </r>
       <r>     3.9639    29.7567   461.3456 </r>
       <r>     4.0190    33.8161   463.2092 </r>
       <r>     4.0741    34.4235   465.1062 </r>
       <r>     4.1292    30.2896   466.7755 </r>
       <r>     4.1843    16.6663   467.6940 </r>
       <r>     4.2395    17.2629   468.6454 </r>
       <r>     4.2946    22.3707   469.8782 </r>
       <r>     4.3497    28.7738   471.4640 </r>
       <r>     4.4048    22.8601   472.7238 </r>
       <r>     4.4599     2.7987   472.8780 </r>
       <r>     4.5150     9.8983   473.4235 </r>
       <r>     4.5701    18.0330   474.4173 </r>
       <r>     4.6252    19.1746   475.4740 </r>
       <r>     4.6803    12.7875   476.1788 </r>
       <r>     4.7354     9.6375   476.7099 </r>
       <r>     4.7906    13.7715   477.4688 </r>
       <r>     4.8457    11.2371   478.0881 </r>
       <r>     4.9008    41.5898   480.3801 </r>
       <r>     4.9559    25.5473   481.7880 </r>
       <r>     5.0110    21.3380   482.9640 </r>
       <r>     5.0661    26.0273   484.3984 </r>
       <r>     5.1212    29.7178   486.0361 </r>
       <r>     5.1763    28.5588   487.6100 </r>
       <r>     5.2314    40.4336   489.8383 </r>
       <r>     5.2865    49.8263   492.5843 </r>
       <r>     5.3417    27.2039   494.0835 </r>
       <r>     5.3968    42.1773   496.4079 </r>
       <r>     5.4519    40.2537   498.6263 </r>
       <r>     5.5070    36.5464   500.6404 </r>
       <r>     5.5621    29.0089   502.2391 </r>
       <r>     5.6172    47.7677   504.8716 </r>
       <r>     5.6723    52.5681   507.7687 </r>
       <r>     5.7274    31.8109   509.5218 </r>
       <r>     5.7825    49.1068   512.2281 </r>
       <r>     5.8376    51.8055   515.0831 </r>
       <r>     5.8928    52.0007   517.9489 </r>
       <r>     5.9479    46.1120   520.4901 </r>
       <r>     6.0030    70.2575   524.3620 </r>
       <r>     6.0581    57.4236   527.5267 </r>
       <r>     6.1132    49.3644   530.2472 </r>
       <r>     6.1683    35.8449   532.2226 </r>
       <r>     6.2234    42.2621   534.5517 </r>
       <r>     6.2785    59.1290   537.8103 </r>
       <r>     6.3336    49.9896   540.5652 </r>
       <r>     6.3887    45.1095   543.0512 </r>
       <r>     6.4439    47.2287   545.6540 </r>
       <r>     6.4990    62.0596   549.0741 </r>
       <r>     6.5541    57.8181   552.2605 </r>
       <r>     6.6092    74.0624   556.3420 </r>
       <r>     6.6643    48.6328   559.0222 </r>
       <r>     6.7194    46.7925   561.6010 </r>
       <r>     6.7745    47.7940   564.2349 </r>
       <r>     6.8296    38.2799   566.3445 </r>
       <r>     6.8847    49.2791   569.0603 </r>
       <r>     6.9398    45.1810   571.5502 </r>
       <r>     6.9949    42.0116   573.8655 </r>
       <r>     7.0501     6.9797   574.2502 </r>
       <r>     7.1052    12.0585   574.9147 </r>
       <r>     7.1603    15.6689   575.7782 </r>
       <r>     7.2154     4.0245   576.0000 </r>
       <r>     7.2705     0.0000   576.0000 </r>
       <r>     7.3256     0.0000   576.0000 </r>
       <r>     7.3807     0.0000   576.0000 </r>
       <r>     7.4358     0.0000   576.0000 </r>
       <r>     7.4909     0.0000   576.0000 </r>
       <r>     7.5460     0.0000   576.0000 </r>
       <r>     7.6012     0.0000   576.0000 </r>
       <r>     7.6563     0.0000   576.0000 </r>
       <r>     7.7114     0.0000   576.0000 </r>
       <r>     7.7665     0.0000   576.0000 </r>
       <r>     7.8216     0.0000   576.0000 </r>
       <r>     7.8767     0.0000   576.0000 </r>
       <r>     7.9318     0.0000   576.0000 </r>
      </set>
     </set>
    </array>
   </total>
  </dos>
 </calculation>
 <structure name="finalpos" >
  <crystal>
   <varray name="basis" >
    <v>       7.68059444       0.00000000       0.00000000 </v>
    <v>       0.00000000      16.29299927       0.00000000 </v>
    <v>       0.00000000       0.00000000      20.80414009 </v>
   </varray>
   <i name="volume">   2603.42841946 </i>
   <varray name="rec_basis" >
    <v>       0.13019826       0.00000000       0.00000000 </v>
    <v>       0.00000000       0.06137605       0.00000000 </v>
    <v>       0.00000000       0.00000000       0.04806736 </v>
   </varray>
  </crystal>
  <varray name="positions" >
   <v>       0.10116363       0.19633615       0.90071338 </v>
   <v>       0.72851723       0.81901145       0.09229647 </v>
   <v>       0.47851718       0.65234476       0.18459295 </v>
   <v>       0.22851723       0.48567814       0.27688938 </v>
   <v>       0.97851718       0.31901139       0.36918586 </v>
   <v>       0.72851718       0.15234470       0.46148235 </v>
   <v>       0.97851729       0.31901154       0.00000000 </v>
   <v>       0.10116363       0.69633609       0.90071338 </v>
   <v>       0.47851718       0.98567814       0.18459295 </v>
   <v>       0.22851723       0.81901151       0.27688938 </v>
   <v>       0.35116363       0.19633615       0.56076908 </v>
   <v>       0.10116363       0.69633603       0.62875789 </v>
   <v>       0.60116357       0.94633603       0.90071338 </v>
   <v>       0.72851723       0.48567820       0.09229647 </v>
   <v>       0.47851718       0.31901151       0.18459295 </v>
   <v>       0.22851723       0.15234487       0.27688938 </v>
   <v>       0.97851718       0.98567814       0.36918586 </v>
   <v>       0.72851718       0.81901139       0.46148235 </v>
   <v>       0.85116363       0.19633615       0.83272451 </v>
   <v>       0.22851725       0.81901145       0.09229647 </v>
   <v>       0.97851723       0.65234476       0.18459295 </v>
   <v>       0.72851729       0.48567814       0.27688935 </v>
   <v>       0.47851718       0.31901139       0.36918586 </v>
   <v>       0.85116357       0.44633606       0.56076908 </v>
   <v>       0.47851729       0.31901154       0.00000000 </v>
   <v>       0.22851725       0.15234485       0.09229647 </v>
   <v>       0.97851723       0.98567814       0.18459295 </v>
   <v>       0.72851729       0.81901151       0.27688935 </v>
   <v>       0.47851718       0.65234476       0.36918586 </v>
   <v>       0.35116363       0.69633603       0.56076908 </v>
   <v>       0.47851729       0.65234494       0.00000000 </v>
   <v>       0.22851725       0.48567820       0.09229647 </v>
   <v>       0.97851723       0.31901151       0.18459295 </v>
   <v>       0.72851729       0.15234487       0.27688935 </v>
   <v>       0.47851718       0.98567814       0.36918586 </v>
   <v>       0.22851712       0.81901139       0.46148235 </v>
   <v>       0.60116363       0.44633609       0.90071338 </v>
   <v>       0.47851729       0.06901149       0.09229647 </v>
   <v>       0.22851726       0.90234476       0.18459295 </v>
   <v>       0.97851729       0.73567814       0.27688938 </v>
   <v>       0.72851723       0.56901145       0.36918586 </v>
   <v>       0.47851723       0.40234464       0.46148229 </v>
   <v>       0.72851735       0.56901163       0.00000000 </v>
   <v>       0.47851729       0.40234488       0.09229647 </v>
   <v>       0.22851726       0.23567820       0.18459295 </v>
   <v>       0.35116363       0.94633609       0.56076908 </v>
   <v>       0.72851723       0.90234482       0.36918586 </v>
   <v>       0.47851723       0.73567808       0.46148229 </v>
   <v>       0.72851735       0.90234494       0.00000000 </v>
   <v>       0.47851729       0.73567820       0.09229647 </v>
   <v>       0.22851726       0.56901151       0.18459295 </v>
   <v>       0.97851729       0.40234485       0.27688938 </v>
   <v>       0.72851723       0.23567812       0.36918586 </v>
   <v>       0.47851723       0.06901138       0.46148229 </v>
   <v>       0.22851729       0.23567820       0.00000000 </v>
   <v>       0.97851723       0.06901149       0.09229647 </v>
   <v>       0.72851718       0.90234476       0.18459295 </v>
   <v>       0.47851729       0.73567814       0.27688935 </v>
   <v>       0.22851718       0.56901145       0.36918586 </v>
   <v>       0.97851706       0.40234464       0.46148235 </v>
   <v>       0.22851729       0.56901163       0.00000000 </v>
   <v>       0.97851723       0.40234488       0.09229647 </v>
   <v>       0.72851718       0.23567820       0.18459295 </v>
   <v>       0.47851729       0.06901154       0.27688935 </v>
   <v>       0.22851718       0.90234482       0.36918586 </v>
   <v>       0.85116363       0.94633603       0.56076908 </v>
   <v>       0.22851729       0.90234494       0.00000000 </v>
   <v>       0.97851723       0.73567820       0.09229647 </v>
   <v>       0.10116363       0.44633609       0.90071338 </v>
   <v>       0.47851729       0.40234485       0.27688935 </v>
   <v>       0.22851718       0.23567812       0.36918586 </v>
   <v>       0.97851706       0.06901138       0.46148235 </v>
   <v>       0.22851712       0.48567808       0.46148235 </v>
   <v>       0.10116363       0.32133609       0.69674677 </v>
   <v>       0.85116363       0.94633615       0.83272451 </v>
   <v>       0.97851706       0.73567808       0.46148235 </v>
   <v>       0.60116363       0.57133609       0.69674677 </v>
   <v>       0.35116363       0.19633615       0.83272451 </v>
   <v>       0.97851718       0.65234476       0.36918586 </v>
   <v>       0.10116363       0.82133615       0.69674677 </v>
   <v>       0.85116363       0.44633609       0.83272451 </v>
   <v>       0.22851712       0.15234470       0.46148235 </v>
   <v>       0.60116363       0.07133615       0.69674677 </v>
   <v>       0.35116363       0.69633609       0.83272451 </v>
   <v>       0.60116357       0.69633603       0.62875789 </v>
   <v>       0.35116363       0.32133609       0.76473570 </v>
   <v>       0.10116363       0.94633603       0.90071338 </v>
   <v>       0.10116363       0.94633603       0.62875789 </v>
   <v>       0.85116363       0.57133609       0.76473570 </v>
   <v>       0.60116363       0.19633603       0.90071338 </v>
   <v>       0.60116363       0.19633615       0.62875789 </v>
   <v>       0.35116363       0.82133615       0.76473570 </v>
   <v>       0.72851718       0.56901151       0.18459295 </v>
   <v>       0.10116351       0.44633606       0.62875789 </v>
   <v>       0.85116363       0.07133615       0.76473570 </v>
   <v>       0.60116363       0.69633609       0.90071338 </v>
   <v>       0.97851729       0.06901154       0.27688938 </v>
   <v>       0.10116375       0.57133615       0.69674677 </v>
   <v>       0.47851729       0.98567820       0.00000000 </v>
   <v>       0.35116363       0.44633609       0.56076908 </v>
   <v>       0.10116363       0.07133615       0.69674677 </v>
   <v>       0.85116363       0.69633609       0.83272451 </v>
   <v>       0.85116363       0.69633609       0.56076908 </v>
   <v>       0.60116363       0.32133615       0.69674677 </v>
   <v>       0.35116363       0.94633615       0.83272451 </v>
   <v>       0.85116363       0.19633615       0.56076908 </v>
   <v>       0.60116363       0.82133609       0.69674677 </v>
   <v>       0.35116363       0.44633615       0.83272451 </v>
   <v>       0.60116369       0.94633609       0.62875789 </v>
   <v>       0.35116363       0.57133615       0.76473570 </v>
   <v>       0.97851729       0.98567820       0.00000000 </v>
   <v>       0.60116363       0.44633609       0.62875789 </v>
   <v>       0.35116363       0.07133615       0.76473570 </v>
   <v>       0.72851723       0.15234485       0.09229647 </v>
   <v>       0.72851718       0.48567808       0.46148235 </v>
   <v>       0.85116363       0.32133606       0.76473570 </v>
   <v>       0.97851729       0.65234494       0.00000000 </v>
   <v>       0.10116363       0.19633615       0.62875789 </v>
   <v>       0.85116363       0.82133615       0.76473570 </v>
   <v>       0.72851735       0.23567820       0.00000000 </v>
  </varray>
 </structure>
</modeling>
