 228 228   0   0
  0.2310631E+02  0.1717433E-08  0.1717433E-08  0.1786100E-08  0.5000000E-15
  1.000000000000000E-004
  CAR 
 Si and Ge interface calculation         
      6.90080225     -8.89068674  301      4.11160629      1.00000000
     -8.891  0.0000E+00  0.0000E+00  0.0000E+00  0.0000E+00
     -8.838  0.0000E+00  0.0000E+00  0.0000E+00  0.0000E+00
     -8.785  0.0000E+00  0.0000E+00  0.0000E+00  0.0000E+00
     -8.733  0.0000E+00  0.0000E+00  0.0000E+00  0.0000E+00
     -8.680  0.0000E+00  0.0000E+00  0.0000E+00  0.0000E+00
     -8.627  0.0000E+00  0.0000E+00  0.0000E+00  0.0000E+00
     -8.575  0.0000E+00  0.0000E+00  0.0000E+00  0.0000E+00
     -8.522  0.0000E+00  0.0000E+00  0.0000E+00  0.0000E+00
     -8.470  0.0000E+00  0.0000E+00  0.0000E+00  0.0000E+00
     -8.417  0.0000E+00  0.0000E+00  0.0000E+00  0.0000E+00
     -8.364  0.0000E+00  0.0000E+00  0.0000E+00  0.0000E+00
     -8.312  0.0000E+00  0.0000E+00  0.0000E+00  0.0000E+00
     -8.259  0.0000E+00  0.0000E+00  0.0000E+00  0.0000E+00
     -8.206  0.5148E-05  0.9469E-06  0.2710E-06  0.4984E-07
     -8.154  0.9034E+01  0.8693E+01  0.4755E+00  0.4576E+00
     -8.101  0.4650E+00  0.8057E+00  0.5000E+00  0.5000E+00
     -8.048  0.3681E+02  0.3584E+02  0.2438E+01  0.2386E+01
     -7.996  0.8348E+01  0.8702E+01  0.2877E+01  0.2844E+01
     -7.943  0.1690E+02  0.1643E+02  0.3767E+01  0.3709E+01
     -7.891  0.1393E+02  0.1502E+02  0.4500E+01  0.4500E+01
     -7.838  0.5456E-03  0.1875E-02  0.4500E+01  0.4500E+01
     -7.785  0.1519E+02  0.1423E+02  0.5299E+01  0.5249E+01
     -7.733  0.1331E+02  0.1281E+02  0.6000E+01  0.5923E+01
     -7.680  0.4083E+02  0.3918E+02  0.8149E+01  0.7985E+01
     -7.627  0.7733E+02  0.7936E+02  0.1222E+02  0.1216E+02
     -7.575  0.2878E+02  0.2932E+02  0.1373E+02  0.1371E+02
     -7.522  0.1047E+02  0.9692E+01  0.1429E+02  0.1422E+02
     -7.469  0.1358E+02  0.1489E+02  0.1500E+02  0.1500E+02
     -7.417  0.1788E+02  0.1551E+02  0.1594E+02  0.1582E+02
     -7.364  0.1575E+02  0.1635E+02  0.1677E+02  0.1668E+02
     -7.312  0.5864E+02  0.5828E+02  0.1986E+02  0.1974E+02
     -7.259  0.5009E+02  0.4800E+02  0.2249E+02  0.2227E+02
     -7.206  0.7322E+02  0.7554E+02  0.2635E+02  0.2625E+02
     -7.154  0.5500E+02  0.5463E+02  0.2924E+02  0.2912E+02
     -7.101  0.5378E+02  0.5265E+02  0.3207E+02  0.3189E+02
     -7.048  0.2708E+02  0.3044E+02  0.3350E+02  0.3350E+02
     -6.996  0.1963E+02  0.1380E+02  0.3453E+02  0.3422E+02
     -6.943  0.7335E+02  0.7723E+02  0.3839E+02  0.3829E+02
     -6.890  0.7185E+02  0.7120E+02  0.4218E+02  0.4204E+02
     -6.838  0.5395E+02  0.5452E+02  0.4502E+02  0.4491E+02
     -6.785  0.5045E+02  0.4766E+02  0.4767E+02  0.4741E+02
     -6.733  0.8284E+02  0.8313E+02  0.5203E+02  0.5179E+02
     -6.680  0.2765E+02  0.2920E+02  0.5349E+02  0.5333E+02
     -6.627  0.6731E+02  0.6466E+02  0.5703E+02  0.5673E+02
     -6.575  0.5035E+02  0.5199E+02  0.5968E+02  0.5947E+02
     -6.522  0.1221E+03  0.1209E+03  0.6611E+02  0.6583E+02
     -6.469  0.8151E+02  0.8128E+02  0.7040E+02  0.7011E+02
     -6.417  0.7903E+02  0.7915E+02  0.7456E+02  0.7428E+02
     -6.364  0.8672E+02  0.8592E+02  0.7912E+02  0.7880E+02
     -6.311  0.9322E+02  0.9448E+02  0.8403E+02  0.8377E+02
     -6.259  0.8149E+02  0.8133E+02  0.8832E+02  0.8806E+02
     -6.206  0.6351E+02  0.6553E+02  0.9166E+02  0.9150E+02
     -6.153  0.5587E+02  0.5433E+02  0.9460E+02  0.9436E+02
     -6.101  0.7456E+02  0.7121E+02  0.9853E+02  0.9811E+02
     -6.048  0.8236E+02  0.8610E+02  0.1029E+03  0.1026E+03
     -5.996  0.6700E+02  0.6893E+02  0.1064E+03  0.1063E+03
     -5.943  0.6335E+02  0.6081E+02  0.1097E+03  0.1095E+03
     -5.890  0.7373E+02  0.7427E+02  0.1136E+03  0.1134E+03
     -5.838  0.8523E+02  0.8667E+02  0.1181E+03  0.1179E+03
     -5.785  0.8101E+02  0.7684E+02  0.1224E+03  0.1220E+03
     -5.732  0.7070E+02  0.7370E+02  0.1261E+03  0.1259E+03
     -5.680  0.5922E+02  0.5620E+02  0.1292E+03  0.1288E+03
     -5.627  0.1500E+03  0.1523E+03  0.1371E+03  0.1368E+03
     -5.574  0.6888E+02  0.6659E+02  0.1407E+03  0.1404E+03
     -5.522  0.5321E+02  0.5948E+02  0.1435E+03  0.1435E+03
     -5.469  0.6377E+02  0.6183E+02  0.1469E+03  0.1467E+03
     -5.417  0.7087E+02  0.6490E+02  0.1506E+03  0.1502E+03
     -5.364  0.1000E+03  0.1044E+03  0.1559E+03  0.1556E+03
     -5.311  0.8265E+02  0.8092E+02  0.1602E+03  0.1599E+03
     -5.259  0.7273E+02  0.7413E+02  0.1640E+03  0.1638E+03
     -5.206  0.8097E+02  0.8175E+02  0.1683E+03  0.1681E+03
     -5.153  0.5839E+02  0.5692E+02  0.1714E+03  0.1711E+03
     -5.101  0.5792E+02  0.5684E+02  0.1744E+03  0.1741E+03
     -5.048  0.7337E+02  0.7543E+02  0.1783E+03  0.1781E+03
     -4.995  0.6860E+02  0.7038E+02  0.1819E+03  0.1818E+03
     -4.943  0.6373E+02  0.6189E+02  0.1853E+03  0.1850E+03
     -4.890  0.6211E+02  0.6111E+02  0.1885E+03  0.1883E+03
     -4.838  0.5420E+02  0.5324E+02  0.1914E+03  0.1911E+03
     -4.785  0.5904E+02  0.6234E+02  0.1945E+03  0.1943E+03
     -4.732  0.4345E+02  0.4288E+02  0.1968E+03  0.1966E+03
     -4.680  0.6730E+02  0.6376E+02  0.2003E+03  0.2000E+03
     -4.627  0.6567E+02  0.7117E+02  0.2038E+03  0.2037E+03
     -4.574  0.5709E+02  0.5812E+02  0.2068E+03  0.2068E+03
     -4.522  0.3949E+02  0.3564E+02  0.2089E+03  0.2086E+03
     -4.469  0.7709E+02  0.7884E+02  0.2129E+03  0.2128E+03
     -4.416  0.3339E+02  0.3383E+02  0.2147E+03  0.2146E+03
     -4.364  0.3129E+02  0.3049E+02  0.2163E+03  0.2162E+03
     -4.311  0.5957E+02  0.5680E+02  0.2195E+03  0.2192E+03
     -4.259  0.2517E+02  0.2752E+02  0.2208E+03  0.2206E+03
     -4.206  0.4215E+02  0.4548E+02  0.2230E+03  0.2230E+03
     -4.153  0.1777E+02  0.1397E+02  0.2239E+03  0.2237E+03
     -4.101  0.6151E+02  0.6029E+02  0.2272E+03  0.2269E+03
     -4.048  0.6246E+02  0.6630E+02  0.2305E+03  0.2304E+03
     -3.995  0.2903E+02  0.2666E+02  0.2320E+03  0.2318E+03
     -3.943  0.1998E+02  0.2295E+02  0.2330E+03  0.2330E+03
     -3.890  0.6455E+02  0.6258E+02  0.2364E+03  0.2363E+03
     -3.837  0.2746E+02  0.2875E+02  0.2379E+03  0.2378E+03
     -3.785  0.2467E+02  0.2294E+02  0.2392E+03  0.2390E+03
     -3.732  0.4458E+02  0.4286E+02  0.2415E+03  0.2413E+03
     -3.679  0.2062E+02  0.2398E+02  0.2426E+03  0.2425E+03
     -3.627  0.5370E+02  0.5128E+02  0.2454E+03  0.2452E+03
     -3.574  0.1020E+03  0.9623E+02  0.2508E+03  0.2503E+03
     -3.522  0.1027E+03  0.1079E+03  0.2562E+03  0.2560E+03
     -3.469  0.7451E+02  0.7295E+02  0.2601E+03  0.2598E+03
     -3.416  0.7342E+02  0.7208E+02  0.2640E+03  0.2636E+03
     -3.364  0.7512E+02  0.7671E+02  0.2680E+03  0.2677E+03
     -3.311  0.8521E+02  0.8500E+02  0.2724E+03  0.2721E+03
     -3.258  0.8395E+02  0.8223E+02  0.2769E+03  0.2765E+03
     -3.206  0.8716E+02  0.8776E+02  0.2814E+03  0.2811E+03
     -3.153  0.8405E+02  0.8591E+02  0.2859E+03  0.2856E+03
     -3.100  0.4633E+02  0.4671E+02  0.2883E+03  0.2881E+03
     -3.048  0.1024E+03  0.1021E+03  0.2937E+03  0.2934E+03
     -2.995  0.5989E+02  0.5972E+02  0.2969E+03  0.2966E+03
     -2.943  0.6092E+02  0.5963E+02  0.3001E+03  0.2997E+03
     -2.890  0.7539E+02  0.7855E+02  0.3040E+03  0.3039E+03
     -2.837  0.8751E+02  0.8531E+02  0.3086E+03  0.3083E+03
     -2.785  0.6227E+02  0.5976E+02  0.3119E+03  0.3115E+03
     -2.732  0.6823E+02  0.7101E+02  0.3155E+03  0.3152E+03
     -2.679  0.5019E+02  0.4853E+02  0.3181E+03  0.3178E+03
     -2.627  0.8594E+02  0.8782E+02  0.3227E+03  0.3224E+03
     -2.574  0.5682E+02  0.5877E+02  0.3257E+03  0.3255E+03
     -2.521  0.7649E+02  0.7549E+02  0.3297E+03  0.3295E+03
     -2.469  0.8348E+02  0.7884E+02  0.3341E+03  0.3336E+03
     -2.416  0.8520E+02  0.8776E+02  0.3386E+03  0.3382E+03
     -2.364  0.1050E+03  0.1031E+03  0.3441E+03  0.3437E+03
     -2.311  0.8397E+02  0.8877E+02  0.3485E+03  0.3483E+03
     -2.258  0.3501E+02  0.3525E+02  0.3504E+03  0.3502E+03
     -2.206  0.8344E+02  0.8602E+02  0.3547E+03  0.3547E+03
     -2.153  0.3712E+02  0.3409E+02  0.3567E+03  0.3565E+03
     -2.100  0.7009E+02  0.6698E+02  0.3604E+03  0.3600E+03
     -2.048  0.8695E+02  0.8904E+02  0.3650E+03  0.3647E+03
     -1.995  0.5501E+02  0.5557E+02  0.3679E+03  0.3677E+03
     -1.942  0.3786E+02  0.3844E+02  0.3699E+03  0.3697E+03
     -1.890  0.3727E+02  0.3813E+02  0.3718E+03  0.3717E+03
     -1.837  0.5402E+02  0.5082E+02  0.3747E+03  0.3744E+03
     -1.785  0.5214E+02  0.5537E+02  0.3774E+03  0.3773E+03
     -1.732  0.5750E+02  0.5386E+02  0.3804E+03  0.3801E+03
     -1.679  0.5139E+02  0.5527E+02  0.3831E+03  0.3830E+03
     -1.627  0.1907E+02  0.1749E+02  0.3841E+03  0.3839E+03
     -1.574  0.4634E+02  0.4640E+02  0.3866E+03  0.3864E+03
     -1.521  0.3322E+02  0.3446E+02  0.3883E+03  0.3882E+03
     -1.469  0.3169E+02  0.3203E+02  0.3900E+03  0.3899E+03
     -1.416  0.3008E+02  0.2707E+02  0.3916E+03  0.3913E+03
     -1.363  0.8973E+02  0.8732E+02  0.3963E+03  0.3959E+03
     -1.311  0.4707E+02  0.5167E+02  0.3988E+03  0.3986E+03
     -1.258  0.6349E+02  0.6243E+02  0.4021E+03  0.4019E+03
     -1.205  0.3499E+02  0.3774E+02  0.4040E+03  0.4039E+03
     -1.153  0.2256E+02  0.2266E+02  0.4052E+03  0.4051E+03
     -1.100  0.4341E+02  0.3863E+02  0.4074E+03  0.4071E+03
     -1.048  0.4651E+02  0.4952E+02  0.4099E+03  0.4097E+03
     -0.995  0.2860E+02  0.2668E+02  0.4114E+03  0.4111E+03
     -0.942  0.4277E+02  0.4608E+02  0.4136E+03  0.4136E+03
     -0.890  0.1253E+02  0.1325E+02  0.4143E+03  0.4143E+03
     -0.837  0.5071E+02  0.4775E+02  0.4170E+03  0.4168E+03
     -0.784  0.2815E+02  0.3102E+02  0.4185E+03  0.4184E+03
     -0.732  0.1020E+02  0.7739E+01  0.4190E+03  0.4188E+03
     -0.679  0.2703E+02  0.2861E+02  0.4204E+03  0.4203E+03
     -0.626  0.2725E+02  0.2577E+02  0.4218E+03  0.4217E+03
     -0.574  0.3791E+02  0.3813E+02  0.4238E+03  0.4237E+03
     -0.521  0.2662E+02  0.2825E+02  0.4252E+03  0.4252E+03
     -0.469  0.3375E+02  0.3237E+02  0.4270E+03  0.4269E+03
     -0.416  0.4400E+02  0.4171E+02  0.4293E+03  0.4291E+03
     -0.363  0.4396E+02  0.4384E+02  0.4316E+03  0.4314E+03
     -0.311  0.3288E+02  0.3630E+02  0.4334E+03  0.4333E+03
     -0.258  0.4113E+02  0.4109E+02  0.4355E+03  0.4355E+03
     -0.205  0.3292E+02  0.3127E+02  0.4373E+03  0.4371E+03
     -0.153  0.9479E+02  0.9131E+02  0.4423E+03  0.4419E+03
     -0.100  0.2510E+02  0.2945E+02  0.4436E+03  0.4435E+03
     -0.047  0.1004E+03  0.9495E+02  0.4489E+03  0.4485E+03
      0.005  0.1014E+03  0.1032E+03  0.4542E+03  0.4539E+03
      0.058  0.7372E+02  0.7145E+02  0.4581E+03  0.4576E+03
      0.110  0.1298E+03  0.1292E+03  0.4649E+03  0.4644E+03
      0.163  0.1175E+03  0.1196E+03  0.4711E+03  0.4707E+03
      0.216  0.1323E+03  0.1309E+03  0.4781E+03  0.4776E+03
      0.268  0.1212E+03  0.1162E+03  0.4845E+03  0.4837E+03
      0.321  0.1120E+03  0.1235E+03  0.4904E+03  0.4902E+03
      0.374  0.8297E+02  0.7571E+02  0.4947E+03  0.4942E+03
      0.426  0.1654E+03  0.1639E+03  0.5034E+03  0.5029E+03
      0.479  0.1763E+03  0.1783E+03  0.5127E+03  0.5122E+03
      0.532  0.1291E+03  0.1288E+03  0.5195E+03  0.5190E+03
      0.584  0.1495E+03  0.1497E+03  0.5274E+03  0.5269E+03
      0.637  0.1172E+03  0.1176E+03  0.5335E+03  0.5331E+03
      0.689  0.1385E+03  0.1382E+03  0.5408E+03  0.5404E+03
      0.742  0.1500E+03  0.1508E+03  0.5487E+03  0.5483E+03
      0.795  0.1353E+03  0.1353E+03  0.5559E+03  0.5554E+03
      0.847  0.1208E+03  0.1223E+03  0.5622E+03  0.5619E+03
      0.900  0.1118E+03  0.1109E+03  0.5681E+03  0.5677E+03
      0.953  0.1332E+03  0.1339E+03  0.5751E+03  0.5747E+03
      1.005  0.1179E+03  0.1184E+03  0.5813E+03  0.5810E+03
      1.058  0.1556E+03  0.1495E+03  0.5895E+03  0.5889E+03
      1.111  0.1437E+03  0.1477E+03  0.5971E+03  0.5966E+03
      1.163  0.1953E+03  0.1940E+03  0.6073E+03  0.6068E+03
      1.216  0.1352E+03  0.1369E+03  0.6145E+03  0.6140E+03
      1.269  0.1441E+03  0.1446E+03  0.6221E+03  0.6217E+03
      1.321  0.1301E+03  0.1279E+03  0.6289E+03  0.6284E+03
      1.374  0.1603E+03  0.1635E+03  0.6373E+03  0.6370E+03
      1.426  0.1081E+03  0.1065E+03  0.6430E+03  0.6426E+03
      1.479  0.2060E+03  0.2005E+03  0.6539E+03  0.6532E+03
      1.532  0.1206E+03  0.1273E+03  0.6602E+03  0.6599E+03
      1.584  0.1039E+03  0.1029E+03  0.6657E+03  0.6653E+03
      1.637  0.1503E+03  0.1415E+03  0.6736E+03  0.6727E+03
      1.690  0.1471E+03  0.1551E+03  0.6813E+03  0.6809E+03
      1.742  0.1348E+03  0.1369E+03  0.6884E+03  0.6881E+03
      1.795  0.1387E+03  0.1357E+03  0.6957E+03  0.6952E+03
      1.848  0.1140E+03  0.1157E+03  0.7017E+03  0.7013E+03
      1.900  0.9750E+02  0.9966E+02  0.7069E+03  0.7066E+03
      1.953  0.1086E+03  0.1050E+03  0.7126E+03  0.7121E+03
      2.005  0.1872E+03  0.1841E+03  0.7224E+03  0.7218E+03
      2.058  0.1554E+03  0.1570E+03  0.7306E+03  0.7301E+03
      2.111  0.1297E+03  0.1302E+03  0.7374E+03  0.7369E+03
      2.163  0.9274E+02  0.9263E+02  0.7423E+03  0.7418E+03
      2.216  0.1655E+03  0.1647E+03  0.7510E+03  0.7505E+03
      2.269  0.1208E+03  0.1212E+03  0.7574E+03  0.7568E+03
      2.321  0.1350E+03  0.1332E+03  0.7645E+03  0.7638E+03
      2.374  0.1123E+03  0.1105E+03  0.7704E+03  0.7697E+03
      2.427  0.1340E+03  0.1378E+03  0.7775E+03  0.7769E+03
      2.479  0.9872E+02  0.1015E+03  0.7827E+03  0.7823E+03
      2.532  0.1131E+03  0.1102E+03  0.7886E+03  0.7881E+03
      2.584  0.1210E+03  0.1227E+03  0.7950E+03  0.7945E+03
      2.637  0.1611E+03  0.1568E+03  0.8035E+03  0.8028E+03
      2.690  0.1449E+03  0.1477E+03  0.8111E+03  0.8105E+03
      2.742  0.9761E+02  0.9702E+02  0.8162E+03  0.8157E+03
      2.795  0.1166E+03  0.1174E+03  0.8224E+03  0.8218E+03
      2.848  0.9861E+02  0.9866E+02  0.8276E+03  0.8270E+03
      2.900  0.8558E+02  0.8779E+02  0.8321E+03  0.8316E+03
      2.953  0.7640E+02  0.7586E+02  0.8361E+03  0.8356E+03
      3.006  0.7774E+02  0.7283E+02  0.8402E+03  0.8395E+03
      3.058  0.7165E+02  0.8062E+02  0.8439E+03  0.8437E+03
      3.111  0.6868E+02  0.6340E+02  0.8476E+03  0.8471E+03
      3.163  0.9606E+02  0.9655E+02  0.8526E+03  0.8521E+03
      3.216  0.9368E+02  0.9294E+02  0.8575E+03  0.8570E+03
      3.269  0.1018E+03  0.1069E+03  0.8629E+03  0.8627E+03
      3.321  0.8377E+02  0.7649E+02  0.8673E+03  0.8667E+03
      3.374  0.7164E+02  0.7545E+02  0.8711E+03  0.8707E+03
      3.427  0.8381E+02  0.8418E+02  0.8755E+03  0.8751E+03
      3.479  0.2959E+02  0.3590E+02  0.8771E+03  0.8770E+03
      3.532  0.5512E+02  0.4720E+02  0.8800E+03  0.8795E+03
      3.585  0.7272E+02  0.7649E+02  0.8838E+03  0.8835E+03
      3.637  0.6729E+02  0.6707E+02  0.8873E+03  0.8870E+03
      3.690  0.5283E+02  0.5667E+02  0.8901E+03  0.8900E+03
      3.743  0.2978E+02  0.2292E+02  0.8917E+03  0.8912E+03
      3.795  0.5589E+02  0.5330E+02  0.8946E+03  0.8940E+03
      3.848  0.7439E+02  0.7339E+02  0.8985E+03  0.8979E+03
      3.900  0.1977E+02  0.2962E+02  0.8996E+03  0.8994E+03
      3.953  0.3339E+02  0.2753E+02  0.9013E+03  0.9009E+03
      4.006  0.4676E+02  0.4598E+02  0.9038E+03  0.9033E+03
      4.058  0.5624E+02  0.5246E+02  0.9068E+03  0.9061E+03
      4.111  0.8865E+02  0.9323E+02  0.9114E+03  0.9110E+03
      4.164  0.4723E+02  0.4219E+02  0.9139E+03  0.9132E+03
      4.216  0.8354E+02  0.9024E+02  0.9183E+03  0.9179E+03
      4.269  0.5488E+02  0.4444E+02  0.9212E+03  0.9203E+03
      4.322  0.5398E+02  0.6819E+02  0.9240E+03  0.9239E+03
      4.374  0.6259E+02  0.4836E+02  0.9273E+03  0.9264E+03
      4.427  0.7145E+02  0.7736E+02  0.9311E+03  0.9305E+03
      4.479  0.7668E+02  0.7042E+02  0.9351E+03  0.9342E+03
      4.532  0.8589E+02  0.8827E+02  0.9396E+03  0.9388E+03
      4.585  0.5993E+02  0.6223E+02  0.9428E+03  0.9421E+03
      4.637  0.9208E+02  0.9095E+02  0.9476E+03  0.9469E+03
      4.690  0.7605E+02  0.8173E+02  0.9517E+03  0.9512E+03
      4.743  0.7150E+02  0.6198E+02  0.9554E+03  0.9545E+03
      4.795  0.9556E+02  0.9831E+02  0.9604E+03  0.9596E+03
      4.848  0.1001E+03  0.9915E+02  0.9657E+03  0.9649E+03
      4.901  0.8976E+02  0.9704E+02  0.9704E+03  0.9700E+03
      4.953  0.1176E+03  0.1094E+03  0.9766E+03  0.9757E+03
      5.006  0.8252E+02  0.9092E+02  0.9810E+03  0.9805E+03
      5.058  0.7392E+02  0.7054E+02  0.9849E+03  0.9842E+03
      5.111  0.8553E+02  0.8062E+02  0.9894E+03  0.9885E+03
      5.164  0.9654E+02  0.1012E+03  0.9944E+03  0.9938E+03
      5.216  0.9641E+02  0.9586E+02  0.9995E+03  0.9988E+03
      5.269  0.1207E+03  0.1153E+03  0.1006E+04  0.1005E+04
      5.322  0.1160E+03  0.1182E+03  0.1012E+04  0.1011E+04
      5.374  0.9514E+02  0.9231E+02  0.1017E+04  0.1016E+04
      5.427  0.1230E+03  0.1289E+03  0.1023E+04  0.1023E+04
      5.480  0.1083E+03  0.1062E+03  0.1029E+04  0.1028E+04
      5.532  0.7650E+02  0.8241E+02  0.1033E+04  0.1033E+04
      5.585  0.1103E+03  0.1046E+03  0.1039E+04  0.1038E+04
      5.637  0.1011E+03  0.1057E+03  0.1044E+04  0.1044E+04
      5.690  0.1324E+03  0.1264E+03  0.1051E+04  0.1050E+04
      5.743  0.1398E+03  0.1419E+03  0.1059E+04  0.1058E+04
      5.795  0.9470E+02  0.1002E+03  0.1064E+04  0.1063E+04
      5.848  0.9264E+02  0.9595E+02  0.1069E+04  0.1068E+04
      5.901  0.1025E+03  0.9773E+02  0.1074E+04  0.1073E+04
      5.953  0.9312E+02  0.9374E+02  0.1079E+04  0.1078E+04
      6.006  0.9811E+02  0.9547E+02  0.1084E+04  0.1083E+04
      6.059  0.9711E+02  0.1032E+03  0.1089E+04  0.1089E+04
      6.111  0.6759E+02  0.7225E+02  0.1093E+04  0.1093E+04
      6.164  0.5876E+02  0.5388E+02  0.1096E+04  0.1095E+04
      6.217  0.5058E+01  0.1126E+02  0.1096E+04  0.1096E+04
      6.269  0.0000E+00  0.0000E+00  0.1096E+04  0.1096E+04
      6.322  0.0000E+00  0.0000E+00  0.1096E+04  0.1096E+04
      6.374  0.0000E+00  0.0000E+00  0.1096E+04  0.1096E+04
      6.427  0.0000E+00  0.0000E+00  0.1096E+04  0.1096E+04
      6.480  0.0000E+00  0.0000E+00  0.1096E+04  0.1096E+04
      6.532  0.0000E+00  0.0000E+00  0.1096E+04  0.1096E+04
      6.585  0.0000E+00  0.0000E+00  0.1096E+04  0.1096E+04
      6.638  0.0000E+00  0.0000E+00  0.1096E+04  0.1096E+04
      6.690  0.0000E+00  0.0000E+00  0.1096E+04  0.1096E+04
      6.743  0.0000E+00  0.0000E+00  0.1096E+04  0.1096E+04
      6.796  0.0000E+00  0.0000E+00  0.1096E+04  0.1096E+04
      6.848  0.0000E+00  0.0000E+00  0.1096E+04  0.1096E+04
      6.901  0.0000E+00  0.0000E+00  0.1096E+04  0.1096E+04
