 180 180   0   0
  0.2138888E+02  0.1451029E-08  0.1946760E-08  0.1362925E-08  0.5000000E-15
  1.000000000000000E-004
  CAR 
 Si and Ge interface calculation         
      8.05910931    -11.20550882  301      5.21737568      1.00000000
    -11.206  0.0000E+00  0.0000E+00  0.0000E+00  0.0000E+00
    -11.141  0.0000E+00  0.0000E+00  0.0000E+00  0.0000E+00
    -11.077  0.0000E+00  0.0000E+00  0.0000E+00  0.0000E+00
    -11.013  0.0000E+00  0.0000E+00  0.0000E+00  0.0000E+00
    -10.949  0.0000E+00  0.0000E+00  0.0000E+00  0.0000E+00
    -10.884  0.0000E+00  0.0000E+00  0.0000E+00  0.0000E+00
    -10.820  0.0000E+00  0.0000E+00  0.0000E+00  0.0000E+00
    -10.756  0.0000E+00  0.0000E+00  0.0000E+00  0.0000E+00
    -10.692  0.0000E+00  0.0000E+00  0.0000E+00  0.0000E+00
    -10.628  0.0000E+00  0.0000E+00  0.0000E+00  0.0000E+00
    -10.563  0.0000E+00  0.0000E+00  0.0000E+00  0.0000E+00
    -10.499  0.0000E+00  0.0000E+00  0.0000E+00  0.0000E+00
    -10.435  0.0000E+00  0.0000E+00  0.0000E+00  0.0000E+00
    -10.371  0.2356E-07  0.9233E-09  0.1513E-08  0.5929E-10
    -10.306  0.4341E+02  0.3496E+02  0.2787E+01  0.2245E+01
    -10.242  0.1888E+02  0.2731E+02  0.4000E+01  0.4000E+01
    -10.178  0.1340E-13  0.0000E+00  0.4000E+01  0.4000E+01
    -10.114  0.9587E+01  0.6855E+01  0.4616E+01  0.4440E+01
    -10.050  0.5270E+02  0.5544E+02  0.8000E+01  0.8000E+01
     -9.985  0.0000E+00  0.0000E+00  0.8000E+01  0.8000E+01
     -9.921  0.0000E+00  0.0000E+00  0.8000E+01  0.8000E+01
     -9.857  0.0000E+00  0.0000E+00  0.8000E+01  0.8000E+01
     -9.793  0.0000E+00  0.0000E+00  0.8000E+01  0.8000E+01
     -9.729  0.5443E+01  0.1987E+01  0.8350E+01  0.8128E+01
     -9.664  0.5678E+02  0.5995E+02  0.1200E+02  0.1198E+02
     -9.600  0.2757E-04  0.3516E+00  0.1200E+02  0.1200E+02
     -9.536  0.2247E+02  0.1824E+02  0.1344E+02  0.1317E+02
     -9.472  0.3981E+02  0.4401E+02  0.1600E+02  0.1600E+02
     -9.407  0.0000E+00  0.0000E+00  0.1600E+02  0.1600E+02
     -9.343  0.8580E-03  0.6329E-05  0.1600E+02  0.1600E+02
     -9.279  0.4573E+02  0.3529E+02  0.1894E+02  0.1827E+02
     -9.215  0.1656E+02  0.2696E+02  0.2000E+02  0.2000E+02
     -9.151  0.1260E-06  0.2236E-08  0.2000E+02  0.2000E+02
     -9.086  0.2158E+02  0.1300E+02  0.2139E+02  0.2083E+02
     -9.022  0.4567E+02  0.5076E+02  0.2432E+02  0.2410E+02
     -8.958  0.5271E+02  0.5416E+02  0.2770E+02  0.2757E+02
     -8.894  0.4616E+01  0.6616E+01  0.2800E+02  0.2800E+02
     -8.830  0.1304E+02  0.7970E+01  0.2884E+02  0.2851E+02
     -8.765  0.4235E+02  0.4354E+02  0.3156E+02  0.3131E+02
     -8.701  0.6900E+01  0.1078E+02  0.3200E+02  0.3200E+02
     -8.637  0.0000E+00  0.0000E+00  0.3200E+02  0.3200E+02
     -8.573  0.0000E+00  0.0000E+00  0.3200E+02  0.3200E+02
     -8.508  0.0000E+00  0.0000E+00  0.3200E+02  0.3200E+02
     -8.444  0.1422E+01  0.3978E+00  0.3209E+02  0.3203E+02
     -8.380  0.4753E+02  0.4409E+02  0.3514E+02  0.3486E+02
     -8.316  0.1333E+02  0.1781E+02  0.3600E+02  0.3600E+02
     -8.252  0.0000E+00  0.0000E+00  0.3600E+02  0.3600E+02
     -8.187  0.0000E+00  0.0000E+00  0.3600E+02  0.3600E+02
     -8.123  0.0000E+00  0.0000E+00  0.3600E+02  0.3600E+02
     -8.059  0.5416E+01  0.3276E+01  0.3635E+02  0.3621E+02
     -7.995  0.1796E+02  0.1994E+02  0.3750E+02  0.3749E+02
     -7.931  0.3889E+02  0.3902E+02  0.4000E+02  0.4000E+02
     -7.866  0.0000E+00  0.0000E+00  0.4000E+02  0.4000E+02
     -7.802  0.0000E+00  0.0000E+00  0.4000E+02  0.4000E+02
     -7.738  0.3973E-08  0.7736E-11  0.4000E+02  0.4000E+02
     -7.674  0.1707E+02  0.1033E+02  0.4110E+02  0.4066E+02
     -7.609  0.4520E+02  0.5196E+02  0.4400E+02  0.4400E+02
     -7.545  0.2904E+00  0.2918E-01  0.4402E+02  0.4400E+02
     -7.481  0.2795E+02  0.2341E+02  0.4581E+02  0.4551E+02
     -7.417  0.3460E+02  0.3665E+02  0.4804E+02  0.4786E+02
     -7.353  0.2630E+02  0.2270E+02  0.4972E+02  0.4932E+02
     -7.288  0.3152E+02  0.3623E+02  0.5175E+02  0.5164E+02
     -7.224  0.3901E+01  0.5544E+01  0.5200E+02  0.5200E+02
     -7.160  0.0000E+00  0.0000E+00  0.5200E+02  0.5200E+02
     -7.096  0.1572E-07  0.8834E-09  0.5200E+02  0.5200E+02
     -7.032  0.3891E+01  0.3885E+01  0.5225E+02  0.5225E+02
     -6.967  0.3452E+02  0.3192E+02  0.5447E+02  0.5430E+02
     -6.903  0.2384E+02  0.2647E+02  0.5600E+02  0.5600E+02
     -6.839  0.1622E+02  0.1301E+02  0.5704E+02  0.5684E+02
     -6.775  0.3628E+02  0.3647E+02  0.5937E+02  0.5918E+02
     -6.710  0.1871E+02  0.2096E+02  0.6057E+02  0.6052E+02
     -6.646  0.3983E+02  0.3578E+02  0.6313E+02  0.6282E+02
     -6.582  0.5257E+02  0.5515E+02  0.6651E+02  0.6637E+02
     -6.518  0.2130E+02  0.2231E+02  0.6788E+02  0.6781E+02
     -6.454  0.2593E+02  0.2337E+02  0.6954E+02  0.6931E+02
     -6.389  0.4225E+02  0.4245E+02  0.7226E+02  0.7203E+02
     -6.325  0.5188E+02  0.5185E+02  0.7559E+02  0.7536E+02
     -6.261  0.5583E+02  0.5669E+02  0.7917E+02  0.7900E+02
     -6.197  0.5192E+02  0.5397E+02  0.8251E+02  0.8247E+02
     -6.132  0.4106E+02  0.3930E+02  0.8515E+02  0.8499E+02
     -6.068  0.4029E+02  0.3784E+02  0.8774E+02  0.8743E+02
     -6.004  0.3356E+02  0.3628E+02  0.8989E+02  0.8976E+02
     -5.940  0.4853E+02  0.4888E+02  0.9301E+02  0.9290E+02
     -5.876  0.3898E+02  0.4007E+02  0.9552E+02  0.9548E+02
     -5.811  0.5346E+02  0.4941E+02  0.9895E+02  0.9865E+02
     -5.747  0.4958E+02  0.5007E+02  0.1021E+03  0.1019E+03
     -5.683  0.3916E+02  0.4139E+02  0.1047E+03  0.1045E+03
     -5.619  0.4618E+02  0.4363E+02  0.1076E+03  0.1073E+03
     -5.555  0.4867E+02  0.4811E+02  0.1107E+03  0.1104E+03
     -5.490  0.4616E+02  0.4940E+02  0.1137E+03  0.1136E+03
     -5.426  0.4328E+02  0.4133E+02  0.1165E+03  0.1162E+03
     -5.362  0.5794E+02  0.6038E+02  0.1202E+03  0.1201E+03
     -5.298  0.6066E+02  0.5789E+02  0.1241E+03  0.1238E+03
     -5.233  0.5598E+02  0.5814E+02  0.1277E+03  0.1276E+03
     -5.169  0.4502E+02  0.4506E+02  0.1306E+03  0.1305E+03
     -5.105  0.5022E+02  0.4916E+02  0.1338E+03  0.1336E+03
     -5.041  0.4083E+02  0.4187E+02  0.1364E+03  0.1363E+03
     -4.977  0.5948E+02  0.5854E+02  0.1403E+03  0.1401E+03
     -4.912  0.4919E+02  0.4802E+02  0.1434E+03  0.1432E+03
     -4.848  0.3507E+02  0.3588E+02  0.1457E+03  0.1455E+03
     -4.784  0.5984E+02  0.5971E+02  0.1495E+03  0.1493E+03
     -4.720  0.4281E+02  0.4364E+02  0.1523E+03  0.1521E+03
     -4.656  0.2323E+02  0.2202E+02  0.1538E+03  0.1535E+03
     -4.591  0.4645E+02  0.4950E+02  0.1567E+03  0.1567E+03
     -4.527  0.4819E+02  0.4647E+02  0.1598E+03  0.1597E+03
     -4.463  0.4511E+02  0.4462E+02  0.1627E+03  0.1626E+03
     -4.399  0.5432E+02  0.5164E+02  0.1662E+03  0.1659E+03
     -4.334  0.3746E+02  0.3854E+02  0.1686E+03  0.1683E+03
     -4.270  0.6203E+02  0.6267E+02  0.1726E+03  0.1724E+03
     -4.206  0.4834E+02  0.5017E+02  0.1757E+03  0.1756E+03
     -4.142  0.4790E+02  0.4738E+02  0.1788E+03  0.1786E+03
     -4.078  0.2648E+02  0.2904E+02  0.1805E+03  0.1805E+03
     -4.013  0.2239E+02  0.2043E+02  0.1820E+03  0.1818E+03
     -3.949  0.5388E+02  0.5146E+02  0.1854E+03  0.1851E+03
     -3.885  0.5061E+02  0.5204E+02  0.1887E+03  0.1885E+03
     -3.821  0.5368E+02  0.5317E+02  0.1921E+03  0.1919E+03
     -3.757  0.2364E+02  0.2526E+02  0.1936E+03  0.1935E+03
     -3.692  0.3436E+02  0.2968E+02  0.1958E+03  0.1954E+03
     -3.628  0.4130E+02  0.4385E+02  0.1985E+03  0.1982E+03
     -3.564  0.3084E+02  0.2994E+02  0.2005E+03  0.2001E+03
     -3.500  0.6394E+02  0.6385E+02  0.2046E+03  0.2042E+03
     -3.435  0.4440E+02  0.4635E+02  0.2074E+03  0.2072E+03
     -3.371  0.1954E+02  0.2071E+02  0.2087E+03  0.2086E+03
     -3.307  0.3536E+02  0.3517E+02  0.2110E+03  0.2108E+03
     -3.243  0.5428E+02  0.5474E+02  0.2144E+03  0.2143E+03
     -3.179  0.4935E+02  0.4954E+02  0.2176E+03  0.2175E+03
     -3.114  0.5030E+02  0.4798E+02  0.2208E+03  0.2206E+03
     -3.050  0.4519E+02  0.4051E+02  0.2238E+03  0.2232E+03
     -2.986  0.4479E+02  0.5206E+02  0.2266E+03  0.2266E+03
     -2.922  0.5574E+02  0.5182E+02  0.2302E+03  0.2299E+03
     -2.858  0.4646E+02  0.4735E+02  0.2332E+03  0.2329E+03
     -2.793  0.5118E+02  0.4925E+02  0.2365E+03  0.2361E+03
     -2.729  0.5516E+02  0.5372E+02  0.2400E+03  0.2395E+03
     -2.665  0.5735E+02  0.5902E+02  0.2437E+03  0.2433E+03
     -2.601  0.4605E+02  0.4840E+02  0.2467E+03  0.2464E+03
     -2.536  0.5054E+02  0.5115E+02  0.2499E+03  0.2497E+03
     -2.472  0.6294E+02  0.6143E+02  0.2540E+03  0.2537E+03
     -2.408  0.3950E+02  0.4207E+02  0.2565E+03  0.2564E+03
     -2.344  0.3908E+02  0.3752E+02  0.2590E+03  0.2588E+03
     -2.280  0.4827E+02  0.4595E+02  0.2621E+03  0.2617E+03
     -2.215  0.5505E+02  0.5501E+02  0.2656E+03  0.2653E+03
     -2.151  0.3277E+02  0.3847E+02  0.2678E+03  0.2678E+03
     -2.087  0.4193E+02  0.3565E+02  0.2704E+03  0.2700E+03
     -2.023  0.5239E+02  0.5796E+02  0.2738E+03  0.2738E+03
     -1.958  0.4068E+02  0.3753E+02  0.2764E+03  0.2762E+03
     -1.894  0.5010E+02  0.5101E+02  0.2796E+03  0.2795E+03
     -1.830  0.5131E+02  0.4921E+02  0.2829E+03  0.2826E+03
     -1.766  0.5128E+02  0.5452E+02  0.2862E+03  0.2861E+03
     -1.702  0.4681E+02  0.4348E+02  0.2892E+03  0.2889E+03
     -1.637  0.3080E+02  0.3351E+02  0.2912E+03  0.2911E+03
     -1.573  0.4972E+02  0.5082E+02  0.2944E+03  0.2943E+03
     -1.509  0.5496E+02  0.5438E+02  0.2979E+03  0.2978E+03
     -1.445  0.3081E+02  0.2938E+02  0.2999E+03  0.2997E+03
     -1.381  0.3481E+02  0.3370E+02  0.3022E+03  0.3019E+03
     -1.316  0.5885E+02  0.6071E+02  0.3059E+03  0.3058E+03
     -1.252  0.3975E+02  0.3674E+02  0.3085E+03  0.3081E+03
     -1.188  0.3942E+02  0.4268E+02  0.3110E+03  0.3109E+03
     -1.124  0.5847E+02  0.5803E+02  0.3148E+03  0.3146E+03
     -1.059  0.3749E+02  0.3711E+02  0.3172E+03  0.3170E+03
     -0.995  0.3180E+02  0.3048E+02  0.3192E+03  0.3190E+03
     -0.931  0.6894E+02  0.6797E+02  0.3237E+03  0.3233E+03
     -0.867  0.4769E+02  0.5062E+02  0.3267E+03  0.3266E+03
     -0.803  0.5018E+02  0.5053E+02  0.3300E+03  0.3298E+03
     -0.738  0.2002E+02  0.2136E+02  0.3312E+03  0.3312E+03
     -0.674  0.4231E+02  0.3759E+02  0.3340E+03  0.3336E+03
     -0.610  0.5370E+02  0.5140E+02  0.3374E+03  0.3369E+03
     -0.546  0.3065E+02  0.3690E+02  0.3394E+03  0.3393E+03
     -0.482  0.5541E+02  0.4914E+02  0.3429E+03  0.3424E+03
     -0.417  0.5519E+02  0.6026E+02  0.3465E+03  0.3463E+03
     -0.353  0.3423E+02  0.3306E+02  0.3487E+03  0.3484E+03
     -0.289  0.7420E+02  0.7130E+02  0.3535E+03  0.3530E+03
     -0.225  0.5291E+02  0.5512E+02  0.3568E+03  0.3566E+03
     -0.160  0.4303E+02  0.4420E+02  0.3596E+03  0.3594E+03
     -0.096  0.4794E+02  0.4718E+02  0.3627E+03  0.3624E+03
     -0.032  0.4372E+02  0.4474E+02  0.3655E+03  0.3653E+03
      0.032  0.3931E+02  0.3870E+02  0.3680E+03  0.3678E+03
      0.096  0.5746E+02  0.5927E+02  0.3717E+03  0.3716E+03
      0.161  0.4639E+02  0.4418E+02  0.3747E+03  0.3744E+03
      0.225  0.6197E+02  0.6293E+02  0.3787E+03  0.3785E+03
      0.289  0.3194E+02  0.3368E+02  0.3807E+03  0.3806E+03
      0.353  0.5922E+02  0.5673E+02  0.3845E+03  0.3843E+03
      0.417  0.2464E+02  0.2304E+02  0.3861E+03  0.3858E+03
      0.482  0.5835E+02  0.6090E+02  0.3899E+03  0.3897E+03
      0.546  0.5444E+02  0.5134E+02  0.3934E+03  0.3930E+03
      0.610  0.6140E+02  0.6409E+02  0.3973E+03  0.3971E+03
      0.674  0.3736E+02  0.3557E+02  0.3997E+03  0.3994E+03
      0.739  0.5656E+02  0.5431E+02  0.4034E+03  0.4029E+03
      0.803  0.5481E+02  0.6102E+02  0.4069E+03  0.4068E+03
      0.867  0.5470E+02  0.5268E+02  0.4104E+03  0.4102E+03
      0.931  0.4604E+02  0.4526E+02  0.4133E+03  0.4131E+03
      0.995  0.5500E+02  0.5523E+02  0.4169E+03  0.4166E+03
      1.060  0.5921E+02  0.5845E+02  0.4207E+03  0.4204E+03
      1.124  0.7680E+02  0.7883E+02  0.4256E+03  0.4254E+03
      1.188  0.8469E+02  0.8296E+02  0.4311E+03  0.4308E+03
      1.252  0.4910E+02  0.4886E+02  0.4342E+03  0.4339E+03
      1.316  0.7519E+02  0.7155E+02  0.4390E+03  0.4385E+03
      1.381  0.7160E+02  0.7616E+02  0.4436E+03  0.4434E+03
      1.445  0.6672E+02  0.6698E+02  0.4479E+03  0.4477E+03
      1.509  0.7711E+02  0.7637E+02  0.4529E+03  0.4526E+03
      1.573  0.9997E+02  0.9732E+02  0.4593E+03  0.4589E+03
      1.638  0.8544E+02  0.8717E+02  0.4648E+03  0.4645E+03
      1.702  0.8402E+02  0.8058E+02  0.4702E+03  0.4696E+03
      1.766  0.8619E+02  0.8417E+02  0.4757E+03  0.4750E+03
      1.830  0.9117E+02  0.9269E+02  0.4816E+03  0.4810E+03
      1.894  0.7414E+02  0.7994E+02  0.4863E+03  0.4861E+03
      1.959  0.9624E+02  0.9223E+02  0.4925E+03  0.4921E+03
      2.023  0.9499E+02  0.9672E+02  0.4986E+03  0.4983E+03
      2.087  0.8270E+02  0.8183E+02  0.5039E+03  0.5035E+03
      2.151  0.9858E+02  0.9756E+02  0.5103E+03  0.5098E+03
      2.216  0.8016E+02  0.8250E+02  0.5154E+03  0.5151E+03
      2.280  0.8901E+02  0.8654E+02  0.5211E+03  0.5207E+03
      2.344  0.1115E+03  0.1104E+03  0.5283E+03  0.5278E+03
      2.408  0.8843E+02  0.9116E+02  0.5340E+03  0.5336E+03
      2.472  0.1036E+03  0.1028E+03  0.5406E+03  0.5402E+03
      2.537  0.8737E+02  0.8898E+02  0.5463E+03  0.5459E+03
      2.601  0.9880E+02  0.9846E+02  0.5526E+03  0.5523E+03
      2.665  0.9191E+02  0.9127E+02  0.5585E+03  0.5581E+03
      2.729  0.8559E+02  0.8643E+02  0.5640E+03  0.5637E+03
      2.793  0.9801E+02  0.9349E+02  0.5703E+03  0.5697E+03
      2.858  0.1041E+03  0.1032E+03  0.5770E+03  0.5763E+03
      2.922  0.7880E+02  0.8408E+02  0.5821E+03  0.5817E+03
      2.986  0.7332E+02  0.7298E+02  0.5868E+03  0.5864E+03
      3.050  0.7534E+02  0.7598E+02  0.5916E+03  0.5913E+03
      3.115  0.9481E+02  0.9129E+02  0.5977E+03  0.5972E+03
      3.179  0.9536E+02  0.9525E+02  0.6038E+03  0.6033E+03
      3.243  0.8521E+02  0.8855E+02  0.6093E+03  0.6090E+03
      3.307  0.6460E+02  0.6510E+02  0.6134E+03  0.6132E+03
      3.371  0.7114E+02  0.7110E+02  0.6180E+03  0.6177E+03
      3.436  0.7954E+02  0.7890E+02  0.6231E+03  0.6228E+03
      3.500  0.7177E+02  0.7194E+02  0.6278E+03  0.6274E+03
      3.564  0.8527E+02  0.8386E+02  0.6332E+03  0.6328E+03
      3.628  0.6423E+02  0.6662E+02  0.6374E+03  0.6371E+03
      3.692  0.7165E+02  0.7261E+02  0.6420E+03  0.6417E+03
      3.757  0.6744E+02  0.6512E+02  0.6463E+03  0.6459E+03
      3.821  0.6650E+02  0.6598E+02  0.6506E+03  0.6502E+03
      3.885  0.4904E+02  0.5397E+02  0.6537E+03  0.6536E+03
      3.949  0.4120E+02  0.3581E+02  0.6564E+03  0.6559E+03
      4.014  0.4861E+02  0.5117E+02  0.6595E+03  0.6592E+03
      4.078  0.6517E+02  0.6722E+02  0.6637E+03  0.6635E+03
      4.142  0.5759E+02  0.5501E+02  0.6674E+03  0.6671E+03
      4.206  0.6547E+02  0.6639E+02  0.6716E+03  0.6713E+03
      4.270  0.4950E+02  0.4736E+02  0.6748E+03  0.6744E+03
      4.335  0.4812E+02  0.4708E+02  0.6779E+03  0.6774E+03
      4.399  0.5108E+02  0.5383E+02  0.6811E+03  0.6809E+03
      4.463  0.4827E+02  0.4708E+02  0.6842E+03  0.6839E+03
      4.527  0.4197E+02  0.4506E+02  0.6869E+03  0.6868E+03
      4.591  0.4109E+02  0.3781E+02  0.6896E+03  0.6892E+03
      4.656  0.2662E+02  0.2899E+02  0.6913E+03  0.6911E+03
      4.720  0.5842E+02  0.5662E+02  0.6950E+03  0.6947E+03
      4.784  0.3869E+02  0.4108E+02  0.6975E+03  0.6973E+03
      4.848  0.3713E+02  0.3353E+02  0.6999E+03  0.6995E+03
      4.913  0.5370E+02  0.5279E+02  0.7034E+03  0.7029E+03
      4.977  0.5399E+02  0.5810E+02  0.7068E+03  0.7066E+03
      5.041  0.4587E+02  0.4404E+02  0.7098E+03  0.7094E+03
      5.105  0.6685E+02  0.6332E+02  0.7141E+03  0.7135E+03
      5.169  0.5113E+02  0.5624E+02  0.7174E+03  0.7171E+03
      5.234  0.5406E+02  0.4335E+02  0.7208E+03  0.7199E+03
      5.298  0.5804E+02  0.6522E+02  0.7246E+03  0.7241E+03
      5.362  0.4885E+02  0.4626E+02  0.7277E+03  0.7271E+03
      5.426  0.6168E+02  0.6625E+02  0.7317E+03  0.7313E+03
      5.490  0.5732E+02  0.5381E+02  0.7354E+03  0.7348E+03
      5.555  0.6143E+02  0.6403E+02  0.7393E+03  0.7389E+03
      5.619  0.6122E+02  0.5993E+02  0.7432E+03  0.7428E+03
      5.683  0.5463E+02  0.5583E+02  0.7467E+03  0.7463E+03
      5.747  0.5181E+02  0.5208E+02  0.7501E+03  0.7497E+03
      5.812  0.7279E+02  0.6788E+02  0.7547E+03  0.7540E+03
      5.876  0.6007E+02  0.6290E+02  0.7586E+03  0.7581E+03
      5.940  0.7067E+02  0.6786E+02  0.7631E+03  0.7624E+03
      6.004  0.5424E+02  0.6111E+02  0.7666E+03  0.7664E+03
      6.068  0.8600E+02  0.8622E+02  0.7721E+03  0.7719E+03
      6.133  0.8635E+02  0.7954E+02  0.7777E+03  0.7770E+03
      6.197  0.7191E+02  0.7775E+02  0.7823E+03  0.7820E+03
      6.261  0.8672E+02  0.8018E+02  0.7879E+03  0.7872E+03
      6.325  0.8815E+02  0.9135E+02  0.7935E+03  0.7930E+03
      6.390  0.8613E+02  0.8668E+02  0.7991E+03  0.7986E+03
      6.454  0.8975E+02  0.8722E+02  0.8048E+03  0.8042E+03
      6.518  0.9075E+02  0.9038E+02  0.8107E+03  0.8100E+03
      6.582  0.9482E+02  0.9458E+02  0.8168E+03  0.8161E+03
      6.646  0.9937E+02  0.1044E+03  0.8232E+03  0.8228E+03
      6.711  0.8762E+02  0.8063E+02  0.8288E+03  0.8280E+03
      6.775  0.9078E+02  0.9519E+02  0.8346E+03  0.8341E+03
      6.839  0.8901E+02  0.9263E+02  0.8403E+03  0.8400E+03
      6.903  0.1003E+03  0.9461E+02  0.8468E+03  0.8461E+03
      6.967  0.1044E+03  0.1075E+03  0.8535E+03  0.8530E+03
      7.032  0.9899E+02  0.1025E+03  0.8599E+03  0.8596E+03
      7.096  0.4150E+02  0.4427E+02  0.8625E+03  0.8625E+03
      7.160  0.1894E+02  0.1897E+02  0.8637E+03  0.8637E+03
      7.224  0.3891E+01  0.5087E+01  0.8640E+03  0.8640E+03
      7.289  0.0000E+00  0.0000E+00  0.8640E+03  0.8640E+03
      7.353  0.0000E+00  0.0000E+00  0.8640E+03  0.8640E+03
      7.417  0.0000E+00  0.0000E+00  0.8640E+03  0.8640E+03
      7.481  0.0000E+00  0.0000E+00  0.8640E+03  0.8640E+03
      7.545  0.0000E+00  0.0000E+00  0.8640E+03  0.8640E+03
      7.610  0.0000E+00  0.0000E+00  0.8640E+03  0.8640E+03
      7.674  0.0000E+00  0.0000E+00  0.8640E+03  0.8640E+03
      7.738  0.0000E+00  0.0000E+00  0.8640E+03  0.8640E+03
      7.802  0.0000E+00  0.0000E+00  0.8640E+03  0.8640E+03
      7.866  0.0000E+00  0.0000E+00  0.8640E+03  0.8640E+03
      7.931  0.0000E+00  0.0000E+00  0.8640E+03  0.8640E+03
      7.995  0.0000E+00  0.0000E+00  0.8640E+03  0.8640E+03
      8.059  0.0000E+00  0.0000E+00  0.8640E+03  0.8640E+03
