Si and Ge interface calculation         
           1
    14.510292    0.000000    0.000000
     0.000000   19.467602    0.000000
     0.000000    0.000000   13.629249
   Sn   Ge
    36   144
Direct configuration=     1
   0.98290563  0.65242130  0.00000001
   0.78290558  0.48575461  0.10646444
   0.58290541  0.31908789  0.21292883
   0.98290563  0.31908801  0.00000001
   0.78290558  0.15242132  0.10646444
   0.58290541  0.98575461  0.21292883
   0.98290563  0.98575473  0.00000001
   0.78290558  0.81908804  0.10646444
   0.58290541  0.65242130  0.21292883
   0.63290560  0.90242141  0.05323212
   0.43290553  0.73575473  0.15969653
   0.23290543  0.56908804  0.26616094
   0.63290560  0.56908798  0.05323212
   0.43290553  0.40242130  0.15969653
   0.23290543  0.23575461  0.26616094
   0.63290560  0.23575476  0.05323212
   0.43290553  0.06908806  0.15969653
   0.23290543  0.90242136  0.26616094
   0.48290560  0.81908792  0.00000000
   0.28290546  0.65242124  0.10646442
   0.08290535  0.48575458  0.21292888
   0.48290560  0.48575467  0.00000000
   0.28290546  0.31908798  0.10646442
   0.08290535  0.15242128  0.21292888
   0.48290560  0.15242136  0.00000000
   0.28290546  0.98575467  0.10646442
   0.08290535  0.81908798  0.21292888
   0.13290565  0.73575467  0.05323212
   0.93290555  0.56908798  0.15969652
   0.73290551  0.40242130  0.26616094
   0.13290565  0.40242138  0.05323212
   0.93290555  0.23575471  0.15969652
   0.73290551  0.06908801  0.26616094
   0.13290565  0.06908801  0.05323212
   0.93290555  0.90242136  0.15969652
   0.73290551  0.73575461  0.26616094
   0.97937846  0.00000000  0.26616096
   0.72937834  0.99999994  0.41292876
   0.47937828  0.99999988  0.55969656
   0.22937822  0.99999982  0.70646429
   0.97937834  0.99999970  0.85323209
   0.72937810  0.99999964  0.99999988
   0.64604509  0.16666664  0.26616096
   0.39604503  0.16666660  0.41292876
   0.14604494  0.16666652  0.55969656
   0.89604491  0.16666643  0.70646429
   0.64604491  0.16666636  0.85323209
   0.39604479  0.16666633  0.99999988
   0.31271175  0.33333331  0.26616096
   0.06271169  0.33333325  0.41292876
   0.81271160  0.33333316  0.55969656
   0.56271160  0.33333313  0.70646429
   0.31271154  0.33333302  0.85323209
   0.06271148  0.33333302  0.99999988
   0.97937846  0.49999997  0.26616096
   0.72937834  0.49999991  0.41292876
   0.47937822  0.49999985  0.55969656
   0.22937828  0.49999976  0.70646429
   0.97937822  0.49999970  0.85323209
   0.72937810  0.49999964  0.99999988
   0.64604509  0.66666669  0.26616094
   0.39604503  0.66666657  0.41292876
   0.14604492  0.66666651  0.55969656
   0.89604491  0.66666645  0.70646429
   0.64604485  0.66666639  0.85323209
   0.39604479  0.66666633  0.99999988
   0.31271177  0.83333331  0.26616094
   0.06271172  0.83333325  0.41292876
   0.81271160  0.83333319  0.55969656
   0.56271160  0.83333307  0.70646429
   0.31271154  0.83333307  0.85323209
   0.06271148  0.83333296  0.99999988
   0.47937846  0.00000000  0.26616096
   0.22937837  0.99999994  0.41292876
   0.97937828  0.99999988  0.55969656
   0.72937822  0.99999982  0.70646429
   0.47937822  0.99999970  0.85323209
   0.22937810  0.99999964  0.99999988
   0.14604510  0.16666666  0.26616096
   0.89604503  0.16666658  0.41292876
   0.64604497  0.16666652  0.55969656
   0.39604491  0.16666645  0.70646429
   0.14604491  0.16666637  0.85323209
   0.89604485  0.16666630  0.99999988
   0.81271184  0.33333334  0.26616096
   0.56271177  0.33333328  0.41292876
   0.31271169  0.33333322  0.55969656
   0.06271168  0.33333316  0.70646435
   0.81271160  0.33333305  0.85323209
   0.56271148  0.33333299  0.99999988
   0.47937843  0.50000000  0.26616096
   0.22937836  0.49999988  0.41292876
   0.97937828  0.49999982  0.55969656
   0.72937822  0.49999976  0.70646435
   0.47937828  0.49999964  0.85323209
   0.22937810  0.49999958  0.99999988
   0.14604512  0.66666663  0.26616096
   0.89604503  0.66666657  0.41292876
   0.64604497  0.66666651  0.55969656
   0.39604491  0.66666645  0.70646435
   0.14604479  0.66666633  0.85323209
   0.89604485  0.66666627  0.99999988
   0.81271177  0.83333331  0.26616096
   0.56271172  0.83333331  0.41292876
   0.31271163  0.83333313  0.55969662
   0.06271160  0.83333313  0.70646435
   0.81271160  0.83333302  0.85323209
   0.56271148  0.83333296  0.99999988
   0.64604521  0.04166665  0.26616096
   0.39604512  0.04166659  0.41292876
   0.14604503  0.04166650  0.55969656
   0.89604503  0.04166643  0.70646429
   0.64604497  0.04166639  0.85323209
   0.39604491  0.04166629  0.99999988
   0.31271175  0.20833331  0.26616096
   0.06271170  0.20833325  0.41292876
   0.81271160  0.20833315  0.55969656
   0.56271160  0.20833311  0.70646429
   0.31271160  0.20833303  0.85323209
   0.06271148  0.20833296  0.00000000
   0.97937846  0.37499994  0.26616096
   0.72937840  0.37499991  0.41292876
   0.47937828  0.37499979  0.55969656
   0.22937828  0.37499976  0.70646429
   0.97937834  0.37499967  0.85323209
   0.72937810  0.37499958  0.00000000
   0.64604515  0.54166669  0.26616094
   0.39604509  0.54166657  0.41292876
   0.14604501  0.54166651  0.55969662
   0.89604503  0.54166645  0.70646429
   0.64604497  0.54166633  0.85323209
   0.39604485  0.54166627  0.99999988
   0.31271177  0.70833325  0.26616094
   0.06271168  0.70833319  0.41292876
   0.81271160  0.70833313  0.55969656
   0.56271160  0.70833302  0.70646429
   0.31271160  0.70833296  0.85323209
   0.06271148  0.70833290  0.99999988
   0.97937852  0.87500000  0.26616094
   0.72937846  0.87499994  0.41292876
   0.47937840  0.87499988  0.55969662
   0.22937834  0.87499976  0.70646429
   0.97937834  0.87499964  0.85323209
   0.72937822  0.87499958  0.99999988
   0.14604509  0.04166666  0.26616096
   0.89604503  0.04166659  0.41292876
   0.64604497  0.04166652  0.55969656
   0.39604491  0.04166644  0.70646429
   0.14604491  0.04166635  0.85323209
   0.89604485  0.04166630  0.99999988
   0.81271172  0.20833331  0.26616096
   0.56271166  0.20833324  0.41292876
   0.31271157  0.20833318  0.55969656
   0.06271154  0.20833309  0.70646429
   0.81271154  0.20833302  0.85323209
   0.56271148  0.20833296  0.99999988
   0.47937843  0.37500000  0.26616096
   0.22937837  0.37499991  0.41292876
   0.97937828  0.37499982  0.55969656
   0.72937822  0.37499979  0.70646429
   0.47937828  0.37499970  0.85323209
   0.22937822  0.37499961  0.99999988
   0.14604512  0.54166669  0.26616096
   0.89604503  0.54166663  0.41292876
   0.64604491  0.54166651  0.55969656
   0.39604491  0.54166645  0.70646429
   0.14604491  0.54166639  0.85323209
   0.89604473  0.54166639  0.99999988
   0.81271184  0.70833337  0.26616094
   0.56271172  0.70833331  0.41292876
   0.31271166  0.70833319  0.55969662
   0.06271163  0.70833313  0.70646435
   0.81271160  0.70833307  0.85323209
   0.56271154  0.70833296  0.99999988
   0.47937846  0.87500000  0.26616094
   0.22937837  0.87499994  0.41292876
   0.97937828  0.87499988  0.55969662
   0.72937834  0.87499982  0.70646435
   0.47937828  0.87499976  0.85323209
   0.22937804  0.87499964  0.99999988
