<?xml version="1.0" encoding="ISO-8859-1"?>
<modeling>
 <generator>
  <i name="program" type="string">vasp </i>
  <i name="version" type="string">6.4.3  </i>
  <i name="subversion" type="string">19Mar24 (build Oct 22 2024 11:23:12) complex                          parallel </i>
  <i name="platform" type="string">LinuxIFC </i>
  <i name="date" type="string">2025 06 09 </i>
  <i name="time" type="string">03:58:41 </i>
 </generator>
 <incar>
  <i type="string" name="SYSTEM">Si and Ge interface calculation</i>
  <i type="int" name="ISTART">     0</i>
  <i type="logical" name="ADDGRID"> T  </i>
  <i type="int" name="ISPIN">     2</i>
  <i name="AMIX">      0.60000000</i>
  <i type="int" name="ICHARG">     2</i>
  <i type="int" name="NELM">   100</i>
  <i name="EDIFF">      0.00000010</i>
  <i name="ENCUT">    700.00000000</i>
  <i name="ENAUG">    900.00000000</i>
  <i type="int" name="NBANDS">   404</i>
  <i name="NUPDOWN">      1.00000000</i>
  <i name="NELECT">    672.00000000</i>
  <i type="string" name="LREAL">AUTO</i>
  <i type="int" name="ISMEAR">     0</i>
  <i name="SIGMA">      0.01000000</i>
  <i type="int" name="LMAXMIX">     6</i>
  <i type="logical" name="LWAVE"> F  </i>
  <i type="logical" name="LVTOT"> F  </i>
  <i type="logical" name="LVHAR"> T  </i>
  <i type="logical" name="LASPH"> T  </i>
  <i type="logical" name="LMIXTAU"> T  </i>
 </incar>
 <primitive_cell>
  <structure name="primitive_cell" >
   <crystal>
    <varray name="basis" >
     <v>       7.94761461       0.00000004       0.00000000 </v>
     <v>      -0.00000108      11.23962507       0.00000000 </v>
     <v>       0.00000000       0.00000000      25.80094337 </v>
    </varray>
    <i name="volume">   2304.75204545 </i>
    <varray name="rec_basis" >
     <v>       0.12582392       0.00000001       0.00000000 </v>
     <v>      -0.00000000       0.08897094       0.00000000 </v>
     <v>       0.00000000       0.00000000       0.03875827 </v>
    </varray>
   </crystal>
   <varray name="positions" >
    <v>       0.58140486       0.36743807       0.00000001 </v>
    <v>       0.74807125       0.70077145       0.08892229 </v>
    <v>       0.91473741       0.03410494       0.17784463 </v>
    <v>       0.08140364       0.36743831       0.26676688 </v>
    <v>       0.24806980       0.70077180       0.35568923 </v>
    <v>       0.41473595       0.03410530       0.44461146 </v>
    <v>       0.91473813       0.03410473       0.00000001 </v>
    <v>       0.08140435       0.36743813       0.08892231 </v>
    <v>       0.24807051       0.70077162       0.17784463 </v>
    <v>       0.41473715       0.03410494       0.26676688 </v>
    <v>       0.58140295       0.36743855       0.35568923 </v>
    <v>       0.74806946       0.70077192       0.44461149 </v>
    <v>       0.24807147       0.70077138       0.00000001 </v>
    <v>       0.41473786       0.03410482       0.08892226 </v>
    <v>       0.58140414       0.36743819       0.17784460 </v>
    <v>       0.74807042       0.70077168       0.26676688 </v>
    <v>       0.91473682       0.03410506       0.35568917 </v>
    <v>       0.08140292       0.36743855       0.44461146 </v>
    <v>       0.91473810       0.28410470       0.00000002 </v>
    <v>       0.08140474       0.61743807       0.08892229 </v>
    <v>       0.24807078       0.95077157       0.17784460 </v>
    <v>       0.41473699       0.28410506       0.26676691 </v>
    <v>       0.58140328       0.61743843       0.35568923 </v>
    <v>       0.74806944       0.95077192       0.44461146 </v>
    <v>       0.58140471       0.61743807       0.00000002 </v>
    <v>       0.74807099       0.95077150       0.08892229 </v>
    <v>       0.91473727       0.28410494       0.17784460 </v>
    <v>       0.08140366       0.61743831       0.26676688 </v>
    <v>       0.24806958       0.95077192       0.35568920 </v>
    <v>       0.41473586       0.28410530       0.44461143 </v>
    <v>       0.24807113       0.95077151       0.00000003 </v>
    <v>       0.41473765       0.28410482       0.08892231 </v>
    <v>       0.58140388       0.61743831       0.17784463 </v>
    <v>       0.74807015       0.95077180       0.26676688 </v>
    <v>       0.91473643       0.28410530       0.35568917 </v>
    <v>       0.08140271       0.61743879       0.44461155 </v>
    <v>       0.18713003       0.54638880       0.52848196 </v>
    <v>       0.93712995       0.29638877       0.60601157 </v>
    <v>       0.68712988       0.04638874       0.68354106 </v>
    <v>       0.43713016       0.79638874       0.76107055 </v>
    <v>       0.18713003       0.54638880       0.83860004 </v>
    <v>       0.93712995       0.29638877       0.91612959 </v>
    <v>       0.18713015       0.04638874       0.52848196 </v>
    <v>       0.93713001       0.79638874       0.60601157 </v>
    <v>       0.68713000       0.54638868       0.68354100 </v>
    <v>       0.43713010       0.29638877       0.76107055 </v>
    <v>       0.18712991       0.04638886       0.83860004 </v>
    <v>       0.93713001       0.79638874       0.91612959 </v>
    <v>       0.68712988       0.54638880       0.52848196 </v>
    <v>       0.43713010       0.29638877       0.60601157 </v>
    <v>       0.18712991       0.04638874       0.68354100 </v>
    <v>       0.93713001       0.79638874       0.76107055 </v>
    <v>       0.68713000       0.54638880       0.83860004 </v>
    <v>       0.43713010       0.29638877       0.91612953 </v>
    <v>       0.68713000       0.04638874       0.52848196 </v>
    <v>       0.43713016       0.79638874       0.60601157 </v>
    <v>       0.18713003       0.54638868       0.68354100 </v>
    <v>       0.93712995       0.29638877       0.76107055 </v>
    <v>       0.68713012       0.04638886       0.83860004 </v>
    <v>       0.43713016       0.79638874       0.91612959 </v>
    <v>       0.93713000       0.92138880       0.52848196 </v>
    <v>       0.68713016       0.67138874       0.60601157 </v>
    <v>       0.43712985       0.42138877       0.68354100 </v>
    <v>       0.18713001       0.17138880       0.76107055 </v>
    <v>       0.93713012       0.92138880       0.83860004 </v>
    <v>       0.68713004       0.67138880       0.91612953 </v>
    <v>       0.93712994       0.42138877       0.52848196 </v>
    <v>       0.68713010       0.17138877       0.60601157 </v>
    <v>       0.43713003       0.92138868       0.68354106 </v>
    <v>       0.18712989       0.67138874       0.76107055 </v>
    <v>       0.93713006       0.42138877       0.83860004 </v>
    <v>       0.68712974       0.17138871       0.91612959 </v>
    <v>       0.43713003       0.92138880       0.52848196 </v>
    <v>       0.18713001       0.67138874       0.60601157 </v>
    <v>       0.93712982       0.42138877       0.68354100 </v>
    <v>       0.68712956       0.17138880       0.76107055 </v>
    <v>       0.43713003       0.92138880       0.83860004 </v>
    <v>       0.18712989       0.67138880       0.91612959 </v>
    <v>       0.43713009       0.42138877       0.52848196 </v>
    <v>       0.18712995       0.17138877       0.60601157 </v>
    <v>       0.93713000       0.92138868       0.68354100 </v>
    <v>       0.68713016       0.67138874       0.76107055 </v>
    <v>       0.43713009       0.42138877       0.83860004 </v>
    <v>       0.18713007       0.17138871       0.91612953 </v>
   </varray>
  </structure>
  <varray name="primitive_index" >
   <v type="int" >        1 </v>
   <v type="int" >        2 </v>
   <v type="int" >        3 </v>
   <v type="int" >       34 </v>
   <v type="int" >       35 </v>
   <v type="int" >       36 </v>
   <v type="int" >       19 </v>
   <v type="int" >        8 </v>
   <v type="int" >        9 </v>
   <v type="int" >       10 </v>
   <v type="int" >       11 </v>
   <v type="int" >       12 </v>
   <v type="int" >       25 </v>
   <v type="int" >       26 </v>
   <v type="int" >       27 </v>
   <v type="int" >       28 </v>
   <v type="int" >       29 </v>
   <v type="int" >       18 </v>
   <v type="int" >       37 </v>
   <v type="int" >       38 </v>
   <v type="int" >       39 </v>
   <v type="int" >       40 </v>
   <v type="int" >       65 </v>
   <v type="int" >       66 </v>
   <v type="int" >       55 </v>
   <v type="int" >       56 </v>
   <v type="int" >       57 </v>
   <v type="int" >       58 </v>
   <v type="int" >       59 </v>
   <v type="int" >       60 </v>
   <v type="int" >       67 </v>
   <v type="int" >       68 </v>
   <v type="int" >       51 </v>
   <v type="int" >       52 </v>
   <v type="int" >       53 </v>
   <v type="int" >       54 </v>
   <v type="int" >       73 </v>
   <v type="int" >       86 </v>
   <v type="int" >       75 </v>
   <v type="int" >       76 </v>
   <v type="int" >       89 </v>
   <v type="int" >       78 </v>
   <v type="int" >       79 </v>
   <v type="int" >       92 </v>
   <v type="int" >       81 </v>
   <v type="int" >       82 </v>
   <v type="int" >       95 </v>
   <v type="int" >       84 </v>
   <v type="int" >       97 </v>
   <v type="int" >       98 </v>
   <v type="int" >      111 </v>
   <v type="int" >      100 </v>
   <v type="int" >      113 </v>
   <v type="int" >      114 </v>
   <v type="int" >      103 </v>
   <v type="int" >      104 </v>
   <v type="int" >      117 </v>
   <v type="int" >      106 </v>
   <v type="int" >      119 </v>
   <v type="int" >      120 </v>
   <v type="int" >      121 </v>
   <v type="int" >      122 </v>
   <v type="int" >      135 </v>
   <v type="int" >      124 </v>
   <v type="int" >      137 </v>
   <v type="int" >      138 </v>
   <v type="int" >      127 </v>
   <v type="int" >      128 </v>
   <v type="int" >      141 </v>
   <v type="int" >      130 </v>
   <v type="int" >      143 </v>
   <v type="int" >      144 </v>
   <v type="int" >      145 </v>
   <v type="int" >      158 </v>
   <v type="int" >      147 </v>
   <v type="int" >      148 </v>
   <v type="int" >      161 </v>
   <v type="int" >      150 </v>
   <v type="int" >      151 </v>
   <v type="int" >      164 </v>
   <v type="int" >      153 </v>
   <v type="int" >      154 </v>
   <v type="int" >      167 </v>
   <v type="int" >      156 </v>
  </varray>
 </primitive_cell>
 <kpoints>
  <generation param="Gamma">
   <v type="int" name="divisions">       3        3        1 </v>
   <v name="usershift">      0.00000000       0.00000000       0.00000000 </v>
   <v name="genvec1">      0.33333333       0.00000000       0.00000000 </v>
   <v name="genvec2">      0.00000000       0.33333333       0.00000000 </v>
   <v name="genvec3">      0.00000000       0.00000000       1.00000000 </v>
   <v name="shift">      0.00000000       0.00000000       0.00000000 </v>
  </generation>
  <varray name="kpointlist" >
   <v>       0.00000000       0.00000000       0.00000000 </v>
   <v>       0.33333333      -0.00000000       0.00000000 </v>
   <v>      -0.33333333      -0.33333333       0.00000000 </v>
   <v>       0.00000000       0.33333333       0.00000000 </v>
   <v>      -0.33333333       0.33333333       0.00000000 </v>
  </varray>
  <varray name="weights" >
   <v>       0.11111111 </v>
   <v>       0.22222222 </v>
   <v>       0.22222222 </v>
   <v>       0.22222222 </v>
   <v>       0.22222222 </v>
  </varray>
 </kpoints>
 <parameters>
  <separator name="general" >
   <i type="string" name="SYSTEM">Si and Ge interface calculation</i>
   <i type="logical" name="LCOMPAT"> F  </i>
  </separator>
  <separator name="electronic" >
   <i type="string" name="PREC">normal</i>
   <i name="ENMAX">    700.00000000</i>
   <i name="ENAUG">    900.00000000</i>
   <i name="EDIFF">      0.00000010</i>
   <i type="int" name="IALGO">    38</i>
   <i type="int" name="IWAVPR">    10</i>
   <i type="int" name="NBANDS">   404</i>
   <i type="int" name="NBANDSLOW">    -1</i>
   <i type="int" name="NBANDSHIGH">    -1</i>
   <i name="NELECT">    672.00000000</i>
   <i type="int" name="TURBO">     0</i>
   <i type="int" name="IRESTART">     0</i>
   <i type="int" name="NREBOOT">     0</i>
   <i type="int" name="NMIN">     0</i>
   <i name="EREF">      0.00000000</i>
   <separator name="electronic smearing" >
    <i type="int" name="ISMEAR">     0</i>
    <i name="SIGMA">      0.01000000</i>
    <i name="KSPACING">      0.50000000</i>
    <i type="logical" name="KGAMMA"> T  </i>
    <i type="logical" name="KBLOWUP"> T  </i>
   </separator>
   <separator name="electronic projectors" >
    <i type="logical" name="LREAL"> T  </i>
    <v name="ROPT">     -0.00050000     -0.00050000</v>
    <i type="int" name="LMAXPAW">  -100</i>
    <i type="int" name="LMAXMIX">     6</i>
    <i type="logical" name="NLSPLINE"> F  </i>
   </separator>
   <separator name="electronic startup" >
    <i type="int" name="ISTART">     0</i>
    <i type="int" name="ICHARG">     2</i>
    <i type="int" name="INIWAV">     1</i>
   </separator>
   <separator name="electronic spin" >
    <i type="int" name="ISPIN">     2</i>
    <i type="logical" name="LNONCOLLINEAR"> F  </i>
    <v name="MAGMOM">      0.00595238      0.00595238      0.00595238      0.00595238      0.00595238      0.00595238      0.00595238      0.00595238      0.00595238      0.00595238      0.00595238      0.00595238      0.00595238      0.00595238      0.00595238      0.00595238      0.00595238      0.00595238      0.00595238      0.00595238
      0.00595238      0.00595238      0.00595238      0.00595238      0.00595238      0.00595238      0.00595238      0.00595238      0.00595238      0.00595238      0.00595238      0.00595238      0.00595238      0.00595238      0.00595238      0.00595238      0.00595238      0.00595238      0.00595238      0.00595238
      0.00595238      0.00595238      0.00595238      0.00595238      0.00595238      0.00595238      0.00595238      0.00595238      0.00595238      0.00595238      0.00595238      0.00595238      0.00595238      0.00595238      0.00595238      0.00595238      0.00595238      0.00595238      0.00595238      0.00595238
      0.00595238      0.00595238      0.00595238      0.00595238      0.00595238      0.00595238      0.00595238      0.00595238      0.00595238      0.00595238      0.00595238      0.00595238      0.00595238      0.00595238      0.00595238      0.00595238      0.00595238      0.00595238      0.00595238      0.00595238
      0.00595238      0.00595238      0.00595238      0.00595238      0.00595238      0.00595238      0.00595238      0.00595238      0.00595238      0.00595238      0.00595238      0.00595238      0.00595238      0.00595238      0.00595238      0.00595238      0.00595238      0.00595238      0.00595238      0.00595238
      0.00595238      0.00595238      0.00595238      0.00595238      0.00595238      0.00595238      0.00595238      0.00595238      0.00595238      0.00595238      0.00595238      0.00595238      0.00595238      0.00595238      0.00595238      0.00595238      0.00595238      0.00595238      0.00595238      0.00595238
      0.00595238      0.00595238      0.00595238      0.00595238      0.00595238      0.00595238      0.00595238      0.00595238      0.00595238      0.00595238      0.00595238      0.00595238      0.00595238      0.00595238      0.00595238      0.00595238      0.00595238      0.00595238      0.00595238      0.00595238
      0.00595238      0.00595238      0.00595238      0.00595238      0.00595238      0.00595238      0.00595238      0.00595238      0.00595238      0.00595238      0.00595238      0.00595238      0.00595238      0.00595238      0.00595238      0.00595238      0.00595238      0.00595238      0.00595238      0.00595238
      0.00595238      0.00595238      0.00595238      0.00595238      0.00595238      0.00595238      0.00595238      0.00595238</v>
    <i name="NUPDOWN">      1.00000000</i>
    <i type="logical" name="LSORBIT"> F  </i>
    <v name="SAXIS">      0.00000000      0.00000000      1.00000000</v>
    <i type="logical" name="LSPIRAL"> F  </i>
    <v name="QSPIRAL">      0.00000000      0.00000000      0.00000000</v>
    <i type="logical" name="LZEROZ"> F  </i>
   </separator>
   <separator name="electronic exchange-correlation" >
    <i type="logical" name="LASPH"> T  </i>
   </separator>
   <separator name="electronic convergence" >
    <i type="int" name="NELM">   100</i>
    <i type="int" name="NELMDL">    -5</i>
    <i type="int" name="NELMIN">     2</i>
    <i name="ENINI">    700.00000000</i>
    <separator name="electronic convergence detail" >
     <i type="logical" name="LDIAG"> T  </i>
     <i type="logical" name="LSUBROT"> F  </i>
     <i name="WEIMIN">      0.00000000</i>
     <i name="EBREAK">      0.00000000</i>
     <i name="DEPER">      0.30000000</i>
     <i type="int" name="NRMM">     4</i>
     <i name="TIME">      0.40000000</i>
    </separator>
   </separator>
   <separator name="electronic mixer" >
    <i name="AMIX">      0.60000000</i>
    <i name="BMIX">      1.00000000</i>
    <i name="AMIN">      0.10000000</i>
    <i name="AMIX_MAG">      2.40000000</i>
    <i name="BMIX_MAG">      1.00000000</i>
    <separator name="electronic mixer details" >
     <i type="int" name="IMIX">     4</i>
     <i type="logical" name="MIXFIRST"> F  </i>
     <i type="int" name="MAXMIX">   -45</i>
     <i name="WC">    100.00000000</i>
     <i type="int" name="INIMIX">     1</i>
     <i type="int" name="MIXPRE">     1</i>
     <i type="int" name="MREMOVE">     5</i>
    </separator>
   </separator>
   <separator name="electronic dipolcorrection" >
    <i type="logical" name="LDIPOL"> F  </i>
    <i type="logical" name="LMONO"> F  </i>
    <i type="int" name="IDIPOL">     0</i>
    <i name="EPSILON">      1.00000000</i>
    <v name="DIPOL">   -100.00000000   -100.00000000   -100.00000000</v>
    <i name="EFIELD">      0.00000000</i>
    <i type="logical" name="LVACPOTAV"> F  </i>
   </separator>
  </separator>
  <separator name="grids" >
   <i type="int" name="NGX">   108</i>
   <i type="int" name="NGY">   126</i>
   <i type="int" name="NGZ">   168</i>
   <i type="int" name="NGXF">   216</i>
   <i type="int" name="NGYF">   252</i>
   <i type="int" name="NGZF">   336</i>
   <i type="logical" name="ADDGRID"> T  </i>
  </separator>
  <separator name="ionic" >
   <i type="int" name="NSW">     0</i>
   <i type="int" name="IBRION">    -1</i>
   <i type="int" name="MDALGO">     0</i>
   <i type="int" name="ISIF">     2</i>
   <i name="PSTRESS">      0.00000000</i>
   <i name="EDIFFG">      0.00000100</i>
   <i type="int" name="NFREE">     0</i>
   <i name="POTIM">      0.50000000</i>
   <i name="SMASS">     -3.00000000</i>
   <i name="SCALEE">      1.00000000</i>
  </separator>
  <separator name="ionic md" >
   <i name="TEBEG">      0.00010000</i>
   <i name="TEEND">      0.00010000</i>
   <i type="int" name="NBLOCK">     1</i>
   <i type="int" name="KBLOCK">     1</i>
   <i type="int" name="NPACO">   256</i>
   <i name="APACO">     10.00000000</i>
  </separator>
  <separator name="symmetry" >
   <i type="int" name="ISYM">     2</i>
   <i name="SYMPREC">      0.00001000</i>
  </separator>
  <separator name="dos" >
   <i type="int" name="LORBIT">     0</i>
   <v name="RWIGS">     -1.00000000     -1.00000000</v>
   <i type="int" name="NEDOS">   301</i>
   <i name="EMIN">     10.00000000</i>
   <i name="EMAX">    -10.00000000</i>
   <i name="EFERMI">      0.00000000</i>
  </separator>
  <separator name="writing" >
   <i type="int" name="NWRITE">     2</i>
   <i type="logical" name="LWAVE"> F  </i>
   <i type="logical" name="LDOWNSAMPLE"> F  </i>
   <i type="logical" name="LCHARG"> T  </i>
   <i type="logical" name="LPARD"> F  </i>
   <i type="logical" name="LVTOT"> F  </i>
   <i type="logical" name="LVHAR"> T  </i>
   <i type="logical" name="LELF"> F  </i>
   <i type="logical" name="LOPTICS"> F  </i>
   <v name="STM">      0.00000000      0.00000000      0.00000000      0.00000000      0.00000000      0.00000000      0.00000000</v>
  </separator>
  <separator name="performance" >
   <i type="int" name="NPAR">     4</i>
   <i type="int" name="NSIM">     4</i>
   <i type="int" name="NBLK">    -1</i>
   <i type="logical" name="LPLANE"> T  </i>
   <i type="logical" name="LSCALAPACK"> T  </i>
   <i type="logical" name="LSCAAWARE"> F  </i>
   <i type="logical" name="LSCALU"> F  </i>
   <i type="logical" name="LASYNC"> F  </i>
   <i type="logical" name="LORBITALREAL"> F  </i>
  </separator>
  <separator name="miscellaneous" >
   <i type="int" name="IDIOT">     3</i>
   <i type="int" name="PHON_NSTRUCT">    -1</i>
   <i type="logical" name="LMUSIC"> F  </i>
   <v name="POMASS">    118.71000000     72.61000000</v>
   <v name="DARWINR">      0.00000000      0.00000000</v>
   <v name="DARWINV">      1.00000000      1.00000000</v>
   <i type="logical" name="LCORR"> T  </i>
  </separator>
  <i type="logical" name="GGA_COMPAT"> T  </i>
  <i type="logical" name="LBERRY"> F  </i>
  <i type="int" name="ICORELEVEL">     0</i>
  <i type="logical" name="LDAU"> F  </i>
  <i type="int" name="I_CONSTRAINED_M">     0</i>
  <separator name="electronic exchange-correlation" >
   <i type="string" name="GGA    ">PE</i>
   <i type="string" name="XC_C">1</i>
   <i type="int" name="VOSKOWN">     0</i>
   <i type="logical" name="LHFCALC"> F  </i>
   <i type="string" name="PRECFOCK"></i>
   <i type="logical" name="LSYMGRAD"> F  </i>
   <i type="logical" name="LHFONE"> F  </i>
   <i type="logical" name="LRHFCALC"> F  </i>
   <i type="logical" name="LTHOMAS"> F  </i>
   <i type="logical" name="LMODELHF"> F  </i>
   <i type="logical" name="LFOCKACE"> F  </i>
   <i name="ENCUT4O">     -1.00000000</i>
   <i type="int" name="EXXOEP">     0</i>
   <i type="int" name="FOURORBIT">     0</i>
   <i name="AEXX">      0.00000000</i>
   <i name="HFALPHA">      0.00000000</i>
   <i name="MCALPHA">      0.00000000</i>
   <i name="ALDAX">      1.00000000</i>
   <i name="AGGAX">      1.00000000</i>
   <i name="AMGGAX">      1.00000000</i>
   <i name="ALDAC">      1.00000000</i>
   <i name="AGGAC">      1.00000000</i>
   <i name="AMGGAC">      1.00000000</i>
   <i type="int" name="NKREDX">     1</i>
   <i type="int" name="NKREDY">     1</i>
   <i type="int" name="NKREDZ">     1</i>
   <i type="logical" name="SHIFTRED"> F  </i>
   <i type="logical" name="ODDONLY"> F  </i>
   <i type="logical" name="EVENONLY"> F  </i>
   <i type="int" name="LMAXFOCK">     0</i>
   <i type="int" name="NMAXFOCKAE">     0</i>
   <i type="logical" name="LFOCKAEDFT"> F  </i>
   <i name="HFSCREEN">      0.00000000</i>
   <i name="HFSCREENC">      0.00000000</i>
   <i type="int" name="NBANDSGWLOW">     0</i>
  </separator>
  <separator name="vdW DFT" >
   <i type="logical" name="LUSE_VDW"> F  </i>
   <i type="int" name="IVDW_NL">    -1</i>
   <i type="logical" name="LSPIN_VDW"> F  </i>
   <i name="ZAB_VDW">     -0.84910000</i>
   <i name="GAMMA_VDW">      1.39626340</i>
   <i name="ALPHA_VDW">      0.00000000</i>
   <i name="PARAM1">      0.12340000</i>
   <i name="PARAM2">      1.00000000</i>
   <i name="BPARAM">      6.30000000</i>
   <i name="CPARAM">      0.00930000</i>
  </separator>
  <separator name="model GW" >
   <i type="int" name="MODEL_GW">     0</i>
   <i name="MODEL_EPS0">     16.46251362</i>
   <i name="MODEL_ALPHA">      1.00000000</i>
  </separator>
  <separator name="linear response parameters" >
   <i type="logical" name="LEPSILON"> F  </i>
   <i type="logical" name="LRPA"> F  </i>
   <i type="logical" name="LNABLA"> F  </i>
   <i type="logical" name="LVEL"> F  </i>
   <i name="CSHIFT">      0.10000000</i>
   <i name="OMEGAMAX">     -1.00000000</i>
   <i name="DEG_THRESHOLD">      0.00200000</i>
   <i name="RTIME">     -0.10000000</i>
   <i name="WPLASMAI">      0.00000000</i>
   <v name="DFIELD">      0.00000000      0.00000000      0.00000000</v>
   <v name="WPLASMA">      0.00000000      0.00000000      0.00000000      0.00000000      0.00000000      0.00000000      0.00000000      0.00000000      0.00000000</v>
  </separator>
  <separator name="orbital magnetization" >
   <i type="logical" name="NUCIND"> F  </i>
   <v name="MAGPOS">      0.00000000      0.00000000      0.00000000</v>
   <i type="logical" name="LNICSALL"> T  </i>
   <i type="logical" name="ORBITALMAG"> F  </i>
   <i type="logical" name="LMAGBLOCH"> F  </i>
   <i type="logical" name="LCHIMAG"> F  </i>
   <i type="logical" name="LGAUGE"> T  </i>
   <i type="int" name="MAGATOM">     0</i>
   <v name="MAGDIPOL">      0.00000000      0.00000000      0.00000000</v>
   <v name="AVECCONST">      0.00000000      0.00000000      0.00000000</v>
  </separator>
  <separator name="response functions" >
   <i type="logical" name="LALL_IN_ONE"> F  </i>
   <i type="int" name="IALL_IN_ONE">    -1</i>
   <i type="int" name="NBANDS_WAVE">    -1</i>
   <i type="logical" name="LFINITE_TEMPERATURE"> F  </i>
   <i type="logical" name="LADDER"> F  </i>
   <i type="logical" name="LRPAFORCE"> F  </i>
   <i type="logical" name="LFXC"> F  </i>
   <i type="logical" name="LHARTREE"> T  </i>
   <i type="int" name="IBSE">     0</i>
   <v type="int" name="KPOINT">    -1     0     0     0</v>
   <i type="logical" name="LTCTC"> F  </i>
   <i type="logical" name="LTCTE"> F  </i>
   <i type="logical" name="LTETE"> F  </i>
   <i type="logical" name="LTRIPLET"> F  </i>
   <i type="logical" name="LFXCEPS"> F  </i>
   <i type="logical" name="LFXHEG"> F  </i>
   <i type="int" name="NATURALO">     2</i>
   <i type="logical" name="LHOLEGF"> F  </i>
   <i type="logical" name="L2ORDER"> F  </i>
   <i type="logical" name="LDMP1"> F  </i>
   <i type="logical" name="LMP2LT"> F  </i>
   <i type="logical" name="LSMP2LT"> F  </i>
   <i type="logical" name="LGWLF"> F  </i>
   <i name="ENCUTGW">     -1.60000002</i>
   <i name="ENCUTGWSOFT">     -1.60000002</i>
   <i name="ENCUTLF">     -1.00000000</i>
   <i type="logical" name="ESF_SPLINES"> F  </i>
   <i name="ESF_CONV">      0.01000000</i>
   <i type="int" name="ESF_NINTER">    15</i>
   <i type="int" name="LMAXMP2">    -1</i>
   <i name="SCISSOR">      0.00000000</i>
   <i type="int" name="NOMEGA">     0</i>
   <i type="int" name="NOMEGAR">     0</i>
   <i type="int" name="NBANDSGW">    -1</i>
   <i type="int" name="NBANDSO">    -1</i>
   <i type="int" name="NBANDSV">    -1</i>
   <i type="int" name="NELMGW">     1</i>
   <i type="int" name="NELMHF">     1</i>
   <i type="int" name="DIM">     3</i>
   <i type="int" name="IESPILON">     4</i>
   <i type="int" name="ANTIRES">     0</i>
   <i name="OMEGAMAX">    -30.00000000</i>
   <i name="OMEGAMIN">    -30.00000000</i>
   <i name="OMEGATL">   -200.00000000</i>
   <i type="int" name="OMEGAGRID">     0</i>
   <i name="CSHIFT">     -0.10000000</i>
   <i type="logical" name="LSELFENERGY"> F  </i>
   <i type="logical" name="LSPECTRAL"> F  </i>
   <i type="logical" name="LSPECTRALGW"> F  </i>
   <i type="logical" name="LSINGLES"> F  </i>
   <i type="logical" name="LFERMIGW"> F  </i>
   <i type="logical" name="ODDONLYGW"> F  </i>
   <i type="logical" name="EVENONLYGW"> F  </i>
   <i type="int" name="NKREDLFX">     1</i>
   <i type="int" name="NKREDLFY">     1</i>
   <i type="int" name="NKREDLFZ">     1</i>
   <i type="int" name="MAXMEM">  2800</i>
   <i type="int" name="TELESCOPE">     0</i>
   <i type="int" name="NTAUPAR">    -1</i>
   <i type="int" name="NOMEGAPAR">    -1</i>
   <i name="DAMP_NEWTON">      0.80000001</i>
   <i name="LAMBDA">      1.00000000</i>
  </separator>
  <separator name="External order field" >
   <i name="OFIELD_KAPPA">      0.00000000</i>
   <v name="OFIELD_K">      0.00000000      0.00000000      0.00000000</v>
   <i name="OFIELD_Q6_NEAR">      0.00000000</i>
   <i name="OFIELD_Q6_FAR">      0.00000000</i>
   <i name="OFIELD_A">      0.00000000</i>
  </separator>
  <separator name="optional k-points parameters" >
   <i type="int" name="KPOINTS_OPT_MODE">     1</i>
   <i type="logical" name="LKPOINTS_OPT"> F  </i>
  </separator>
 </parameters>
 <atominfo>
  <atoms>     168 </atoms>
  <types>       2 </types>
  <array name="atoms" >
   <dimension dim="1">ion</dimension>
   <field type="string">element</field>
   <field type="int">atomtype</field>
   <set>
    <rc><c>Sn</c><c>   1</c></rc>
    <rc><c>Sn</c><c>   1</c></rc>
    <rc><c>Sn</c><c>   1</c></rc>
    <rc><c>Sn</c><c>   1</c></rc>
    <rc><c>Sn</c><c>   1</c></rc>
    <rc><c>Sn</c><c>   1</c></rc>
    <rc><c>Sn</c><c>   1</c></rc>
    <rc><c>Sn</c><c>   1</c></rc>
    <rc><c>Sn</c><c>   1</c></rc>
    <rc><c>Sn</c><c>   1</c></rc>
    <rc><c>Sn</c><c>   1</c></rc>
    <rc><c>Sn</c><c>   1</c></rc>
    <rc><c>Sn</c><c>   1</c></rc>
    <rc><c>Sn</c><c>   1</c></rc>
    <rc><c>Sn</c><c>   1</c></rc>
    <rc><c>Sn</c><c>   1</c></rc>
    <rc><c>Sn</c><c>   1</c></rc>
    <rc><c>Sn</c><c>   1</c></rc>
    <rc><c>Sn</c><c>   1</c></rc>
    <rc><c>Sn</c><c>   1</c></rc>
    <rc><c>Sn</c><c>   1</c></rc>
    <rc><c>Sn</c><c>   1</c></rc>
    <rc><c>Sn</c><c>   1</c></rc>
    <rc><c>Sn</c><c>   1</c></rc>
    <rc><c>Sn</c><c>   1</c></rc>
    <rc><c>Sn</c><c>   1</c></rc>
    <rc><c>Sn</c><c>   1</c></rc>
    <rc><c>Sn</c><c>   1</c></rc>
    <rc><c>Sn</c><c>   1</c></rc>
    <rc><c>Sn</c><c>   1</c></rc>
    <rc><c>Sn</c><c>   1</c></rc>
    <rc><c>Sn</c><c>   1</c></rc>
    <rc><c>Sn</c><c>   1</c></rc>
    <rc><c>Sn</c><c>   1</c></rc>
    <rc><c>Sn</c><c>   1</c></rc>
    <rc><c>Sn</c><c>   1</c></rc>
    <rc><c>Sn</c><c>   1</c></rc>
    <rc><c>Sn</c><c>   1</c></rc>
    <rc><c>Sn</c><c>   1</c></rc>
    <rc><c>Sn</c><c>   1</c></rc>
    <rc><c>Sn</c><c>   1</c></rc>
    <rc><c>Sn</c><c>   1</c></rc>
    <rc><c>Sn</c><c>   1</c></rc>
    <rc><c>Sn</c><c>   1</c></rc>
    <rc><c>Sn</c><c>   1</c></rc>
    <rc><c>Sn</c><c>   1</c></rc>
    <rc><c>Sn</c><c>   1</c></rc>
    <rc><c>Sn</c><c>   1</c></rc>
    <rc><c>Sn</c><c>   1</c></rc>
    <rc><c>Sn</c><c>   1</c></rc>
    <rc><c>Sn</c><c>   1</c></rc>
    <rc><c>Sn</c><c>   1</c></rc>
    <rc><c>Sn</c><c>   1</c></rc>
    <rc><c>Sn</c><c>   1</c></rc>
    <rc><c>Sn</c><c>   1</c></rc>
    <rc><c>Sn</c><c>   1</c></rc>
    <rc><c>Sn</c><c>   1</c></rc>
    <rc><c>Sn</c><c>   1</c></rc>
    <rc><c>Sn</c><c>   1</c></rc>
    <rc><c>Sn</c><c>   1</c></rc>
    <rc><c>Sn</c><c>   1</c></rc>
    <rc><c>Sn</c><c>   1</c></rc>
    <rc><c>Sn</c><c>   1</c></rc>
    <rc><c>Sn</c><c>   1</c></rc>
    <rc><c>Sn</c><c>   1</c></rc>
    <rc><c>Sn</c><c>   1</c></rc>
    <rc><c>Sn</c><c>   1</c></rc>
    <rc><c>Sn</c><c>   1</c></rc>
    <rc><c>Sn</c><c>   1</c></rc>
    <rc><c>Sn</c><c>   1</c></rc>
    <rc><c>Sn</c><c>   1</c></rc>
    <rc><c>Sn</c><c>   1</c></rc>
    <rc><c>Ge</c><c>   2</c></rc>
    <rc><c>Ge</c><c>   2</c></rc>
    <rc><c>Ge</c><c>   2</c></rc>
    <rc><c>Ge</c><c>   2</c></rc>
    <rc><c>Ge</c><c>   2</c></rc>
    <rc><c>Ge</c><c>   2</c></rc>
    <rc><c>Ge</c><c>   2</c></rc>
    <rc><c>Ge</c><c>   2</c></rc>
    <rc><c>Ge</c><c>   2</c></rc>
    <rc><c>Ge</c><c>   2</c></rc>
    <rc><c>Ge</c><c>   2</c></rc>
    <rc><c>Ge</c><c>   2</c></rc>
    <rc><c>Ge</c><c>   2</c></rc>
    <rc><c>Ge</c><c>   2</c></rc>
    <rc><c>Ge</c><c>   2</c></rc>
    <rc><c>Ge</c><c>   2</c></rc>
    <rc><c>Ge</c><c>   2</c></rc>
    <rc><c>Ge</c><c>   2</c></rc>
    <rc><c>Ge</c><c>   2</c></rc>
    <rc><c>Ge</c><c>   2</c></rc>
    <rc><c>Ge</c><c>   2</c></rc>
    <rc><c>Ge</c><c>   2</c></rc>
    <rc><c>Ge</c><c>   2</c></rc>
    <rc><c>Ge</c><c>   2</c></rc>
    <rc><c>Ge</c><c>   2</c></rc>
    <rc><c>Ge</c><c>   2</c></rc>
    <rc><c>Ge</c><c>   2</c></rc>
    <rc><c>Ge</c><c>   2</c></rc>
    <rc><c>Ge</c><c>   2</c></rc>
    <rc><c>Ge</c><c>   2</c></rc>
    <rc><c>Ge</c><c>   2</c></rc>
    <rc><c>Ge</c><c>   2</c></rc>
    <rc><c>Ge</c><c>   2</c></rc>
    <rc><c>Ge</c><c>   2</c></rc>
    <rc><c>Ge</c><c>   2</c></rc>
    <rc><c>Ge</c><c>   2</c></rc>
    <rc><c>Ge</c><c>   2</c></rc>
    <rc><c>Ge</c><c>   2</c></rc>
    <rc><c>Ge</c><c>   2</c></rc>
    <rc><c>Ge</c><c>   2</c></rc>
    <rc><c>Ge</c><c>   2</c></rc>
    <rc><c>Ge</c><c>   2</c></rc>
    <rc><c>Ge</c><c>   2</c></rc>
    <rc><c>Ge</c><c>   2</c></rc>
    <rc><c>Ge</c><c>   2</c></rc>
    <rc><c>Ge</c><c>   2</c></rc>
    <rc><c>Ge</c><c>   2</c></rc>
    <rc><c>Ge</c><c>   2</c></rc>
    <rc><c>Ge</c><c>   2</c></rc>
    <rc><c>Ge</c><c>   2</c></rc>
    <rc><c>Ge</c><c>   2</c></rc>
    <rc><c>Ge</c><c>   2</c></rc>
    <rc><c>Ge</c><c>   2</c></rc>
    <rc><c>Ge</c><c>   2</c></rc>
    <rc><c>Ge</c><c>   2</c></rc>
    <rc><c>Ge</c><c>   2</c></rc>
    <rc><c>Ge</c><c>   2</c></rc>
    <rc><c>Ge</c><c>   2</c></rc>
    <rc><c>Ge</c><c>   2</c></rc>
    <rc><c>Ge</c><c>   2</c></rc>
    <rc><c>Ge</c><c>   2</c></rc>
    <rc><c>Ge</c><c>   2</c></rc>
    <rc><c>Ge</c><c>   2</c></rc>
    <rc><c>Ge</c><c>   2</c></rc>
    <rc><c>Ge</c><c>   2</c></rc>
    <rc><c>Ge</c><c>   2</c></rc>
    <rc><c>Ge</c><c>   2</c></rc>
    <rc><c>Ge</c><c>   2</c></rc>
    <rc><c>Ge</c><c>   2</c></rc>
    <rc><c>Ge</c><c>   2</c></rc>
    <rc><c>Ge</c><c>   2</c></rc>
    <rc><c>Ge</c><c>   2</c></rc>
    <rc><c>Ge</c><c>   2</c></rc>
    <rc><c>Ge</c><c>   2</c></rc>
    <rc><c>Ge</c><c>   2</c></rc>
    <rc><c>Ge</c><c>   2</c></rc>
    <rc><c>Ge</c><c>   2</c></rc>
    <rc><c>Ge</c><c>   2</c></rc>
    <rc><c>Ge</c><c>   2</c></rc>
    <rc><c>Ge</c><c>   2</c></rc>
    <rc><c>Ge</c><c>   2</c></rc>
    <rc><c>Ge</c><c>   2</c></rc>
    <rc><c>Ge</c><c>   2</c></rc>
    <rc><c>Ge</c><c>   2</c></rc>
    <rc><c>Ge</c><c>   2</c></rc>
    <rc><c>Ge</c><c>   2</c></rc>
    <rc><c>Ge</c><c>   2</c></rc>
    <rc><c>Ge</c><c>   2</c></rc>
    <rc><c>Ge</c><c>   2</c></rc>
    <rc><c>Ge</c><c>   2</c></rc>
    <rc><c>Ge</c><c>   2</c></rc>
    <rc><c>Ge</c><c>   2</c></rc>
    <rc><c>Ge</c><c>   2</c></rc>
    <rc><c>Ge</c><c>   2</c></rc>
    <rc><c>Ge</c><c>   2</c></rc>
    <rc><c>Ge</c><c>   2</c></rc>
   </set>
  </array>
  <array name="atomtypes" >
   <dimension dim="1">type</dimension>
   <field type="int">atomspertype</field>
   <field type="string">element</field>
   <field>mass</field>
   <field>valence</field>
   <field type="string">pseudopotential</field>
   <set>
    <rc><c>  72</c><c>Sn</c><c>    118.71000000</c><c>      4.00000000</c><c>  PAW_PBE Sn 08Apr2002                  </c></rc>
    <rc><c>  96</c><c>Ge</c><c>     72.61000000</c><c>      4.00000000</c><c>  PAW_PBE Ge 05Jan2001                  </c></rc>
   </set>
  </array>
 </atominfo>
 <structure name="initialpos" >
  <crystal>
   <varray name="basis" >
    <v>      15.89522839       0.00000000       0.00000000 </v>
    <v>     -15.89523029      11.23962498       0.00000000 </v>
    <v>       0.00000000       0.00000000      25.80094337 </v>
   </varray>
   <i name="volume">   4609.50381433 </i>
   <varray name="rec_basis" >
    <v>       0.06291196       0.08897095       0.00000000 </v>
    <v>       0.00000000       0.08897094       0.00000000 </v>
    <v>       0.00000000       0.00000000       0.03875827 </v>
   </varray>
  </crystal>
  <varray name="positions" >
   <v>       0.65814054       0.36743808       0.00000001 </v>
   <v>       0.57480711       0.70077145       0.08892229 </v>
   <v>       0.49147368       0.03410494       0.17784463 </v>
   <v>       0.40814021       0.36743832       0.26676688 </v>
   <v>       0.32480687       0.70077193       0.35568923 </v>
   <v>       0.24147330       0.03410530       0.44461149 </v>
   <v>       0.99147379       0.03410473       0.00000001 </v>
   <v>       0.90814036       0.36743814       0.08892231 </v>
   <v>       0.82480693       0.70077163       0.17784463 </v>
   <v>       0.74147356       0.03410494       0.26676688 </v>
   <v>       0.65814006       0.36743855       0.35568923 </v>
   <v>       0.57480669       0.70077193       0.44461149 </v>
   <v>       0.32480717       0.70077139       0.00000000 </v>
   <v>       0.24147373       0.03410482       0.08892228 </v>
   <v>       0.15814032       0.36743832       0.17784457 </v>
   <v>       0.07480685       0.70077169       0.26676688 </v>
   <v>       0.99147344       0.03410506       0.35568917 </v>
   <v>       0.90814006       0.36743855       0.44461146 </v>
   <v>       0.49147382       0.03410473       0.00000001 </v>
   <v>       0.40814039       0.36743811       0.08892231 </v>
   <v>       0.32480696       0.70077163       0.17784460 </v>
   <v>       0.24147351       0.03410494       0.26676688 </v>
   <v>       0.15814012       0.36743855       0.35568923 </v>
   <v>       0.07480662       0.70077193       0.44461149 </v>
   <v>       0.82480717       0.70077139       0.00000001 </v>
   <v>       0.74147379       0.03410482       0.08892226 </v>
   <v>       0.65814030       0.36743820       0.17784460 </v>
   <v>       0.57480693       0.70077169       0.26676688 </v>
   <v>       0.49147350       0.03410506       0.35568917 </v>
   <v>       0.40813991       0.36743855       0.44461146 </v>
   <v>       0.15814048       0.36743805       0.00000001 </v>
   <v>       0.07480706       0.70077145       0.08892230 </v>
   <v>       0.99147356       0.03410482       0.17784460 </v>
   <v>       0.90814018       0.36743832       0.26676688 </v>
   <v>       0.82480675       0.70077181       0.35568923 </v>
   <v>       0.74147332       0.03410530       0.44461146 </v>
   <v>       0.74147379       0.28410470       0.00000002 </v>
   <v>       0.65814048       0.61743808       0.08892229 </v>
   <v>       0.57480699       0.95077157       0.17784460 </v>
   <v>       0.49147359       0.28410506       0.26676691 </v>
   <v>       0.40814012       0.61743844       0.35568923 </v>
   <v>       0.32480669       0.95077193       0.44461143 </v>
   <v>       0.40814051       0.61743808       0.00000000 </v>
   <v>       0.32480708       0.95077151       0.08892231 </v>
   <v>       0.24147364       0.28410494       0.17784463 </v>
   <v>       0.15814030       0.61743844       0.26676691 </v>
   <v>       0.07480682       0.95077193       0.35568914 </v>
   <v>       0.99147332       0.28410530       0.44461152 </v>
   <v>       0.07480715       0.95077145       0.00000002 </v>
   <v>       0.99147368       0.28410482       0.08892228 </v>
   <v>       0.90814030       0.61743832       0.17784463 </v>
   <v>       0.82480693       0.95077181       0.26676688 </v>
   <v>       0.74147356       0.28410530       0.35568917 </v>
   <v>       0.65814018       0.61743879       0.44461155 </v>
   <v>       0.90814048       0.61743808       0.00000002 </v>
   <v>       0.82480705       0.95077151       0.08892229 </v>
   <v>       0.74147361       0.28410494       0.17784460 </v>
   <v>       0.65814018       0.61743832       0.26676688 </v>
   <v>       0.57480675       0.95077193       0.35568920 </v>
   <v>       0.49147326       0.28410530       0.44461143 </v>
   <v>       0.24147384       0.28410473       0.00000001 </v>
   <v>       0.15814044       0.61743814       0.08892231 </v>
   <v>       0.07480702       0.95077163       0.17784463 </v>
   <v>       0.99147361       0.28410506       0.26676691 </v>
   <v>       0.90814012       0.61743844       0.35568923 </v>
   <v>       0.82480669       0.95077193       0.44461146 </v>
   <v>       0.57480711       0.95077151       0.00000003 </v>
   <v>       0.49147368       0.28410482       0.08892231 </v>
   <v>       0.40814021       0.61743832       0.17784460 </v>
   <v>       0.32480681       0.95077169       0.26676688 </v>
   <v>       0.24147344       0.28410530       0.35568920 </v>
   <v>       0.15813996       0.61743879       0.44461149 </v>
   <v>       0.63995385       0.54638880       0.52848196 </v>
   <v>       0.26495385       0.29638877       0.60601157 </v>
   <v>       0.88995373       0.04638875       0.68354106 </v>
   <v>       0.51495385       0.79638875       0.76107055 </v>
   <v>       0.13995385       0.54638880       0.83860004 </v>
   <v>       0.76495379       0.29638877       0.91612959 </v>
   <v>       0.63995385       0.04638875       0.52848196 </v>
   <v>       0.26495385       0.79638875       0.60601157 </v>
   <v>       0.88995373       0.54638869       0.68354100 </v>
   <v>       0.51495385       0.29638877       0.76107055 </v>
   <v>       0.13995385       0.04638886       0.83860004 </v>
   <v>       0.76495379       0.79638875       0.91612959 </v>
   <v>       0.13995385       0.54638880       0.52848196 </v>
   <v>       0.76495379       0.29638877       0.60601157 </v>
   <v>       0.38995373       0.04638875       0.68354100 </v>
   <v>       0.01495385       0.79638875       0.76107055 </v>
   <v>       0.63995385       0.54638880       0.83860004 </v>
   <v>       0.26495385       0.29638877       0.91612959 </v>
   <v>       0.13995385       0.04638875       0.52848196 </v>
   <v>       0.76495379       0.79638875       0.60601157 </v>
   <v>       0.38995373       0.54638869       0.68354100 </v>
   <v>       0.01495385       0.29638877       0.76107055 </v>
   <v>       0.63995385       0.04638886       0.83860004 </v>
   <v>       0.26495385       0.79638875       0.91612953 </v>
   <v>       0.88995379       0.54638880       0.52848196 </v>
   <v>       0.51495385       0.29638877       0.60601157 </v>
   <v>       0.13995373       0.04638875       0.68354100 </v>
   <v>       0.76495379       0.79638875       0.76107055 </v>
   <v>       0.38995385       0.54638880       0.83860004 </v>
   <v>       0.01495385       0.29638877       0.91612953 </v>
   <v>       0.88995379       0.04638875       0.52848196 </v>
   <v>       0.51495385       0.79638875       0.60601157 </v>
   <v>       0.13995373       0.54638869       0.68354100 </v>
   <v>       0.76495379       0.29638877       0.76107055 </v>
   <v>       0.38995385       0.04638886       0.83860004 </v>
   <v>       0.01495385       0.79638875       0.91612959 </v>
   <v>       0.38995385       0.54638880       0.52848196 </v>
   <v>       0.01495385       0.29638877       0.60601157 </v>
   <v>       0.63995373       0.04638875       0.68354100 </v>
   <v>       0.26495385       0.79638875       0.76107055 </v>
   <v>       0.88995385       0.54638880       0.83860004 </v>
   <v>       0.51495385       0.29638877       0.91612953 </v>
   <v>       0.38995373       0.04638875       0.52848196 </v>
   <v>       0.01495385       0.79638875       0.60601157 </v>
   <v>       0.63995373       0.54638869       0.68354100 </v>
   <v>       0.26495385       0.29638877       0.76107055 </v>
   <v>       0.88995397       0.04638886       0.83860004 </v>
   <v>       0.51495385       0.79638875       0.91612959 </v>
   <v>       0.88995385       0.92138880       0.52848196 </v>
   <v>       0.51495385       0.67138875       0.60601157 </v>
   <v>       0.13995385       0.42138877       0.68354100 </v>
   <v>       0.76495385       0.17138880       0.76107055 </v>
   <v>       0.38995385       0.92138880       0.83860004 </v>
   <v>       0.01495385       0.67138880       0.91612959 </v>
   <v>       0.88995379       0.42138877       0.52848196 </v>
   <v>       0.51495385       0.17138877       0.60601157 </v>
   <v>       0.13995373       0.92138869       0.68354100 </v>
   <v>       0.76495373       0.67138875       0.76107055 </v>
   <v>       0.38995385       0.42138877       0.83860004 </v>
   <v>       0.01495361       0.17138872       0.91612953 </v>
   <v>       0.38995385       0.92138880       0.52848196 </v>
   <v>       0.01495373       0.67138875       0.60601157 </v>
   <v>       0.63995373       0.42138877       0.68354100 </v>
   <v>       0.26495385       0.17138880       0.76107055 </v>
   <v>       0.88995391       0.92138880       0.83860004 </v>
   <v>       0.51495385       0.67138880       0.91612953 </v>
   <v>       0.38995385       0.42138877       0.52848196 </v>
   <v>       0.01495385       0.17138877       0.60601157 </v>
   <v>       0.63995373       0.92138869       0.68354106 </v>
   <v>       0.26495385       0.67138875       0.76107055 </v>
   <v>       0.88995385       0.42138877       0.83860004 </v>
   <v>       0.51495361       0.17138872       0.91612959 </v>
   <v>       0.63995385       0.92138880       0.52848196 </v>
   <v>       0.26495373       0.67138875       0.60601157 </v>
   <v>       0.88995373       0.42138877       0.68354100 </v>
   <v>       0.51495361       0.17138880       0.76107055 </v>
   <v>       0.13995385       0.92138880       0.83860004 </v>
   <v>       0.76495379       0.67138880       0.91612959 </v>
   <v>       0.63995385       0.42138877       0.52848196 </v>
   <v>       0.26495385       0.17138877       0.60601157 </v>
   <v>       0.88995373       0.92138869       0.68354100 </v>
   <v>       0.51495385       0.67138875       0.76107055 </v>
   <v>       0.13995385       0.42138877       0.83860004 </v>
   <v>       0.76495379       0.17138872       0.91612953 </v>
   <v>       0.13995385       0.92138880       0.52848196 </v>
   <v>       0.76495379       0.67138875       0.60601157 </v>
   <v>       0.38995385       0.42138877       0.68354100 </v>
   <v>       0.01495385       0.17138880       0.76107055 </v>
   <v>       0.63995385       0.92138880       0.83860004 </v>
   <v>       0.26495385       0.67138880       0.91612953 </v>
   <v>       0.13995385       0.42138877       0.52848196 </v>
   <v>       0.76495379       0.17138877       0.60601157 </v>
   <v>       0.38995373       0.92138869       0.68354100 </v>
   <v>       0.01495385       0.67138875       0.76107055 </v>
   <v>       0.63995385       0.42138877       0.83860004 </v>
   <v>       0.26495385       0.17138872       0.91612953 </v>
  </varray>
 </structure>
 <calculation>
  <scstep>
   <time name="dav">   65.29   66.00</time>
   <time name="total">   68.86   69.60</time>
   <energy>
    <i name="alphaZ">    997.00442401 </i>
    <i name="ewald"> -11699.84272277 </i>
    <i name="hartreedc">  -6568.08619135 </i>
    <i name="XCdc">  -9236.96379537 </i>
    <i name="pawpsdc">  22099.84193803 </i>
    <i name="pawaedc"> -11791.56227843 </i>
    <i name="eentropy">     -0.00177606 </i>
    <i name="bandstr">   2801.30118087 </i>
    <i name="atom">  16853.79812076 </i>
    <i name="e_fr_energy">   3455.48889970 </i>
    <i name="e_wo_entrp">   3455.49067576 </i>
    <i name="e_0_energy">   3455.48978773 </i>
   </energy>
  </scstep>
  <scstep>
   <time name="dav">   73.98   74.81</time>
   <time name="total">   73.98   74.81</time>
   <energy>
    <i name="e_fr_energy">   -260.92009124 </i>
    <i name="e_wo_entrp">   -260.91876375 </i>
    <i name="e_0_energy">   -260.91942749 </i>
   </energy>
  </scstep>
  <scstep>
   <time name="dav">   76.50   77.33</time>
   <time name="total">   76.50   77.33</time>
   <energy>
    <i name="e_fr_energy">   -669.24352610 </i>
    <i name="e_wo_entrp">   -669.24093849 </i>
    <i name="e_0_energy">   -669.24223229 </i>
   </energy>
  </scstep>
  <scstep>
   <time name="dav">   75.69   76.51</time>
   <time name="total">   75.70   76.51</time>
   <energy>
    <i name="e_fr_energy">   -685.76620990 </i>
    <i name="e_wo_entrp">   -685.76357287 </i>
    <i name="e_0_energy">   -685.76489138 </i>
   </energy>
  </scstep>
  <scstep>
   <time name="dav">   81.41   82.30</time>
   <time name="total">   87.10   88.05</time>
   <energy>
    <i name="e_fr_energy">   -686.46584667 </i>
    <i name="e_wo_entrp">   -686.46343187 </i>
    <i name="e_0_energy">   -686.46463927 </i>
   </energy>
  </scstep>
  <scstep>
   <time name="dav">   93.10   94.10</time>
   <time name="total">  102.27  103.36</time>
   <energy>
    <i name="e_fr_energy">   -677.18341444 </i>
    <i name="e_wo_entrp">   -677.18001368 </i>
    <i name="e_0_energy">   -677.18171406 </i>
   </energy>
  </scstep>
  <scstep>
   <time name="dav">   88.06   89.00</time>
   <time name="total">   97.20   98.23</time>
   <energy>
    <i name="e_fr_energy">   -680.47171711 </i>
    <i name="e_wo_entrp">   -680.46982199 </i>
    <i name="e_0_energy">   -680.47076955 </i>
   </energy>
  </scstep>
  <scstep>
   <time name="dav">   95.41   96.42</time>
   <time name="total">  104.54  105.65</time>
   <energy>
    <i name="e_fr_energy">   -675.65288815 </i>
    <i name="e_wo_entrp">   -675.64976708 </i>
    <i name="e_0_energy">   -675.65132761 </i>
   </energy>
  </scstep>
  <scstep>
   <time name="dav">   80.23   81.06</time>
   <time name="total">   89.36   90.28</time>
   <energy>
    <i name="e_fr_energy">   -675.02936119 </i>
    <i name="e_wo_entrp">   -675.02805543 </i>
    <i name="e_0_energy">   -675.02870831 </i>
   </energy>
  </scstep>
  <scstep>
   <time name="dav">   72.22   73.13</time>
   <time name="total">   81.36   82.37</time>
   <energy>
    <i name="e_fr_energy">   -675.01194983 </i>
    <i name="e_wo_entrp">   -675.00900066 </i>
    <i name="e_0_energy">   -675.01047524 </i>
   </energy>
  </scstep>
  <scstep>
   <time name="dav">   78.67   79.61</time>
   <time name="total">   87.86   88.89</time>
   <energy>
    <i name="e_fr_energy">   -675.00560352 </i>
    <i name="e_wo_entrp">   -675.00289374 </i>
    <i name="e_0_energy">   -675.00424863 </i>
   </energy>
  </scstep>
  <scstep>
   <time name="dav">   74.19   74.98</time>
   <time name="total">   83.37   84.25</time>
   <energy>
    <i name="e_fr_energy">   -675.00563276 </i>
    <i name="e_wo_entrp">   -675.00256230 </i>
    <i name="e_0_energy">   -675.00409753 </i>
   </energy>
  </scstep>
  <scstep>
   <time name="dav">   73.06   73.83</time>
   <time name="total">   82.24   83.10</time>
   <energy>
    <i name="e_fr_energy">   -675.00702554 </i>
    <i name="e_wo_entrp">   -675.00400388 </i>
    <i name="e_0_energy">   -675.00551471 </i>
   </energy>
  </scstep>
  <scstep>
   <time name="dav">   74.27   75.04</time>
   <time name="total">   83.46   84.31</time>
   <energy>
    <i name="e_fr_energy">   -675.00728274 </i>
    <i name="e_wo_entrp">   -675.00430567 </i>
    <i name="e_0_energy">   -675.00579420 </i>
   </energy>
  </scstep>
  <scstep>
   <time name="dav">   75.17   75.97</time>
   <time name="total">   84.35   85.23</time>
   <energy>
    <i name="e_fr_energy">   -675.00734169 </i>
    <i name="e_wo_entrp">   -675.00436134 </i>
    <i name="e_0_energy">   -675.00585151 </i>
   </energy>
  </scstep>
  <scstep>
   <time name="dav">   71.40   72.28</time>
   <time name="total">   80.54   81.53</time>
   <energy>
    <i name="e_fr_energy">   -675.00740050 </i>
    <i name="e_wo_entrp">   -675.00441977 </i>
    <i name="e_0_energy">   -675.00591014 </i>
   </energy>
  </scstep>
  <scstep>
   <time name="dav">   71.73   72.49</time>
   <time name="total">   80.88   81.73</time>
   <energy>
    <i name="e_fr_energy">   -675.00741307 </i>
    <i name="e_wo_entrp">   -675.00443897 </i>
    <i name="e_0_energy">   -675.00592602 </i>
   </energy>
  </scstep>
  <scstep>
   <time name="dav">   73.78   74.56</time>
   <time name="total">   82.97   83.85</time>
   <energy>
    <i name="e_fr_energy">   -675.00741274 </i>
    <i name="e_wo_entrp">   -675.00443738 </i>
    <i name="e_0_energy">   -675.00592506 </i>
   </energy>
  </scstep>
  <scstep>
   <time name="dav">   76.19   77.01</time>
   <time name="total">   85.39   86.30</time>
   <energy>
    <i name="e_fr_energy">   -675.00741193 </i>
    <i name="e_wo_entrp">   -675.00443394 </i>
    <i name="e_0_energy">   -675.00592294 </i>
   </energy>
  </scstep>
  <scstep>
   <time name="dav">   72.10   72.88</time>
   <time name="total">   81.31   82.17</time>
   <energy>
    <i name="e_fr_energy">   -675.00741181 </i>
    <i name="e_wo_entrp">   -675.00443322 </i>
    <i name="e_0_energy">   -675.00592251 </i>
   </energy>
  </scstep>
  <scstep>
   <time name="dav">   48.72   49.24</time>
   <time name="total">   57.88   58.50</time>
   <energy>
    <i name="e_fr_energy">   -675.00741167 </i>
    <i name="e_wo_entrp">   -675.00443315 </i>
    <i name="e_0_energy">   -675.00592241 </i>
   </energy>
  </scstep>
  <scstep>
   <time name="dav">   47.77   48.29</time>
   <time name="total">   56.94   57.54</time>
   <energy>
    <i name="e_fr_energy">   -675.00741154 </i>
    <i name="e_wo_entrp">   -675.00443298 </i>
    <i name="e_0_energy">   -675.00592226 </i>
   </energy>
  </scstep>
  <scstep>
   <time name="dav">   47.35   47.93</time>
   <time name="total">   50.90   51.51</time>
   <energy>
    <i name="alphaZ">    997.00442401 </i>
    <i name="ewald"> -11699.84272277 </i>
    <i name="hartreedc">  -6827.71208230 </i>
    <i name="XCdc">  -9183.20433921 </i>
    <i name="pawpsdc">  44661.72648860 </i>
    <i name="pawaedc"> -34397.80622784 </i>
    <i name="eentropy">     -0.00297846 </i>
    <i name="bandstr">  -1078.96809435 </i>
    <i name="atom">  16853.79812076 </i>
    <i name="e_fr_energy">   -675.00741156 </i>
    <i name="e_wo_entrp">   -675.00443310 </i>
    <i name="e_0_energy">   -675.00592233 </i>
   </energy>
  </scstep>
  <structure>
   <crystal>
    <varray name="basis" >
     <v>      15.89522839       0.00000000       0.00000000 </v>
     <v>     -15.89523029      11.23962498       0.00000000 </v>
     <v>       0.00000000       0.00000000      25.80094337 </v>
    </varray>
    <i name="volume">   4609.50381433 </i>
    <varray name="rec_basis" >
     <v>       0.06291196       0.08897095       0.00000000 </v>
     <v>       0.00000000       0.08897094       0.00000000 </v>
     <v>       0.00000000       0.00000000       0.03875827 </v>
    </varray>
   </crystal>
   <varray name="positions" >
    <v>       0.65814054       0.36743808       0.00000001 </v>
    <v>       0.57480711       0.70077145       0.08892229 </v>
    <v>       0.49147368       0.03410494       0.17784463 </v>
    <v>       0.40814021       0.36743832       0.26676688 </v>
    <v>       0.32480687       0.70077193       0.35568923 </v>
    <v>       0.24147330       0.03410530       0.44461149 </v>
    <v>       0.99147379       0.03410473       0.00000001 </v>
    <v>       0.90814036       0.36743814       0.08892231 </v>
    <v>       0.82480693       0.70077163       0.17784463 </v>
    <v>       0.74147356       0.03410494       0.26676688 </v>
    <v>       0.65814006       0.36743855       0.35568923 </v>
    <v>       0.57480669       0.70077193       0.44461149 </v>
    <v>       0.32480717       0.70077139       0.00000000 </v>
    <v>       0.24147373       0.03410482       0.08892228 </v>
    <v>       0.15814032       0.36743832       0.17784457 </v>
    <v>       0.07480685       0.70077169       0.26676688 </v>
    <v>       0.99147344       0.03410506       0.35568917 </v>
    <v>       0.90814006       0.36743855       0.44461146 </v>
    <v>       0.49147382       0.03410473       0.00000001 </v>
    <v>       0.40814039       0.36743811       0.08892231 </v>
    <v>       0.32480696       0.70077163       0.17784460 </v>
    <v>       0.24147351       0.03410494       0.26676688 </v>
    <v>       0.15814012       0.36743855       0.35568923 </v>
    <v>       0.07480662       0.70077193       0.44461149 </v>
    <v>       0.82480717       0.70077139       0.00000001 </v>
    <v>       0.74147379       0.03410482       0.08892226 </v>
    <v>       0.65814030       0.36743820       0.17784460 </v>
    <v>       0.57480693       0.70077169       0.26676688 </v>
    <v>       0.49147350       0.03410506       0.35568917 </v>
    <v>       0.40813991       0.36743855       0.44461146 </v>
    <v>       0.15814048       0.36743805       0.00000001 </v>
    <v>       0.07480706       0.70077145       0.08892230 </v>
    <v>       0.99147356       0.03410482       0.17784460 </v>
    <v>       0.90814018       0.36743832       0.26676688 </v>
    <v>       0.82480675       0.70077181       0.35568923 </v>
    <v>       0.74147332       0.03410530       0.44461146 </v>
    <v>       0.74147379       0.28410470       0.00000002 </v>
    <v>       0.65814048       0.61743808       0.08892229 </v>
    <v>       0.57480699       0.95077157       0.17784460 </v>
    <v>       0.49147359       0.28410506       0.26676691 </v>
    <v>       0.40814012       0.61743844       0.35568923 </v>
    <v>       0.32480669       0.95077193       0.44461143 </v>
    <v>       0.40814051       0.61743808       0.00000000 </v>
    <v>       0.32480708       0.95077151       0.08892231 </v>
    <v>       0.24147364       0.28410494       0.17784463 </v>
    <v>       0.15814030       0.61743844       0.26676691 </v>
    <v>       0.07480682       0.95077193       0.35568914 </v>
    <v>       0.99147332       0.28410530       0.44461152 </v>
    <v>       0.07480715       0.95077145       0.00000002 </v>
    <v>       0.99147368       0.28410482       0.08892228 </v>
    <v>       0.90814030       0.61743832       0.17784463 </v>
    <v>       0.82480693       0.95077181       0.26676688 </v>
    <v>       0.74147356       0.28410530       0.35568917 </v>
    <v>       0.65814018       0.61743879       0.44461155 </v>
    <v>       0.90814048       0.61743808       0.00000002 </v>
    <v>       0.82480705       0.95077151       0.08892229 </v>
    <v>       0.74147361       0.28410494       0.17784460 </v>
    <v>       0.65814018       0.61743832       0.26676688 </v>
    <v>       0.57480675       0.95077193       0.35568920 </v>
    <v>       0.49147326       0.28410530       0.44461143 </v>
    <v>       0.24147384       0.28410473       0.00000001 </v>
    <v>       0.15814044       0.61743814       0.08892231 </v>
    <v>       0.07480702       0.95077163       0.17784463 </v>
    <v>       0.99147361       0.28410506       0.26676691 </v>
    <v>       0.90814012       0.61743844       0.35568923 </v>
    <v>       0.82480669       0.95077193       0.44461146 </v>
    <v>       0.57480711       0.95077151       0.00000003 </v>
    <v>       0.49147368       0.28410482       0.08892231 </v>
    <v>       0.40814021       0.61743832       0.17784460 </v>
    <v>       0.32480681       0.95077169       0.26676688 </v>
    <v>       0.24147344       0.28410530       0.35568920 </v>
    <v>       0.15813996       0.61743879       0.44461149 </v>
    <v>       0.63995385       0.54638880       0.52848196 </v>
    <v>       0.26495385       0.29638877       0.60601157 </v>
    <v>       0.88995373       0.04638875       0.68354106 </v>
    <v>       0.51495385       0.79638875       0.76107055 </v>
    <v>       0.13995385       0.54638880       0.83860004 </v>
    <v>       0.76495379       0.29638877       0.91612959 </v>
    <v>       0.63995385       0.04638875       0.52848196 </v>
    <v>       0.26495385       0.79638875       0.60601157 </v>
    <v>       0.88995373       0.54638869       0.68354100 </v>
    <v>       0.51495385       0.29638877       0.76107055 </v>
    <v>       0.13995385       0.04638886       0.83860004 </v>
    <v>       0.76495379       0.79638875       0.91612959 </v>
    <v>       0.13995385       0.54638880       0.52848196 </v>
    <v>       0.76495379       0.29638877       0.60601157 </v>
    <v>       0.38995373       0.04638875       0.68354100 </v>
    <v>       0.01495385       0.79638875       0.76107055 </v>
    <v>       0.63995385       0.54638880       0.83860004 </v>
    <v>       0.26495385       0.29638877       0.91612959 </v>
    <v>       0.13995385       0.04638875       0.52848196 </v>
    <v>       0.76495379       0.79638875       0.60601157 </v>
    <v>       0.38995373       0.54638869       0.68354100 </v>
    <v>       0.01495385       0.29638877       0.76107055 </v>
    <v>       0.63995385       0.04638886       0.83860004 </v>
    <v>       0.26495385       0.79638875       0.91612953 </v>
    <v>       0.88995379       0.54638880       0.52848196 </v>
    <v>       0.51495385       0.29638877       0.60601157 </v>
    <v>       0.13995373       0.04638875       0.68354100 </v>
    <v>       0.76495379       0.79638875       0.76107055 </v>
    <v>       0.38995385       0.54638880       0.83860004 </v>
    <v>       0.01495385       0.29638877       0.91612953 </v>
    <v>       0.88995379       0.04638875       0.52848196 </v>
    <v>       0.51495385       0.79638875       0.60601157 </v>
    <v>       0.13995373       0.54638869       0.68354100 </v>
    <v>       0.76495379       0.29638877       0.76107055 </v>
    <v>       0.38995385       0.04638886       0.83860004 </v>
    <v>       0.01495385       0.79638875       0.91612959 </v>
    <v>       0.38995385       0.54638880       0.52848196 </v>
    <v>       0.01495385       0.29638877       0.60601157 </v>
    <v>       0.63995373       0.04638875       0.68354100 </v>
    <v>       0.26495385       0.79638875       0.76107055 </v>
    <v>       0.88995385       0.54638880       0.83860004 </v>
    <v>       0.51495385       0.29638877       0.91612953 </v>
    <v>       0.38995373       0.04638875       0.52848196 </v>
    <v>       0.01495385       0.79638875       0.60601157 </v>
    <v>       0.63995373       0.54638869       0.68354100 </v>
    <v>       0.26495385       0.29638877       0.76107055 </v>
    <v>       0.88995397       0.04638886       0.83860004 </v>
    <v>       0.51495385       0.79638875       0.91612959 </v>
    <v>       0.88995385       0.92138880       0.52848196 </v>
    <v>       0.51495385       0.67138875       0.60601157 </v>
    <v>       0.13995385       0.42138877       0.68354100 </v>
    <v>       0.76495385       0.17138880       0.76107055 </v>
    <v>       0.38995385       0.92138880       0.83860004 </v>
    <v>       0.01495385       0.67138880       0.91612959 </v>
    <v>       0.88995379       0.42138877       0.52848196 </v>
    <v>       0.51495385       0.17138877       0.60601157 </v>
    <v>       0.13995373       0.92138869       0.68354100 </v>
    <v>       0.76495373       0.67138875       0.76107055 </v>
    <v>       0.38995385       0.42138877       0.83860004 </v>
    <v>       0.01495361       0.17138872       0.91612953 </v>
    <v>       0.38995385       0.92138880       0.52848196 </v>
    <v>       0.01495373       0.67138875       0.60601157 </v>
    <v>       0.63995373       0.42138877       0.68354100 </v>
    <v>       0.26495385       0.17138880       0.76107055 </v>
    <v>       0.88995391       0.92138880       0.83860004 </v>
    <v>       0.51495385       0.67138880       0.91612953 </v>
    <v>       0.38995385       0.42138877       0.52848196 </v>
    <v>       0.01495385       0.17138877       0.60601157 </v>
    <v>       0.63995373       0.92138869       0.68354106 </v>
    <v>       0.26495385       0.67138875       0.76107055 </v>
    <v>       0.88995385       0.42138877       0.83860004 </v>
    <v>       0.51495361       0.17138872       0.91612959 </v>
    <v>       0.63995385       0.92138880       0.52848196 </v>
    <v>       0.26495373       0.67138875       0.60601157 </v>
    <v>       0.88995373       0.42138877       0.68354100 </v>
    <v>       0.51495361       0.17138880       0.76107055 </v>
    <v>       0.13995385       0.92138880       0.83860004 </v>
    <v>       0.76495379       0.67138880       0.91612959 </v>
    <v>       0.63995385       0.42138877       0.52848196 </v>
    <v>       0.26495385       0.17138877       0.60601157 </v>
    <v>       0.88995373       0.92138869       0.68354100 </v>
    <v>       0.51495385       0.67138875       0.76107055 </v>
    <v>       0.13995385       0.42138877       0.83860004 </v>
    <v>       0.76495379       0.17138872       0.91612953 </v>
    <v>       0.13995385       0.92138880       0.52848196 </v>
    <v>       0.76495379       0.67138875       0.60601157 </v>
    <v>       0.38995385       0.42138877       0.68354100 </v>
    <v>       0.01495385       0.17138880       0.76107055 </v>
    <v>       0.63995385       0.92138880       0.83860004 </v>
    <v>       0.26495385       0.67138880       0.91612953 </v>
    <v>       0.13995385       0.42138877       0.52848196 </v>
    <v>       0.76495379       0.17138877       0.60601157 </v>
    <v>       0.38995373       0.92138869       0.68354100 </v>
    <v>       0.01495385       0.67138875       0.76107055 </v>
    <v>       0.63995385       0.42138877       0.83860004 </v>
    <v>       0.26495385       0.17138872       0.91612953 </v>
   </varray>
  </structure>
  <varray name="forces" >
   <v>      -0.48152939       0.47287120       1.10248164 </v>
   <v>       0.05912165       0.01363394      -0.06385192 </v>
   <v>       0.01180296      -0.00800857       0.01807334 </v>
   <v>      -0.01888254      -0.04565136      -0.01781716 </v>
   <v>       0.09436217       0.04033422       0.15229849 </v>
   <v>      -1.24944108       0.63889884      -1.73447078 </v>
   <v>      -0.73996166      -0.72779004      -0.57799312 </v>
   <v>       0.05163482       0.02686165       0.01504545 </v>
   <v>      -0.01729529      -0.03313520      -0.00042858 </v>
   <v>      -0.01867911       0.03362230      -0.00104771 </v>
   <v>       0.02801358       0.03307257      -0.10449910 </v>
   <v>      -0.35945485      -0.74545115       0.57154575 </v>
   <v>       0.53128200      -0.34056011       5.95106891 </v>
   <v>       0.12097826       0.08396509       0.05586588 </v>
   <v>      -0.03829053      -0.02235113       0.01007582 </v>
   <v>      -0.02913418      -0.01068338      -0.01357982 </v>
   <v>       0.12074368       0.08331348      -0.11049984 </v>
   <v>      -0.31419810      -1.03896960      -1.74664957 </v>
   <v>      -0.73996166      -0.72779004      -0.57799312 </v>
   <v>       0.05163482       0.02686165       0.01504545 </v>
   <v>      -0.01729529      -0.03313520      -0.00042858 </v>
   <v>      -0.01867911       0.03362230      -0.00104771 </v>
   <v>       0.02801358       0.03307257      -0.10449910 </v>
   <v>      -0.35945485      -0.74545115       0.57154575 </v>
   <v>       0.53128200      -0.34056011       5.95106891 </v>
   <v>       0.12097826       0.08396509       0.05586588 </v>
   <v>      -0.03829053      -0.02235113       0.01007582 </v>
   <v>      -0.02913418      -0.01068338      -0.01357982 </v>
   <v>       0.12074368       0.08331348      -0.11049984 </v>
   <v>      -0.31419810      -1.03896960      -1.74664957 </v>
   <v>      -0.48152939       0.47287120       1.10248164 </v>
   <v>       0.05912165       0.01363394      -0.06385192 </v>
   <v>       0.01180296      -0.00800857       0.01807334 </v>
   <v>      -0.01888254      -0.04565136      -0.01781716 </v>
   <v>       0.09436217       0.04033422       0.15229849 </v>
   <v>      -1.24944108       0.63889884      -1.73447078 </v>
   <v>      -0.33843531       0.41886291       7.61532981 </v>
   <v>      -0.04108079       0.00652070       0.11999009 </v>
   <v>      -0.03582198      -0.01981033      -0.01194067 </v>
   <v>       0.00752459      -0.00044610       0.01506644 </v>
   <v>      -0.00405052      -0.01631887      -0.08735466 </v>
   <v>       1.09629688      -0.79612244      -2.71022921 </v>
   <v>      -0.29991941      -1.05982000       2.67955185 </v>
   <v>      -0.05421104      -0.07020868       0.04468344 </v>
   <v>      -0.01548352       0.02816284      -0.01032627 </v>
   <v>      -0.01327249       0.02359225       0.00837102 </v>
   <v>      -0.10035178      -0.05647507      -0.17923159 </v>
   <v>       0.10134931       0.20949640       0.16785964 </v>
   <v>       0.48693190       0.60276784      -0.62103562 </v>
   <v>      -0.04090647       0.00690449      -0.07259557 </v>
   <v>       0.01384469      -0.01008872      -0.01690406 </v>
   <v>       0.01038183      -0.05300183       0.00958605 </v>
   <v>      -0.06163393      -0.04254012       0.14432450 </v>
   <v>      -0.06727976       1.09737728      -1.97488298 </v>
   <v>      -0.29991941      -1.05982000       2.67955185 </v>
   <v>      -0.05421104      -0.07020868       0.04468344 </v>
   <v>      -0.01548352       0.02816284      -0.01032627 </v>
   <v>      -0.01327249       0.02359225       0.00837102 </v>
   <v>      -0.10035178      -0.05647507      -0.17923159 </v>
   <v>       0.10134931       0.20949640       0.16785964 </v>
   <v>      -0.33843531       0.41886291       7.61532981 </v>
   <v>      -0.04108079       0.00652070       0.11999009 </v>
   <v>      -0.03582198      -0.01981033      -0.01194067 </v>
   <v>       0.00752459      -0.00044610       0.01506644 </v>
   <v>      -0.00405052      -0.01631887      -0.08735466 </v>
   <v>       1.09629688      -0.79612244      -2.71022921 </v>
   <v>       0.48693190       0.60276784      -0.62103562 </v>
   <v>      -0.04090647       0.00690449      -0.07259557 </v>
   <v>       0.01384469      -0.01008872      -0.01690406 </v>
   <v>       0.01038183      -0.05300183       0.00958605 </v>
   <v>      -0.06163393      -0.04254012       0.14432450 </v>
   <v>      -0.06727976       1.09737728      -1.97488298 </v>
   <v>       0.64463826       0.50371019       2.03669042 </v>
   <v>      -0.04111698       0.02861482       0.03756898 </v>
   <v>       0.01839796      -0.03865978      -0.07571472 </v>
   <v>       0.04609098      -0.00056468       0.08417848 </v>
   <v>       0.01226884      -0.07504795       0.17130997 </v>
   <v>       0.97989927       0.80010837      -7.32167950 </v>
   <v>      -0.28058024       0.49464673      -0.08347179 </v>
   <v>      -0.04700749      -0.19213463      -0.08122035 </v>
   <v>       0.01101094       0.01917723       0.02113407 </v>
   <v>       0.00259671       0.02470409      -0.01564576 </v>
   <v>       0.20759647      -0.02159133      -0.04676252 </v>
   <v>      -0.21475267       0.99122484       0.25725277 </v>
   <v>       0.64463826       0.50371019       2.03669042 </v>
   <v>      -0.04111698       0.02861482       0.03756898 </v>
   <v>       0.01839796      -0.03865978      -0.07571472 </v>
   <v>       0.04609098      -0.00056468       0.08417848 </v>
   <v>       0.01226884      -0.07504795       0.17130997 </v>
   <v>       0.97989927       0.80010837      -7.32167950 </v>
   <v>      -0.28058024       0.49464673      -0.08347179 </v>
   <v>      -0.04700749      -0.19213463      -0.08122035 </v>
   <v>       0.01101094       0.01917723       0.02113407 </v>
   <v>       0.00259671       0.02470409      -0.01564576 </v>
   <v>       0.20759647      -0.02159133      -0.04676252 </v>
   <v>      -0.21475267       0.99122484       0.25725277 </v>
   <v>      -0.04885460       0.73777251      -0.64059923 </v>
   <v>      -0.02870106       0.10705671       0.14801753 </v>
   <v>       0.02015128       0.02994950      -0.07915779 </v>
   <v>       0.03189879       0.02565192       0.08358531 </v>
   <v>      -0.08903458       0.02883046      -0.02466353 </v>
   <v>      -0.21518554      -0.06448106      -0.08606284 </v>
   <v>      -0.20220922       1.55289564       2.50031623 </v>
   <v>      -0.02862297      -0.29100599      -0.10559106 </v>
   <v>       0.02968330       0.02087354       0.04393172 </v>
   <v>       0.01068440       0.01159563      -0.06298879 </v>
   <v>       0.11992635      -0.09224244      -0.07210255 </v>
   <v>       0.22313829       1.58921651      -0.98568094 </v>
   <v>      -0.04885460       0.73777251      -0.64059923 </v>
   <v>      -0.02870106       0.10705671       0.14801753 </v>
   <v>       0.02015128       0.02994950      -0.07915779 </v>
   <v>       0.03189879       0.02565192       0.08358531 </v>
   <v>      -0.08903458       0.02883046      -0.02466353 </v>
   <v>      -0.21518554      -0.06448106      -0.08606284 </v>
   <v>      -0.20220922       1.55289564       2.50031623 </v>
   <v>      -0.02862297      -0.29100599      -0.10559106 </v>
   <v>       0.02968330       0.02087354       0.04393172 </v>
   <v>       0.01068440       0.01159563      -0.06298879 </v>
   <v>       0.11992635      -0.09224244      -0.07210255 </v>
   <v>       0.22313829       1.58921651      -0.98568094 </v>
   <v>       0.81983865      -0.40794633       0.41948539 </v>
   <v>       0.04610750      -0.14948781       0.12313450 </v>
   <v>       0.00141959      -0.00958204       0.00619261 </v>
   <v>      -0.01861545      -0.00205118       0.09244280 </v>
   <v>      -0.16212679      -0.03710536      -0.01083732 </v>
   <v>       1.02833229       0.70444815      -1.82377441 </v>
   <v>      -0.45474749      -0.54655211       1.12871683 </v>
   <v>       0.11670208       0.33763854      -0.15437502 </v>
   <v>      -0.01987711       0.02857224      -0.07442246 </v>
   <v>      -0.00053158       0.01702545      -0.04674030 </v>
   <v>       0.06560900       0.05718038       0.23950147 </v>
   <v>       0.09503266      -1.43397249      -0.37349780 </v>
   <v>       0.81983865      -0.40794633       0.41948539 </v>
   <v>       0.04610750      -0.14948781       0.12313450 </v>
   <v>       0.00141959      -0.00958204       0.00619261 </v>
   <v>      -0.01861545      -0.00205118       0.09244280 </v>
   <v>      -0.16212679      -0.03710536      -0.01083732 </v>
   <v>       1.02833229       0.70444815      -1.82377441 </v>
   <v>      -0.45474749      -0.54655211       1.12871683 </v>
   <v>       0.11670208       0.33763854      -0.15437502 </v>
   <v>      -0.01987711       0.02857224      -0.07442246 </v>
   <v>      -0.00053158       0.01702545      -0.04674030 </v>
   <v>       0.06560900       0.05718038       0.23950147 </v>
   <v>       0.09503266      -1.43397249      -0.37349780 </v>
   <v>      -0.20143424      -1.41183145       1.65262479 </v>
   <v>       0.14645623      -0.01582342       0.01211484 </v>
   <v>      -0.05248116       0.00034161       0.02789565 </v>
   <v>      -0.04937478      -0.00496161       0.07481357 </v>
   <v>      -0.11925849       0.17947250      -0.08184279 </v>
   <v>      -1.54393919      -1.09436250      -5.15372002 </v>
   <v>       0.33632790      -0.24006492      -0.17851386 </v>
   <v>      -0.02141942       0.08932393      -0.13701387 </v>
   <v>      -0.01659319       0.01118722      -0.11500885 </v>
   <v>      -0.01546886      -0.00477919      -0.01226243 </v>
   <v>       0.05646222      -0.04685684      -0.03666002 </v>
   <v>       0.40670850      -0.93293887       0.09322273 </v>
   <v>      -0.20143424      -1.41183145       1.65262479 </v>
   <v>       0.14645623      -0.01582342       0.01211484 </v>
   <v>      -0.05248116       0.00034161       0.02789565 </v>
   <v>      -0.04937478      -0.00496161       0.07481357 </v>
   <v>      -0.11925849       0.17947250      -0.08184279 </v>
   <v>      -1.54393919      -1.09436250      -5.15372002 </v>
   <v>       0.33632790      -0.24006492      -0.17851386 </v>
   <v>      -0.02141942       0.08932393      -0.13701387 </v>
   <v>      -0.01659319       0.01118722      -0.11500885 </v>
   <v>      -0.01546886      -0.00477919      -0.01226243 </v>
   <v>       0.05646222      -0.04685684      -0.03666002 </v>
   <v>       0.40670850      -0.93293887       0.09322273 </v>
  </varray>
  <varray name="stress" >
   <v>      53.89501519       2.92738927      -0.05101021 </v>
   <v>       2.92738703      52.08733060       0.17434250 </v>
   <v>      -0.05101032       0.17434372      75.34137622 </v>
  </varray>
  <energy>
   <i name="e_fr_energy">   -675.00741156 </i>
   <i name="e_wo_entrp">   -675.00443310 </i>
   <i name="e_0_energy">   -675.00592233 </i>
  </energy>
  <time name="totalsc"> 2000.91 2023.58</time>
  <eigenvalues>
   <array>
    <dimension dim="1">band</dimension>
    <dimension dim="2">kpoint</dimension>
    <dimension dim="3">spin</dimension>
    <field>eigene</field>
    <field>occ</field>
    <set>
     <set comment="spin 1">
      <set comment="kpoint 1">
       <r>   -9.1072    1.0000 </r>
       <r>   -8.8035    1.0000 </r>
       <r>   -8.6157    1.0000 </r>
       <r>   -8.6117    1.0000 </r>
       <r>   -8.3986    1.0000 </r>
       <r>   -8.3971    1.0000 </r>
       <r>   -8.3587    1.0000 </r>
       <r>   -8.3434    1.0000 </r>
       <r>   -8.2419    1.0000 </r>
       <r>   -8.0947    1.0000 </r>
       <r>   -7.9802    1.0000 </r>
       <r>   -7.9407    1.0000 </r>
       <r>   -7.9251    1.0000 </r>
       <r>   -7.7488    1.0000 </r>
       <r>   -7.7048    1.0000 </r>
       <r>   -7.6052    1.0000 </r>
       <r>   -7.5953    1.0000 </r>
       <r>   -7.5641    1.0000 </r>
       <r>   -7.4880    1.0000 </r>
       <r>   -7.4402    1.0000 </r>
       <r>   -7.4288    1.0000 </r>
       <r>   -7.4171    1.0000 </r>
       <r>   -7.2873    1.0000 </r>
       <r>   -7.2287    1.0000 </r>
       <r>   -7.1552    1.0000 </r>
       <r>   -7.1327    1.0000 </r>
       <r>   -7.0142    1.0000 </r>
       <r>   -6.9962    1.0000 </r>
       <r>   -6.9499    1.0000 </r>
       <r>   -6.9351    1.0000 </r>
       <r>   -6.9221    1.0000 </r>
       <r>   -6.8900    1.0000 </r>
       <r>   -6.8684    1.0000 </r>
       <r>   -6.7425    1.0000 </r>
       <r>   -6.7407    1.0000 </r>
       <r>   -6.6863    1.0000 </r>
       <r>   -6.6578    1.0000 </r>
       <r>   -6.6032    1.0000 </r>
       <r>   -6.4804    1.0000 </r>
       <r>   -6.3590    1.0000 </r>
       <r>   -6.3450    1.0000 </r>
       <r>   -6.3381    1.0000 </r>
       <r>   -6.2555    1.0000 </r>
       <r>   -6.1926    1.0000 </r>
       <r>   -6.1223    1.0000 </r>
       <r>   -5.9607    1.0000 </r>
       <r>   -5.9353    1.0000 </r>
       <r>   -5.9330    1.0000 </r>
       <r>   -5.8776    1.0000 </r>
       <r>   -5.8607    1.0000 </r>
       <r>   -5.7797    1.0000 </r>
       <r>   -5.7740    1.0000 </r>
       <r>   -5.6659    1.0000 </r>
       <r>   -5.6343    1.0000 </r>
       <r>   -5.5227    1.0000 </r>
       <r>   -5.5160    1.0000 </r>
       <r>   -5.5120    1.0000 </r>
       <r>   -5.4785    1.0000 </r>
       <r>   -5.4514    1.0000 </r>
       <r>   -5.3980    1.0000 </r>
       <r>   -5.3866    1.0000 </r>
       <r>   -5.3749    1.0000 </r>
       <r>   -5.3719    1.0000 </r>
       <r>   -5.3590    1.0000 </r>
       <r>   -5.3520    1.0000 </r>
       <r>   -5.2321    1.0000 </r>
       <r>   -5.2132    1.0000 </r>
       <r>   -5.1990    1.0000 </r>
       <r>   -5.1562    1.0000 </r>
       <r>   -5.1218    1.0000 </r>
       <r>   -5.0947    1.0000 </r>
       <r>   -5.0792    1.0000 </r>
       <r>   -5.0766    1.0000 </r>
       <r>   -5.0462    1.0000 </r>
       <r>   -5.0436    1.0000 </r>
       <r>   -5.0046    1.0000 </r>
       <r>   -4.9219    1.0000 </r>
       <r>   -4.8895    1.0000 </r>
       <r>   -4.8664    1.0000 </r>
       <r>   -4.8243    1.0000 </r>
       <r>   -4.7950    1.0000 </r>
       <r>   -4.7350    1.0000 </r>
       <r>   -4.7242    1.0000 </r>
       <r>   -4.7144    1.0000 </r>
       <r>   -4.6156    1.0000 </r>
       <r>   -4.5962    1.0000 </r>
       <r>   -4.5400    1.0000 </r>
       <r>   -4.5049    1.0000 </r>
       <r>   -4.4550    1.0000 </r>
       <r>   -4.4215    1.0000 </r>
       <r>   -4.4174    1.0000 </r>
       <r>   -4.3915    1.0000 </r>
       <r>   -4.3401    1.0000 </r>
       <r>   -4.3379    1.0000 </r>
       <r>   -4.1130    1.0000 </r>
       <r>   -4.0919    1.0000 </r>
       <r>   -4.0914    1.0000 </r>
       <r>   -4.0817    1.0000 </r>
       <r>   -4.0604    1.0000 </r>
       <r>   -3.8977    1.0000 </r>
       <r>   -3.8881    1.0000 </r>
       <r>   -3.8420    1.0000 </r>
       <r>   -3.8334    1.0000 </r>
       <r>   -3.8185    1.0000 </r>
       <r>   -3.7449    1.0000 </r>
       <r>   -3.7102    1.0000 </r>
       <r>   -3.6863    1.0000 </r>
       <r>   -3.5102    1.0000 </r>
       <r>   -3.5075    1.0000 </r>
       <r>   -3.4353    1.0000 </r>
       <r>   -3.3671    1.0000 </r>
       <r>   -3.2955    1.0000 </r>
       <r>   -3.2793    1.0000 </r>
       <r>   -3.2127    1.0000 </r>
       <r>   -3.1989    1.0000 </r>
       <r>   -3.1937    1.0000 </r>
       <r>   -3.1674    1.0000 </r>
       <r>   -3.1510    1.0000 </r>
       <r>   -3.0874    1.0000 </r>
       <r>   -3.0855    1.0000 </r>
       <r>   -3.0207    1.0000 </r>
       <r>   -2.9771    1.0000 </r>
       <r>   -2.9234    1.0000 </r>
       <r>   -2.8839    1.0000 </r>
[...]
       <r>    -3.1127    32.4920   239.3630 </r>
       <r>    -3.0584    37.1799   241.3825 </r>
       <r>    -3.0040    35.8823   243.3315 </r>
       <r>    -2.9497    38.9418   245.4466 </r>
       <r>    -2.8954    42.8686   247.7751 </r>
       <r>    -2.8411    31.6548   249.4946 </r>
       <r>    -2.7868    50.0641   252.2139 </r>
       <r>    -2.7325    31.9258   253.9480 </r>
       <r>    -2.6781    68.5054   257.6689 </r>
       <r>    -2.6238    77.7493   261.8920 </r>
       <r>    -2.5695    50.4080   264.6300 </r>
       <r>    -2.5152    60.6311   267.9233 </r>
       <r>    -2.4609    41.8968   270.1991 </r>
       <r>    -2.4066    61.0152   273.5132 </r>
       <r>    -2.3522    26.6393   274.9601 </r>
       <r>    -2.2979    67.9023   278.6484 </r>
       <r>    -2.2436    51.0520   281.4213 </r>
       <r>    -2.1893    36.6426   283.4116 </r>
       <r>    -2.1350    35.8965   285.3614 </r>
       <r>    -2.0807    15.5108   286.2039 </r>
       <r>    -2.0263    20.0184   287.2912 </r>
       <r>    -1.9720    30.3094   288.9375 </r>
       <r>    -1.9177    38.0238   291.0028 </r>
       <r>    -1.8634    61.5892   294.3481 </r>
       <r>    -1.8091    34.4916   296.2216 </r>
       <r>    -1.7548     7.9714   296.6546 </r>
       <r>    -1.7005    24.8393   298.0038 </r>
       <r>    -1.6461    58.0818   301.1586 </r>
       <r>    -1.5918    46.1487   303.6652 </r>
       <r>    -1.5375    28.6083   305.2191 </r>
       <r>    -1.4832    19.2107   306.2626 </r>
       <r>    -1.4289    17.5083   307.2136 </r>
       <r>    -1.3746    42.9107   309.5444 </r>
       <r>    -1.3202    37.0155   311.5550 </r>
       <r>    -1.2659     9.0629   312.0472 </r>
       <r>    -1.2116    25.4704   313.4307 </r>
       <r>    -1.1573    28.5655   314.9823 </r>
       <r>    -1.1030    10.3743   315.5458 </r>
       <r>    -1.0487    15.9396   316.4115 </r>
       <r>    -0.9943    10.8192   316.9992 </r>
       <r>    -0.9400    38.0880   319.0680 </r>
       <r>    -0.8857    17.0387   319.9935 </r>
       <r>    -0.8314    16.3387   320.8809 </r>
       <r>    -0.7771     0.1578   320.8895 </r>
       <r>    -0.7228    45.7311   323.3735 </r>
       <r>    -0.6684    23.8594   324.6695 </r>
       <r>    -0.6141    36.0652   326.6284 </r>
       <r>    -0.5598    61.0470   329.9443 </r>
       <r>    -0.5055    73.7441   333.9498 </r>
       <r>    -0.4512    57.9042   337.0949 </r>
       <r>    -0.3969    47.5011   339.6750 </r>
       <r>    -0.3425    77.6790   343.8943 </r>
       <r>    -0.2882    68.0290   347.5894 </r>
       <r>    -0.2339    71.4172   351.4685 </r>
       <r>    -0.1796   100.2881   356.9158 </r>
       <r>    -0.1253    57.9397   360.0629 </r>
       <r>    -0.0710    55.8246   363.0951 </r>
       <r>    -0.0166    79.8989   367.4349 </r>
       <r>     0.0377    74.1672   371.4634 </r>
       <r>     0.0920    67.6046   375.1355 </r>
       <r>     0.1463    63.3215   378.5749 </r>
       <r>     0.2006    96.0880   383.7941 </r>
       <r>     0.2549    75.8704   387.9151 </r>
       <r>     0.3093    72.1603   391.8346 </r>
       <r>     0.3636    99.0876   397.2167 </r>
       <r>     0.4179   118.3920   403.6473 </r>
       <r>     0.4722   123.4248   410.3513 </r>
       <r>     0.5265    91.4454   415.3183 </r>
       <r>     0.5808   121.8702   421.9378 </r>
       <r>     0.6352   121.3827   428.5309 </r>
       <r>     0.6895   109.8593   434.4981 </r>
       <r>     0.7438   141.4119   442.1791 </r>
       <r>     0.7981   112.9967   448.3168 </r>
       <r>     0.8524   122.0265   454.9448 </r>
       <r>     0.9067   114.8485   461.1830 </r>
       <r>     0.9610    77.8378   465.4109 </r>
       <r>     1.0154    83.7473   469.9598 </r>
       <r>     1.0697    99.0835   475.3417 </r>
       <r>     1.1240    83.7863   479.8926 </r>
       <r>     1.1783   126.8250   486.7813 </r>
       <r>     1.2326   116.9754   493.1351 </r>
       <r>     1.2869   114.0022   499.3273 </r>
       <r>     1.3413   134.0537   506.6086 </r>
       <r>     1.3956   117.3375   512.9820 </r>
       <r>     1.4499   108.8012   518.8917 </r>
       <r>     1.5042   112.4025   524.9970 </r>
       <r>     1.5585   123.6669   531.7142 </r>
       <r>     1.6128    99.8353   537.1369 </r>
       <r>     1.6672   110.7119   543.1505 </r>
       <r>     1.7215   106.6948   548.9457 </r>
       <r>     1.7758   107.4539   554.7822 </r>
       <r>     1.8301   123.5313   561.4920 </r>
       <r>     1.8844   108.1788   567.3679 </r>
       <r>     1.9387    94.8295   572.5187 </r>
       <r>     1.9931    88.5765   577.3299 </r>
       <r>     2.0474    87.6069   582.0884 </r>
       <r>     2.1017    88.5570   586.8985 </r>
       <r>     2.1560    85.0902   591.5203 </r>
       <r>     2.2103    89.9692   596.4071 </r>
       <r>     2.2646    90.0481   601.2983 </r>
       <r>     2.3190    54.1550   604.2398 </r>
       <r>     2.3733    69.1302   607.9947 </r>
       <r>     2.4276    93.9070   613.0954 </r>
       <r>     2.4819    78.0534   617.3351 </r>
       <r>     2.5362    85.8854   622.0000 </r>
       <r>     2.5905    90.9601   626.9407 </r>
       <r>     2.6449    54.6090   629.9069 </r>
       <r>     2.6992    61.7940   633.2633 </r>
       <r>     2.7535    75.3255   637.3547 </r>
       <r>     2.8078    79.3398   641.6642 </r>
       <r>     2.8621    50.3020   644.3964 </r>
       <r>     2.9164    69.1059   648.1500 </r>
       <r>     2.9708    42.8731   650.4788 </r>
       <r>     3.0251    50.0223   653.1958 </r>
       <r>     3.0794    35.7027   655.1351 </r>
       <r>     3.1337    42.7808   657.4588 </r>
       <r>     3.1880    34.4497   659.3300 </r>
       <r>     3.2423    30.8924   661.0079 </r>
       <r>     3.2967    58.9254   664.2085 </r>
       <r>     3.3510    50.4049   666.9464 </r>
       <r>     3.4053    47.7212   669.5384 </r>
       <r>     3.4596    23.5258   670.8162 </r>
       <r>     3.5139    24.7686   672.1616 </r>
       <r>     3.5682    24.8885   673.5134 </r>
       <r>     3.6225    27.7835   675.0225 </r>
       <r>     3.6769    46.3979   677.5427 </r>
       <r>     3.7312    32.4655   679.3062 </r>
       <r>     3.7855    52.0964   682.1359 </r>
       <r>     3.8398    11.2770   682.7485 </r>
       <r>     3.8941    17.6808   683.7088 </r>
       <r>     3.9484    14.3564   684.4886 </r>
       <r>     4.0028    25.6218   685.8803 </r>
       <r>     4.0571     8.1607   686.3236 </r>
       <r>     4.1114    14.1448   687.0919 </r>
       <r>     4.1657    24.7680   688.4372 </r>
       <r>     4.2200    44.1022   690.8326 </r>
       <r>     4.2743    39.9576   693.0030 </r>
       <r>     4.3287    29.6812   694.6152 </r>
       <r>     4.3830    31.2518   696.3126 </r>
       <r>     4.4373    49.5262   699.0027 </r>
       <r>     4.4916    52.0147   701.8280 </r>
       <r>     4.5459    46.8187   704.3710 </r>
       <r>     4.6002    61.0152   707.6852 </r>
       <r>     4.6546    72.4684   711.6215 </r>
       <r>     4.7089    51.3895   714.4128 </r>
       <r>     4.7632    90.2636   719.3155 </r>
       <r>     4.8175    71.2631   723.1864 </r>
       <r>     4.8718    77.9150   727.4185 </r>
       <r>     4.9261    71.7219   731.3141 </r>
       <r>     4.9805    97.7470   736.6234 </r>
       <r>     5.0348    88.2508   741.4169 </r>
       <r>     5.0891   102.5267   746.9858 </r>
       <r>     5.1434   101.4791   752.4978 </r>
       <r>     5.1977   109.1598   758.4271 </r>
       <r>     5.2520   114.4575   764.6440 </r>
       <r>     5.3064    94.2364   769.7626 </r>
       <r>     5.3607    94.9688   774.9210 </r>
       <r>     5.4150   117.5838   781.3077 </r>
       <r>     5.4693    99.8610   786.7318 </r>
       <r>     5.5236   121.8691   793.3513 </r>
       <r>     5.5779    92.9767   798.4014 </r>
       <r>     5.6323    98.6911   803.7620 </r>
       <r>     5.6866    53.4121   806.6631 </r>
       <r>     5.7409    24.6126   808.0000 </r>
       <r>     5.7952     0.0000   808.0000 </r>
       <r>     5.8495     0.0000   808.0000 </r>
       <r>     5.9038     0.0000   808.0000 </r>
       <r>     5.9582     0.0000   808.0000 </r>
       <r>     6.0125     0.0000   808.0000 </r>
       <r>     6.0668     0.0000   808.0000 </r>
       <r>     6.1211     0.0000   808.0000 </r>
       <r>     6.1754     0.0000   808.0000 </r>
       <r>     6.2297     0.0000   808.0000 </r>
       <r>     6.2841     0.0000   808.0000 </r>
       <r>     6.3384     0.0000   808.0000 </r>
       <r>     6.3927     0.0000   808.0000 </r>
       <r>     6.4470     0.0000   808.0000 </r>
      </set>
     </set>
    </array>
   </total>
  </dos>
 </calculation>
 <structure name="finalpos" >
  <crystal>
   <varray name="basis" >
    <v>      15.89522839       0.00000000       0.00000000 </v>
    <v>     -15.89523029      11.23962498       0.00000000 </v>
    <v>       0.00000000       0.00000000      25.80094337 </v>
   </varray>
   <i name="volume">   4609.50381433 </i>
   <varray name="rec_basis" >
    <v>       0.06291196       0.08897095       0.00000000 </v>
    <v>       0.00000000       0.08897094       0.00000000 </v>
    <v>       0.00000000       0.00000000       0.03875827 </v>
   </varray>
  </crystal>
  <varray name="positions" >
   <v>       0.65814054       0.36743808       0.00000001 </v>
   <v>       0.57480711       0.70077145       0.08892229 </v>
   <v>       0.49147368       0.03410494       0.17784463 </v>
   <v>       0.40814021       0.36743832       0.26676688 </v>
   <v>       0.32480687       0.70077193       0.35568923 </v>
   <v>       0.24147330       0.03410530       0.44461149 </v>
   <v>       0.99147379       0.03410473       0.00000001 </v>
   <v>       0.90814036       0.36743814       0.08892231 </v>
   <v>       0.82480693       0.70077163       0.17784463 </v>
   <v>       0.74147356       0.03410494       0.26676688 </v>
   <v>       0.65814006       0.36743855       0.35568923 </v>
   <v>       0.57480669       0.70077193       0.44461149 </v>
   <v>       0.32480717       0.70077139       0.00000000 </v>
   <v>       0.24147373       0.03410482       0.08892228 </v>
   <v>       0.15814032       0.36743832       0.17784457 </v>
   <v>       0.07480685       0.70077169       0.26676688 </v>
   <v>       0.99147344       0.03410506       0.35568917 </v>
   <v>       0.90814006       0.36743855       0.44461146 </v>
   <v>       0.49147382       0.03410473       0.00000001 </v>
   <v>       0.40814039       0.36743811       0.08892231 </v>
   <v>       0.32480696       0.70077163       0.17784460 </v>
   <v>       0.24147351       0.03410494       0.26676688 </v>
   <v>       0.15814012       0.36743855       0.35568923 </v>
   <v>       0.07480662       0.70077193       0.44461149 </v>
   <v>       0.82480717       0.70077139       0.00000001 </v>
   <v>       0.74147379       0.03410482       0.08892226 </v>
   <v>       0.65814030       0.36743820       0.17784460 </v>
   <v>       0.57480693       0.70077169       0.26676688 </v>
   <v>       0.49147350       0.03410506       0.35568917 </v>
   <v>       0.40813991       0.36743855       0.44461146 </v>
   <v>       0.15814048       0.36743805       0.00000001 </v>
   <v>       0.07480706       0.70077145       0.08892230 </v>
   <v>       0.99147356       0.03410482       0.17784460 </v>
   <v>       0.90814018       0.36743832       0.26676688 </v>
   <v>       0.82480675       0.70077181       0.35568923 </v>
   <v>       0.74147332       0.03410530       0.44461146 </v>
   <v>       0.74147379       0.28410470       0.00000002 </v>
   <v>       0.65814048       0.61743808       0.08892229 </v>
   <v>       0.57480699       0.95077157       0.17784460 </v>
   <v>       0.49147359       0.28410506       0.26676691 </v>
   <v>       0.40814012       0.61743844       0.35568923 </v>
   <v>       0.32480669       0.95077193       0.44461143 </v>
   <v>       0.40814051       0.61743808       0.00000000 </v>
   <v>       0.32480708       0.95077151       0.08892231 </v>
   <v>       0.24147364       0.28410494       0.17784463 </v>
   <v>       0.15814030       0.61743844       0.26676691 </v>
   <v>       0.07480682       0.95077193       0.35568914 </v>
   <v>       0.99147332       0.28410530       0.44461152 </v>
   <v>       0.07480715       0.95077145       0.00000002 </v>
   <v>       0.99147368       0.28410482       0.08892228 </v>
   <v>       0.90814030       0.61743832       0.17784463 </v>
   <v>       0.82480693       0.95077181       0.26676688 </v>
   <v>       0.74147356       0.28410530       0.35568917 </v>
   <v>       0.65814018       0.61743879       0.44461155 </v>
   <v>       0.90814048       0.61743808       0.00000002 </v>
   <v>       0.82480705       0.95077151       0.08892229 </v>
   <v>       0.74147361       0.28410494       0.17784460 </v>
   <v>       0.65814018       0.61743832       0.26676688 </v>
   <v>       0.57480675       0.95077193       0.35568920 </v>
   <v>       0.49147326       0.28410530       0.44461143 </v>
   <v>       0.24147384       0.28410473       0.00000001 </v>
   <v>       0.15814044       0.61743814       0.08892231 </v>
   <v>       0.07480702       0.95077163       0.17784463 </v>
   <v>       0.99147361       0.28410506       0.26676691 </v>
   <v>       0.90814012       0.61743844       0.35568923 </v>
   <v>       0.82480669       0.95077193       0.44461146 </v>
   <v>       0.57480711       0.95077151       0.00000003 </v>
   <v>       0.49147368       0.28410482       0.08892231 </v>
   <v>       0.40814021       0.61743832       0.17784460 </v>
   <v>       0.32480681       0.95077169       0.26676688 </v>
   <v>       0.24147344       0.28410530       0.35568920 </v>
   <v>       0.15813996       0.61743879       0.44461149 </v>
   <v>       0.63995385       0.54638880       0.52848196 </v>
   <v>       0.26495385       0.29638877       0.60601157 </v>
   <v>       0.88995373       0.04638875       0.68354106 </v>
   <v>       0.51495385       0.79638875       0.76107055 </v>
   <v>       0.13995385       0.54638880       0.83860004 </v>
   <v>       0.76495379       0.29638877       0.91612959 </v>
   <v>       0.63995385       0.04638875       0.52848196 </v>
   <v>       0.26495385       0.79638875       0.60601157 </v>
   <v>       0.88995373       0.54638869       0.68354100 </v>
   <v>       0.51495385       0.29638877       0.76107055 </v>
   <v>       0.13995385       0.04638886       0.83860004 </v>
   <v>       0.76495379       0.79638875       0.91612959 </v>
   <v>       0.13995385       0.54638880       0.52848196 </v>
   <v>       0.76495379       0.29638877       0.60601157 </v>
   <v>       0.38995373       0.04638875       0.68354100 </v>
   <v>       0.01495385       0.79638875       0.76107055 </v>
   <v>       0.63995385       0.54638880       0.83860004 </v>
   <v>       0.26495385       0.29638877       0.91612959 </v>
   <v>       0.13995385       0.04638875       0.52848196 </v>
   <v>       0.76495379       0.79638875       0.60601157 </v>
   <v>       0.38995373       0.54638869       0.68354100 </v>
   <v>       0.01495385       0.29638877       0.76107055 </v>
   <v>       0.63995385       0.04638886       0.83860004 </v>
   <v>       0.26495385       0.79638875       0.91612953 </v>
   <v>       0.88995379       0.54638880       0.52848196 </v>
   <v>       0.51495385       0.29638877       0.60601157 </v>
   <v>       0.13995373       0.04638875       0.68354100 </v>
   <v>       0.76495379       0.79638875       0.76107055 </v>
   <v>       0.38995385       0.54638880       0.83860004 </v>
   <v>       0.01495385       0.29638877       0.91612953 </v>
   <v>       0.88995379       0.04638875       0.52848196 </v>
   <v>       0.51495385       0.79638875       0.60601157 </v>
   <v>       0.13995373       0.54638869       0.68354100 </v>
   <v>       0.76495379       0.29638877       0.76107055 </v>
   <v>       0.38995385       0.04638886       0.83860004 </v>
   <v>       0.01495385       0.79638875       0.91612959 </v>
   <v>       0.38995385       0.54638880       0.52848196 </v>
   <v>       0.01495385       0.29638877       0.60601157 </v>
   <v>       0.63995373       0.04638875       0.68354100 </v>
   <v>       0.26495385       0.79638875       0.76107055 </v>
   <v>       0.88995385       0.54638880       0.83860004 </v>
   <v>       0.51495385       0.29638877       0.91612953 </v>
   <v>       0.38995373       0.04638875       0.52848196 </v>
   <v>       0.01495385       0.79638875       0.60601157 </v>
   <v>       0.63995373       0.54638869       0.68354100 </v>
   <v>       0.26495385       0.29638877       0.76107055 </v>
   <v>       0.88995397       0.04638886       0.83860004 </v>
   <v>       0.51495385       0.79638875       0.91612959 </v>
   <v>       0.88995385       0.92138880       0.52848196 </v>
   <v>       0.51495385       0.67138875       0.60601157 </v>
   <v>       0.13995385       0.42138877       0.68354100 </v>
   <v>       0.76495385       0.17138880       0.76107055 </v>
   <v>       0.38995385       0.92138880       0.83860004 </v>
   <v>       0.01495385       0.67138880       0.91612959 </v>
   <v>       0.88995379       0.42138877       0.52848196 </v>
   <v>       0.51495385       0.17138877       0.60601157 </v>
   <v>       0.13995373       0.92138869       0.68354100 </v>
   <v>       0.76495373       0.67138875       0.76107055 </v>
   <v>       0.38995385       0.42138877       0.83860004 </v>
   <v>       0.01495361       0.17138872       0.91612953 </v>
   <v>       0.38995385       0.92138880       0.52848196 </v>
   <v>       0.01495373       0.67138875       0.60601157 </v>
   <v>       0.63995373       0.42138877       0.68354100 </v>
   <v>       0.26495385       0.17138880       0.76107055 </v>
   <v>       0.88995391       0.92138880       0.83860004 </v>
   <v>       0.51495385       0.67138880       0.91612953 </v>
   <v>       0.38995385       0.42138877       0.52848196 </v>
   <v>       0.01495385       0.17138877       0.60601157 </v>
   <v>       0.63995373       0.92138869       0.68354106 </v>
   <v>       0.26495385       0.67138875       0.76107055 </v>
   <v>       0.88995385       0.42138877       0.83860004 </v>
   <v>       0.51495361       0.17138872       0.91612959 </v>
   <v>       0.63995385       0.92138880       0.52848196 </v>
   <v>       0.26495373       0.67138875       0.60601157 </v>
   <v>       0.88995373       0.42138877       0.68354100 </v>
   <v>       0.51495361       0.17138880       0.76107055 </v>
   <v>       0.13995385       0.92138880       0.83860004 </v>
   <v>       0.76495379       0.67138880       0.91612959 </v>
   <v>       0.63995385       0.42138877       0.52848196 </v>
   <v>       0.26495385       0.17138877       0.60601157 </v>
   <v>       0.88995373       0.92138869       0.68354100 </v>
   <v>       0.51495385       0.67138875       0.76107055 </v>
   <v>       0.13995385       0.42138877       0.83860004 </v>
   <v>       0.76495379       0.17138872       0.91612953 </v>
   <v>       0.13995385       0.92138880       0.52848196 </v>
   <v>       0.76495379       0.67138875       0.60601157 </v>
   <v>       0.38995385       0.42138877       0.68354100 </v>
   <v>       0.01495385       0.17138880       0.76107055 </v>
   <v>       0.63995385       0.92138880       0.83860004 </v>
   <v>       0.26495385       0.67138880       0.91612953 </v>
   <v>       0.13995385       0.42138877       0.52848196 </v>
   <v>       0.76495379       0.17138877       0.60601157 </v>
   <v>       0.38995373       0.92138869       0.68354100 </v>
   <v>       0.01495385       0.67138875       0.76107055 </v>
   <v>       0.63995385       0.42138877       0.83860004 </v>
   <v>       0.26495385       0.17138872       0.91612953 </v>
  </varray>
 </structure>
</modeling>
