 264 264   0   0
  0.2770664E+02  0.1946760E-08  0.1946760E-08  0.1930025E-08  0.5000000E-15
  1.000000000000000E-004
  CAR 
 Si and Ge interface calculation         
      6.66965252     -8.91196724  301      4.05782526      1.00000000
     -8.912  0.0000E+00  0.0000E+00  0.0000E+00  0.0000E+00
     -8.860  0.0000E+00  0.0000E+00  0.0000E+00  0.0000E+00
     -8.808  0.0000E+00  0.0000E+00  0.0000E+00  0.0000E+00
     -8.756  0.0000E+00  0.0000E+00  0.0000E+00  0.0000E+00
     -8.704  0.0000E+00  0.0000E+00  0.0000E+00  0.0000E+00
     -8.652  0.0000E+00  0.0000E+00  0.0000E+00  0.0000E+00
     -8.600  0.0000E+00  0.0000E+00  0.0000E+00  0.0000E+00
     -8.548  0.0000E+00  0.0000E+00  0.0000E+00  0.0000E+00
     -8.496  0.0000E+00  0.0000E+00  0.0000E+00  0.0000E+00
     -8.445  0.0000E+00  0.0000E+00  0.0000E+00  0.0000E+00
     -8.393  0.0000E+00  0.0000E+00  0.0000E+00  0.0000E+00
     -8.341  0.0000E+00  0.0000E+00  0.0000E+00  0.0000E+00
     -8.289  0.0000E+00  0.0000E+00  0.0000E+00  0.0000E+00
     -8.237  0.1397E-04  0.3176E-05  0.7257E-06  0.1649E-06
     -8.185  0.9969E+01  0.9722E+01  0.5178E+00  0.5049E+00
     -8.133  0.2814E+02  0.2805E+02  0.1980E+01  0.1962E+01
     -8.081  0.4192E+00  0.7476E+00  0.2001E+01  0.2001E+01
     -8.029  0.2145E+02  0.2030E+02  0.3115E+01  0.3055E+01
     -7.977  0.7406E+01  0.8568E+01  0.3500E+01  0.3500E+01
     -7.925  0.1915E+02  0.1901E+02  0.4494E+01  0.4487E+01
     -7.873  0.1866E+02  0.1826E+02  0.5463E+01  0.5436E+01
     -7.821  0.1055E+02  0.1074E+02  0.6011E+01  0.5994E+01
     -7.769  0.1028E+02  0.1026E+02  0.6545E+01  0.6527E+01
     -7.717  0.3807E+02  0.3821E+02  0.8523E+01  0.8511E+01
     -7.665  0.2846E+02  0.2702E+02  0.1000E+02  0.9915E+01
     -7.613  0.9612E+01  0.1126E+02  0.1050E+02  0.1050E+02
     -7.562  0.9025E-07  0.1712E-07  0.1050E+02  0.1050E+02
     -7.510  0.1503E+02  0.1341E+02  0.1128E+02  0.1120E+02
     -7.458  0.2319E+02  0.2431E+02  0.1248E+02  0.1246E+02
     -7.406  0.3963E+02  0.3732E+02  0.1454E+02  0.1440E+02
     -7.354  0.2485E+02  0.2647E+02  0.1583E+02  0.1577E+02
     -7.302  0.2112E+02  0.2158E+02  0.1693E+02  0.1689E+02
     -7.250  0.4418E+02  0.4296E+02  0.1923E+02  0.1912E+02
     -7.198  0.2171E+02  0.2221E+02  0.2035E+02  0.2028E+02
     -7.146  0.3112E+02  0.3201E+02  0.2197E+02  0.2194E+02
     -7.094  0.1673E+02  0.1608E+02  0.2284E+02  0.2278E+02
     -7.042  0.5943E+02  0.5576E+02  0.2593E+02  0.2567E+02
     -6.990  0.4680E+02  0.5018E+02  0.2836E+02  0.2828E+02
     -6.938  0.2543E+02  0.2573E+02  0.2968E+02  0.2961E+02
     -6.886  0.3833E+02  0.3735E+02  0.3167E+02  0.3155E+02
     -6.834  0.3086E+02  0.3111E+02  0.3327E+02  0.3317E+02
     -6.782  0.4703E+02  0.4619E+02  0.3571E+02  0.3557E+02
     -6.731  0.4550E+02  0.4479E+02  0.3808E+02  0.3790E+02
     -6.679  0.5425E+02  0.5577E+02  0.4089E+02  0.4079E+02
     -6.627  0.5518E+02  0.5406E+02  0.4376E+02  0.4360E+02
     -6.575  0.3400E+02  0.3463E+02  0.4553E+02  0.4540E+02
     -6.523  0.4470E+02  0.4591E+02  0.4785E+02  0.4778E+02
     -6.471  0.4089E+02  0.3978E+02  0.4997E+02  0.4985E+02
     -6.419  0.4083E+02  0.4258E+02  0.5209E+02  0.5206E+02
     -6.367  0.5054E+02  0.4949E+02  0.5472E+02  0.5463E+02
     -6.315  0.4565E+02  0.4512E+02  0.5709E+02  0.5697E+02
     -6.263  0.3457E+02  0.3558E+02  0.5888E+02  0.5882E+02
     -6.211  0.4024E+02  0.4020E+02  0.6097E+02  0.6091E+02
     -6.159  0.5715E+02  0.5542E+02  0.6394E+02  0.6379E+02
     -6.107  0.8249E+02  0.8422E+02  0.6823E+02  0.6816E+02
     -6.055  0.7003E+02  0.6891E+02  0.7186E+02  0.7174E+02
     -6.003  0.7221E+02  0.7263E+02  0.7561E+02  0.7551E+02
     -5.951  0.5240E+02  0.5181E+02  0.7834E+02  0.7821E+02
     -5.900  0.7573E+02  0.7480E+02  0.8227E+02  0.8209E+02
     -5.848  0.7083E+02  0.7103E+02  0.8595E+02  0.8578E+02
     -5.796  0.5804E+02  0.5898E+02  0.8896E+02  0.8884E+02
     -5.744  0.7535E+02  0.7369E+02  0.9288E+02  0.9267E+02
     -5.692  0.8226E+02  0.8307E+02  0.9715E+02  0.9698E+02
     -5.640  0.7866E+02  0.7799E+02  0.1012E+03  0.1010E+03
     -5.588  0.7948E+02  0.7988E+02  0.1054E+03  0.1052E+03
     -5.536  0.6726E+02  0.6677E+02  0.1089E+03  0.1087E+03
     -5.484  0.7164E+02  0.7291E+02  0.1126E+03  0.1124E+03
     -5.432  0.6129E+02  0.5952E+02  0.1158E+03  0.1155E+03
     -5.380  0.7223E+02  0.7350E+02  0.1195E+03  0.1193E+03
     -5.328  0.8672E+02  0.8449E+02  0.1240E+03  0.1237E+03
     -5.276  0.8705E+02  0.8889E+02  0.1285E+03  0.1284E+03
     -5.224  0.5520E+02  0.5601E+02  0.1314E+03  0.1313E+03
     -5.172  0.7411E+02  0.7423E+02  0.1353E+03  0.1351E+03
     -5.120  0.6546E+02  0.6407E+02  0.1387E+03  0.1384E+03
     -5.069  0.9900E+02  0.1002E+03  0.1438E+03  0.1436E+03
     -5.017  0.7180E+02  0.7168E+02  0.1475E+03  0.1474E+03
     -4.965  0.5326E+02  0.5187E+02  0.1503E+03  0.1501E+03
     -4.913  0.7435E+02  0.7394E+02  0.1542E+03  0.1539E+03
     -4.861  0.8196E+02  0.8303E+02  0.1584E+03  0.1582E+03
     -4.809  0.9404E+02  0.9097E+02  0.1633E+03  0.1629E+03
     -4.757  0.9748E+02  0.9845E+02  0.1684E+03  0.1681E+03
     -4.705  0.1013E+03  0.1012E+03  0.1736E+03  0.1733E+03
     -4.653  0.1090E+03  0.1084E+03  0.1793E+03  0.1789E+03
     -4.601  0.1264E+03  0.1233E+03  0.1858E+03  0.1853E+03
     -4.549  0.1180E+03  0.1207E+03  0.1920E+03  0.1916E+03
     -4.497  0.9850E+02  0.1011E+03  0.1971E+03  0.1969E+03
     -4.445  0.8768E+02  0.8762E+02  0.2016E+03  0.2014E+03
     -4.393  0.9254E+02  0.9317E+02  0.2064E+03  0.2063E+03
     -4.341  0.7720E+02  0.7358E+02  0.2105E+03  0.2101E+03
     -4.289  0.7973E+02  0.8289E+02  0.2146E+03  0.2144E+03
     -4.237  0.6783E+02  0.6638E+02  0.2181E+03  0.2178E+03
     -4.186  0.8808E+02  0.8771E+02  0.2227E+03  0.2224E+03
     -4.134  0.7445E+02  0.7739E+02  0.2266E+03  0.2264E+03
     -4.082  0.5837E+02  0.5855E+02  0.2296E+03  0.2295E+03
     -4.030  0.5338E+02  0.5326E+02  0.2324E+03  0.2322E+03
     -3.978  0.7781E+02  0.7594E+02  0.2364E+03  0.2362E+03
     -3.926  0.6213E+02  0.6407E+02  0.2396E+03  0.2395E+03
     -3.874  0.6822E+02  0.6690E+02  0.2432E+03  0.2430E+03
     -3.822  0.9875E+02  0.9567E+02  0.2483E+03  0.2479E+03
     -3.770  0.6658E+02  0.6972E+02  0.2518E+03  0.2516E+03
     -3.718  0.7038E+02  0.6904E+02  0.2554E+03  0.2551E+03
     -3.666  0.6911E+02  0.7102E+02  0.2590E+03  0.2588E+03
     -3.614  0.7810E+02  0.7735E+02  0.2631E+03  0.2628E+03
     -3.562  0.3725E+02  0.3880E+02  0.2650E+03  0.2649E+03
     -3.510  0.5524E+02  0.5114E+02  0.2679E+03  0.2675E+03
     -3.458  0.8135E+02  0.8299E+02  0.2721E+03  0.2718E+03
     -3.406  0.8208E+02  0.8205E+02  0.2764E+03  0.2761E+03
     -3.355  0.7780E+02  0.7891E+02  0.2804E+03  0.2802E+03
     -3.303  0.4908E+02  0.4808E+02  0.2830E+03  0.2827E+03
     -3.251  0.9621E+02  0.9346E+02  0.2879E+03  0.2875E+03
     -3.199  0.5638E+02  0.5966E+02  0.2909E+03  0.2906E+03
     -3.147  0.9544E+02  0.9234E+02  0.2958E+03  0.2954E+03
     -3.095  0.7185E+02  0.7455E+02  0.2996E+03  0.2993E+03
     -3.043  0.8154E+02  0.8188E+02  0.3038E+03  0.3036E+03
     -2.991  0.5822E+02  0.5679E+02  0.3068E+03  0.3065E+03
     -2.939  0.8532E+02  0.8375E+02  0.3113E+03  0.3109E+03
     -2.887  0.1071E+03  0.1073E+03  0.3168E+03  0.3164E+03
     -2.835  0.8011E+02  0.8511E+02  0.3210E+03  0.3209E+03
     -2.783  0.7428E+02  0.7080E+02  0.3248E+03  0.3245E+03
     -2.731  0.1170E+03  0.1183E+03  0.3309E+03  0.3307E+03
     -2.679  0.8899E+02  0.8758E+02  0.3355E+03  0.3352E+03
     -2.627  0.9242E+02  0.9460E+02  0.3403E+03  0.3401E+03
     -2.575  0.1048E+03  0.1008E+03  0.3458E+03  0.3454E+03
     -2.524  0.1269E+03  0.1276E+03  0.3524E+03  0.3520E+03
     -2.472  0.1075E+03  0.1086E+03  0.3579E+03  0.3576E+03
     -2.420  0.9226E+02  0.9421E+02  0.3627E+03  0.3625E+03
     -2.368  0.8027E+02  0.7888E+02  0.3669E+03  0.3666E+03
     -2.316  0.1043E+03  0.1045E+03  0.3723E+03  0.3721E+03
     -2.264  0.1087E+03  0.1068E+03  0.3780E+03  0.3776E+03
     -2.212  0.5845E+02  0.6386E+02  0.3810E+03  0.3809E+03
     -2.160  0.5819E+02  0.5655E+02  0.3840E+03  0.3839E+03
     -2.108  0.5657E+02  0.5781E+02  0.3870E+03  0.3869E+03
     -2.056  0.5850E+02  0.5603E+02  0.3900E+03  0.3898E+03
     -2.004  0.7700E+02  0.7686E+02  0.3940E+03  0.3938E+03
     -1.952  0.9630E+02  0.9459E+02  0.3990E+03  0.3987E+03
     -1.900  0.9055E+02  0.9315E+02  0.4037E+03  0.4035E+03
     -1.848  0.9180E+02  0.8946E+02  0.4085E+03  0.4082E+03
     -1.796  0.7752E+02  0.7898E+02  0.4125E+03  0.4123E+03
     -1.744  0.8890E+02  0.9001E+02  0.4171E+03  0.4169E+03
     -1.692  0.8796E+02  0.8611E+02  0.4217E+03  0.4214E+03
     -1.641  0.8242E+02  0.8364E+02  0.4260E+03  0.4258E+03
     -1.589  0.8819E+02  0.8678E+02  0.4306E+03  0.4303E+03
     -1.537  0.8045E+02  0.8066E+02  0.4347E+03  0.4345E+03
     -1.485  0.7358E+02  0.7488E+02  0.4386E+03  0.4383E+03
     -1.433  0.5460E+02  0.5447E+02  0.4414E+03  0.4412E+03
     -1.381  0.3763E+02  0.3758E+02  0.4433E+03  0.4431E+03
     -1.329  0.6328E+02  0.6318E+02  0.4466E+03  0.4464E+03
     -1.277  0.7064E+02  0.7133E+02  0.4503E+03  0.4501E+03
     -1.225  0.4830E+02  0.4974E+02  0.4528E+03  0.4527E+03
     -1.173  0.5324E+02  0.5061E+02  0.4556E+03  0.4553E+03
     -1.121  0.5663E+02  0.5931E+02  0.4585E+03  0.4584E+03
     -1.069  0.4983E+02  0.4837E+02  0.4611E+03  0.4609E+03
     -1.017  0.7369E+02  0.7435E+02  0.4649E+03  0.4648E+03
     -0.965  0.3154E+02  0.3200E+02  0.4666E+03  0.4664E+03
     -0.913  0.4414E+02  0.4320E+02  0.4689E+03  0.4687E+03
     -0.861  0.7260E+02  0.7291E+02  0.4726E+03  0.4725E+03
     -0.810  0.5217E+02  0.4980E+02  0.4753E+03  0.4751E+03
     -0.758  0.6678E+02  0.6988E+02  0.4788E+03  0.4787E+03
     -0.706  0.6424E+02  0.6048E+02  0.4821E+03  0.4818E+03
     -0.654  0.4948E+02  0.5260E+02  0.4847E+03  0.4846E+03
     -0.602  0.4121E+02  0.4212E+02  0.4869E+03  0.4867E+03
     -0.550  0.2459E+02  0.2425E+02  0.4881E+03  0.4880E+03
     -0.498  0.2342E+02  0.2532E+02  0.4894E+03  0.4893E+03
     -0.446  0.4319E+02  0.4096E+02  0.4916E+03  0.4914E+03
     -0.394  0.4207E+02  0.4173E+02  0.4938E+03  0.4936E+03
     -0.342  0.6723E+02  0.6598E+02  0.4973E+03  0.4970E+03
     -0.290  0.7092E+02  0.7219E+02  0.5010E+03  0.5008E+03
     -0.238  0.7807E+02  0.7870E+02  0.5050E+03  0.5049E+03
     -0.186  0.7462E+02  0.7277E+02  0.5089E+03  0.5087E+03
     -0.134  0.1157E+03  0.1160E+03  0.5149E+03  0.5147E+03
     -0.082  0.1145E+03  0.1142E+03  0.5208E+03  0.5206E+03
     -0.030  0.1261E+03  0.1240E+03  0.5274E+03  0.5271E+03
      0.021  0.1032E+03  0.1040E+03  0.5327E+03  0.5325E+03
      0.073  0.1674E+03  0.1624E+03  0.5414E+03  0.5409E+03
      0.125  0.1258E+03  0.1333E+03  0.5480E+03  0.5478E+03
      0.177  0.7375E+02  0.7292E+02  0.5518E+03  0.5516E+03
      0.229  0.7955E+02  0.7942E+02  0.5559E+03  0.5557E+03
      0.281  0.1043E+03  0.1045E+03  0.5614E+03  0.5612E+03
      0.333  0.6968E+02  0.7053E+02  0.5650E+03  0.5648E+03
      0.385  0.9743E+02  0.9648E+02  0.5700E+03  0.5698E+03
      0.437  0.9253E+02  0.9282E+02  0.5748E+03  0.5746E+03
      0.489  0.7197E+02  0.7221E+02  0.5786E+03  0.5784E+03
      0.541  0.1203E+03  0.1198E+03  0.5848E+03  0.5846E+03
      0.593  0.1480E+03  0.1465E+03  0.5925E+03  0.5922E+03
      0.645  0.1351E+03  0.1344E+03  0.5995E+03  0.5992E+03
      0.697  0.1336E+03  0.1349E+03  0.6065E+03  0.6062E+03
      0.749  0.1222E+03  0.1222E+03  0.6128E+03  0.6126E+03
      0.801  0.1237E+03  0.1227E+03  0.6192E+03  0.6189E+03
      0.853  0.1100E+03  0.1121E+03  0.6250E+03  0.6248E+03
      0.904  0.7067E+02  0.7117E+02  0.6286E+03  0.6284E+03
      0.956  0.1115E+03  0.1094E+03  0.6344E+03  0.6341E+03
      1.008  0.1188E+03  0.1173E+03  0.6406E+03  0.6402E+03
      1.060  0.1657E+03  0.1640E+03  0.6492E+03  0.6487E+03
      1.112  0.1073E+03  0.1109E+03  0.6548E+03  0.6545E+03
      1.164  0.1415E+03  0.1373E+03  0.6621E+03  0.6616E+03
      1.216  0.1789E+03  0.1781E+03  0.6714E+03  0.6709E+03
      1.268  0.1643E+03  0.1663E+03  0.6800E+03  0.6795E+03
      1.320  0.1811E+03  0.1789E+03  0.6894E+03  0.6888E+03
      1.372  0.1901E+03  0.1904E+03  0.6992E+03  0.6987E+03
      1.424  0.1772E+03  0.1828E+03  0.7084E+03  0.7082E+03
      1.476  0.1277E+03  0.1246E+03  0.7151E+03  0.7147E+03
      1.528  0.2171E+03  0.2149E+03  0.7263E+03  0.7258E+03
      1.580  0.2067E+03  0.2046E+03  0.7371E+03  0.7364E+03
      1.632  0.1905E+03  0.1940E+03  0.7470E+03  0.7465E+03
      1.684  0.1754E+03  0.1747E+03  0.7561E+03  0.7556E+03
      1.735  0.1926E+03  0.1884E+03  0.7661E+03  0.7654E+03
      1.787  0.1728E+03  0.1802E+03  0.7751E+03  0.7747E+03
      1.839  0.1831E+03  0.1768E+03  0.7846E+03  0.7839E+03
      1.891  0.1689E+03  0.1705E+03  0.7933E+03  0.7928E+03
      1.943  0.1865E+03  0.1851E+03  0.8030E+03  0.8024E+03
      1.995  0.1927E+03  0.1950E+03  0.8130E+03  0.8125E+03
      2.047  0.1695E+03  0.1668E+03  0.8218E+03  0.8212E+03
      2.099  0.1875E+03  0.1914E+03  0.8316E+03  0.8311E+03
      2.151  0.1647E+03  0.1643E+03  0.8401E+03  0.8397E+03
      2.203  0.1995E+03  0.1998E+03  0.8505E+03  0.8500E+03
      2.255  0.1618E+03  0.1610E+03  0.8589E+03  0.8584E+03
      2.307  0.1546E+03  0.1551E+03  0.8669E+03  0.8665E+03
      2.359  0.1796E+03  0.1761E+03  0.8763E+03  0.8756E+03
      2.411  0.1975E+03  0.2029E+03  0.8865E+03  0.8861E+03
      2.463  0.1409E+03  0.1402E+03  0.8938E+03  0.8934E+03
      2.515  0.1653E+03  0.1621E+03  0.9024E+03  0.9018E+03
      2.566  0.1585E+03  0.1591E+03  0.9107E+03  0.9101E+03
      2.618  0.1416E+03  0.1421E+03  0.9180E+03  0.9175E+03
      2.670  0.1042E+03  0.1027E+03  0.9234E+03  0.9228E+03
      2.722  0.1470E+03  0.1452E+03  0.9311E+03  0.9304E+03
      2.774  0.1243E+03  0.1305E+03  0.9375E+03  0.9371E+03
      2.826  0.1619E+03  0.1545E+03  0.9459E+03  0.9452E+03
      2.878  0.1425E+03  0.1457E+03  0.9533E+03  0.9527E+03
      2.930  0.1317E+03  0.1348E+03  0.9602E+03  0.9597E+03
      2.982  0.9371E+02  0.9155E+02  0.9650E+03  0.9645E+03
      3.034  0.1506E+03  0.1487E+03  0.9729E+03  0.9722E+03
      3.086  0.1229E+03  0.1239E+03  0.9792E+03  0.9787E+03
      3.138  0.1238E+03  0.1248E+03  0.9857E+03  0.9851E+03
      3.190  0.1063E+03  0.1044E+03  0.9912E+03  0.9906E+03
      3.242  0.1047E+03  0.1085E+03  0.9966E+03  0.9962E+03
      3.294  0.1187E+03  0.1138E+03  0.1003E+04  0.1002E+04
      3.346  0.1012E+03  0.1052E+03  0.1008E+04  0.1008E+04
      3.398  0.6319E+02  0.6453E+02  0.1011E+04  0.1011E+04
      3.449  0.1007E+03  0.1034E+03  0.1017E+04  0.1016E+04
      3.501  0.8683E+02  0.8463E+02  0.1021E+04  0.1021E+04
      3.553  0.8430E+02  0.7932E+02  0.1025E+04  0.1025E+04
      3.605  0.8835E+02  0.8828E+02  0.1030E+04  0.1029E+04
      3.657  0.5381E+02  0.6027E+02  0.1033E+04  0.1033E+04
      3.709  0.4678E+02  0.4301E+02  0.1035E+04  0.1035E+04
      3.761  0.5317E+02  0.5935E+02  0.1038E+04  0.1038E+04
      3.813  0.5983E+02  0.5338E+02  0.1041E+04  0.1041E+04
      3.865  0.4153E+02  0.4932E+02  0.1043E+04  0.1043E+04
      3.917  0.3942E+02  0.3629E+02  0.1045E+04  0.1045E+04
      3.969  0.8328E+02  0.7059E+02  0.1050E+04  0.1049E+04
      4.021  0.7951E+02  0.8339E+02  0.1054E+04  0.1053E+04
      4.073  0.6858E+02  0.5888E+02  0.1057E+04  0.1056E+04
      4.125  0.1013E+03  0.1065E+03  0.1063E+04  0.1062E+04
      4.177  0.1006E+03  0.1035E+03  0.1068E+04  0.1067E+04
      4.229  0.9988E+02  0.9922E+02  0.1073E+04  0.1072E+04
      4.280  0.9325E+02  0.1014E+03  0.1078E+04  0.1077E+04
      4.332  0.8640E+02  0.7787E+02  0.1082E+04  0.1081E+04
      4.384  0.1271E+03  0.1227E+03  0.1089E+04  0.1088E+04
      4.436  0.1036E+03  0.1081E+03  0.1094E+04  0.1093E+04
      4.488  0.1086E+03  0.1146E+03  0.1100E+04  0.1099E+04
      4.540  0.1059E+03  0.9937E+02  0.1105E+04  0.1105E+04
      4.592  0.1000E+03  0.1021E+03  0.1111E+04  0.1110E+04
      4.644  0.1085E+03  0.1086E+03  0.1116E+04  0.1116E+04
      4.696  0.1009E+03  0.1024E+03  0.1122E+04  0.1121E+04
      4.748  0.1381E+03  0.1377E+03  0.1129E+04  0.1128E+04
      4.800  0.1260E+03  0.1251E+03  0.1135E+04  0.1135E+04
      4.852  0.1220E+03  0.1276E+03  0.1142E+04  0.1141E+04
      4.904  0.9933E+02  0.9458E+02  0.1147E+04  0.1146E+04
      4.956  0.1244E+03  0.1248E+03  0.1153E+04  0.1153E+04
      5.008  0.1366E+03  0.1378E+03  0.1160E+04  0.1160E+04
      5.060  0.1153E+03  0.1168E+03  0.1166E+04  0.1166E+04
      5.111  0.1120E+03  0.1116E+03  0.1172E+04  0.1172E+04
      5.163  0.9779E+02  0.9797E+02  0.1177E+04  0.1177E+04
      5.215  0.1028E+03  0.1037E+03  0.1183E+04  0.1182E+04
      5.267  0.1065E+03  0.1068E+03  0.1188E+04  0.1188E+04
      5.319  0.1261E+03  0.1240E+03  0.1195E+04  0.1194E+04
      5.371  0.1361E+03  0.1380E+03  0.1202E+04  0.1201E+04
      5.423  0.1336E+03  0.1319E+03  0.1209E+04  0.1208E+04
      5.475  0.1524E+03  0.1551E+03  0.1217E+04  0.1216E+04
      5.527  0.1446E+03  0.1402E+03  0.1224E+04  0.1223E+04
      5.579  0.1434E+03  0.1431E+03  0.1232E+04  0.1231E+04
      5.631  0.1316E+03  0.1350E+03  0.1238E+04  0.1238E+04
      5.683  0.1291E+03  0.1282E+03  0.1245E+04  0.1244E+04
      5.735  0.1237E+03  0.1242E+03  0.1251E+04  0.1251E+04
      5.787  0.1230E+03  0.1247E+03  0.1258E+04  0.1257E+04
      5.839  0.1302E+03  0.1276E+03  0.1265E+04  0.1264E+04
      5.891  0.1025E+03  0.1136E+03  0.1270E+04  0.1270E+04
      5.943  0.3429E+02  0.3175E+02  0.1272E+04  0.1272E+04
      5.994  0.5226E+01  0.8337E+01  0.1272E+04  0.1272E+04
      6.046  0.0000E+00  0.0000E+00  0.1272E+04  0.1272E+04
      6.098  0.0000E+00  0.0000E+00  0.1272E+04  0.1272E+04
      6.150  0.0000E+00  0.0000E+00  0.1272E+04  0.1272E+04
      6.202  0.0000E+00  0.0000E+00  0.1272E+04  0.1272E+04
      6.254  0.0000E+00  0.0000E+00  0.1272E+04  0.1272E+04
      6.306  0.0000E+00  0.0000E+00  0.1272E+04  0.1272E+04
      6.358  0.0000E+00  0.0000E+00  0.1272E+04  0.1272E+04
      6.410  0.0000E+00  0.0000E+00  0.1272E+04  0.1272E+04
      6.462  0.0000E+00  0.0000E+00  0.1272E+04  0.1272E+04
      6.514  0.0000E+00  0.0000E+00  0.1272E+04  0.1272E+04
      6.566  0.0000E+00  0.0000E+00  0.1272E+04  0.1272E+04
      6.618  0.0000E+00  0.0000E+00  0.1272E+04  0.1272E+04
      6.670  0.0000E+00  0.0000E+00  0.1272E+04  0.1272E+04
