 168 168   0   0
  0.2083040E+02  0.1600268E-08  0.1600268E-08  0.1577942E-08  0.5000000E-15
  1.000000000000000E-004
  CAR 
 Si and Ge interface calculation         
      9.30375526    -11.09942151  301      6.38918874      1.00000000
    -11.099  0.0000E+00  0.0000E+00  0.0000E+00  0.0000E+00
    -11.031  0.0000E+00  0.0000E+00  0.0000E+00  0.0000E+00
    -10.963  0.0000E+00  0.0000E+00  0.0000E+00  0.0000E+00
    -10.895  0.0000E+00  0.0000E+00  0.0000E+00  0.0000E+00
    -10.827  0.0000E+00  0.0000E+00  0.0000E+00  0.0000E+00
    -10.759  0.0000E+00  0.0000E+00  0.0000E+00  0.0000E+00
    -10.691  0.0000E+00  0.0000E+00  0.0000E+00  0.0000E+00
    -10.623  0.0000E+00  0.0000E+00  0.0000E+00  0.0000E+00
    -10.555  0.0000E+00  0.0000E+00  0.0000E+00  0.0000E+00
    -10.487  0.0000E+00  0.0000E+00  0.0000E+00  0.0000E+00
    -10.419  0.0000E+00  0.0000E+00  0.0000E+00  0.0000E+00
    -10.351  0.0000E+00  0.0000E+00  0.0000E+00  0.0000E+00
    -10.283  0.0000E+00  0.0000E+00  0.0000E+00  0.0000E+00
    -10.215  0.3195E-08  0.6275E-10  0.2173E-09  0.4267E-11
    -10.147  0.1215E+02  0.9078E+01  0.8263E+00  0.6174E+00
    -10.079  0.1190E+03  0.1125E+03  0.8921E+01  0.8271E+01
    -10.011  0.1037E+03  0.1130E+03  0.1599E+02  0.1596E+02
     -9.943  0.0000E+00  0.3982E+00  0.1600E+02  0.1600E+02
     -9.875  0.0000E+00  0.0000E+00  0.1600E+02  0.1600E+02
     -9.807  0.0000E+00  0.0000E+00  0.1600E+02  0.1600E+02
     -9.739  0.0000E+00  0.0000E+00  0.1600E+02  0.1600E+02
     -9.671  0.0000E+00  0.0000E+00  0.1600E+02  0.1600E+02
     -9.603  0.0000E+00  0.0000E+00  0.1600E+02  0.1600E+02
     -9.535  0.0000E+00  0.0000E+00  0.1600E+02  0.1600E+02
     -9.467  0.0000E+00  0.0000E+00  0.1600E+02  0.1600E+02
     -9.399  0.0000E+00  0.0000E+00  0.1600E+02  0.1600E+02
     -9.331  0.0000E+00  0.0000E+00  0.1600E+02  0.1600E+02
     -9.263  0.0000E+00  0.0000E+00  0.1600E+02  0.1600E+02
     -9.195  0.0000E+00  0.0000E+00  0.1600E+02  0.1600E+02
     -9.127  0.0000E+00  0.0000E+00  0.1600E+02  0.1600E+02
     -9.059  0.1404E-08  0.2697E-11  0.1600E+02  0.1600E+02
     -8.991  0.2383E+02  0.1761E+02  0.1762E+02  0.1720E+02
     -8.923  0.5866E+02  0.5938E+02  0.2161E+02  0.2124E+02
     -8.855  0.6614E+02  0.6454E+02  0.2611E+02  0.2563E+02
     -8.787  0.5654E+02  0.6223E+02  0.2995E+02  0.2986E+02
     -8.719  0.2203E+02  0.2402E+02  0.3150E+02  0.3150E+02
     -8.651  0.7352E+01  0.7352E+01  0.3200E+02  0.3200E+02
     -8.583  0.0000E+00  0.0000E+00  0.3200E+02  0.3200E+02
     -8.515  0.3765E+01  0.8999E+00  0.3226E+02  0.3206E+02
     -8.447  0.3278E+02  0.3066E+02  0.3449E+02  0.3415E+02
     -8.379  0.9168E+02  0.8817E+02  0.4072E+02  0.4014E+02
     -8.311  0.7566E+02  0.8182E+02  0.4592E+02  0.4571E+02
     -8.243  0.2269E+02  0.2571E+02  0.4749E+02  0.4746E+02
     -8.175  0.7335E+01  0.7918E+01  0.4800E+02  0.4800E+02
     -8.107  0.0000E+00  0.0000E+00  0.4800E+02  0.4800E+02
     -8.039  0.0000E+00  0.0000E+00  0.4800E+02  0.4800E+02
     -7.971  0.0000E+00  0.0000E+00  0.4800E+02  0.4800E+02
     -7.903  0.0000E+00  0.0000E+00  0.4800E+02  0.4800E+02
     -7.835  0.0000E+00  0.0000E+00  0.4800E+02  0.4800E+02
     -7.767  0.0000E+00  0.0000E+00  0.4800E+02  0.4800E+02
     -7.699  0.0000E+00  0.0000E+00  0.4800E+02  0.4800E+02
     -7.631  0.0000E+00  0.0000E+00  0.4800E+02  0.4800E+02
     -7.563  0.0000E+00  0.0000E+00  0.4800E+02  0.4800E+02
     -7.495  0.0000E+00  0.0000E+00  0.4800E+02  0.4800E+02
     -7.427  0.0000E+00  0.0000E+00  0.4800E+02  0.4800E+02
     -7.359  0.0000E+00  0.0000E+00  0.4800E+02  0.4800E+02
     -7.291  0.0000E+00  0.0000E+00  0.4800E+02  0.4800E+02
     -7.223  0.0000E+00  0.0000E+00  0.4800E+02  0.4800E+02
     -7.155  0.0000E+00  0.0000E+00  0.4800E+02  0.4800E+02
     -7.087  0.0000E+00  0.0000E+00  0.4800E+02  0.4800E+02
     -7.019  0.0000E+00  0.0000E+00  0.4800E+02  0.4800E+02
     -6.951  0.0000E+00  0.0000E+00  0.4800E+02  0.4800E+02
     -6.883  0.0000E+00  0.0000E+00  0.4800E+02  0.4800E+02
     -6.815  0.0000E+00  0.0000E+00  0.4800E+02  0.4800E+02
     -6.747  0.0000E+00  0.0000E+00  0.4800E+02  0.4800E+02
     -6.679  0.0000E+00  0.0000E+00  0.4800E+02  0.4800E+02
     -6.611  0.0000E+00  0.0000E+00  0.4800E+02  0.4800E+02
     -6.543  0.0000E+00  0.0000E+00  0.4800E+02  0.4800E+02
     -6.475  0.0000E+00  0.0000E+00  0.4800E+02  0.4800E+02
     -6.407  0.0000E+00  0.0000E+00  0.4800E+02  0.4800E+02
     -6.339  0.0000E+00  0.0000E+00  0.4800E+02  0.4800E+02
     -6.271  0.0000E+00  0.0000E+00  0.4800E+02  0.4800E+02
     -6.203  0.0000E+00  0.0000E+00  0.4800E+02  0.4800E+02
     -6.135  0.0000E+00  0.0000E+00  0.4800E+02  0.4800E+02
     -6.067  0.0000E+00  0.0000E+00  0.4800E+02  0.4800E+02
     -5.999  0.0000E+00  0.0000E+00  0.4800E+02  0.4800E+02
     -5.931  0.2041E-15  0.0000E+00  0.4800E+02  0.4800E+02
     -5.863  0.1977E+02  0.1404E+02  0.4934E+02  0.4895E+02
     -5.795  0.5788E+02  0.5930E+02  0.5328E+02  0.5299E+02
     -5.727  0.1711E+02  0.1721E+02  0.5445E+02  0.5417E+02
     -5.659  0.5808E+02  0.5473E+02  0.5840E+02  0.5789E+02
     -5.591  0.5294E+02  0.6009E+02  0.6200E+02  0.6198E+02
     -5.523  0.7119E+02  0.6644E+02  0.6684E+02  0.6652E+02
     -5.455  0.1713E+02  0.2175E+02  0.6801E+02  0.6800E+02
     -5.387  0.7235E+01  0.7324E+01  0.6850E+02  0.6850E+02
     -5.319  0.4347E+02  0.3912E+02  0.7146E+02  0.7116E+02
     -5.251  0.6637E+02  0.7037E+02  0.7600E+02  0.7595E+02
     -5.183  0.5070E+02  0.4891E+02  0.7945E+02  0.7933E+02
     -5.114  0.4963E+02  0.4799E+02  0.8286E+02  0.8259E+02
     -5.046  0.2412E+02  0.2807E+02  0.8450E+02  0.8450E+02
     -4.978  0.9176E+01  0.6009E+01  0.8512E+02  0.8491E+02
     -4.910  0.3518E+02  0.3421E+02  0.8752E+02  0.8723E+02
     -4.842  0.5727E+02  0.5730E+02  0.9141E+02  0.9113E+02
     -4.774  0.3325E+02  0.3548E+02  0.9367E+02  0.9355E+02
     -4.706  0.7735E+02  0.7427E+02  0.9893E+02  0.9860E+02
     -4.638  0.8100E+01  0.1328E+02  0.9950E+02  0.9950E+02
     -4.570  0.3378E-10  0.2389E-12  0.9950E+02  0.9950E+02
     -4.502  0.3761E+02  0.3115E+02  0.1021E+03  0.1016E+03
     -4.434  0.2122E+02  0.2684E+02  0.1035E+03  0.1035E+03
     -4.366  0.1905E+02  0.1391E+02  0.1048E+03  0.1044E+03
     -4.298  0.3222E+02  0.3772E+02  0.1070E+03  0.1070E+03
     -4.230  0.1334E+02  0.1137E+02  0.1079E+03  0.1078E+03
     -4.162  0.8886E+01  0.1067E+02  0.1085E+03  0.1085E+03
     -4.094  0.8799E+02  0.8790E+02  0.1145E+03  0.1145E+03
     -4.026  0.0000E+00  0.0000E+00  0.1145E+03  0.1145E+03
     -3.958  0.0000E+00  0.0000E+00  0.1145E+03  0.1145E+03
     -3.890  0.0000E+00  0.0000E+00  0.1145E+03  0.1145E+03
     -3.822  0.4359E-12  0.1367E-13  0.1145E+03  0.1145E+03
     -3.754  0.2380E+02  0.2109E+02  0.1161E+03  0.1159E+03
     -3.686  0.5681E+02  0.5919E+02  0.1200E+03  0.1200E+03
     -3.618  0.2208E+02  0.2019E+02  0.1215E+03  0.1214E+03
     -3.550  0.4102E+02  0.4264E+02  0.1243E+03  0.1243E+03
     -3.482  0.1190E+03  0.1148E+03  0.1324E+03  0.1321E+03
     -3.414  0.7657E+02  0.7495E+02  0.1376E+03  0.1372E+03
     -3.346  0.5320E+02  0.5899E+02  0.1412E+03  0.1412E+03
     -3.278  0.4792E+02  0.4859E+02  0.1445E+03  0.1445E+03
     -3.210  0.0000E+00  0.0000E+00  0.1445E+03  0.1445E+03
     -3.142  0.1185E-09  0.4016E-11  0.1445E+03  0.1445E+03
     -3.074  0.2985E+02  0.2404E+02  0.1465E+03  0.1461E+03
     -3.006  0.4250E+02  0.4694E+02  0.1494E+03  0.1493E+03
     -2.938  0.2921E+02  0.2970E+02  0.1514E+03  0.1514E+03
     -2.870  0.2282E+02  0.2274E+02  0.1530E+03  0.1529E+03
     -2.802  0.7920E+01  0.8800E+01  0.1535E+03  0.1535E+03
     -2.734  0.3145E+02  0.2833E+02  0.1556E+03  0.1554E+03
     -2.666  0.3426E+02  0.3352E+02  0.1580E+03  0.1577E+03
     -2.598  0.2987E+02  0.3121E+02  0.1600E+03  0.1598E+03
     -2.530  0.4647E+02  0.4536E+02  0.1632E+03  0.1629E+03
     -2.462  0.5646E+02  0.5741E+02  0.1670E+03  0.1668E+03
     -2.394  0.5080E+02  0.4592E+02  0.1705E+03  0.1700E+03
     -2.326  0.6589E+02  0.7121E+02  0.1750E+03  0.1748E+03
     -2.258  0.5461E+02  0.5294E+02  0.1787E+03  0.1784E+03
     -2.190  0.6894E+02  0.6587E+02  0.1834E+03  0.1829E+03
     -2.122  0.7514E+02  0.7920E+02  0.1885E+03  0.1883E+03
     -2.054  0.7330E+02  0.7053E+02  0.1935E+03  0.1931E+03
     -1.986  0.5562E+02  0.5252E+02  0.1973E+03  0.1967E+03
     -1.918  0.7089E+02  0.7275E+02  0.2021E+03  0.2016E+03
     -1.850  0.6779E+02  0.6884E+02  0.2067E+03  0.2063E+03
     -1.782  0.8134E+02  0.7919E+02  0.2123E+03  0.2117E+03
     -1.714  0.6150E+02  0.6605E+02  0.2165E+03  0.2162E+03
     -1.646  0.5503E+02  0.4614E+02  0.2202E+03  0.2193E+03
     -1.578  0.1115E+03  0.1196E+03  0.2278E+03  0.2275E+03
     -1.510  0.3504E+02  0.3740E+02  0.2302E+03  0.2300E+03
     -1.442  0.6450E+02  0.6189E+02  0.2346E+03  0.2343E+03
     -1.374  0.2242E+02  0.2635E+02  0.2361E+03  0.2361E+03
     -1.306  0.2388E+02  0.2057E+02  0.2377E+03  0.2375E+03
     -1.238  0.1503E+02  0.1726E+02  0.2388E+03  0.2386E+03
     -1.170  0.1831E+02  0.1946E+02  0.2400E+03  0.2400E+03
     -1.102  0.5007E+02  0.4881E+02  0.2434E+03  0.2433E+03
     -1.034  0.4166E+02  0.4314E+02  0.2463E+03  0.2462E+03
     -0.966  0.5016E+02  0.4766E+02  0.2497E+03  0.2495E+03
     -0.898  0.1572E+02  0.1819E+02  0.2507E+03  0.2507E+03
     -0.830  0.7866E-01  0.6519E-02  0.2508E+03  0.2508E+03
     -0.762  0.3203E+02  0.3080E+02  0.2529E+03  0.2528E+03
     -0.694  0.8494E+01  0.9600E+01  0.2535E+03  0.2535E+03
     -0.626  0.1454E+02  0.1468E+02  0.2545E+03  0.2545E+03
     -0.558  0.2205E+02  0.2205E+02  0.2560E+03  0.2560E+03
     -0.490  0.1967E+02  0.1730E+02  0.2573E+03  0.2572E+03
     -0.422  0.9712E+01  0.1192E+02  0.2580E+03  0.2580E+03
     -0.354  0.3095E+02  0.2931E+02  0.2601E+03  0.2600E+03
     -0.286  0.5841E+01  0.7465E+01  0.2605E+03  0.2605E+03
     -0.218  0.6310E+02  0.5370E+02  0.2648E+03  0.2642E+03
     -0.150  0.5031E+02  0.5547E+02  0.2682E+03  0.2679E+03
     -0.082  0.2078E+02  0.2124E+02  0.2697E+03  0.2694E+03
     -0.014  0.8237E+02  0.8579E+02  0.2753E+03  0.2752E+03
      0.054  0.6504E+02  0.5650E+02  0.2797E+03  0.2791E+03
      0.122  0.8000E+02  0.8422E+02  0.2851E+03  0.2848E+03
      0.190  0.5686E+02  0.5382E+02  0.2890E+03  0.2885E+03
      0.258  0.7258E+02  0.7444E+02  0.2940E+03  0.2936E+03
      0.326  0.5515E+02  0.5780E+02  0.2977E+03  0.2975E+03
      0.394  0.8988E+02  0.8439E+02  0.3038E+03  0.3032E+03
      0.462  0.6498E+02  0.6906E+02  0.3083E+03  0.3080E+03
      0.530  0.4624E+02  0.4073E+02  0.3114E+03  0.3107E+03
      0.598  0.6008E+02  0.6440E+02  0.3155E+03  0.3151E+03
      0.666  0.6772E+02  0.6988E+02  0.3201E+03  0.3199E+03
      0.734  0.4284E+02  0.3783E+02  0.3230E+03  0.3225E+03
      0.802  0.5380E+02  0.5661E+02  0.3267E+03  0.3263E+03
      0.870  0.3437E+02  0.3734E+02  0.3290E+03  0.3289E+03
      0.938  0.8478E+02  0.7796E+02  0.3348E+03  0.3342E+03
      1.006  0.4991E+02  0.5601E+02  0.3382E+03  0.3381E+03
      1.074  0.5203E+02  0.5360E+02  0.3417E+03  0.3417E+03
      1.142  0.6360E+02  0.5932E+02  0.3461E+03  0.3457E+03
      1.210  0.2469E+02  0.2669E+02  0.3478E+03  0.3476E+03
      1.279  0.8801E+02  0.9068E+02  0.3538E+03  0.3537E+03
      1.347  0.4869E+02  0.4527E+02  0.3571E+03  0.3568E+03
      1.415  0.2405E+02  0.2657E+02  0.3587E+03  0.3586E+03
      1.483  0.3141E+02  0.2763E+02  0.3609E+03  0.3605E+03
      1.551  0.4873E+02  0.4812E+02  0.3642E+03  0.3638E+03
      1.619  0.8279E+02  0.8273E+02  0.3698E+03  0.3694E+03
      1.687  0.3935E+02  0.4238E+02  0.3725E+03  0.3723E+03
      1.755  0.4222E+02  0.3876E+02  0.3754E+03  0.3750E+03
      1.823  0.4537E+02  0.4960E+02  0.3785E+03  0.3783E+03
      1.891  0.9691E+01  0.8178E+01  0.3791E+03  0.3789E+03
      1.959  0.7272E+02  0.7040E+02  0.3841E+03  0.3837E+03
      2.027  0.3184E+02  0.3734E+02  0.3862E+03  0.3862E+03
      2.095  0.2192E+02  0.1614E+02  0.3877E+03  0.3873E+03
      2.163  0.3968E+02  0.4344E+02  0.3904E+03  0.3903E+03
      2.231  0.2034E+02  0.1942E+02  0.3918E+03  0.3916E+03
      2.299  0.8236E+02  0.8200E+02  0.3974E+03  0.3972E+03
      2.367  0.4390E+02  0.4612E+02  0.4004E+03  0.4003E+03
      2.435  0.5578E+02  0.4971E+02  0.4042E+03  0.4037E+03
      2.503  0.4448E+02  0.4977E+02  0.4073E+03  0.4071E+03
      2.571  0.2627E+02  0.2553E+02  0.4091E+03  0.4089E+03
      2.639  0.4493E+02  0.4224E+02  0.4121E+03  0.4117E+03
      2.707  0.8763E+02  0.8339E+02  0.4181E+03  0.4174E+03
      2.775  0.4596E+02  0.5039E+02  0.4212E+03  0.4208E+03
      2.843  0.6249E+02  0.6569E+02  0.4255E+03  0.4253E+03
      2.911  0.2889E+02  0.2609E+02  0.4275E+03  0.4271E+03
      2.979  0.8766E+02  0.8490E+02  0.4334E+03  0.4329E+03
      3.047  0.5035E+02  0.5412E+02  0.4369E+03  0.4365E+03
      3.115  0.6684E+02  0.6737E+02  0.4414E+03  0.4411E+03
      3.183  0.5795E+02  0.5540E+02  0.4454E+03  0.4449E+03
      3.251  0.8551E+02  0.8969E+02  0.4512E+03  0.4510E+03
      3.319  0.4419E+02  0.4094E+02  0.4542E+03  0.4538E+03
      3.387  0.6086E+02  0.6066E+02  0.4584E+03  0.4579E+03
      3.455  0.3679E+02  0.3581E+02  0.4609E+03  0.4604E+03
      3.523  0.7406E+02  0.7855E+02  0.4660E+03  0.4657E+03
      3.591  0.8152E+02  0.7675E+02  0.4715E+03  0.4709E+03
      3.659  0.7154E+02  0.7561E+02  0.4764E+03  0.4761E+03
      3.727  0.5542E+02  0.5493E+02  0.4802E+03  0.4798E+03
      3.795  0.1057E+03  0.1023E+03  0.4874E+03  0.4868E+03
      3.863  0.9081E+02  0.9458E+02  0.4935E+03  0.4932E+03
      3.931  0.7455E+02  0.6802E+02  0.4986E+03  0.4979E+03
      3.999  0.6524E+02  0.7303E+02  0.5030E+03  0.5028E+03
      4.067  0.4854E+02  0.5045E+02  0.5064E+03  0.5063E+03
      4.135  0.9751E+02  0.8823E+02  0.5130E+03  0.5123E+03
      4.203  0.9813E+02  0.1049E+03  0.5197E+03  0.5194E+03
      4.271  0.6980E+02  0.6787E+02  0.5245E+03  0.5240E+03
      4.339  0.6042E+02  0.6161E+02  0.5286E+03  0.5282E+03
      4.407  0.7800E+02  0.7761E+02  0.5339E+03  0.5335E+03
      4.475  0.9375E+02  0.9399E+02  0.5403E+03  0.5399E+03
      4.543  0.7319E+02  0.7461E+02  0.5453E+03  0.5450E+03
      4.611  0.6165E+02  0.5516E+02  0.5495E+03  0.5488E+03
      4.679  0.9491E+02  0.1010E+03  0.5560E+03  0.5556E+03
      4.747  0.4968E+02  0.4936E+02  0.5594E+03  0.5590E+03
      4.815  0.7722E+02  0.7479E+02  0.5646E+03  0.5641E+03
      4.883  0.9491E+02  0.9676E+02  0.5711E+03  0.5707E+03
      4.951  0.6399E+02  0.6393E+02  0.5754E+03  0.5750E+03
      5.019  0.9249E+02  0.9643E+02  0.5817E+03  0.5816E+03
      5.087  0.7115E+02  0.6056E+02  0.5866E+03  0.5857E+03
      5.155  0.6465E+02  0.6827E+02  0.5910E+03  0.5904E+03
      5.223  0.7344E+02  0.7348E+02  0.5960E+03  0.5954E+03
      5.291  0.6982E+02  0.7792E+02  0.6007E+03  0.6007E+03
      5.359  0.4784E+02  0.4331E+02  0.6040E+03  0.6036E+03
      5.427  0.6886E+02  0.6476E+02  0.6087E+03  0.6081E+03
      5.495  0.4574E+02  0.5124E+02  0.6118E+03  0.6115E+03
      5.563  0.5885E+02  0.5364E+02  0.6158E+03  0.6152E+03
      5.631  0.7456E+02  0.8179E+02  0.6209E+03  0.6208E+03
      5.699  0.6957E+02  0.6548E+02  0.6257E+03  0.6252E+03
      5.767  0.7905E+02  0.7935E+02  0.6310E+03  0.6306E+03
      5.835  0.6824E+02  0.6720E+02  0.6357E+03  0.6352E+03
      5.903  0.2725E+02  0.3317E+02  0.6376E+03  0.6375E+03
      5.971  0.8818E+02  0.8277E+02  0.6436E+03  0.6431E+03
      6.039  0.7793E+02  0.7336E+02  0.6489E+03  0.6481E+03
      6.107  0.6340E+02  0.6538E+02  0.6532E+03  0.6525E+03
      6.175  0.9114E+02  0.9205E+02  0.6594E+03  0.6588E+03
      6.243  0.4103E+02  0.4459E+02  0.6622E+03  0.6618E+03
      6.311  0.6274E+02  0.5780E+02  0.6665E+03  0.6658E+03
      6.379  0.6659E+02  0.6303E+02  0.6710E+03  0.6701E+03
      6.447  0.5139E+02  0.5709E+02  0.6745E+03  0.6740E+03
      6.515  0.5104E+02  0.5136E+02  0.6780E+03  0.6775E+03
      6.583  0.9050E+02  0.7913E+02  0.6841E+03  0.6828E+03
      6.651  0.7450E+02  0.8800E+02  0.6892E+03  0.6888E+03
      6.719  0.5670E+02  0.5096E+02  0.6931E+03  0.6923E+03
      6.787  0.5314E+02  0.5562E+02  0.6967E+03  0.6961E+03
      6.855  0.5755E+02  0.5998E+02  0.7006E+03  0.7002E+03
      6.923  0.3974E+02  0.3458E+02  0.7033E+03  0.7025E+03
      6.991  0.4357E+02  0.4725E+02  0.7063E+03  0.7058E+03
      7.059  0.5652E+02  0.5475E+02  0.7101E+03  0.7095E+03
      7.127  0.7097E+02  0.6821E+02  0.7149E+03  0.7141E+03
      7.195  0.7484E+02  0.8135E+02  0.7200E+03  0.7197E+03
      7.263  0.5287E+02  0.4513E+02  0.7236E+03  0.7227E+03
      7.331  0.7126E+02  0.7695E+02  0.7285E+03  0.7280E+03
      7.399  0.9094E+02  0.9206E+02  0.7347E+03  0.7342E+03
      7.467  0.3424E+02  0.3483E+02  0.7370E+03  0.7366E+03
      7.535  0.5503E+02  0.5202E+02  0.7408E+03  0.7402E+03
      7.603  0.8161E+02  0.8173E+02  0.7463E+03  0.7457E+03
      7.672  0.8129E+02  0.8893E+02  0.7519E+03  0.7518E+03
      7.740  0.8005E+02  0.7375E+02  0.7573E+03  0.7568E+03
      7.808  0.8444E+02  0.8658E+02  0.7631E+03  0.7627E+03
      7.876  0.7295E+02  0.6831E+02  0.7680E+03  0.7674E+03
      7.944  0.9228E+02  0.8974E+02  0.7743E+03  0.7735E+03
      8.012  0.1041E+03  0.1086E+03  0.7814E+03  0.7809E+03
      8.080  0.6423E+02  0.5354E+02  0.7858E+03  0.7846E+03
      8.148  0.8469E+02  0.9697E+02  0.7915E+03  0.7912E+03
      8.216  0.8977E+02  0.8941E+02  0.7976E+03  0.7972E+03
      8.284  0.9821E+02  0.9667E+02  0.8043E+03  0.8038E+03
      8.352  0.4593E+02  0.5047E+02  0.8075E+03  0.8073E+03
      8.420  0.7685E+01  0.1069E+02  0.8080E+03  0.8080E+03
      8.488  0.0000E+00  0.0000E+00  0.8080E+03  0.8080E+03
      8.556  0.0000E+00  0.0000E+00  0.8080E+03  0.8080E+03
      8.624  0.0000E+00  0.0000E+00  0.8080E+03  0.8080E+03
      8.692  0.0000E+00  0.0000E+00  0.8080E+03  0.8080E+03
      8.760  0.0000E+00  0.0000E+00  0.8080E+03  0.8080E+03
      8.828  0.0000E+00  0.0000E+00  0.8080E+03  0.8080E+03
      8.896  0.0000E+00  0.0000E+00  0.8080E+03  0.8080E+03
      8.964  0.0000E+00  0.0000E+00  0.8080E+03  0.8080E+03
      9.032  0.0000E+00  0.0000E+00  0.8080E+03  0.8080E+03
      9.100  0.0000E+00  0.0000E+00  0.8080E+03  0.8080E+03
      9.168  0.0000E+00  0.0000E+00  0.8080E+03  0.8080E+03
      9.236  0.0000E+00  0.0000E+00  0.8080E+03  0.8080E+03
      9.304  0.0000E+00  0.0000E+00  0.8080E+03  0.8080E+03
