 120 120   0   0
  0.1350816E+02  0.1330318E-08  0.1629300E-08  0.8192406E-09  0.5000000E-15
  1.000000000000000E-004
  CAR 
 Si and Ge interface calculation         
      7.39772425    -15.03036280  301      4.10600408      1.00000000
    -15.030  0.0000E+00  0.0000E+00  0.0000E+00  0.0000E+00
    -14.956  0.0000E+00  0.0000E+00  0.0000E+00  0.0000E+00
    -14.881  0.0000E+00  0.0000E+00  0.0000E+00  0.0000E+00
    -14.806  0.0000E+00  0.0000E+00  0.0000E+00  0.0000E+00
    -14.731  0.0000E+00  0.0000E+00  0.0000E+00  0.0000E+00
    -14.657  0.0000E+00  0.0000E+00  0.0000E+00  0.0000E+00
    -14.582  0.0000E+00  0.0000E+00  0.0000E+00  0.0000E+00
    -14.507  0.0000E+00  0.0000E+00  0.0000E+00  0.0000E+00
    -14.432  0.0000E+00  0.0000E+00  0.0000E+00  0.0000E+00
    -14.358  0.0000E+00  0.0000E+00  0.0000E+00  0.0000E+00
    -14.283  0.0000E+00  0.0000E+00  0.0000E+00  0.0000E+00
    -14.208  0.0000E+00  0.0000E+00  0.0000E+00  0.0000E+00
    -14.133  0.0000E+00  0.0000E+00  0.0000E+00  0.0000E+00
    -14.058  0.2652E-10  0.3713E-14  0.1983E-11  0.2776E-15
    -13.984  0.4458E+01  0.4438E+01  0.3333E+00  0.3318E+00
    -13.909  0.1013E+02  0.8783E+01  0.1091E+01  0.9900E+00
    -13.834  0.1661E+02  0.1771E+02  0.2333E+01  0.2333E+01
    -13.759  0.5169E-01  0.9246E-03  0.2337E+01  0.2333E+01
    -13.685  0.2592E+02  0.2290E+02  0.4275E+01  0.4046E+01
    -13.610  0.8897E+01  0.1233E+02  0.4998E+01  0.4967E+01
    -13.535  0.1725E+02  0.1411E+02  0.6290E+01  0.6055E+01
    -13.460  0.3780E-01  0.3129E+01  0.6336E+01  0.6333E+01
    -13.386  0.1758E+02  0.1627E+02  0.7650E+01  0.7549E+01
    -13.311  0.1767E+02  0.1682E+02  0.8988E+01  0.8807E+01
    -13.236  0.8201E+01  0.1146E+02  0.9667E+01  0.9667E+01
    -13.161  0.3201E+01  0.4026E+00  0.9906E+01  0.9697E+01
    -13.087  0.1463E+02  0.1743E+02  0.1100E+02  0.1100E+02
    -13.012  0.2213E+02  0.1994E+02  0.1265E+02  0.1249E+02
    -12.937  0.2195E+02  0.2000E+02  0.1431E+02  0.1416E+02
    -12.862  0.8907E+01  0.1121E+02  0.1500E+02  0.1500E+02
    -12.788  0.1883E+02  0.1479E+02  0.1641E+02  0.1611E+02
    -12.713  0.3726E+01  0.7386E+01  0.1669E+02  0.1667E+02
    -12.638  0.1757E+02  0.1783E+02  0.1800E+02  0.1800E+02
    -12.563  0.8420E+01  0.5986E+01  0.1863E+02  0.1845E+02
    -12.489  0.1603E+02  0.1701E+02  0.1986E+02  0.1972E+02
    -12.414  0.1834E+01  0.3608E+01  0.2000E+02  0.2000E+02
    -12.339  0.3448E+02  0.3167E+02  0.2258E+02  0.2237E+02
    -12.264  0.9703E+01  0.9686E+01  0.2331E+02  0.2316E+02
    -12.189  0.8908E+01  0.1122E+02  0.2400E+02  0.2400E+02
    -12.115  0.3565E+01  0.1727E+01  0.2427E+02  0.2413E+02
    -12.040  0.7911E+01  0.7432E+01  0.2492E+02  0.2468E+02
    -11.965  0.1847E-08  0.4217E+01  0.2500E+02  0.2500E+02
    -11.890  0.1098E+02  0.9668E+01  0.2582E+02  0.2572E+02
    -11.816  0.2403E+02  0.2367E+02  0.2762E+02  0.2749E+02
    -11.741  0.4459E+01  0.6447E+01  0.2800E+02  0.2800E+02
    -11.666  0.6124E-09  0.4716E-12  0.2800E+02  0.2800E+02
    -11.591  0.4459E+01  0.4456E+01  0.2833E+02  0.2833E+02
    -11.517  0.8898E+01  0.8620E+01  0.2900E+02  0.2898E+02
    -11.442  0.0000E+00  0.0000E+00  0.2900E+02  0.2900E+02
    -11.367  0.1983E-06  0.5879E-09  0.2900E+02  0.2900E+02
    -11.292  0.1765E+02  0.1684E+02  0.3032E+02  0.3026E+02
    -11.218  0.3271E+02  0.2572E+02  0.3278E+02  0.3226E+02
    -11.143  0.2561E+02  0.2300E+02  0.3471E+02  0.3417E+02
    -11.068  0.5914E+01  0.1145E+02  0.3522E+02  0.3503E+02
    -10.993  0.1861E+02  0.1865E+02  0.3662E+02  0.3642E+02
    -10.919  0.4459E+01  0.7695E+01  0.3700E+02  0.3700E+02
    -10.844  0.6050E+01  0.2514E+01  0.3745E+02  0.3719E+02
    -10.769  0.1234E+02  0.1013E+02  0.3838E+02  0.3795E+02
    -10.694  0.1010E+02  0.1539E+02  0.3924E+02  0.3910E+02
    -10.620  0.1444E+02  0.1491E+02  0.4032E+02  0.4021E+02
    -10.545  0.1783E+02  0.1783E+02  0.4167E+02  0.4167E+02
    -10.470  0.1781E+02  0.1741E+02  0.4300E+02  0.4297E+02
    -10.395  0.6586E+00  0.8232E-01  0.4305E+02  0.4301E+02
    -10.320  0.1718E+02  0.1775E+02  0.4433E+02  0.4433E+02
    -10.246  0.3739E-01  0.5610E-03  0.4434E+02  0.4433E+02
    -10.171  0.8958E+01  0.8918E+01  0.4501E+02  0.4500E+02
    -10.096  0.8839E+01  0.8916E+01  0.4567E+02  0.4567E+02
    -10.021  0.0000E+00  0.0000E+00  0.4567E+02  0.4567E+02
     -9.947  0.3359E+01  0.7728E+00  0.4592E+02  0.4572E+02
     -9.872  0.7920E+01  0.8367E+01  0.4651E+02  0.4635E+02
     -9.797  0.3243E+02  0.3191E+02  0.4893E+02  0.4874E+02
     -9.722  0.4369E-06  0.3538E+01  0.4900E+02  0.4900E+02
     -9.648  0.2689E+02  0.2630E+02  0.5101E+02  0.5097E+02
     -9.573  0.3899E+02  0.3602E+02  0.5393E+02  0.5369E+02
     -9.498  0.4770E+01  0.8026E+01  0.5436E+02  0.5433E+02
     -9.423  0.2238E+02  0.2159E+02  0.5603E+02  0.5595E+02
     -9.349  0.1547E+02  0.1350E+02  0.5719E+02  0.5701E+02
     -9.274  0.2957E+02  0.2367E+02  0.5940E+02  0.5878E+02
     -9.199  0.2115E+02  0.2894E+02  0.6100E+02  0.6094E+02
     -9.124  0.2027E+02  0.8610E+01  0.6252E+02  0.6164E+02
     -9.050  0.2016E+02  0.3145E+02  0.6404E+02  0.6400E+02
     -8.975  0.2198E+02  0.1929E+02  0.6569E+02  0.6544E+02
     -8.900  0.3456E+02  0.2870E+02  0.6828E+02  0.6759E+02
     -8.825  0.8477E+01  0.1794E+02  0.6901E+02  0.6893E+02
     -8.750  0.2224E+02  0.1680E+02  0.7067E+02  0.7022E+02
     -8.676  0.3931E+01  0.9797E+01  0.7100E+02  0.7100E+02
     -8.601  0.1338E+02  0.1206E+02  0.7200E+02  0.7190E+02
     -8.526  0.2447E+02  0.2406E+02  0.7384E+02  0.7371E+02
     -8.451  0.3296E+02  0.3416E+02  0.7633E+02  0.7628E+02
     -8.377  0.8086E+01  0.6154E+01  0.7694E+02  0.7674E+02
     -8.302  0.3218E+02  0.3194E+02  0.7936E+02  0.7913E+02
     -8.227  0.8569E+01  0.1161E+02  0.8000E+02  0.8000E+02
     -8.152  0.2369E+02  0.1705E+02  0.8177E+02  0.8127E+02
     -8.078  0.6120E+01  0.9978E+01  0.8228E+02  0.8210E+02
     -8.003  0.0000E+00  0.3133E+01  0.8233E+02  0.8233E+02
     -7.928  0.1040E-04  0.6766E-08  0.8233E+02  0.8233E+02
     -7.853  0.8917E+01  0.8917E+01  0.8300E+02  0.8300E+02
     -7.779  0.0000E+00  0.0000E+00  0.8300E+02  0.8300E+02
     -7.704  0.1823E-09  0.1565E-13  0.8300E+02  0.8300E+02
     -7.629  0.8867E+01  0.5731E+01  0.8366E+02  0.8343E+02
     -7.554  0.4508E+01  0.7598E+01  0.8400E+02  0.8400E+02
     -7.480  0.6974E+00  0.5345E-01  0.8405E+02  0.8400E+02
     -7.405  0.8220E+01  0.8864E+01  0.8467E+02  0.8467E+02
     -7.330  0.4459E+01  0.4458E+01  0.8500E+02  0.8500E+02
     -7.255  0.5051E+00  0.3592E-01  0.8504E+02  0.8500E+02
     -7.181  0.2811E+02  0.2726E+02  0.8714E+02  0.8704E+02
     -7.106  0.2557E+01  0.3664E+01  0.8733E+02  0.8733E+02
     -7.031  0.4722E+01  0.3311E+01  0.8769E+02  0.8758E+02
     -6.956  0.1135E+02  0.1119E+02  0.8854E+02  0.8843E+02
     -6.881  0.1741E+01  0.2952E+01  0.8867E+02  0.8867E+02
     -6.807  0.7375E-06  0.3969E-09  0.8867E+02  0.8867E+02
     -6.732  0.7190E+01  0.6233E+01  0.8920E+02  0.8913E+02
     -6.657  0.1558E+02  0.1472E+02  0.9037E+02  0.9027E+02
     -6.582  0.1223E+02  0.1063E+02  0.9129E+02  0.9109E+02
     -6.508  0.1918E+02  0.1806E+02  0.9276E+02  0.9246E+02
     -6.433  0.2572E+02  0.2872E+02  0.9473E+02  0.9461E+02
     -6.358  0.3309E+02  0.3140E+02  0.9722E+02  0.9696E+02
     -6.283  0.2008E+02  0.1844E+02  0.9872E+02  0.9838E+02
     -6.209  0.4032E+02  0.4122E+02  0.1018E+03  0.1015E+03
     -6.134  0.2673E+02  0.2911E+02  0.1038E+03  0.1036E+03
     -6.059  0.2656E+02  0.2494E+02  0.1058E+03  0.1055E+03
     -5.984  0.2684E+02  0.2894E+02  0.1078E+03  0.1077E+03
     -5.910  0.2707E+02  0.2115E+02  0.1098E+03  0.1093E+03
     -5.835  0.2678E+02  0.3313E+02  0.1118E+03  0.1118E+03
     -5.760  0.2201E+02  0.2013E+02  0.1135E+03  0.1133E+03
     -5.685  0.1738E+02  0.1592E+02  0.1148E+03  0.1145E+03
     -5.611  0.3170E+02  0.3063E+02  0.1172E+03  0.1168E+03
     -5.536  0.4094E+02  0.4045E+02  0.1203E+03  0.1199E+03
     -5.461  0.3100E+02  0.3319E+02  0.1227E+03  0.1225E+03
     -5.386  0.1701E+02  0.1703E+02  0.1240E+03  0.1237E+03
     -5.312  0.2964E+02  0.2869E+02  0.1263E+03  0.1259E+03
     -5.237  0.3010E+02  0.3219E+02  0.1285E+03  0.1283E+03
     -5.162  0.3993E+02  0.3846E+02  0.1315E+03  0.1312E+03
     -5.087  0.2895E+02  0.3125E+02  0.1337E+03  0.1336E+03
     -5.012  0.2191E+02  0.1876E+02  0.1354E+03  0.1351E+03
     -4.938  0.3117E+02  0.3131E+02  0.1378E+03  0.1375E+03
     -4.863  0.3187E+02  0.3093E+02  0.1402E+03  0.1398E+03
     -4.788  0.3677E+02  0.3889E+02  0.1430E+03  0.1427E+03
     -4.713  0.2155E+02  0.2137E+02  0.1446E+03  0.1443E+03
     -4.639  0.2001E+02  0.1797E+02  0.1461E+03  0.1457E+03
     -4.564  0.2433E+02  0.2413E+02  0.1479E+03  0.1475E+03
     -4.489  0.3517E+02  0.3554E+02  0.1506E+03  0.1502E+03
     -4.414  0.3616E+02  0.3812E+02  0.1533E+03  0.1531E+03
     -4.340  0.3203E+02  0.2969E+02  0.1557E+03  0.1553E+03
     -4.265  0.3278E+02  0.3319E+02  0.1582E+03  0.1578E+03
     -4.190  0.4205E+02  0.4433E+02  0.1614E+03  0.1612E+03
     -4.115  0.2121E+02  0.2108E+02  0.1630E+03  0.1628E+03
     -4.041  0.3318E+02  0.3247E+02  0.1655E+03  0.1652E+03
     -3.966  0.2790E+02  0.2834E+02  0.1676E+03  0.1674E+03
     -3.891  0.3445E+02  0.3293E+02  0.1702E+03  0.1698E+03
     -3.816  0.1926E+02  0.2184E+02  0.1717E+03  0.1715E+03
     -3.742  0.2610E+02  0.2428E+02  0.1736E+03  0.1733E+03
     -3.667  0.2099E+02  0.2373E+02  0.1752E+03  0.1751E+03
     -3.592  0.1786E+02  0.1691E+02  0.1766E+03  0.1764E+03
     -3.517  0.1866E+02  0.1727E+02  0.1780E+03  0.1777E+03
     -3.443  0.2556E+02  0.2729E+02  0.1799E+03  0.1798E+03
     -3.368  0.3447E+02  0.3120E+02  0.1825E+03  0.1821E+03
     -3.293  0.4381E+02  0.4319E+02  0.1859E+03  0.1854E+03
     -3.218  0.2456E+02  0.2529E+02  0.1878E+03  0.1874E+03
     -3.143  0.1797E+02  0.2109E+02  0.1891E+03  0.1890E+03
     -3.069  0.2573E+02  0.2368E+02  0.1911E+03  0.1908E+03
     -2.994  0.2769E+02  0.2581E+02  0.1932E+03  0.1927E+03
     -2.919  0.2929E+02  0.3402E+02  0.1954E+03  0.1953E+03
     -2.844  0.2687E+02  0.2637E+02  0.1975E+03  0.1973E+03
     -2.770  0.2438E+02  0.2081E+02  0.1993E+03  0.1989E+03
     -2.695  0.3107E+02  0.3696E+02  0.2017E+03  0.2016E+03
     -2.620  0.3158E+02  0.2667E+02  0.2041E+03  0.2037E+03
     -2.545  0.3889E+02  0.4053E+02  0.2070E+03  0.2068E+03
     -2.471  0.3615E+02  0.3597E+02  0.2098E+03  0.2095E+03
     -2.396  0.3435E+02  0.3508E+02  0.2124E+03  0.2122E+03
     -2.321  0.2783E+02  0.2827E+02  0.2145E+03  0.2143E+03
     -2.246  0.3718E+02  0.3269E+02  0.2172E+03  0.2168E+03
     -2.172  0.3004E+02  0.3186E+02  0.2196E+03  0.2192E+03
     -2.097  0.3413E+02  0.3695E+02  0.2222E+03  0.2220E+03
     -2.022  0.3596E+02  0.3502E+02  0.2249E+03  0.2246E+03
     -1.947  0.3770E+02  0.3754E+02  0.2277E+03  0.2275E+03
     -1.873  0.4496E+02  0.4558E+02  0.2311E+03  0.2309E+03
     -1.798  0.2668E+02  0.2404E+02  0.2331E+03  0.2328E+03
     -1.723  0.3785E+02  0.3826E+02  0.2360E+03  0.2357E+03
     -1.648  0.2372E+02  0.2525E+02  0.2378E+03  0.2376E+03
     -1.574  0.3799E+02  0.3432E+02  0.2406E+03  0.2402E+03
     -1.499  0.2980E+02  0.3045E+02  0.2429E+03  0.2426E+03
     -1.424  0.4600E+02  0.4229E+02  0.2464E+03  0.2458E+03
     -1.349  0.5535E+02  0.6029E+02  0.2506E+03  0.2503E+03
     -1.274  0.4054E+02  0.4169E+02  0.2537E+03  0.2535E+03
     -1.200  0.3507E+02  0.3106E+02  0.2563E+03  0.2559E+03
     -1.125  0.2762E+02  0.3121E+02  0.2584E+03  0.2582E+03
     -1.050  0.3740E+02  0.3589E+02  0.2612E+03  0.2609E+03
     -0.975  0.5026E+02  0.4824E+02  0.2650E+03  0.2646E+03
     -0.901  0.4190E+02  0.4567E+02  0.2682E+03  0.2680E+03
     -0.826  0.3848E+02  0.3433E+02  0.2711E+03  0.2707E+03
     -0.751  0.4650E+02  0.4619E+02  0.2746E+03  0.2741E+03
     -0.676  0.4557E+02  0.4700E+02  0.2781E+03  0.2778E+03
     -0.602  0.3042E+02  0.3414E+02  0.2804E+03  0.2803E+03
     -0.527  0.4004E+02  0.3758E+02  0.2834E+03  0.2831E+03
     -0.452  0.3104E+02  0.2988E+02  0.2858E+03  0.2855E+03
     -0.377  0.2783E+02  0.2832E+02  0.2879E+03  0.2877E+03
     -0.303  0.3146E+02  0.2832E+02  0.2903E+03  0.2898E+03
     -0.228  0.2684E+02  0.2898E+02  0.2923E+03  0.2920E+03
     -0.153  0.2640E+02  0.2484E+02  0.2943E+03  0.2939E+03
     -0.078  0.2278E+02  0.2260E+02  0.2961E+03  0.2957E+03
     -0.004  0.3288E+02  0.3135E+02  0.2986E+03  0.2980E+03
      0.071  0.4121E+02  0.4296E+02  0.3017E+03  0.3012E+03
      0.146  0.4077E+02  0.4281E+02  0.3048E+03  0.3045E+03
      0.221  0.4144E+02  0.3842E+02  0.3079E+03  0.3074E+03
      0.295  0.2262E+02  0.2700E+02  0.3097E+03  0.3094E+03
      0.370  0.3531E+02  0.3442E+02  0.3123E+03  0.3120E+03
      0.445  0.3595E+02  0.2996E+02  0.3150E+03  0.3143E+03
      0.520  0.4380E+02  0.4819E+02  0.3183E+03  0.3180E+03
      0.595  0.2510E+02  0.2371E+02  0.3202E+03  0.3197E+03
      0.669  0.4025E+02  0.4215E+02  0.3233E+03  0.3229E+03
      0.744  0.3593E+02  0.3215E+02  0.3260E+03  0.3253E+03
      0.819  0.3901E+02  0.4428E+02  0.3289E+03  0.3286E+03
      0.894  0.4721E+02  0.4479E+02  0.3325E+03  0.3320E+03
      0.968  0.4732E+02  0.4487E+02  0.3360E+03  0.3355E+03
      1.043  0.3593E+02  0.3460E+02  0.3388E+03  0.3381E+03
      1.118  0.4075E+02  0.4544E+02  0.3420E+03  0.3415E+03
      1.193  0.4733E+02  0.4920E+02  0.3456E+03  0.3452E+03
      1.267  0.5091E+02  0.4838E+02  0.3494E+03  0.3489E+03
      1.342  0.4475E+02  0.4539E+02  0.3528E+03  0.3524E+03
      1.417  0.3439E+02  0.3444E+02  0.3554E+03  0.3551E+03
      1.492  0.3318E+02  0.2962E+02  0.3579E+03  0.3573E+03
      1.566  0.3708E+02  0.4236E+02  0.3607E+03  0.3605E+03
      1.641  0.4227E+02  0.3958E+02  0.3639E+03  0.3635E+03
      1.716  0.5743E+02  0.5509E+02  0.3682E+03  0.3676E+03
      1.791  0.4981E+02  0.4648E+02  0.3719E+03  0.3712E+03
      1.865  0.5281E+02  0.5228E+02  0.3759E+03  0.3751E+03
      1.940  0.4720E+02  0.4772E+02  0.3795E+03  0.3788E+03
      2.015  0.4642E+02  0.5290E+02  0.3831E+03  0.3828E+03
      2.090  0.4927E+02  0.4602E+02  0.3868E+03  0.3863E+03
      2.165  0.4365E+02  0.4450E+02  0.3900E+03  0.3896E+03
      2.239  0.4504E+02  0.4419E+02  0.3934E+03  0.3929E+03
      2.314  0.4497E+02  0.4659E+02  0.3968E+03  0.3964E+03
      2.389  0.3887E+02  0.3632E+02  0.3998E+03  0.3992E+03
      2.464  0.4326E+02  0.4091E+02  0.4030E+03  0.4023E+03
      2.538  0.4517E+02  0.5018E+02  0.4065E+03  0.4060E+03
      2.613  0.4449E+02  0.3777E+02  0.4098E+03  0.4089E+03
      2.688  0.5497E+02  0.5992E+02  0.4141E+03  0.4134E+03
      2.763  0.4914E+02  0.5053E+02  0.4178E+03  0.4173E+03
      2.837  0.5511E+02  0.4387E+02  0.4219E+03  0.4207E+03
      2.912  0.5149E+02  0.5854E+02  0.4259E+03  0.4252E+03
      2.987  0.5082E+02  0.4810E+02  0.4297E+03  0.4288E+03
      3.062  0.3911E+02  0.4381E+02  0.4327E+03  0.4321E+03
      3.136  0.3779E+02  0.3732E+02  0.4356E+03  0.4350E+03
      3.211  0.5131E+02  0.4895E+02  0.4395E+03  0.4387E+03
      3.286  0.4661E+02  0.4975E+02  0.4430E+03  0.4425E+03
      3.361  0.3881E+02  0.3942E+02  0.4459E+03  0.4454E+03
      3.435  0.3514E+02  0.3232E+02  0.4485E+03  0.4479E+03
      3.510  0.5309E+02  0.4429E+02  0.4525E+03  0.4512E+03
      3.585  0.4396E+02  0.5300E+02  0.4560E+03  0.4552E+03
      3.660  0.3892E+02  0.3876E+02  0.4589E+03  0.4581E+03
      3.734  0.4017E+02  0.4565E+02  0.4619E+03  0.4616E+03
      3.809  0.4931E+02  0.4239E+02  0.4657E+03  0.4648E+03
      3.884  0.4301E+02  0.4501E+02  0.4689E+03  0.4682E+03
      3.959  0.4680E+02  0.4508E+02  0.4724E+03  0.4716E+03
      4.034  0.5606E+02  0.5430E+02  0.4767E+03  0.4757E+03
      4.108  0.4691E+02  0.4455E+02  0.4802E+03  0.4791E+03
      4.183  0.4518E+02  0.4642E+02  0.4836E+03  0.4826E+03
      4.258  0.5811E+02  0.5446E+02  0.4880E+03  0.4867E+03
      4.333  0.4592E+02  0.4927E+02  0.4915E+03  0.4905E+03
      4.407  0.4564E+02  0.4665E+02  0.4949E+03  0.4940E+03
      4.482  0.5215E+02  0.4901E+02  0.4988E+03  0.4977E+03
      4.557  0.4533E+02  0.4847E+02  0.5022E+03  0.5014E+03
      4.632  0.4904E+02  0.4894E+02  0.5059E+03  0.5051E+03
      4.706  0.4047E+02  0.3896E+02  0.5090E+03  0.5080E+03
      4.781  0.4728E+02  0.4106E+02  0.5125E+03  0.5112E+03
      4.856  0.3686E+02  0.4586E+02  0.5154E+03  0.5146E+03
      4.931  0.3875E+02  0.4170E+02  0.5183E+03  0.5178E+03
      5.005  0.5018E+02  0.4244E+02  0.5221E+03  0.5210E+03
      5.080  0.4004E+02  0.4040E+02  0.5251E+03  0.5240E+03
      5.155  0.5520E+02  0.5473E+02  0.5293E+03  0.5282E+03
      5.230  0.4780E+02  0.5212E+02  0.5330E+03  0.5321E+03
      5.304  0.4220E+02  0.4557E+02  0.5361E+03  0.5356E+03
      5.379  0.3553E+02  0.3244E+02  0.5388E+03  0.5381E+03
      5.454  0.3902E+02  0.4534E+02  0.5418E+03  0.5415E+03
      5.529  0.4700E+02  0.3691E+02  0.5453E+03  0.5443E+03
      5.603  0.3267E+02  0.3985E+02  0.5478E+03  0.5473E+03
      5.678  0.4753E+02  0.3904E+02  0.5513E+03  0.5503E+03
      5.753  0.4383E+02  0.4546E+02  0.5547E+03  0.5537E+03
      5.828  0.3978E+02  0.4094E+02  0.5578E+03  0.5568E+03
      5.903  0.3831E+02  0.4248E+02  0.5607E+03  0.5600E+03
      5.977  0.4741E+02  0.4552E+02  0.5642E+03  0.5635E+03
      6.052  0.4238E+02  0.4323E+02  0.5674E+03  0.5668E+03
      6.127  0.3885E+02  0.3222E+02  0.5704E+03  0.5693E+03
      6.202  0.3716E+02  0.4464E+02  0.5732E+03  0.5726E+03
      6.276  0.2590E+02  0.3084E+02  0.5752E+03  0.5750E+03
      6.351  0.8419E+01  0.9412E+01  0.5758E+03  0.5757E+03
      6.426  0.2725E+01  0.4400E+01  0.5760E+03  0.5760E+03
      6.501  0.0000E+00  0.0000E+00  0.5760E+03  0.5760E+03
      6.575  0.0000E+00  0.0000E+00  0.5760E+03  0.5760E+03
      6.650  0.0000E+00  0.0000E+00  0.5760E+03  0.5760E+03
      6.725  0.0000E+00  0.0000E+00  0.5760E+03  0.5760E+03
      6.800  0.0000E+00  0.0000E+00  0.5760E+03  0.5760E+03
      6.874  0.0000E+00  0.0000E+00  0.5760E+03  0.5760E+03
      6.949  0.0000E+00  0.0000E+00  0.5760E+03  0.5760E+03
      7.024  0.0000E+00  0.0000E+00  0.5760E+03  0.5760E+03
      7.099  0.0000E+00  0.0000E+00  0.5760E+03  0.5760E+03
      7.173  0.0000E+00  0.0000E+00  0.5760E+03  0.5760E+03
      7.248  0.0000E+00  0.0000E+00  0.5760E+03  0.5760E+03
      7.323  0.0000E+00  0.0000E+00  0.5760E+03  0.5760E+03
      7.398  0.0000E+00  0.0000E+00  0.5760E+03  0.5760E+03
