 264 264   0   0
  0.2774202E+02  0.1958175E-08  0.1958175E-08  0.1910025E-08  0.5000000E-15
  1.000000000000000E-004
  CAR 
 Si and Ge interface calculation         
      6.63427889     -9.09462250  301      4.04850469      1.00000000
     -9.095  0.0000E+00  0.0000E+00  0.0000E+00  0.0000E+00
     -9.042  0.0000E+00  0.0000E+00  0.0000E+00  0.0000E+00
     -8.990  0.0000E+00  0.0000E+00  0.0000E+00  0.0000E+00
     -8.937  0.0000E+00  0.0000E+00  0.0000E+00  0.0000E+00
     -8.885  0.0000E+00  0.0000E+00  0.0000E+00  0.0000E+00
     -8.832  0.0000E+00  0.0000E+00  0.0000E+00  0.0000E+00
     -8.780  0.0000E+00  0.0000E+00  0.0000E+00  0.0000E+00
     -8.728  0.0000E+00  0.0000E+00  0.0000E+00  0.0000E+00
     -8.675  0.0000E+00  0.0000E+00  0.0000E+00  0.0000E+00
     -8.623  0.0000E+00  0.0000E+00  0.0000E+00  0.0000E+00
     -8.570  0.0000E+00  0.0000E+00  0.0000E+00  0.0000E+00
     -8.518  0.0000E+00  0.0000E+00  0.0000E+00  0.0000E+00
     -8.465  0.0000E+00  0.0000E+00  0.0000E+00  0.0000E+00
     -8.413  0.1122E-04  0.3798E-05  0.5884E-06  0.1991E-06
     -8.361  0.1266E+02  0.1178E+02  0.6640E+00  0.6176E+00
     -8.308  0.2548E+02  0.2637E+02  0.2000E+01  0.2000E+01
     -8.256  0.2260E-02  0.9729E-03  0.2000E+01  0.2000E+01
     -8.203  0.1860E+02  0.1836E+02  0.2975E+01  0.2963E+01
     -8.151  0.1132E+02  0.1115E+02  0.3569E+01  0.3547E+01
     -8.098  0.2094E+02  0.2066E+02  0.4667E+01  0.4631E+01
     -8.046  0.6354E+01  0.7047E+01  0.5000E+01  0.5000E+01
     -7.994  0.3056E+01  0.2155E+01  0.5160E+01  0.5113E+01
     -7.941  0.2872E+02  0.2890E+02  0.6666E+01  0.6628E+01
     -7.889  0.1790E+02  0.1798E+02  0.7605E+01  0.7571E+01
     -7.836  0.2419E+02  0.2353E+02  0.8873E+01  0.8805E+01
     -7.784  0.1258E+02  0.1364E+02  0.9533E+01  0.9520E+01
     -7.731  0.1845E+02  0.1870E+02  0.1050E+02  0.1050E+02
     -7.679  0.1906E+02  0.1905E+02  0.1150E+02  0.1150E+02
     -7.627  0.1087E-01  0.2105E-01  0.1150E+02  0.1150E+02
     -7.574  0.3239E+02  0.3124E+02  0.1320E+02  0.1314E+02
     -7.522  0.2774E+02  0.2799E+02  0.1465E+02  0.1461E+02
     -7.469  0.2395E+02  0.2397E+02  0.1591E+02  0.1586E+02
     -7.417  0.1137E+02  0.1152E+02  0.1650E+02  0.1647E+02
     -7.364  0.9458E+01  0.1018E+02  0.1700E+02  0.1700E+02
     -7.312  0.2732E+02  0.2673E+02  0.1843E+02  0.1840E+02
     -7.260  0.2393E+02  0.2182E+02  0.1969E+02  0.1955E+02
     -7.207  0.3108E+02  0.3280E+02  0.2132E+02  0.2127E+02
     -7.155  0.4662E+02  0.4603E+02  0.2376E+02  0.2368E+02
     -7.102  0.9919E+01  0.9642E+01  0.2428E+02  0.2418E+02
     -7.050  0.4757E+02  0.4830E+02  0.2677E+02  0.2672E+02
     -6.997  0.2865E+02  0.2648E+02  0.2828E+02  0.2810E+02
     -6.945  0.2007E+02  0.2173E+02  0.2933E+02  0.2924E+02
     -6.893  0.4211E+02  0.4130E+02  0.3154E+02  0.3141E+02
     -6.840  0.4578E+02  0.4614E+02  0.3394E+02  0.3383E+02
     -6.788  0.4781E+02  0.4711E+02  0.3644E+02  0.3630E+02
     -6.735  0.4026E+02  0.4193E+02  0.3855E+02  0.3850E+02
     -6.683  0.5578E+02  0.5429E+02  0.4148E+02  0.4134E+02
     -6.630  0.3677E+02  0.3853E+02  0.4341E+02  0.4336E+02
     -6.578  0.1412E+02  0.1384E+02  0.4415E+02  0.4409E+02
     -6.526  0.5903E+02  0.5759E+02  0.4724E+02  0.4711E+02
     -6.473  0.2823E+02  0.2969E+02  0.4872E+02  0.4867E+02
     -6.421  0.5177E+02  0.5203E+02  0.5144E+02  0.5139E+02
     -6.368  0.4123E+02  0.3938E+02  0.5360E+02  0.5346E+02
     -6.316  0.6447E+02  0.6391E+02  0.5698E+02  0.5681E+02
     -6.263  0.5620E+02  0.5559E+02  0.5993E+02  0.5972E+02
     -6.211  0.6336E+02  0.6490E+02  0.6325E+02  0.6313E+02
     -6.159  0.5165E+02  0.5116E+02  0.6596E+02  0.6581E+02
     -6.106  0.6033E+02  0.5899E+02  0.6912E+02  0.6890E+02
     -6.054  0.7546E+02  0.7487E+02  0.7307E+02  0.7283E+02
     -6.001  0.6741E+02  0.7047E+02  0.7661E+02  0.7652E+02
     -5.949  0.6815E+02  0.6618E+02  0.8018E+02  0.7999E+02
     -5.896  0.4764E+02  0.4871E+02  0.8268E+02  0.8254E+02
     -5.844  0.7141E+02  0.7167E+02  0.8642E+02  0.8630E+02
     -5.792  0.6962E+02  0.6767E+02  0.9007E+02  0.8985E+02
     -5.739  0.8325E+02  0.8282E+02  0.9444E+02  0.9419E+02
     -5.687  0.9653E+02  0.9549E+02  0.9950E+02  0.9920E+02
     -5.634  0.9509E+02  0.9725E+02  0.1045E+03  0.1043E+03
     -5.582  0.6350E+02  0.6208E+02  0.1078E+03  0.1076E+03
     -5.529  0.5603E+02  0.5770E+02  0.1108E+03  0.1106E+03
     -5.477  0.6455E+02  0.6506E+02  0.1141E+03  0.1140E+03
     -5.425  0.7719E+02  0.7582E+02  0.1182E+03  0.1180E+03
     -5.372  0.9926E+02  0.9870E+02  0.1234E+03  0.1231E+03
     -5.320  0.9032E+02  0.9081E+02  0.1281E+03  0.1279E+03
     -5.267  0.7218E+02  0.7264E+02  0.1319E+03  0.1317E+03
     -5.215  0.6824E+02  0.6943E+02  0.1355E+03  0.1353E+03
     -5.162  0.6239E+02  0.6295E+02  0.1388E+03  0.1386E+03
     -5.110  0.7404E+02  0.7405E+02  0.1426E+03  0.1425E+03
     -5.058  0.7178E+02  0.6881E+02  0.1464E+03  0.1461E+03
     -5.005  0.8017E+02  0.8177E+02  0.1506E+03  0.1504E+03
     -4.953  0.6516E+02  0.6573E+02  0.1540E+03  0.1539E+03
     -4.900  0.7109E+02  0.7241E+02  0.1577E+03  0.1577E+03
     -4.848  0.5020E+02  0.4860E+02  0.1604E+03  0.1602E+03
     -4.795  0.8899E+02  0.8658E+02  0.1650E+03  0.1648E+03
     -4.743  0.1269E+03  0.1269E+03  0.1717E+03  0.1714E+03
     -4.691  0.1141E+03  0.1139E+03  0.1777E+03  0.1774E+03
     -4.638  0.1094E+03  0.1088E+03  0.1834E+03  0.1831E+03
     -4.586  0.1016E+03  0.1018E+03  0.1887E+03  0.1884E+03
     -4.533  0.1047E+03  0.1016E+03  0.1942E+03  0.1938E+03
     -4.481  0.9900E+02  0.1020E+03  0.1994E+03  0.1991E+03
     -4.428  0.9903E+02  0.9791E+02  0.2046E+03  0.2042E+03
     -4.376  0.9990E+02  0.9942E+02  0.2099E+03  0.2094E+03
     -4.324  0.8233E+02  0.8513E+02  0.2142E+03  0.2139E+03
     -4.271  0.7332E+02  0.7147E+02  0.2180E+03  0.2177E+03
     -4.219  0.8756E+02  0.8848E+02  0.2226E+03  0.2223E+03
     -4.166  0.9514E+02  0.9548E+02  0.2276E+03  0.2273E+03
     -4.114  0.9749E+02  0.9940E+02  0.2327E+03  0.2325E+03
     -4.061  0.5506E+02  0.5341E+02  0.2356E+03  0.2353E+03
     -4.009  0.6763E+02  0.7177E+02  0.2391E+03  0.2391E+03
     -3.957  0.5232E+02  0.4816E+02  0.2419E+03  0.2416E+03
     -3.904  0.2337E+02  0.2559E+02  0.2431E+03  0.2429E+03
     -3.852  0.7506E+02  0.7328E+02  0.2470E+03  0.2468E+03
     -3.799  0.5187E+02  0.5422E+02  0.2498E+03  0.2496E+03
     -3.747  0.6430E+02  0.6244E+02  0.2531E+03  0.2529E+03
     -3.694  0.7508E+02  0.7642E+02  0.2571E+03  0.2569E+03
     -3.642  0.6310E+02  0.6194E+02  0.2604E+03  0.2602E+03
     -3.590  0.8121E+02  0.8267E+02  0.2646E+03  0.2645E+03
     -3.537  0.3920E+02  0.3740E+02  0.2667E+03  0.2665E+03
     -3.485  0.8742E+02  0.8716E+02  0.2713E+03  0.2710E+03
     -3.432  0.8118E+02  0.7919E+02  0.2755E+03  0.2752E+03
     -3.380  0.7818E+02  0.7999E+02  0.2796E+03  0.2794E+03
     -3.327  0.8673E+02  0.8709E+02  0.2842E+03  0.2839E+03
     -3.275  0.5304E+02  0.5452E+02  0.2870E+03  0.2868E+03
     -3.222  0.7783E+02  0.7284E+02  0.2910E+03  0.2906E+03
     -3.170  0.6514E+02  0.6879E+02  0.2945E+03  0.2942E+03
     -3.118  0.8571E+02  0.8459E+02  0.2989E+03  0.2987E+03
     -3.065  0.6162E+02  0.6195E+02  0.3022E+03  0.3019E+03
     -3.013  0.7137E+02  0.7015E+02  0.3059E+03  0.3056E+03
     -2.960  0.7086E+02  0.7069E+02  0.3096E+03  0.3093E+03
     -2.908  0.1120E+03  0.1129E+03  0.3155E+03  0.3152E+03
     -2.855  0.9616E+02  0.9713E+02  0.3205E+03  0.3203E+03
     -2.803  0.7647E+02  0.7610E+02  0.3246E+03  0.3243E+03
     -2.751  0.1062E+03  0.1041E+03  0.3301E+03  0.3297E+03
     -2.698  0.9494E+02  0.9680E+02  0.3351E+03  0.3348E+03
     -2.646  0.9715E+02  0.9668E+02  0.3402E+03  0.3399E+03
     -2.593  0.1167E+03  0.1145E+03  0.3463E+03  0.3459E+03
     -2.541  0.1273E+03  0.1283E+03  0.3530E+03  0.3526E+03
     -2.488  0.9671E+02  0.9769E+02  0.3581E+03  0.3577E+03
     -2.436  0.9155E+02  0.9420E+02  0.3629E+03  0.3627E+03
     -2.384  0.1104E+03  0.1074E+03  0.3686E+03  0.3683E+03
     -2.331  0.9080E+02  0.9219E+02  0.3734E+03  0.3731E+03
     -2.279  0.1071E+03  0.1029E+03  0.3790E+03  0.3785E+03
     -2.226  0.6493E+02  0.7166E+02  0.3824E+03  0.3823E+03
     -2.174  0.4095E+02  0.4166E+02  0.3846E+03  0.3845E+03
     -2.121  0.4362E+02  0.4215E+02  0.3869E+03  0.3867E+03
     -2.069  0.7435E+02  0.7335E+02  0.3908E+03  0.3905E+03
     -2.017  0.8164E+02  0.7986E+02  0.3950E+03  0.3947E+03
     -1.964  0.9444E+02  0.9471E+02  0.4000E+03  0.3997E+03
     -1.912  0.1056E+03  0.1043E+03  0.4055E+03  0.4052E+03
     -1.859  0.6788E+02  0.7201E+02  0.4091E+03  0.4089E+03
     -1.807  0.7024E+02  0.6623E+02  0.4128E+03  0.4124E+03
     -1.754  0.1158E+03  0.1142E+03  0.4188E+03  0.4184E+03
     -1.702  0.9530E+02  0.9966E+02  0.4238E+03  0.4236E+03
     -1.650  0.7398E+02  0.7381E+02  0.4277E+03  0.4275E+03
     -1.597  0.9189E+02  0.8840E+02  0.4325E+03  0.4321E+03
     -1.545  0.7903E+02  0.8257E+02  0.4367E+03  0.4365E+03
     -1.492  0.6220E+02  0.6502E+02  0.4399E+03  0.4399E+03
     -1.440  0.4546E+02  0.4492E+02  0.4423E+03  0.4422E+03
     -1.387  0.7672E+02  0.7458E+02  0.4463E+03  0.4461E+03
     -1.335  0.6578E+02  0.6618E+02  0.4498E+03  0.4496E+03
     -1.283  0.3440E+02  0.3478E+02  0.4516E+03  0.4514E+03
     -1.230  0.5632E+02  0.5652E+02  0.4545E+03  0.4544E+03
     -1.178  0.5654E+02  0.5675E+02  0.4575E+03  0.4574E+03
     -1.125  0.5407E+02  0.5396E+02  0.4603E+03  0.4602E+03
     -1.073  0.4474E+02  0.4385E+02  0.4627E+03  0.4625E+03
     -1.020  0.5597E+02  0.5553E+02  0.4656E+03  0.4654E+03
     -0.968  0.3754E+02  0.3994E+02  0.4676E+03  0.4675E+03
     -0.916  0.2693E+02  0.2753E+02  0.4690E+03  0.4689E+03
     -0.863  0.7892E+02  0.7572E+02  0.4731E+03  0.4729E+03
     -0.811  0.7673E+02  0.7751E+02  0.4772E+03  0.4770E+03
     -0.758  0.3945E+02  0.3992E+02  0.4792E+03  0.4791E+03
     -0.706  0.6585E+02  0.6365E+02  0.4827E+03  0.4824E+03
     -0.653  0.6846E+02  0.6983E+02  0.4863E+03  0.4861E+03
     -0.601  0.4050E+02  0.4173E+02  0.4884E+03  0.4882E+03
     -0.549  0.2105E+02  0.2223E+02  0.4895E+03  0.4894E+03
     -0.496  0.1827E+02  0.1819E+02  0.4905E+03  0.4904E+03
     -0.444  0.3224E+02  0.3305E+02  0.4922E+03  0.4921E+03
     -0.391  0.3090E+02  0.2939E+02  0.4938E+03  0.4936E+03
     -0.339  0.6338E+02  0.6197E+02  0.4971E+03  0.4969E+03
     -0.286  0.7091E+02  0.7247E+02  0.5008E+03  0.5007E+03
     -0.234  0.8394E+02  0.8262E+02  0.5052E+03  0.5050E+03
     -0.182  0.9783E+02  0.9733E+02  0.5103E+03  0.5101E+03
     -0.129  0.1021E+03  0.1011E+03  0.5157E+03  0.5154E+03
     -0.077  0.1391E+03  0.1389E+03  0.5230E+03  0.5227E+03
     -0.024  0.1008E+03  0.1017E+03  0.5283E+03  0.5280E+03
      0.028  0.1187E+03  0.1162E+03  0.5345E+03  0.5341E+03
      0.081  0.1275E+03  0.1296E+03  0.5412E+03  0.5409E+03
      0.133  0.1075E+03  0.1080E+03  0.5468E+03  0.5466E+03
      0.185  0.1053E+03  0.1073E+03  0.5523E+03  0.5522E+03
      0.238  0.6009E+02  0.5927E+02  0.5555E+03  0.5553E+03
      0.290  0.9931E+02  0.9627E+02  0.5607E+03  0.5604E+03
      0.343  0.9070E+02  0.9425E+02  0.5655E+03  0.5653E+03
      0.395  0.8577E+02  0.8110E+02  0.5699E+03  0.5696E+03
      0.448  0.1006E+03  0.1047E+03  0.5752E+03  0.5750E+03
      0.500  0.7639E+02  0.7706E+02  0.5792E+03  0.5791E+03
      0.552  0.1245E+03  0.1206E+03  0.5858E+03  0.5854E+03
      0.605  0.1314E+03  0.1319E+03  0.5926E+03  0.5923E+03
      0.657  0.1156E+03  0.1126E+03  0.5987E+03  0.5982E+03
      0.710  0.1620E+03  0.1624E+03  0.6072E+03  0.6067E+03
      0.762  0.1221E+03  0.1220E+03  0.6136E+03  0.6131E+03
      0.815  0.1168E+03  0.1220E+03  0.6197E+03  0.6195E+03
      0.867  0.1063E+03  0.1036E+03  0.6253E+03  0.6250E+03
      0.919  0.1087E+03  0.1090E+03  0.6310E+03  0.6307E+03
      0.972  0.1174E+03  0.1182E+03  0.6372E+03  0.6369E+03
      1.024  0.1091E+03  0.1081E+03  0.6429E+03  0.6425E+03
      1.077  0.1560E+03  0.1523E+03  0.6511E+03  0.6505E+03
      1.129  0.1816E+03  0.1823E+03  0.6606E+03  0.6601E+03
      1.182  0.1589E+03  0.1596E+03  0.6689E+03  0.6685E+03
      1.234  0.1937E+03  0.1944E+03  0.6791E+03  0.6787E+03
      1.286  0.1782E+03  0.1764E+03  0.6884E+03  0.6879E+03
      1.339  0.2038E+03  0.2040E+03  0.6991E+03  0.6986E+03
      1.391  0.1525E+03  0.1536E+03  0.7071E+03  0.7066E+03
      1.444  0.1380E+03  0.1373E+03  0.7143E+03  0.7138E+03
      1.496  0.1985E+03  0.1923E+03  0.7247E+03  0.7239E+03
      1.549  0.1932E+03  0.1991E+03  0.7349E+03  0.7344E+03
      1.601  0.1874E+03  0.1862E+03  0.7447E+03  0.7441E+03
      1.653  0.1746E+03  0.1752E+03  0.7538E+03  0.7533E+03
      1.706  0.1938E+03  0.1932E+03  0.7640E+03  0.7634E+03
      1.758  0.2047E+03  0.2056E+03  0.7747E+03  0.7742E+03
      1.811  0.1724E+03  0.1698E+03  0.7838E+03  0.7831E+03
      1.863  0.1309E+03  0.1358E+03  0.7906E+03  0.7903E+03
      1.916  0.1805E+03  0.1762E+03  0.8001E+03  0.7995E+03
      1.968  0.2159E+03  0.2171E+03  0.8114E+03  0.8109E+03
      2.020  0.1524E+03  0.1527E+03  0.8194E+03  0.8189E+03
      2.073  0.1922E+03  0.1903E+03  0.8295E+03  0.8289E+03
      2.125  0.1965E+03  0.2002E+03  0.8398E+03  0.8394E+03
      2.178  0.1814E+03  0.1817E+03  0.8493E+03  0.8489E+03
      2.230  0.1276E+03  0.1231E+03  0.8560E+03  0.8553E+03
      2.283  0.1792E+03  0.1799E+03  0.8654E+03  0.8648E+03
      2.335  0.1566E+03  0.1567E+03  0.8736E+03  0.8730E+03
      2.387  0.1990E+03  0.1988E+03  0.8840E+03  0.8834E+03
      2.440  0.1500E+03  0.1535E+03  0.8919E+03  0.8915E+03
      2.492  0.1462E+03  0.1464E+03  0.8996E+03  0.8991E+03
      2.545  0.1112E+03  0.1093E+03  0.9054E+03  0.9049E+03
      2.597  0.1463E+03  0.1458E+03  0.9130E+03  0.9125E+03
      2.650  0.1458E+03  0.1481E+03  0.9207E+03  0.9203E+03
      2.702  0.1270E+03  0.1223E+03  0.9274E+03  0.9267E+03
      2.754  0.1665E+03  0.1657E+03  0.9361E+03  0.9354E+03
      2.807  0.1221E+03  0.1185E+03  0.9425E+03  0.9416E+03
      2.859  0.1567E+03  0.1634E+03  0.9507E+03  0.9501E+03
      2.912  0.1351E+03  0.1388E+03  0.9578E+03  0.9574E+03
      2.964  0.1044E+03  0.1055E+03  0.9633E+03  0.9630E+03
      3.017  0.1239E+03  0.1210E+03  0.9698E+03  0.9693E+03
      3.069  0.1272E+03  0.1277E+03  0.9764E+03  0.9760E+03
      3.121  0.9470E+02  0.9439E+02  0.9814E+03  0.9809E+03
      3.174  0.1093E+03  0.1075E+03  0.9871E+03  0.9866E+03
      3.226  0.1261E+03  0.1305E+03  0.9937E+03  0.9934E+03
      3.279  0.1050E+03  0.1007E+03  0.9992E+03  0.9987E+03
      3.331  0.1110E+03  0.1129E+03  0.1005E+04  0.1005E+04
      3.384  0.9247E+02  0.9509E+02  0.1010E+04  0.1010E+04
      3.436  0.5558E+02  0.5427E+02  0.1013E+04  0.1012E+04
      3.488  0.1084E+03  0.1043E+03  0.1019E+04  0.1018E+04
      3.541  0.1037E+03  0.1039E+03  0.1024E+04  0.1023E+04
      3.593  0.9206E+02  0.8817E+02  0.1029E+04  0.1028E+04
      3.646  0.7304E+02  0.8080E+02  0.1033E+04  0.1032E+04
      3.698  0.7165E+02  0.6022E+02  0.1036E+04  0.1035E+04
      3.751  0.3881E+02  0.5301E+02  0.1038E+04  0.1038E+04
      3.803  0.5282E+02  0.5082E+02  0.1041E+04  0.1041E+04
      3.856  0.4715E+02  0.4663E+02  0.1044E+04  0.1043E+04
      3.908  0.3549E+02  0.3509E+02  0.1045E+04  0.1045E+04
      3.960  0.6880E+02  0.6315E+02  0.1049E+04  0.1048E+04
      4.013  0.6703E+02  0.6390E+02  0.1053E+04  0.1052E+04
      4.065  0.1102E+03  0.9788E+02  0.1058E+04  0.1057E+04
      4.118  0.1016E+03  0.1123E+03  0.1064E+04  0.1063E+04
      4.170  0.1036E+03  0.1035E+03  0.1069E+04  0.1068E+04
      4.223  0.1022E+03  0.9423E+02  0.1075E+04  0.1073E+04
      4.275  0.9373E+02  0.1028E+03  0.1079E+04  0.1079E+04
      4.327  0.1051E+03  0.9982E+02  0.1085E+04  0.1084E+04
      4.380  0.1198E+03  0.1148E+03  0.1091E+04  0.1090E+04
      4.432  0.9818E+02  0.1160E+03  0.1096E+04  0.1096E+04
      4.485  0.1415E+03  0.1290E+03  0.1104E+04  0.1103E+04
      4.537  0.1115E+03  0.1153E+03  0.1110E+04  0.1109E+04
      4.590  0.8550E+02  0.9092E+02  0.1114E+04  0.1113E+04
      4.642  0.1134E+03  0.1073E+03  0.1120E+04  0.1119E+04
      4.694  0.1244E+03  0.1291E+03  0.1127E+04  0.1126E+04
      4.747  0.1161E+03  0.1179E+03  0.1133E+04  0.1132E+04
      4.799  0.1179E+03  0.1102E+03  0.1139E+04  0.1138E+04
      4.852  0.1186E+03  0.1171E+03  0.1145E+04  0.1144E+04
      4.904  0.1123E+03  0.1224E+03  0.1151E+04  0.1150E+04
      4.957  0.1007E+03  0.9933E+02  0.1156E+04  0.1156E+04
      5.009  0.1025E+03  0.1035E+03  0.1162E+04  0.1161E+04
      5.061  0.1708E+03  0.1650E+03  0.1171E+04  0.1170E+04
      5.114  0.1045E+03  0.1140E+03  0.1176E+04  0.1176E+04
      5.166  0.1217E+03  0.1194E+03  0.1182E+04  0.1182E+04
      5.219  0.9388E+02  0.9427E+02  0.1187E+04  0.1187E+04
      5.271  0.1016E+03  0.9990E+02  0.1193E+04  0.1192E+04
      5.324  0.1150E+03  0.1129E+03  0.1199E+04  0.1198E+04
      5.376  0.1276E+03  0.1279E+03  0.1205E+04  0.1205E+04
      5.428  0.1434E+03  0.1430E+03  0.1213E+04  0.1212E+04
      5.481  0.1471E+03  0.1445E+03  0.1221E+04  0.1220E+04
      5.533  0.1585E+03  0.1629E+03  0.1229E+04  0.1228E+04
      5.586  0.1443E+03  0.1424E+03  0.1236E+04  0.1236E+04
      5.638  0.1257E+03  0.1311E+03  0.1243E+04  0.1243E+04
      5.691  0.9580E+02  0.9823E+02  0.1248E+04  0.1248E+04
      5.743  0.1179E+03  0.1142E+03  0.1254E+04  0.1254E+04
      5.795  0.1260E+03  0.1293E+03  0.1261E+04  0.1261E+04
      5.848  0.1332E+03  0.1270E+03  0.1268E+04  0.1267E+04
      5.900  0.7239E+02  0.7640E+02  0.1272E+04  0.1271E+04
      5.953  0.6214E+01  0.1491E+02  0.1272E+04  0.1272E+04
      6.005  0.0000E+00  0.0000E+00  0.1272E+04  0.1272E+04
      6.058  0.0000E+00  0.0000E+00  0.1272E+04  0.1272E+04
      6.110  0.0000E+00  0.0000E+00  0.1272E+04  0.1272E+04
      6.162  0.0000E+00  0.0000E+00  0.1272E+04  0.1272E+04
      6.215  0.0000E+00  0.0000E+00  0.1272E+04  0.1272E+04
      6.267  0.0000E+00  0.0000E+00  0.1272E+04  0.1272E+04
      6.320  0.0000E+00  0.0000E+00  0.1272E+04  0.1272E+04
      6.372  0.0000E+00  0.0000E+00  0.1272E+04  0.1272E+04
      6.425  0.0000E+00  0.0000E+00  0.1272E+04  0.1272E+04
      6.477  0.0000E+00  0.0000E+00  0.1272E+04  0.1272E+04
      6.529  0.0000E+00  0.0000E+00  0.1272E+04  0.1272E+04
      6.582  0.0000E+00  0.0000E+00  0.1272E+04  0.1272E+04
      6.634  0.0000E+00  0.0000E+00  0.1272E+04  0.1272E+04
