 264 264   0   0
  0.2774202E+02  0.1958175E-08  0.1958175E-08  0.1910025E-08  0.5000000E-15
  1.000000000000000E-004
  CAR 
 Si and Ge interface calculation         
      6.63872803     -9.18105245  301      4.05041949      1.00000000
     -9.181  0.0000E+00  0.0000E+00  0.0000E+00  0.0000E+00
     -9.128  0.0000E+00  0.0000E+00  0.0000E+00  0.0000E+00
     -9.076  0.0000E+00  0.0000E+00  0.0000E+00  0.0000E+00
     -9.023  0.0000E+00  0.0000E+00  0.0000E+00  0.0000E+00
     -8.970  0.0000E+00  0.0000E+00  0.0000E+00  0.0000E+00
     -8.917  0.0000E+00  0.0000E+00  0.0000E+00  0.0000E+00
     -8.865  0.0000E+00  0.0000E+00  0.0000E+00  0.0000E+00
     -8.812  0.0000E+00  0.0000E+00  0.0000E+00  0.0000E+00
     -8.759  0.0000E+00  0.0000E+00  0.0000E+00  0.0000E+00
     -8.706  0.0000E+00  0.0000E+00  0.0000E+00  0.0000E+00
     -8.654  0.0000E+00  0.0000E+00  0.0000E+00  0.0000E+00
     -8.601  0.0000E+00  0.0000E+00  0.0000E+00  0.0000E+00
     -8.548  0.0000E+00  0.0000E+00  0.0000E+00  0.0000E+00
     -8.496  0.9763E-05  0.2934E-05  0.5148E-06  0.1547E-06
     -8.443  0.1979E+02  0.1812E+02  0.1044E+01  0.9554E+00
     -8.390  0.1813E+02  0.1981E+02  0.2000E+01  0.2000E+01
     -8.337  0.0000E+00  0.0000E+00  0.2000E+01  0.2000E+01
     -8.285  0.5131E-05  0.1574E-05  0.2000E+01  0.2000E+01
     -8.232  0.1889E+02  0.1859E+02  0.2996E+01  0.2980E+01
     -8.179  0.9825E+01  0.1002E+02  0.3514E+01  0.3509E+01
     -8.126  0.1867E+02  0.1876E+02  0.4499E+01  0.4498E+01
     -8.074  0.9531E+01  0.9477E+01  0.5002E+01  0.4998E+01
     -8.021  0.1893E+02  0.1900E+02  0.6000E+01  0.6000E+01
     -7.968  0.1719E+02  0.1616E+02  0.6906E+01  0.6852E+01
     -7.915  0.3022E+02  0.3123E+02  0.8500E+01  0.8499E+01
     -7.863  0.3276E+01  0.2538E+01  0.8672E+01  0.8633E+01
     -7.810  0.1578E+02  0.1632E+02  0.9505E+01  0.9494E+01
     -7.757  0.1888E+02  0.1908E+02  0.1050E+02  0.1050E+02
     -7.705  0.1737E+02  0.1667E+02  0.1142E+02  0.1138E+02
     -7.652  0.3649E+02  0.3643E+02  0.1334E+02  0.1330E+02
     -7.599  0.9247E+01  0.9054E+01  0.1383E+02  0.1378E+02
     -7.546  0.3166E+02  0.3257E+02  0.1550E+02  0.1549E+02
     -7.494  0.1536E+02  0.1446E+02  0.1631E+02  0.1626E+02
     -7.441  0.1371E+02  0.1442E+02  0.1703E+02  0.1702E+02
     -7.388  0.8999E+01  0.9188E+01  0.1750E+02  0.1750E+02
     -7.335  0.3395E+02  0.3235E+02  0.1929E+02  0.1921E+02
     -7.283  0.2338E+02  0.2480E+02  0.2053E+02  0.2052E+02
     -7.230  0.2516E+02  0.2446E+02  0.2185E+02  0.2181E+02
     -7.177  0.2245E+02  0.2172E+02  0.2304E+02  0.2295E+02
     -7.124  0.2818E+02  0.2962E+02  0.2452E+02  0.2451E+02
     -7.072  0.2807E+02  0.2797E+02  0.2600E+02  0.2599E+02
     -7.019  0.4067E+02  0.3802E+02  0.2815E+02  0.2799E+02
     -6.966  0.2119E+02  0.2312E+02  0.2927E+02  0.2921E+02
     -6.914  0.4925E+02  0.4921E+02  0.3186E+02  0.3181E+02
     -6.861  0.2478E+02  0.2285E+02  0.3317E+02  0.3301E+02
     -6.808  0.5044E+02  0.5200E+02  0.3583E+02  0.3575E+02
     -6.755  0.3434E+02  0.3487E+02  0.3764E+02  0.3759E+02
     -6.703  0.5244E+02  0.5242E+02  0.4041E+02  0.4036E+02
     -6.650  0.2763E+02  0.2730E+02  0.4186E+02  0.4180E+02
     -6.597  0.5419E+02  0.5353E+02  0.4472E+02  0.4462E+02
     -6.544  0.3458E+02  0.3590E+02  0.4654E+02  0.4651E+02
     -6.492  0.3226E+02  0.3103E+02  0.4825E+02  0.4815E+02
     -6.439  0.4302E+02  0.4473E+02  0.5051E+02  0.5051E+02
     -6.386  0.6075E+02  0.5805E+02  0.5372E+02  0.5357E+02
     -6.333  0.6173E+02  0.6177E+02  0.5697E+02  0.5683E+02
     -6.281  0.4291E+02  0.4430E+02  0.5923E+02  0.5916E+02
     -6.228  0.4524E+02  0.4512E+02  0.6162E+02  0.6154E+02
     -6.175  0.4873E+02  0.4637E+02  0.6419E+02  0.6399E+02
     -6.123  0.7391E+02  0.7279E+02  0.6809E+02  0.6783E+02
     -6.070  0.8675E+02  0.9016E+02  0.7266E+02  0.7258E+02
     -6.017  0.7551E+02  0.7485E+02  0.7664E+02  0.7653E+02
     -5.964  0.5772E+02  0.5835E+02  0.7969E+02  0.7960E+02
     -5.912  0.6228E+02  0.6212E+02  0.8297E+02  0.8288E+02
     -5.859  0.5245E+02  0.5171E+02  0.8574E+02  0.8561E+02
     -5.806  0.8216E+02  0.8062E+02  0.9007E+02  0.8986E+02
     -5.753  0.7657E+02  0.7717E+02  0.9411E+02  0.9393E+02
     -5.701  0.8750E+02  0.8682E+02  0.9872E+02  0.9850E+02
     -5.648  0.8787E+02  0.8721E+02  0.1034E+03  0.1031E+03
     -5.595  0.7449E+02  0.7619E+02  0.1073E+03  0.1071E+03
     -5.543  0.6287E+02  0.6272E+02  0.1106E+03  0.1104E+03
     -5.490  0.6870E+02  0.6915E+02  0.1142E+03  0.1141E+03
     -5.437  0.6994E+02  0.6823E+02  0.1179E+03  0.1177E+03
     -5.384  0.8180E+02  0.8190E+02  0.1222E+03  0.1220E+03
     -5.332  0.9145E+02  0.9310E+02  0.1270E+03  0.1269E+03
     -5.279  0.6896E+02  0.6971E+02  0.1307E+03  0.1306E+03
     -5.226  0.8207E+02  0.8151E+02  0.1350E+03  0.1349E+03
     -5.173  0.5254E+02  0.5198E+02  0.1378E+03  0.1376E+03
     -5.121  0.8089E+02  0.8017E+02  0.1420E+03  0.1418E+03
     -5.068  0.7525E+02  0.7663E+02  0.1460E+03  0.1459E+03
     -5.015  0.7151E+02  0.7044E+02  0.1498E+03  0.1496E+03
     -4.962  0.7132E+02  0.6971E+02  0.1535E+03  0.1533E+03
     -4.910  0.7274E+02  0.7464E+02  0.1574E+03  0.1572E+03
     -4.857  0.9405E+02  0.9189E+02  0.1623E+03  0.1621E+03
     -4.804  0.9169E+02  0.9198E+02  0.1672E+03  0.1669E+03
     -4.752  0.9906E+02  0.9770E+02  0.1724E+03  0.1721E+03
     -4.699  0.1226E+03  0.1236E+03  0.1789E+03  0.1786E+03
     -4.646  0.9886E+02  0.1007E+03  0.1841E+03  0.1839E+03
     -4.593  0.8176E+02  0.8078E+02  0.1884E+03  0.1881E+03
     -4.541  0.9522E+02  0.9498E+02  0.1934E+03  0.1932E+03
     -4.488  0.1005E+03  0.1000E+03  0.1987E+03  0.1984E+03
     -4.435  0.1021E+03  0.1003E+03  0.2041E+03  0.2037E+03
     -4.382  0.8877E+02  0.9062E+02  0.2088E+03  0.2085E+03
     -4.330  0.7094E+02  0.7076E+02  0.2125E+03  0.2122E+03
     -4.277  0.6987E+02  0.6986E+02  0.2162E+03  0.2159E+03
     -4.224  0.8198E+02  0.8097E+02  0.2205E+03  0.2202E+03
     -4.171  0.9487E+02  0.9604E+02  0.2255E+03  0.2253E+03
     -4.119  0.9521E+02  0.9683E+02  0.2305E+03  0.2304E+03
     -4.066  0.6655E+02  0.6560E+02  0.2341E+03  0.2338E+03
     -4.013  0.8316E+02  0.8630E+02  0.2384E+03  0.2384E+03
     -3.961  0.5008E+02  0.4867E+02  0.2411E+03  0.2409E+03
     -3.908  0.3588E+02  0.3607E+02  0.2430E+03  0.2428E+03
     -3.855  0.5870E+02  0.5731E+02  0.2461E+03  0.2459E+03
     -3.802  0.5163E+02  0.5433E+02  0.2488E+03  0.2487E+03
     -3.750  0.5691E+02  0.5313E+02  0.2518E+03  0.2515E+03
     -3.697  0.6995E+02  0.6709E+02  0.2555E+03  0.2551E+03
     -3.644  0.6946E+02  0.7125E+02  0.2591E+03  0.2588E+03
     -3.591  0.8310E+02  0.8434E+02  0.2635E+03  0.2633E+03
     -3.539  0.4772E+02  0.4826E+02  0.2660E+03  0.2658E+03
     -3.486  0.7352E+02  0.7448E+02  0.2699E+03  0.2697E+03
     -3.433  0.7973E+02  0.7991E+02  0.2741E+03  0.2740E+03
     -3.380  0.6065E+02  0.5894E+02  0.2773E+03  0.2771E+03
     -3.328  0.9320E+02  0.9221E+02  0.2822E+03  0.2819E+03
     -3.275  0.7998E+02  0.8032E+02  0.2865E+03  0.2862E+03
     -3.222  0.7235E+02  0.7325E+02  0.2903E+03  0.2900E+03
     -3.170  0.7278E+02  0.7111E+02  0.2941E+03  0.2938E+03
     -3.117  0.7601E+02  0.7785E+02  0.2981E+03  0.2979E+03
     -3.064  0.7294E+02  0.7081E+02  0.3020E+03  0.3016E+03
     -3.011  0.6124E+02  0.6344E+02  0.3052E+03  0.3050E+03
     -2.959  0.7798E+02  0.7679E+02  0.3093E+03  0.3090E+03
     -2.906  0.1154E+03  0.1131E+03  0.3154E+03  0.3150E+03
     -2.853  0.7553E+02  0.7772E+02  0.3194E+03  0.3191E+03
     -2.800  0.9823E+02  0.9774E+02  0.3246E+03  0.3242E+03
     -2.748  0.1105E+03  0.1112E+03  0.3304E+03  0.3301E+03
     -2.695  0.9635E+02  0.9648E+02  0.3355E+03  0.3352E+03
     -2.642  0.8803E+02  0.8742E+02  0.3401E+03  0.3398E+03
     -2.589  0.1238E+03  0.1226E+03  0.3466E+03  0.3462E+03
     -2.537  0.1038E+03  0.1031E+03  0.3521E+03  0.3517E+03
     -2.484  0.1233E+03  0.1249E+03  0.3586E+03  0.3583E+03
     -2.431  0.9390E+02  0.9532E+02  0.3635E+03  0.3633E+03
     -2.379  0.9936E+02  0.9843E+02  0.3688E+03  0.3685E+03
     -2.326  0.9050E+02  0.8944E+02  0.3736E+03  0.3732E+03
     -2.273  0.1033E+03  0.1021E+03  0.3790E+03  0.3786E+03
     -2.220  0.8620E+02  0.9040E+02  0.3836E+03  0.3834E+03
     -2.168  0.2250E+02  0.2584E+02  0.3847E+03  0.3847E+03
     -2.115  0.5500E+02  0.5093E+02  0.3876E+03  0.3874E+03
     -2.062  0.7693E+02  0.7771E+02  0.3917E+03  0.3915E+03
     -2.009  0.7592E+02  0.7366E+02  0.3957E+03  0.3954E+03
     -1.957  0.9461E+02  0.9650E+02  0.4007E+03  0.4005E+03
     -1.904  0.9388E+02  0.9169E+02  0.4056E+03  0.4053E+03
     -1.851  0.7719E+02  0.7984E+02  0.4097E+03  0.4095E+03
     -1.798  0.6777E+02  0.6714E+02  0.4133E+03  0.4131E+03
     -1.746  0.9356E+02  0.8885E+02  0.4182E+03  0.4177E+03
     -1.693  0.1132E+03  0.1179E+03  0.4242E+03  0.4240E+03
     -1.640  0.8945E+02  0.8971E+02  0.4289E+03  0.4287E+03
     -1.588  0.8719E+02  0.8372E+02  0.4335E+03  0.4331E+03
     -1.535  0.6760E+02  0.7273E+02  0.4371E+03  0.4369E+03
     -1.482  0.6235E+02  0.6192E+02  0.4404E+03  0.4402E+03
     -1.429  0.3987E+02  0.3965E+02  0.4425E+03  0.4423E+03
     -1.377  0.6935E+02  0.6785E+02  0.4461E+03  0.4459E+03
     -1.324  0.7247E+02  0.7435E+02  0.4499E+03  0.4498E+03
     -1.271  0.3224E+02  0.3244E+02  0.4516E+03  0.4515E+03
     -1.218  0.6866E+02  0.6833E+02  0.4553E+03  0.4551E+03
     -1.166  0.4935E+02  0.4710E+02  0.4579E+03  0.4576E+03
     -1.113  0.6358E+02  0.6558E+02  0.4612E+03  0.4611E+03
     -1.060  0.4814E+02  0.4933E+02  0.4637E+03  0.4637E+03
     -1.007  0.5139E+02  0.5191E+02  0.4665E+03  0.4664E+03
     -0.955  0.2955E+02  0.2968E+02  0.4680E+03  0.4680E+03
     -0.902  0.4853E+02  0.4646E+02  0.4706E+03  0.4704E+03
     -0.849  0.7661E+02  0.7470E+02  0.4746E+03  0.4743E+03
     -0.797  0.5853E+02  0.6056E+02  0.4777E+03  0.4775E+03
     -0.744  0.4316E+02  0.4339E+02  0.4800E+03  0.4798E+03
     -0.691  0.8068E+02  0.7930E+02  0.4842E+03  0.4840E+03
     -0.638  0.5656E+02  0.5850E+02  0.4872E+03  0.4871E+03
     -0.586  0.3095E+02  0.3171E+02  0.4888E+03  0.4888E+03
     -0.533  0.2146E+02  0.2070E+02  0.4900E+03  0.4899E+03
     -0.480  0.2535E+02  0.2684E+02  0.4913E+03  0.4913E+03
     -0.427  0.2631E+02  0.2544E+02  0.4927E+03  0.4926E+03
     -0.375  0.5212E+02  0.5070E+02  0.4955E+03  0.4953E+03
     -0.322  0.7031E+02  0.6976E+02  0.4992E+03  0.4990E+03
     -0.269  0.7126E+02  0.6931E+02  0.5029E+03  0.5026E+03
     -0.217  0.8762E+02  0.8790E+02  0.5075E+03  0.5073E+03
     -0.164  0.1110E+03  0.1113E+03  0.5134E+03  0.5131E+03
     -0.111  0.1051E+03  0.1046E+03  0.5189E+03  0.5186E+03
     -0.058  0.9900E+02  0.9918E+02  0.5242E+03  0.5239E+03
     -0.006  0.1171E+03  0.1185E+03  0.5303E+03  0.5301E+03
      0.047  0.1341E+03  0.1322E+03  0.5374E+03  0.5371E+03
      0.100  0.1312E+03  0.1305E+03  0.5443E+03  0.5440E+03
      0.153  0.9257E+02  0.9551E+02  0.5492E+03  0.5490E+03
      0.205  0.8381E+02  0.8269E+02  0.5536E+03  0.5534E+03
      0.258  0.7494E+02  0.7547E+02  0.5576E+03  0.5574E+03
      0.311  0.9452E+02  0.9314E+02  0.5626E+03  0.5623E+03
      0.364  0.8604E+02  0.8751E+02  0.5671E+03  0.5669E+03
      0.416  0.1126E+03  0.1126E+03  0.5730E+03  0.5728E+03
      0.469  0.9005E+02  0.9090E+02  0.5778E+03  0.5776E+03
      0.522  0.9470E+02  0.9201E+02  0.5828E+03  0.5825E+03
      0.574  0.1360E+03  0.1380E+03  0.5899E+03  0.5897E+03
      0.627  0.1056E+03  0.1052E+03  0.5955E+03  0.5953E+03
      0.680  0.1399E+03  0.1365E+03  0.6029E+03  0.6025E+03
      0.733  0.1401E+03  0.1404E+03  0.6103E+03  0.6099E+03
      0.785  0.1374E+03  0.1398E+03  0.6175E+03  0.6173E+03
      0.838  0.8857E+02  0.8746E+02  0.6222E+03  0.6219E+03
      0.891  0.1252E+03  0.1253E+03  0.6288E+03  0.6285E+03
      0.944  0.1108E+03  0.1103E+03  0.6346E+03  0.6343E+03
      0.996  0.1009E+03  0.1025E+03  0.6400E+03  0.6397E+03
      1.049  0.1329E+03  0.1301E+03  0.6470E+03  0.6466E+03
      1.102  0.1724E+03  0.1736E+03  0.6561E+03  0.6557E+03
      1.155  0.1781E+03  0.1751E+03  0.6654E+03  0.6649E+03
      1.207  0.1822E+03  0.1816E+03  0.6751E+03  0.6745E+03
      1.260  0.1540E+03  0.1575E+03  0.6832E+03  0.6828E+03
      1.313  0.1988E+03  0.1932E+03  0.6937E+03  0.6930E+03
      1.365  0.1851E+03  0.1887E+03  0.7034E+03  0.7030E+03
      1.418  0.1503E+03  0.1539E+03  0.7113E+03  0.7111E+03
      1.471  0.1341E+03  0.1293E+03  0.7184E+03  0.7179E+03
      1.524  0.2154E+03  0.2146E+03  0.7298E+03  0.7292E+03
      1.576  0.1832E+03  0.1819E+03  0.7394E+03  0.7388E+03
      1.629  0.2006E+03  0.2018E+03  0.7500E+03  0.7494E+03
      1.682  0.1693E+03  0.1698E+03  0.7589E+03  0.7584E+03
      1.735  0.1940E+03  0.1943E+03  0.7692E+03  0.7686E+03
      1.787  0.1824E+03  0.1834E+03  0.7788E+03  0.7783E+03
      1.840  0.1627E+03  0.1628E+03  0.7874E+03  0.7869E+03
      1.893  0.1542E+03  0.1498E+03  0.7955E+03  0.7948E+03
      1.946  0.2203E+03  0.2199E+03  0.8071E+03  0.8064E+03
      1.998  0.1736E+03  0.1794E+03  0.8163E+03  0.8159E+03
      2.051  0.1677E+03  0.1625E+03  0.8251E+03  0.8244E+03
      2.104  0.1858E+03  0.1851E+03  0.8349E+03  0.8342E+03
      2.156  0.2170E+03  0.2201E+03  0.8463E+03  0.8458E+03
      2.209  0.1239E+03  0.1263E+03  0.8529E+03  0.8525E+03
      2.262  0.1648E+03  0.1649E+03  0.8616E+03  0.8612E+03
      2.315  0.1526E+03  0.1532E+03  0.8696E+03  0.8692E+03
      2.367  0.1746E+03  0.1693E+03  0.8788E+03  0.8782E+03
      2.420  0.1975E+03  0.2015E+03  0.8892E+03  0.8888E+03
      2.473  0.1268E+03  0.1279E+03  0.8959E+03  0.8955E+03
      2.526  0.1492E+03  0.1497E+03  0.9038E+03  0.9034E+03
      2.578  0.1112E+03  0.1086E+03  0.9097E+03  0.9091E+03
      2.631  0.1424E+03  0.1416E+03  0.9172E+03  0.9166E+03
      2.684  0.1306E+03  0.1309E+03  0.9241E+03  0.9235E+03
      2.737  0.1499E+03  0.1497E+03  0.9320E+03  0.9314E+03
      2.789  0.1434E+03  0.1460E+03  0.9395E+03  0.9391E+03
      2.842  0.1242E+03  0.1178E+03  0.9461E+03  0.9453E+03
      2.895  0.1585E+03  0.1568E+03  0.9544E+03  0.9536E+03
      2.947  0.1116E+03  0.1170E+03  0.9603E+03  0.9598E+03
      3.000  0.1110E+03  0.1067E+03  0.9662E+03  0.9654E+03
      3.053  0.1439E+03  0.1458E+03  0.9738E+03  0.9731E+03
      3.106  0.1191E+03  0.1228E+03  0.9800E+03  0.9795E+03
      3.158  0.1090E+03  0.1067E+03  0.9858E+03  0.9852E+03
      3.211  0.1251E+03  0.1238E+03  0.9924E+03  0.9917E+03
      3.264  0.9305E+02  0.9554E+02  0.9973E+03  0.9967E+03
      3.317  0.1066E+03  0.1044E+03  0.1003E+04  0.1002E+04
      3.369  0.1017E+03  0.1054E+03  0.1008E+04  0.1008E+04
      3.422  0.5636E+02  0.5910E+02  0.1011E+04  0.1011E+04
      3.475  0.1021E+03  0.9447E+02  0.1017E+04  0.1016E+04
      3.528  0.9033E+02  0.9457E+02  0.1021E+04  0.1021E+04
      3.580  0.8991E+02  0.8817E+02  0.1026E+04  0.1026E+04
      3.633  0.8490E+02  0.8687E+02  0.1031E+04  0.1030E+04
      3.686  0.7382E+02  0.7288E+02  0.1035E+04  0.1034E+04
      3.738  0.4646E+02  0.5151E+02  0.1037E+04  0.1037E+04
      3.791  0.6434E+02  0.5810E+02  0.1040E+04  0.1040E+04
      3.844  0.3855E+02  0.4680E+02  0.1042E+04  0.1042E+04
      3.897  0.3890E+02  0.3900E+02  0.1044E+04  0.1044E+04
      3.949  0.5969E+02  0.4843E+02  0.1048E+04  0.1047E+04
      4.002  0.7941E+02  0.7747E+02  0.1052E+04  0.1051E+04
      4.055  0.8765E+02  0.8590E+02  0.1056E+04  0.1055E+04
      4.108  0.1316E+03  0.1301E+03  0.1063E+04  0.1062E+04
      4.160  0.8148E+02  0.8079E+02  0.1068E+04  0.1067E+04
      4.213  0.7978E+02  0.8005E+02  0.1072E+04  0.1071E+04
      4.266  0.1026E+03  0.1048E+03  0.1077E+04  0.1076E+04
      4.318  0.1065E+03  0.9915E+02  0.1083E+04  0.1082E+04
      4.371  0.1371E+03  0.1419E+03  0.1090E+04  0.1089E+04
      4.424  0.1185E+03  0.1238E+03  0.1096E+04  0.1096E+04
      4.477  0.1197E+03  0.1144E+03  0.1103E+04  0.1102E+04
      4.529  0.9602E+02  0.1080E+03  0.1108E+04  0.1107E+04
      4.582  0.8784E+02  0.8589E+02  0.1112E+04  0.1112E+04
      4.635  0.1221E+03  0.1160E+03  0.1119E+04  0.1118E+04
      4.688  0.1151E+03  0.1150E+03  0.1125E+04  0.1124E+04
      4.740  0.1092E+03  0.1093E+03  0.1131E+04  0.1130E+04
      4.793  0.1230E+03  0.1274E+03  0.1137E+04  0.1136E+04
      4.846  0.1019E+03  0.1019E+03  0.1142E+04  0.1142E+04
      4.899  0.1438E+03  0.1397E+03  0.1150E+04  0.1149E+04
      4.951  0.1128E+03  0.1100E+03  0.1156E+04  0.1155E+04
      5.004  0.1142E+03  0.1130E+03  0.1162E+04  0.1161E+04
      5.057  0.1462E+03  0.1495E+03  0.1170E+04  0.1169E+04
      5.109  0.9673E+02  0.1058E+03  0.1175E+04  0.1174E+04
      5.162  0.1015E+03  0.9893E+02  0.1180E+04  0.1180E+04
      5.215  0.1057E+03  0.1068E+03  0.1186E+04  0.1185E+04
      5.268  0.1010E+03  0.1014E+03  0.1191E+04  0.1191E+04
      5.320  0.1130E+03  0.1108E+03  0.1197E+04  0.1196E+04
      5.373  0.1241E+03  0.1257E+03  0.1204E+04  0.1203E+04
      5.426  0.1380E+03  0.1379E+03  0.1211E+04  0.1210E+04
      5.479  0.1388E+03  0.1367E+03  0.1218E+04  0.1218E+04
      5.531  0.1708E+03  0.1691E+03  0.1227E+04  0.1226E+04
      5.584  0.1569E+03  0.1633E+03  0.1235E+04  0.1235E+04
      5.637  0.1394E+03  0.1369E+03  0.1243E+04  0.1242E+04
      5.690  0.1083E+03  0.1096E+03  0.1249E+04  0.1248E+04
      5.742  0.1196E+03  0.1193E+03  0.1255E+04  0.1254E+04
      5.795  0.1242E+03  0.1215E+03  0.1261E+04  0.1261E+04
      5.848  0.1040E+03  0.1096E+03  0.1267E+04  0.1267E+04
      5.900  0.8821E+02  0.9348E+02  0.1272E+04  0.1272E+04
      5.953  0.9081E+01  0.9360E+01  0.1272E+04  0.1272E+04
      6.006  0.0000E+00  0.0000E+00  0.1272E+04  0.1272E+04
      6.059  0.0000E+00  0.0000E+00  0.1272E+04  0.1272E+04
      6.111  0.0000E+00  0.0000E+00  0.1272E+04  0.1272E+04
      6.164  0.0000E+00  0.0000E+00  0.1272E+04  0.1272E+04
      6.217  0.0000E+00  0.0000E+00  0.1272E+04  0.1272E+04
      6.270  0.0000E+00  0.0000E+00  0.1272E+04  0.1272E+04
      6.322  0.0000E+00  0.0000E+00  0.1272E+04  0.1272E+04
      6.375  0.0000E+00  0.0000E+00  0.1272E+04  0.1272E+04
      6.428  0.0000E+00  0.0000E+00  0.1272E+04  0.1272E+04
      6.481  0.0000E+00  0.0000E+00  0.1272E+04  0.1272E+04
      6.533  0.0000E+00  0.0000E+00  0.1272E+04  0.1272E+04
      6.586  0.0000E+00  0.0000E+00  0.1272E+04  0.1272E+04
      6.639  0.0000E+00  0.0000E+00  0.1272E+04  0.1272E+04
