  96  96   0   0
  0.2276159E+02  0.1265123E-08  0.1265123E-08  0.1393391E-08  0.5000000E-15
  1.000000000000000E-004
  CAR 
 Si and Ge interface calculation         
      6.46205763    -10.92794817  301      3.59138368      1.00000000
    -10.928  0.0000E+00  0.0000E+00  0.0000E+00  0.0000E+00
    -10.870  0.0000E+00  0.0000E+00  0.0000E+00  0.0000E+00
    -10.812  0.0000E+00  0.0000E+00  0.0000E+00  0.0000E+00
    -10.754  0.0000E+00  0.0000E+00  0.0000E+00  0.0000E+00
    -10.696  0.0000E+00  0.0000E+00  0.0000E+00  0.0000E+00
    -10.638  0.0000E+00  0.0000E+00  0.0000E+00  0.0000E+00
    -10.580  0.0000E+00  0.0000E+00  0.0000E+00  0.0000E+00
    -10.522  0.0000E+00  0.0000E+00  0.0000E+00  0.0000E+00
    -10.464  0.0000E+00  0.0000E+00  0.0000E+00  0.0000E+00
    -10.406  0.0000E+00  0.0000E+00  0.0000E+00  0.0000E+00
    -10.348  0.0000E+00  0.0000E+00  0.0000E+00  0.0000E+00
    -10.290  0.0000E+00  0.0000E+00  0.0000E+00  0.0000E+00
    -10.232  0.0000E+00  0.0000E+00  0.0000E+00  0.0000E+00
    -10.174  0.1745E-06  0.1665E-10  0.1012E-07  0.9652E-12
    -10.116  0.5462E+01  0.2254E+01  0.3166E+00  0.1306E+00
    -10.058  0.1869E+02  0.1719E+02  0.1400E+01  0.1127E+01
    -10.000  0.3731E+02  0.3360E+02  0.3563E+01  0.3075E+01
     -9.943  0.7545E+01  0.1596E+02  0.4000E+01  0.4000E+01
     -9.885  0.4966E+01  0.6932E+00  0.4288E+01  0.4040E+01
     -9.827  0.1804E+02  0.2231E+02  0.5333E+01  0.5333E+01
     -9.769  0.0000E+00  0.0000E+00  0.5333E+01  0.5333E+01
     -9.711  0.0000E+00  0.0000E+00  0.5333E+01  0.5333E+01
     -9.653  0.1936E-09  0.1490E-14  0.5333E+01  0.5333E+01
     -9.595  0.1696E+02  0.7053E+01  0.6316E+01  0.5742E+01
     -9.537  0.6041E+01  0.1595E+02  0.6667E+01  0.6667E+01
     -9.479  0.0000E+00  0.0000E+00  0.6667E+01  0.6667E+01
     -9.421  0.0000E+00  0.0000E+00  0.6667E+01  0.6667E+01
     -9.363  0.0000E+00  0.0000E+00  0.6667E+01  0.6667E+01
     -9.305  0.0000E+00  0.0000E+00  0.6667E+01  0.6667E+01
     -9.247  0.2104E+01  0.1561E+00  0.6789E+01  0.6676E+01
     -9.189  0.2090E+02  0.2285E+02  0.8000E+01  0.8000E+01
     -9.131  0.7191E+01  0.1384E+01  0.8417E+01  0.8080E+01
     -9.073  0.2731E+02  0.3312E+02  0.1000E+02  0.1000E+02
     -9.015  0.0000E+00  0.0000E+00  0.1000E+02  0.1000E+02
     -8.957  0.0000E+00  0.0000E+00  0.1000E+02  0.1000E+02
     -8.899  0.0000E+00  0.0000E+00  0.1000E+02  0.1000E+02
     -8.841  0.5014E+01  0.4271E+00  0.1029E+02  0.1002E+02
     -8.783  0.1799E+02  0.2257E+02  0.1133E+02  0.1133E+02
     -8.725  0.9194E+01  0.7254E+01  0.1187E+02  0.1175E+02
     -8.667  0.2513E+02  0.2340E+02  0.1332E+02  0.1311E+02
     -8.609  0.1372E+02  0.1239E+02  0.1412E+02  0.1383E+02
     -8.551  0.1385E+02  0.1690E+02  0.1492E+02  0.1481E+02
     -8.493  0.9107E+01  0.8235E+01  0.1545E+02  0.1529E+02
     -8.435  0.1475E+02  0.1269E+02  0.1630E+02  0.1602E+02
     -8.377  0.2185E+02  0.2201E+02  0.1757E+02  0.1730E+02
     -8.319  0.1316E+02  0.1784E+02  0.1833E+02  0.1833E+02
     -8.261  0.2464E+02  0.1779E+02  0.1976E+02  0.1936E+02
     -8.204  0.3152E+02  0.3544E+02  0.2159E+02  0.2142E+02
     -8.146  0.2408E+02  0.2370E+02  0.2299E+02  0.2279E+02
     -8.088  0.1353E+02  0.1360E+02  0.2377E+02  0.2358E+02
     -8.030  0.2307E+02  0.2522E+02  0.2511E+02  0.2504E+02
     -7.972  0.9925E+01  0.6804E+01  0.2568E+02  0.2544E+02
     -7.914  0.2570E+02  0.2891E+02  0.2717E+02  0.2711E+02
     -7.856  0.1603E+02  0.1458E+02  0.2810E+02  0.2796E+02
     -7.798  0.2982E+02  0.2713E+02  0.2983E+02  0.2953E+02
     -7.740  0.2275E+02  0.2674E+02  0.3115E+02  0.3108E+02
     -7.682  0.2411E+02  0.2192E+02  0.3255E+02  0.3235E+02
     -7.624  0.2202E+02  0.2276E+02  0.3382E+02  0.3367E+02
     -7.566  0.2600E+02  0.2435E+02  0.3533E+02  0.3508E+02
     -7.508  0.7038E+01  0.1032E+02  0.3574E+02  0.3568E+02
     -7.450  0.3166E+02  0.3018E+02  0.3757E+02  0.3743E+02
     -7.392  0.3002E+02  0.3084E+02  0.3931E+02  0.3922E+02
     -7.334  0.3749E+02  0.3653E+02  0.4149E+02  0.4133E+02
     -7.276  0.3332E+02  0.3328E+02  0.4342E+02  0.4326E+02
     -7.218  0.1673E+02  0.1533E+02  0.4439E+02  0.4415E+02
     -7.160  0.4089E+02  0.3845E+02  0.4676E+02  0.4638E+02
     -7.102  0.2126E+02  0.2667E+02  0.4799E+02  0.4793E+02
     -7.044  0.2818E+02  0.2366E+02  0.4962E+02  0.4930E+02
     -6.986  0.1703E+02  0.2015E+02  0.5061E+02  0.5047E+02
     -6.928  0.2929E+02  0.2860E+02  0.5231E+02  0.5212E+02
     -6.870  0.1795E+02  0.2086E+02  0.5335E+02  0.5333E+02
     -6.812  0.2444E+02  0.1556E+02  0.5477E+02  0.5424E+02
     -6.754  0.4582E+02  0.4994E+02  0.5742E+02  0.5713E+02
     -6.696  0.1674E+02  0.2041E+02  0.5839E+02  0.5831E+02
     -6.638  0.3013E+02  0.2649E+02  0.6014E+02  0.5985E+02
     -6.580  0.3050E+02  0.3340E+02  0.6191E+02  0.6179E+02
     -6.522  0.2956E+02  0.2717E+02  0.6362E+02  0.6336E+02
     -6.465  0.3755E+02  0.3588E+02  0.6580E+02  0.6544E+02
     -6.407  0.2432E+02  0.2574E+02  0.6721E+02  0.6693E+02
     -6.349  0.2508E+02  0.2839E+02  0.6866E+02  0.6858E+02
     -6.291  0.2523E+02  0.2400E+02  0.7012E+02  0.6997E+02
     -6.233  0.4021E+02  0.3684E+02  0.7246E+02  0.7211E+02
     -6.175  0.2455E+02  0.2798E+02  0.7388E+02  0.7373E+02
     -6.117  0.1939E+02  0.2179E+02  0.7500E+02  0.7499E+02
     -6.059  0.2594E+02  0.1941E+02  0.7651E+02  0.7612E+02
     -6.001  0.1911E+02  0.1972E+02  0.7761E+02  0.7726E+02
     -5.943  0.2145E+02  0.2262E+02  0.7886E+02  0.7857E+02
     -5.885  0.1405E+02  0.1657E+02  0.7967E+02  0.7953E+02
     -5.827  0.2811E+02  0.2402E+02  0.8130E+02  0.8092E+02
     -5.769  0.1756E+02  0.1964E+02  0.8232E+02  0.8206E+02
     -5.711  0.3581E+02  0.3384E+02  0.8439E+02  0.8402E+02
     -5.653  0.2202E+02  0.2565E+02  0.8567E+02  0.8551E+02
     -5.595  0.1683E+02  0.1670E+02  0.8665E+02  0.8648E+02
     -5.537  0.2525E+02  0.2617E+02  0.8811E+02  0.8799E+02
     -5.479  0.3066E+02  0.2617E+02  0.8989E+02  0.8951E+02
     -5.421  0.2041E+02  0.2486E+02  0.9107E+02  0.9095E+02
     -5.363  0.2627E+02  0.2343E+02  0.9259E+02  0.9231E+02
     -5.305  0.4406E+02  0.3973E+02  0.9515E+02  0.9461E+02
     -5.247  0.2235E+02  0.3060E+02  0.9644E+02  0.9639E+02
     -5.189  0.2074E+02  0.1720E+02  0.9765E+02  0.9739E+02
     -5.131  0.2912E+02  0.3340E+02  0.9933E+02  0.9932E+02
     -5.073  0.1969E+02  0.1544E+02  0.1005E+03  0.1002E+03
     -5.015  0.2473E+02  0.2579E+02  0.1019E+03  0.1017E+03
     -4.957  0.2663E+02  0.2893E+02  0.1035E+03  0.1034E+03
     -4.899  0.4106E+02  0.3671E+02  0.1058E+03  0.1055E+03
     -4.841  0.2272E+02  0.2462E+02  0.1071E+03  0.1069E+03
     -4.783  0.3421E+02  0.3206E+02  0.1091E+03  0.1088E+03
     -4.726  0.3101E+02  0.3229E+02  0.1109E+03  0.1107E+03
     -4.668  0.1825E+02  0.1779E+02  0.1120E+03  0.1117E+03
     -4.610  0.2326E+02  0.2356E+02  0.1133E+03  0.1131E+03
     -4.552  0.1811E+02  0.1796E+02  0.1144E+03  0.1141E+03
     -4.494  0.2097E+02  0.2246E+02  0.1156E+03  0.1154E+03
     -4.436  0.2477E+02  0.2294E+02  0.1170E+03  0.1167E+03
     -4.378  0.1884E+02  0.2361E+02  0.1181E+03  0.1181E+03
     -4.320  0.2492E+02  0.2126E+02  0.1196E+03  0.1193E+03
     -4.262  0.1428E+02  0.1360E+02  0.1204E+03  0.1201E+03
     -4.204  0.2390E+02  0.2411E+02  0.1218E+03  0.1215E+03
     -4.146  0.2791E+02  0.2720E+02  0.1234E+03  0.1231E+03
     -4.088  0.1958E+02  0.2211E+02  0.1245E+03  0.1244E+03
     -4.030  0.2008E+02  0.1778E+02  0.1257E+03  0.1254E+03
     -3.972  0.2685E+02  0.2701E+02  0.1273E+03  0.1270E+03
     -3.914  0.1709E+02  0.1974E+02  0.1283E+03  0.1281E+03
     -3.856  0.3305E+02  0.3221E+02  0.1302E+03  0.1300E+03
     -3.798  0.2397E+02  0.2629E+02  0.1316E+03  0.1315E+03
     -3.740  0.2143E+02  0.1845E+02  0.1328E+03  0.1326E+03
     -3.682  0.2757E+02  0.3023E+02  0.1344E+03  0.1343E+03
     -3.624  0.2021E+02  0.1713E+02  0.1356E+03  0.1353E+03
     -3.566  0.2425E+02  0.2602E+02  0.1370E+03  0.1368E+03
     -3.508  0.2303E+02  0.2351E+02  0.1383E+03  0.1382E+03
     -3.450  0.2219E+02  0.2074E+02  0.1396E+03  0.1394E+03
     -3.392  0.1574E+02  0.1677E+02  0.1405E+03  0.1404E+03
     -3.334  0.3020E+02  0.2960E+02  0.1423E+03  0.1421E+03
     -3.276  0.1831E+02  0.1566E+02  0.1433E+03  0.1430E+03
     -3.218  0.3410E+02  0.3505E+02  0.1453E+03  0.1450E+03
     -3.160  0.2939E+02  0.2976E+02  0.1470E+03  0.1468E+03
     -3.102  0.3038E+02  0.2817E+02  0.1488E+03  0.1484E+03
     -3.044  0.2569E+02  0.2653E+02  0.1503E+03  0.1499E+03
     -2.987  0.2582E+02  0.2613E+02  0.1517E+03  0.1514E+03
     -2.929  0.3234E+02  0.2970E+02  0.1536E+03  0.1532E+03
     -2.871  0.2679E+02  0.2640E+02  0.1552E+03  0.1547E+03
     -2.813  0.3258E+02  0.3626E+02  0.1571E+03  0.1568E+03
     -2.755  0.4602E+02  0.3734E+02  0.1597E+03  0.1590E+03
     -2.697  0.2276E+02  0.2963E+02  0.1611E+03  0.1607E+03
     -2.639  0.2728E+02  0.3037E+02  0.1626E+03  0.1624E+03
     -2.581  0.2827E+02  0.2425E+02  0.1643E+03  0.1639E+03
     -2.523  0.1510E+02  0.2014E+02  0.1651E+03  0.1650E+03
     -2.465  0.2970E+02  0.3051E+02  0.1669E+03  0.1668E+03
     -2.407  0.2921E+02  0.2512E+02  0.1686E+03  0.1682E+03
     -2.349  0.3420E+02  0.3525E+02  0.1705E+03  0.1703E+03
     -2.291  0.2385E+02  0.2548E+02  0.1719E+03  0.1718E+03
     -2.233  0.2042E+02  0.2311E+02  0.1731E+03  0.1731E+03
     -2.175  0.1756E+02  0.1522E+02  0.1741E+03  0.1740E+03
     -2.117  0.2319E+02  0.2202E+02  0.1755E+03  0.1753E+03
     -2.059  0.2048E+02  0.2328E+02  0.1767E+03  0.1766E+03
     -2.001  0.9242E+01  0.7014E+01  0.1772E+03  0.1770E+03
     -1.943  0.3061E+02  0.2929E+02  0.1790E+03  0.1787E+03
     -1.885  0.6387E+01  0.1016E+02  0.1793E+03  0.1793E+03
     -1.827  0.2000E+02  0.1609E+02  0.1805E+03  0.1802E+03
     -1.769  0.2158E+02  0.2188E+02  0.1818E+03  0.1815E+03
     -1.711  0.9885E+01  0.1160E+02  0.1823E+03  0.1822E+03
     -1.653  0.2039E+02  0.1840E+02  0.1835E+03  0.1832E+03
     -1.595  0.2098E+02  0.2100E+02  0.1847E+03  0.1845E+03
     -1.537  0.1108E+02  0.1347E+02  0.1854E+03  0.1852E+03
     -1.479  0.1665E+02  0.1594E+02  0.1863E+03  0.1862E+03
     -1.421  0.2250E+02  0.2136E+02  0.1876E+03  0.1874E+03
     -1.363  0.1589E+02  0.1974E+02  0.1886E+03  0.1885E+03
     -1.305  0.1958E+01  0.2020E+01  0.1887E+03  0.1887E+03
     -1.248  0.1276E+02  0.8218E+01  0.1894E+03  0.1891E+03
     -1.190  0.2124E+02  0.2053E+02  0.1906E+03  0.1903E+03
     -1.132  0.1399E+02  0.1538E+02  0.1915E+03  0.1912E+03
     -1.074  0.1759E+02  0.1939E+02  0.1925E+03  0.1923E+03
     -1.016  0.1453E+02  0.1138E+02  0.1933E+03  0.1930E+03
     -0.958  0.1448E+02  0.1901E+02  0.1942E+03  0.1941E+03
     -0.900  0.1681E+02  0.1385E+02  0.1951E+03  0.1949E+03
     -0.842  0.3023E+02  0.2806E+02  0.1969E+03  0.1965E+03
     -0.784  0.4135E+02  0.3615E+02  0.1993E+03  0.1986E+03
     -0.726  0.3951E+02  0.4376E+02  0.2016E+03  0.2012E+03
     -0.668  0.5556E+02  0.5240E+02  0.2048E+03  0.2042E+03
     -0.610  0.4414E+02  0.4255E+02  0.2073E+03  0.2067E+03
     -0.552  0.2851E+02  0.3300E+02  0.2090E+03  0.2086E+03
     -0.494  0.4275E+02  0.4714E+02  0.2115E+03  0.2113E+03
     -0.436  0.3947E+02  0.3347E+02  0.2138E+03  0.2133E+03
     -0.378  0.5573E+02  0.5627E+02  0.2170E+03  0.2165E+03
     -0.320  0.3999E+02  0.4293E+02  0.2193E+03  0.2190E+03
     -0.262  0.4330E+02  0.4048E+02  0.2218E+03  0.2214E+03
     -0.204  0.3068E+02  0.3233E+02  0.2236E+03  0.2232E+03
     -0.146  0.5063E+02  0.4871E+02  0.2265E+03  0.2261E+03
     -0.088  0.4730E+02  0.4551E+02  0.2293E+03  0.2287E+03
     -0.030  0.5777E+02  0.5836E+02  0.2326E+03  0.2321E+03
      0.028  0.4639E+02  0.5077E+02  0.2353E+03  0.2350E+03
      0.086  0.3935E+02  0.3878E+02  0.2376E+03  0.2373E+03
      0.144  0.4857E+02  0.4850E+02  0.2404E+03  0.2401E+03
      0.202  0.4328E+02  0.4281E+02  0.2429E+03  0.2426E+03
      0.260  0.5012E+02  0.4845E+02  0.2458E+03  0.2454E+03
      0.318  0.3785E+02  0.4170E+02  0.2480E+03  0.2478E+03
      0.376  0.5084E+02  0.5076E+02  0.2510E+03  0.2507E+03
      0.434  0.4820E+02  0.4668E+02  0.2538E+03  0.2534E+03
      0.491  0.2891E+02  0.2958E+02  0.2554E+03  0.2552E+03
      0.549  0.4846E+02  0.4510E+02  0.2582E+03  0.2578E+03
      0.607  0.5244E+02  0.5525E+02  0.2613E+03  0.2610E+03
      0.665  0.5244E+02  0.4901E+02  0.2643E+03  0.2638E+03
      0.723  0.6248E+02  0.6437E+02  0.2679E+03  0.2675E+03
      0.781  0.5305E+02  0.5318E+02  0.2710E+03  0.2706E+03
      0.839  0.5944E+02  0.5981E+02  0.2745E+03  0.2741E+03
      0.897  0.4326E+02  0.4619E+02  0.2770E+03  0.2768E+03
      0.955  0.5842E+02  0.5348E+02  0.2804E+03  0.2799E+03
      1.013  0.6093E+02  0.6206E+02  0.2839E+03  0.2835E+03
      1.071  0.5898E+02  0.5790E+02  0.2873E+03  0.2868E+03
      1.129  0.4457E+02  0.4717E+02  0.2899E+03  0.2896E+03
      1.187  0.4645E+02  0.4709E+02  0.2926E+03  0.2923E+03
      1.245  0.5195E+02  0.4633E+02  0.2956E+03  0.2950E+03
      1.303  0.2894E+02  0.3548E+02  0.2973E+03  0.2970E+03
      1.361  0.4780E+02  0.4651E+02  0.3001E+03  0.2997E+03
      1.419  0.3990E+02  0.3780E+02  0.3024E+03  0.3019E+03
      1.477  0.3107E+02  0.3228E+02  0.3042E+03  0.3038E+03
      1.535  0.4600E+02  0.4709E+02  0.3068E+03  0.3065E+03
      1.593  0.3499E+02  0.3696E+02  0.3089E+03  0.3087E+03
      1.651  0.4183E+02  0.3650E+02  0.3113E+03  0.3108E+03
      1.709  0.4515E+02  0.4365E+02  0.3139E+03  0.3133E+03
      1.767  0.4045E+02  0.4496E+02  0.3162E+03  0.3159E+03
      1.825  0.2987E+02  0.2725E+02  0.3180E+03  0.3175E+03
      1.883  0.3349E+02  0.3705E+02  0.3199E+03  0.3196E+03
      1.941  0.2857E+02  0.2832E+02  0.3216E+03  0.3213E+03
      1.999  0.4648E+02  0.4225E+02  0.3243E+03  0.3237E+03
      2.057  0.4356E+02  0.4230E+02  0.3268E+03  0.3262E+03
      2.115  0.2987E+02  0.3864E+02  0.3285E+03  0.3284E+03
      2.173  0.3550E+02  0.3340E+02  0.3306E+03  0.3304E+03
      2.230  0.3823E+02  0.3928E+02  0.3328E+03  0.3326E+03
      2.288  0.4492E+02  0.4186E+02  0.3354E+03  0.3351E+03
      2.346  0.5055E+02  0.4863E+02  0.3383E+03  0.3379E+03
      2.404  0.3738E+02  0.3963E+02  0.3405E+03  0.3402E+03
      2.462  0.3518E+02  0.3065E+02  0.3425E+03  0.3420E+03
      2.520  0.4443E+02  0.4980E+02  0.3451E+03  0.3448E+03
      2.578  0.2512E+02  0.2444E+02  0.3466E+03  0.3463E+03
      2.636  0.3301E+02  0.2969E+02  0.3485E+03  0.3480E+03
      2.694  0.3935E+02  0.3644E+02  0.3508E+03  0.3501E+03
      2.752  0.3574E+02  0.4015E+02  0.3528E+03  0.3524E+03
      2.810  0.4026E+02  0.3562E+02  0.3552E+03  0.3545E+03
      2.868  0.3164E+02  0.4088E+02  0.3570E+03  0.3569E+03
      2.926  0.3612E+02  0.3067E+02  0.3591E+03  0.3586E+03
      2.984  0.3759E+02  0.3615E+02  0.3613E+03  0.3607E+03
      3.042  0.4148E+02  0.4132E+02  0.3637E+03  0.3631E+03
      3.100  0.4156E+02  0.3652E+02  0.3661E+03  0.3652E+03
      3.158  0.3354E+02  0.4016E+02  0.3680E+03  0.3676E+03
      3.216  0.3789E+02  0.4160E+02  0.3702E+03  0.3700E+03
      3.274  0.3223E+02  0.3075E+02  0.3721E+03  0.3718E+03
      3.332  0.4035E+02  0.3556E+02  0.3744E+03  0.3738E+03
      3.390  0.3254E+02  0.3199E+02  0.3763E+03  0.3757E+03
      3.448  0.3664E+02  0.3389E+02  0.3785E+03  0.3776E+03
      3.506  0.3699E+02  0.4124E+02  0.3806E+03  0.3800E+03
      3.564  0.3341E+02  0.3198E+02  0.3825E+03  0.3819E+03
      3.622  0.4287E+02  0.4222E+02  0.3850E+03  0.3843E+03
      3.680  0.3697E+02  0.3863E+02  0.3872E+03  0.3866E+03
      3.738  0.3301E+02  0.3410E+02  0.3891E+03  0.3885E+03
      3.796  0.4824E+02  0.4341E+02  0.3919E+03  0.3911E+03
      3.854  0.3307E+02  0.3316E+02  0.3938E+03  0.3930E+03
      3.912  0.1946E+02  0.3156E+02  0.3949E+03  0.3948E+03
      3.969  0.3283E+02  0.2661E+02  0.3968E+03  0.3964E+03
      4.027  0.4550E+02  0.3851E+02  0.3995E+03  0.3986E+03
      4.085  0.3718E+02  0.4247E+02  0.4016E+03  0.4011E+03
      4.143  0.2475E+02  0.3158E+02  0.4030E+03  0.4029E+03
      4.201  0.5022E+02  0.4165E+02  0.4060E+03  0.4053E+03
      4.259  0.3771E+02  0.4341E+02  0.4081E+03  0.4078E+03
      4.317  0.2873E+02  0.2620E+02  0.4098E+03  0.4093E+03
      4.375  0.3874E+02  0.3401E+02  0.4121E+03  0.4113E+03
      4.433  0.2735E+02  0.3547E+02  0.4136E+03  0.4134E+03
      4.491  0.3155E+02  0.2753E+02  0.4155E+03  0.4150E+03
      4.549  0.4460E+02  0.4520E+02  0.4181E+03  0.4176E+03
      4.607  0.3561E+02  0.4074E+02  0.4201E+03  0.4199E+03
      4.665  0.4149E+02  0.3285E+02  0.4225E+03  0.4218E+03
      4.723  0.4036E+02  0.4301E+02  0.4249E+03  0.4243E+03
      4.781  0.3644E+02  0.3924E+02  0.4270E+03  0.4266E+03
      4.839  0.4671E+02  0.4871E+02  0.4297E+03  0.4294E+03
      4.897  0.3933E+02  0.3576E+02  0.4320E+03  0.4315E+03
      4.955  0.3413E+02  0.3842E+02  0.4339E+03  0.4337E+03
      5.013  0.3868E+02  0.3411E+02  0.4362E+03  0.4357E+03
      5.071  0.4627E+02  0.4683E+02  0.4389E+03  0.4384E+03
      5.129  0.4670E+02  0.4233E+02  0.4416E+03  0.4409E+03
      5.187  0.3367E+02  0.4322E+02  0.4435E+03  0.4434E+03
      5.245  0.6158E+02  0.5453E+02  0.4471E+03  0.4465E+03
      5.303  0.3753E+02  0.3694E+02  0.4493E+03  0.4487E+03
      5.361  0.4136E+02  0.4166E+02  0.4517E+03  0.4511E+03
      5.419  0.4440E+02  0.4501E+02  0.4542E+03  0.4537E+03
      5.477  0.3853E+02  0.4299E+02  0.4565E+03  0.4562E+03
      5.535  0.4211E+02  0.3893E+02  0.4589E+03  0.4585E+03
      5.593  0.4579E+02  0.4760E+02  0.4616E+03  0.4612E+03
      5.651  0.3103E+02  0.3099E+02  0.4634E+03  0.4630E+03
      5.708  0.1086E+02  0.1697E+02  0.4640E+03  0.4640E+03
      5.766  0.0000E+00  0.0000E+00  0.4640E+03  0.4640E+03
      5.824  0.0000E+00  0.0000E+00  0.4640E+03  0.4640E+03
      5.882  0.0000E+00  0.0000E+00  0.4640E+03  0.4640E+03
      5.940  0.0000E+00  0.0000E+00  0.4640E+03  0.4640E+03
      5.998  0.0000E+00  0.0000E+00  0.4640E+03  0.4640E+03
      6.056  0.0000E+00  0.0000E+00  0.4640E+03  0.4640E+03
      6.114  0.0000E+00  0.0000E+00  0.4640E+03  0.4640E+03
      6.172  0.0000E+00  0.0000E+00  0.4640E+03  0.4640E+03
      6.230  0.0000E+00  0.0000E+00  0.4640E+03  0.4640E+03
      6.288  0.0000E+00  0.0000E+00  0.4640E+03  0.4640E+03
      6.346  0.0000E+00  0.0000E+00  0.4640E+03  0.4640E+03
      6.404  0.0000E+00  0.0000E+00  0.4640E+03  0.4640E+03
      6.462  0.0000E+00  0.0000E+00  0.4640E+03  0.4640E+03
