 264 264   0   0
  0.2774202E+02  0.1958175E-08  0.1958175E-08  0.1910025E-08  0.5000000E-15
  1.000000000000000E-004
  CAR 
 Si and Ge interface calculation         
      6.67662469     -8.43929135  301      4.08077278      1.00000000
     -8.439  0.0000E+00  0.0000E+00  0.0000E+00  0.0000E+00
     -8.389  0.0000E+00  0.0000E+00  0.0000E+00  0.0000E+00
     -8.339  0.0000E+00  0.0000E+00  0.0000E+00  0.0000E+00
     -8.288  0.0000E+00  0.0000E+00  0.0000E+00  0.0000E+00
     -8.238  0.0000E+00  0.0000E+00  0.0000E+00  0.0000E+00
     -8.187  0.0000E+00  0.0000E+00  0.0000E+00  0.0000E+00
     -8.137  0.0000E+00  0.0000E+00  0.0000E+00  0.0000E+00
     -8.087  0.0000E+00  0.0000E+00  0.0000E+00  0.0000E+00
     -8.036  0.0000E+00  0.0000E+00  0.0000E+00  0.0000E+00
     -7.986  0.0000E+00  0.0000E+00  0.0000E+00  0.0000E+00
     -7.935  0.0000E+00  0.0000E+00  0.0000E+00  0.0000E+00
     -7.885  0.0000E+00  0.0000E+00  0.0000E+00  0.0000E+00
     -7.835  0.0000E+00  0.0000E+00  0.0000E+00  0.0000E+00
     -7.784  0.2597E-04  0.5628E-05  0.1308E-05  0.2836E-06
     -7.734  0.9873E+01  0.9804E+01  0.4974E+00  0.4940E+00
     -7.683  0.1608E+01  0.8852E+00  0.5785E+00  0.5386E+00
     -7.633  0.3814E+02  0.3893E+02  0.2500E+01  0.2500E+01
     -7.583  0.3133E+02  0.2818E+02  0.4079E+01  0.3920E+01
     -7.532  0.8362E+01  0.1152E+02  0.4500E+01  0.4500E+01
     -7.482  0.7652E-08  0.8933E-09  0.4500E+01  0.4500E+01
     -7.432  0.1856E+02  0.1586E+02  0.5435E+01  0.5299E+01
     -7.381  0.2114E+02  0.2384E+02  0.6500E+01  0.6500E+01
     -7.331  0.7890E+02  0.7833E+02  0.1048E+02  0.1045E+02
     -7.280  0.4865E+00  0.1055E+01  0.1050E+02  0.1050E+02
     -7.230  0.0000E+00  0.0000E+00  0.1050E+02  0.1050E+02
     -7.180  0.9807E-09  0.1523E-09  0.1050E+02  0.1050E+02
     -7.129  0.8080E+01  0.6994E+01  0.1091E+02  0.1085E+02
     -7.079  0.3135E+02  0.3213E+02  0.1249E+02  0.1247E+02
     -7.028  0.3501E+02  0.3313E+02  0.1425E+02  0.1414E+02
     -6.978  0.3367E+02  0.3507E+02  0.1595E+02  0.1591E+02
     -6.928  0.3956E+02  0.3939E+02  0.1794E+02  0.1789E+02
     -6.877  0.1110E+02  0.1203E+02  0.1850E+02  0.1850E+02
     -6.827  0.1706E-01  0.3840E-01  0.1850E+02  0.1850E+02
     -6.777  0.9371E+01  0.8742E+01  0.1897E+02  0.1894E+02
     -6.726  0.5945E+02  0.5604E+02  0.2197E+02  0.2176E+02
     -6.676  0.6508E+02  0.6822E+02  0.2525E+02  0.2520E+02
     -6.625  0.3417E+02  0.3403E+02  0.2697E+02  0.2692E+02
     -6.575  0.6811E+00  0.1679E+01  0.2700E+02  0.2700E+02
     -6.525  0.3943E+02  0.3909E+02  0.2899E+02  0.2897E+02
     -6.474  0.7212E+02  0.6741E+02  0.3262E+02  0.3237E+02
     -6.424  0.9165E+02  0.9161E+02  0.3724E+02  0.3698E+02
     -6.373  0.4803E+02  0.5267E+02  0.3966E+02  0.3964E+02
     -6.323  0.2932E+02  0.2559E+02  0.4114E+02  0.4093E+02
     -6.273  0.7201E+02  0.7158E+02  0.4477E+02  0.4453E+02
     -6.222  0.4944E+02  0.5396E+02  0.4726E+02  0.4725E+02
     -6.172  0.9263E+02  0.8807E+02  0.5192E+02  0.5169E+02
     -6.122  0.5634E+02  0.6012E+02  0.5476E+02  0.5472E+02
     -6.071  0.1727E+02  0.1734E+02  0.5563E+02  0.5559E+02
     -6.021  0.5716E+02  0.5259E+02  0.5851E+02  0.5824E+02
     -5.970  0.8496E+02  0.8531E+02  0.6279E+02  0.6254E+02
     -5.920  0.1264E+03  0.1285E+03  0.6916E+02  0.6901E+02
     -5.870  0.7263E+02  0.7032E+02  0.7282E+02  0.7256E+02
     -5.819  0.1338E+03  0.1330E+03  0.7956E+02  0.7926E+02
     -5.769  0.7536E+02  0.7318E+02  0.8336E+02  0.8294E+02
     -5.718  0.1151E+03  0.1171E+03  0.8916E+02  0.8884E+02
     -5.668  0.5655E+02  0.6004E+02  0.9201E+02  0.9187E+02
     -5.618  0.9085E+02  0.9112E+02  0.9658E+02  0.9646E+02
     -5.567  0.6601E+02  0.6424E+02  0.9991E+02  0.9970E+02
     -5.517  0.1192E+03  0.1160E+03  0.1059E+03  0.1055E+03
     -5.466  0.1138E+03  0.1164E+03  0.1117E+03  0.1114E+03
     -5.416  0.7225E+02  0.7386E+02  0.1153E+03  0.1151E+03
     -5.366  0.1136E+03  0.1101E+03  0.1210E+03  0.1207E+03
     -5.315  0.1110E+03  0.1141E+03  0.1266E+03  0.1264E+03
     -5.265  0.6291E+02  0.6433E+02  0.1298E+03  0.1297E+03
     -5.215  0.8580E+02  0.8621E+02  0.1341E+03  0.1340E+03
     -5.164  0.7766E+02  0.7575E+02  0.1380E+03  0.1378E+03
     -5.114  0.5334E+02  0.5513E+02  0.1407E+03  0.1406E+03
     -5.063  0.9859E+02  0.9529E+02  0.1457E+03  0.1454E+03
     -5.013  0.1011E+03  0.1028E+03  0.1508E+03  0.1506E+03
     -4.963  0.1070E+03  0.1051E+03  0.1562E+03  0.1559E+03
     -4.912  0.1225E+03  0.1261E+03  0.1623E+03  0.1622E+03
     -4.862  0.7094E+02  0.6728E+02  0.1659E+03  0.1656E+03
     -4.811  0.8884E+02  0.8759E+02  0.1704E+03  0.1700E+03
     -4.761  0.8504E+02  0.8868E+02  0.1747E+03  0.1745E+03
     -4.711  0.1041E+03  0.1020E+03  0.1799E+03  0.1797E+03
     -4.660  0.1003E+03  0.9997E+02  0.1850E+03  0.1847E+03
     -4.610  0.1114E+03  0.1130E+03  0.1906E+03  0.1904E+03
     -4.560  0.8065E+02  0.8063E+02  0.1946E+03  0.1944E+03
     -4.509  0.9050E+02  0.8643E+02  0.1992E+03  0.1988E+03
     -4.459  0.1401E+03  0.1405E+03  0.2063E+03  0.2059E+03
     -4.408  0.8312E+02  0.8690E+02  0.2104E+03  0.2103E+03
     -4.358  0.1433E+03  0.1404E+03  0.2177E+03  0.2173E+03
     -4.308  0.6785E+02  0.7049E+02  0.2211E+03  0.2209E+03
     -4.257  0.7952E+02  0.7660E+02  0.2251E+03  0.2247E+03
     -4.207  0.5320E+02  0.5755E+02  0.2278E+03  0.2276E+03
     -4.156  0.8252E+02  0.8222E+02  0.2319E+03  0.2318E+03
     -4.106  0.6084E+02  0.6364E+02  0.2350E+03  0.2350E+03
     -4.056  0.1209E+02  0.9221E+01  0.2356E+03  0.2355E+03
     -4.005  0.6695E+02  0.6605E+02  0.2390E+03  0.2388E+03
     -3.955  0.3517E+02  0.3863E+02  0.2408E+03  0.2407E+03
     -3.905  0.4567E+02  0.4409E+02  0.2431E+03  0.2430E+03
     -3.854  0.8736E+02  0.8361E+02  0.2475E+03  0.2472E+03
     -3.804  0.7430E+02  0.7405E+02  0.2512E+03  0.2509E+03
     -3.753  0.3866E+02  0.4121E+02  0.2531E+03  0.2530E+03
     -3.703  0.5458E+02  0.4761E+02  0.2559E+03  0.2554E+03
     -3.653  0.7111E+02  0.7552E+02  0.2595E+03  0.2592E+03
     -3.602  0.3686E+02  0.3629E+02  0.2613E+03  0.2610E+03
     -3.552  0.5535E+02  0.5586E+02  0.2641E+03  0.2638E+03
     -3.501  0.7824E+02  0.8201E+02  0.2681E+03  0.2680E+03
     -3.451  0.5330E+02  0.5547E+02  0.2708E+03  0.2708E+03
     -3.401  0.7502E+02  0.6640E+02  0.2745E+03  0.2741E+03
     -3.350  0.6866E+02  0.7355E+02  0.2780E+03  0.2778E+03
     -3.300  0.9423E+02  0.9266E+02  0.2827E+03  0.2825E+03
     -3.249  0.4082E+02  0.4483E+02  0.2848E+03  0.2847E+03
     -3.199  0.1000E+03  0.9416E+02  0.2898E+03  0.2895E+03
     -3.149  0.6427E+02  0.7050E+02  0.2931E+03  0.2930E+03
     -3.098  0.6105E+02  0.5650E+02  0.2962E+03  0.2959E+03
     -3.048  0.8281E+02  0.8643E+02  0.3003E+03  0.3002E+03
     -2.998  0.3674E+02  0.3229E+02  0.3022E+03  0.3019E+03
     -2.947  0.7319E+02  0.7490E+02  0.3059E+03  0.3056E+03
     -2.897  0.6377E+02  0.6115E+02  0.3091E+03  0.3087E+03
     -2.846  0.9581E+02  0.9720E+02  0.3139E+03  0.3136E+03
     -2.796  0.1101E+03  0.1113E+03  0.3195E+03  0.3192E+03
     -2.746  0.4465E+02  0.4476E+02  0.3217E+03  0.3215E+03
     -2.695  0.8184E+02  0.8112E+02  0.3258E+03  0.3256E+03
     -2.645  0.1101E+03  0.1083E+03  0.3314E+03  0.3310E+03
     -2.594  0.1298E+03  0.1273E+03  0.3379E+03  0.3374E+03
     -2.544  0.1002E+03  0.1045E+03  0.3430E+03  0.3427E+03
     -2.494  0.1464E+03  0.1445E+03  0.3503E+03  0.3500E+03
     -2.443  0.1396E+03  0.1393E+03  0.3574E+03  0.3570E+03
     -2.393  0.1084E+03  0.1117E+03  0.3628E+03  0.3626E+03
     -2.343  0.9588E+02  0.9311E+02  0.3677E+03  0.3673E+03
     -2.292  0.7684E+02  0.7971E+02  0.3715E+03  0.3713E+03
     -2.242  0.1088E+03  0.1107E+03  0.3770E+03  0.3769E+03
     -2.191  0.7348E+02  0.6684E+02  0.3807E+03  0.3803E+03
     -2.141  0.7919E+02  0.8713E+02  0.3847E+03  0.3847E+03
     -2.091  0.6259E+02  0.6083E+02  0.3879E+03  0.3877E+03
     -2.040  0.9743E+02  0.8997E+02  0.3928E+03  0.3923E+03
     -1.990  0.1072E+03  0.1143E+03  0.3982E+03  0.3980E+03
     -1.939  0.5802E+02  0.5998E+02  0.4011E+03  0.4011E+03
     -1.889  0.6883E+02  0.6429E+02  0.4046E+03  0.4043E+03
     -1.839  0.8043E+02  0.8162E+02  0.4086E+03  0.4084E+03
     -1.788  0.1023E+03  0.1043E+03  0.4138E+03  0.4137E+03
     -1.738  0.7233E+02  0.7038E+02  0.4174E+03  0.4172E+03
     -1.688  0.6847E+02  0.6798E+02  0.4209E+03  0.4206E+03
     -1.637  0.1028E+03  0.1049E+03  0.4260E+03  0.4259E+03
     -1.587  0.6480E+02  0.6474E+02  0.4293E+03  0.4292E+03
     -1.536  0.8528E+02  0.8335E+02  0.4336E+03  0.4334E+03
     -1.486  0.7735E+02  0.7570E+02  0.4375E+03  0.4372E+03
     -1.436  0.6189E+02  0.6035E+02  0.4406E+03  0.4402E+03
     -1.385  0.4721E+02  0.5495E+02  0.4430E+03  0.4430E+03
     -1.335  0.7373E+02  0.6820E+02  0.4467E+03  0.4464E+03
     -1.284  0.4314E+02  0.4667E+02  0.4489E+03  0.4488E+03
     -1.234  0.2729E+02  0.2577E+02  0.4503E+03  0.4501E+03
     -1.184  0.7254E+02  0.7221E+02  0.4539E+03  0.4537E+03
     -1.133  0.4353E+02  0.4482E+02  0.4561E+03  0.4560E+03
     -1.083  0.4397E+02  0.4431E+02  0.4583E+03  0.4582E+03
     -1.032  0.6738E+02  0.6384E+02  0.4617E+03  0.4614E+03
     -0.982  0.3664E+02  0.3708E+02  0.4636E+03  0.4633E+03
     -0.932  0.7729E+02  0.8223E+02  0.4675E+03  0.4674E+03
     -0.881  0.5019E+02  0.4538E+02  0.4700E+03  0.4697E+03
     -0.831  0.7325E+02  0.7570E+02  0.4737E+03  0.4735E+03
     -0.781  0.6304E+02  0.6280E+02  0.4769E+03  0.4767E+03
     -0.730  0.3077E+02  0.3227E+02  0.4784E+03  0.4783E+03
     -0.680  0.4191E+02  0.3701E+02  0.4805E+03  0.4802E+03
     -0.629  0.7278E+02  0.7497E+02  0.4842E+03  0.4840E+03
     -0.579  0.4215E+02  0.4518E+02  0.4863E+03  0.4863E+03
     -0.529  0.2781E+02  0.2729E+02  0.4877E+03  0.4876E+03
     -0.478  0.1548E+02  0.1733E+02  0.4885E+03  0.4885E+03
     -0.428  0.3501E+02  0.3249E+02  0.4903E+03  0.4901E+03
     -0.377  0.2453E+02  0.2463E+02  0.4915E+03  0.4914E+03
     -0.327  0.5387E+02  0.5528E+02  0.4942E+03  0.4942E+03
     -0.277  0.4281E+02  0.4254E+02  0.4964E+03  0.4963E+03
     -0.226  0.2679E+02  0.2380E+02  0.4977E+03  0.4975E+03
     -0.176  0.8356E+02  0.8457E+02  0.5019E+03  0.5018E+03
     -0.126  0.3363E+02  0.3472E+02  0.5036E+03  0.5035E+03
     -0.075  0.5655E+02  0.5339E+02  0.5065E+03  0.5062E+03
     -0.025  0.8170E+02  0.8600E+02  0.5106E+03  0.5105E+03
      0.026  0.6516E+02  0.5743E+02  0.5139E+03  0.5134E+03
      0.076  0.1352E+03  0.1398E+03  0.5207E+03  0.5205E+03
      0.126  0.9988E+02  0.9659E+02  0.5257E+03  0.5253E+03
      0.177  0.1265E+03  0.1254E+03  0.5321E+03  0.5317E+03
      0.227  0.1619E+03  0.1623E+03  0.5403E+03  0.5398E+03
      0.278  0.1153E+03  0.1182E+03  0.5461E+03  0.5458E+03
      0.328  0.1228E+03  0.1188E+03  0.5523E+03  0.5518E+03
      0.378  0.8811E+02  0.8608E+02  0.5567E+03  0.5561E+03
      0.429  0.1178E+03  0.1246E+03  0.5626E+03  0.5624E+03
      0.479  0.1302E+03  0.1265E+03  0.5692E+03  0.5688E+03
      0.529  0.1017E+03  0.1040E+03  0.5743E+03  0.5740E+03
      0.580  0.6722E+02  0.6994E+02  0.5777E+03  0.5775E+03
      0.630  0.9320E+02  0.9206E+02  0.5824E+03  0.5822E+03
      0.681  0.1528E+03  0.1475E+03  0.5901E+03  0.5896E+03
      0.731  0.1597E+03  0.1609E+03  0.5981E+03  0.5977E+03
      0.781  0.1462E+03  0.1483E+03  0.6055E+03  0.6052E+03
      0.832  0.2071E+03  0.1981E+03  0.6159E+03  0.6152E+03
      0.882  0.1530E+03  0.1646E+03  0.6236E+03  0.6235E+03
      0.933  0.1109E+03  0.1063E+03  0.6292E+03  0.6288E+03
      0.983  0.1787E+03  0.1749E+03  0.6382E+03  0.6376E+03
      1.033  0.1872E+03  0.1923E+03  0.6477E+03  0.6473E+03
      1.084  0.1497E+03  0.1501E+03  0.6552E+03  0.6549E+03
      1.134  0.2025E+03  0.1979E+03  0.6654E+03  0.6649E+03
      1.185  0.1398E+03  0.1409E+03  0.6725E+03  0.6720E+03
      1.235  0.2102E+03  0.2115E+03  0.6830E+03  0.6826E+03
      1.285  0.1631E+03  0.1678E+03  0.6913E+03  0.6911E+03
      1.336  0.1269E+03  0.1273E+03  0.6977E+03  0.6975E+03
      1.386  0.1723E+03  0.1644E+03  0.7063E+03  0.7058E+03
      1.436  0.1837E+03  0.1842E+03  0.7156E+03  0.7150E+03
      1.487  0.2297E+03  0.2267E+03  0.7272E+03  0.7265E+03
      1.537  0.2347E+03  0.2399E+03  0.7390E+03  0.7386E+03
      1.588  0.1499E+03  0.1517E+03  0.7465E+03  0.7462E+03
      1.638  0.1557E+03  0.1543E+03  0.7544E+03  0.7540E+03
      1.688  0.1925E+03  0.1876E+03  0.7641E+03  0.7634E+03
      1.739  0.1831E+03  0.1881E+03  0.7733E+03  0.7729E+03
      1.789  0.1636E+03  0.1580E+03  0.7816E+03  0.7809E+03
      1.840  0.1972E+03  0.2035E+03  0.7915E+03  0.7911E+03
      1.890  0.1677E+03  0.1632E+03  0.7999E+03  0.7993E+03
      1.940  0.1844E+03  0.1870E+03  0.8092E+03  0.8088E+03
      1.991  0.1816E+03  0.1833E+03  0.8184E+03  0.8180E+03
      2.041  0.2209E+03  0.2157E+03  0.8295E+03  0.8289E+03
      2.091  0.1655E+03  0.1714E+03  0.8379E+03  0.8375E+03
      2.142  0.1757E+03  0.1785E+03  0.8467E+03  0.8465E+03
      2.192  0.1170E+03  0.1102E+03  0.8526E+03  0.8521E+03
      2.243  0.1680E+03  0.1656E+03  0.8611E+03  0.8604E+03
      2.293  0.1636E+03  0.1683E+03  0.8693E+03  0.8689E+03
      2.343  0.2009E+03  0.1951E+03  0.8794E+03  0.8787E+03
      2.394  0.1791E+03  0.1855E+03  0.8885E+03  0.8881E+03
      2.444  0.1175E+03  0.1164E+03  0.8944E+03  0.8939E+03
      2.495  0.1380E+03  0.1414E+03  0.9013E+03  0.9010E+03
      2.545  0.1056E+03  0.9721E+02  0.9067E+03  0.9059E+03
      2.595  0.1717E+03  0.1738E+03  0.9153E+03  0.9147E+03
      2.646  0.1515E+03  0.1490E+03  0.9229E+03  0.9222E+03
      2.696  0.1199E+03  0.1192E+03  0.9290E+03  0.9282E+03
      2.746  0.1856E+03  0.1870E+03  0.9383E+03  0.9376E+03
      2.797  0.1169E+03  0.1214E+03  0.9442E+03  0.9437E+03
      2.847  0.1777E+03  0.1794E+03  0.9532E+03  0.9528E+03
      2.898  0.8745E+02  0.9153E+02  0.9576E+03  0.9574E+03
      2.948  0.1341E+03  0.1244E+03  0.9643E+03  0.9637E+03
      2.998  0.1272E+03  0.1335E+03  0.9707E+03  0.9704E+03
      3.049  0.1027E+03  0.9781E+02  0.9759E+03  0.9753E+03
      3.099  0.1194E+03  0.1235E+03  0.9819E+03  0.9815E+03
      3.150  0.1166E+03  0.1065E+03  0.9878E+03  0.9869E+03
      3.200  0.1094E+03  0.1235E+03  0.9933E+03  0.9931E+03
      3.250  0.1011E+03  0.9787E+02  0.9984E+03  0.9981E+03
      3.301  0.1211E+03  0.1148E+03  0.1005E+04  0.1004E+04
      3.351  0.7897E+02  0.8131E+02  0.1009E+04  0.1008E+04
      3.402  0.7895E+02  0.8724E+02  0.1012E+04  0.1012E+04
      3.452  0.6991E+02  0.5631E+02  0.1016E+04  0.1015E+04
      3.502  0.1003E+03  0.1110E+03  0.1021E+04  0.1021E+04
      3.553  0.7778E+02  0.7121E+02  0.1025E+04  0.1024E+04
      3.603  0.1190E+03  0.1180E+03  0.1031E+04  0.1030E+04
      3.653  0.4407E+02  0.5372E+02  0.1033E+04  0.1033E+04
      3.704  0.6256E+02  0.5060E+02  0.1036E+04  0.1036E+04
      3.754  0.3707E+02  0.4298E+02  0.1038E+04  0.1038E+04
      3.805  0.5035E+02  0.4804E+02  0.1041E+04  0.1040E+04
      3.855  0.2407E+02  0.3230E+02  0.1042E+04  0.1042E+04
      3.905  0.5029E+02  0.4814E+02  0.1044E+04  0.1044E+04
      3.956  0.5572E+02  0.4150E+02  0.1047E+04  0.1046E+04
      4.006  0.4932E+02  0.5397E+02  0.1050E+04  0.1049E+04
      4.057  0.5995E+02  0.5422E+02  0.1053E+04  0.1052E+04
      4.107  0.1204E+03  0.1296E+03  0.1059E+04  0.1058E+04
      4.157  0.9210E+02  0.9118E+02  0.1064E+04  0.1063E+04
      4.208  0.1116E+03  0.1066E+03  0.1069E+04  0.1068E+04
      4.258  0.7540E+02  0.8067E+02  0.1073E+04  0.1072E+04
      4.308  0.9608E+02  0.9101E+02  0.1078E+04  0.1077E+04
      4.359  0.8345E+02  0.8102E+02  0.1082E+04  0.1081E+04
      4.409  0.1222E+03  0.1191E+03  0.1088E+04  0.1087E+04
      4.460  0.1161E+03  0.1251E+03  0.1094E+04  0.1093E+04
      4.510  0.1476E+03  0.1402E+03  0.1101E+04  0.1100E+04
      4.560  0.1053E+03  0.1127E+03  0.1107E+04  0.1106E+04
      4.611  0.5576E+02  0.6101E+02  0.1110E+04  0.1109E+04
      4.661  0.1130E+03  0.1047E+03  0.1115E+04  0.1114E+04
      4.712  0.1359E+03  0.1232E+03  0.1122E+04  0.1121E+04
      4.762  0.1114E+03  0.1274E+03  0.1128E+04  0.1127E+04
      4.812  0.6210E+02  0.6844E+02  0.1131E+04  0.1130E+04
      4.863  0.1913E+03  0.1812E+03  0.1140E+04  0.1140E+04
      4.913  0.1242E+03  0.1306E+03  0.1147E+04  0.1146E+04
      4.963  0.9191E+02  0.8355E+02  0.1151E+04  0.1150E+04
      5.014  0.1298E+03  0.1311E+03  0.1158E+04  0.1157E+04
      5.064  0.1398E+03  0.1462E+03  0.1165E+04  0.1164E+04
      5.115  0.1544E+03  0.1405E+03  0.1173E+04  0.1171E+04
      5.165  0.9966E+02  0.1203E+03  0.1178E+04  0.1177E+04
      5.215  0.9902E+02  0.9930E+02  0.1183E+04  0.1182E+04
      5.266  0.1049E+03  0.9950E+02  0.1188E+04  0.1187E+04
      5.316  0.1006E+03  0.1018E+03  0.1193E+04  0.1193E+04
      5.367  0.1388E+03  0.1277E+03  0.1200E+04  0.1199E+04
      5.417  0.1536E+03  0.1554E+03  0.1208E+04  0.1207E+04
      5.467  0.1153E+03  0.1266E+03  0.1214E+04  0.1213E+04
      5.518  0.9840E+02  0.9939E+02  0.1219E+04  0.1218E+04
      5.568  0.1771E+03  0.1672E+03  0.1228E+04  0.1227E+04
      5.619  0.1366E+03  0.1399E+03  0.1234E+04  0.1234E+04
      5.669  0.1181E+03  0.1092E+03  0.1240E+04  0.1239E+04
      5.719  0.1106E+03  0.1226E+03  0.1246E+04  0.1245E+04
      5.770  0.1362E+03  0.1376E+03  0.1253E+04  0.1252E+04
      5.820  0.1173E+03  0.1158E+03  0.1259E+04  0.1258E+04
      5.870  0.1134E+03  0.1164E+03  0.1264E+04  0.1264E+04
      5.921  0.9419E+02  0.9784E+02  0.1269E+04  0.1269E+04
      5.971  0.4645E+02  0.4629E+02  0.1272E+04  0.1271E+04
      6.022  0.9920E+01  0.1353E+02  0.1272E+04  0.1272E+04
      6.072  0.0000E+00  0.0000E+00  0.1272E+04  0.1272E+04
      6.122  0.0000E+00  0.0000E+00  0.1272E+04  0.1272E+04
      6.173  0.0000E+00  0.0000E+00  0.1272E+04  0.1272E+04
      6.223  0.0000E+00  0.0000E+00  0.1272E+04  0.1272E+04
      6.274  0.0000E+00  0.0000E+00  0.1272E+04  0.1272E+04
      6.324  0.0000E+00  0.0000E+00  0.1272E+04  0.1272E+04
      6.374  0.0000E+00  0.0000E+00  0.1272E+04  0.1272E+04
      6.425  0.0000E+00  0.0000E+00  0.1272E+04  0.1272E+04
      6.475  0.0000E+00  0.0000E+00  0.1272E+04  0.1272E+04
      6.525  0.0000E+00  0.0000E+00  0.1272E+04  0.1272E+04
      6.576  0.0000E+00  0.0000E+00  0.1272E+04  0.1272E+04
      6.626  0.0000E+00  0.0000E+00  0.1272E+04  0.1272E+04
      6.677  0.0000E+00  0.0000E+00  0.1272E+04  0.1272E+04
