Si and Ge interface calculation         
           1
    12.651226    0.000000    0.000000
   -10.120981    7.590735    0.000000
     0.000000    0.000000   11.810114
   Ge
    48
Direct configuration=     1
   0.34472227  0.67236114  0.00000000
   0.67805564  0.83902782  0.23953196
   0.01138902  0.00569463  0.47906396
   0.01138897  0.00569449  0.00000000
   0.34472233  0.17236123  0.23953196
   0.67805570  0.33902797  0.47906396
   0.67805564  0.33902782  0.00000000
   0.01138890  0.50569451  0.23953196
   0.34472239  0.67236131  0.47906396
   0.09472227  0.92236114  0.11976598
   0.42805564  0.08902788  0.35929796
   0.76138902  0.25569463  0.59882999
   0.42805564  0.58902788  0.11976598
   0.76138902  0.75569457  0.35929796
   0.09472239  0.92236137  0.59882999
   0.76138890  0.25569448  0.11976598
   0.09472239  0.42236123  0.35929796
   0.42805564  0.58902794  0.59882999
   0.17805557  0.83902770  0.00000000
   0.51138896  0.00569451  0.23953196
   0.84472227  0.17236114  0.47906396
   0.51138896  0.50569451  0.00000000
   0.84472227  0.67236120  0.23953196
   0.17805564  0.83902794  0.47906396
   0.84472233  0.17236118  0.00000000
   0.17805564  0.33902791  0.23953196
   0.51138902  0.50569463  0.47906396
   0.26138896  0.75569445  0.11976598
   0.59472233  0.92236120  0.35929796
   0.92805576  0.08902800  0.59882999
   0.59472233  0.42236116  0.11976598
   0.92805570  0.58902788  0.35929796
   0.26138902  0.75569463  0.59882999
   0.92805564  0.08902787  0.11976598
   0.26138902  0.25569463  0.35929796
   0.59472239  0.42236134  0.59882999
   0.31478167  0.20094192  0.69961000
   0.20367050  0.81205291  0.77945399
   0.09255934  0.42316401  0.85929799
   0.81478155  0.70094186  0.69961000
   0.70367038  0.31205291  0.77945399
   0.59255922  0.92316395  0.85929799
   0.00922585  0.00649738  0.73953187
   0.89811480  0.61760843  0.81937599
   0.78700358  0.22871959  0.89921999
   0.50922596  0.50649738  0.73953187
   0.39811486  0.11760843  0.81937599
   0.28700376  0.72871941  0.89921999
