  48  48   0   0
  0.1668662E+02  0.7680595E-09  0.1214409E-08  0.9051669E-09  0.5000000E-15
  1.000000000000000E-004
  CAR 
 Si and Ge interface calculation         
     10.93139645     -8.87680418  301      8.00688763      1.00000000
     -8.877  0.0000E+00  0.0000E+00  0.0000E+00  0.0000E+00
     -8.811  0.0000E+00  0.0000E+00  0.0000E+00  0.0000E+00
     -8.745  0.0000E+00  0.0000E+00  0.0000E+00  0.0000E+00
     -8.679  0.0000E+00  0.0000E+00  0.0000E+00  0.0000E+00
     -8.613  0.0000E+00  0.0000E+00  0.0000E+00  0.0000E+00
     -8.547  0.0000E+00  0.0000E+00  0.0000E+00  0.0000E+00
     -8.481  0.0000E+00  0.0000E+00  0.0000E+00  0.0000E+00
     -8.415  0.0000E+00  0.0000E+00  0.0000E+00  0.0000E+00
     -8.349  0.0000E+00  0.0000E+00  0.0000E+00  0.0000E+00
     -8.283  0.0000E+00  0.0000E+00  0.0000E+00  0.0000E+00
     -8.217  0.0000E+00  0.0000E+00  0.0000E+00  0.0000E+00
     -8.151  0.0000E+00  0.0000E+00  0.0000E+00  0.0000E+00
     -8.084  0.0000E+00  0.0000E+00  0.0000E+00  0.0000E+00
     -8.018  0.1192E-08  0.0000E+00  0.7869E-10  0.0000E+00
     -7.952  0.7309E+01  0.3338E+00  0.4826E+00  0.2204E-01
     -7.886  0.1312E+01  0.7239E+01  0.5712E+00  0.5000E+00
     -7.820  0.1407E+02  0.1513E+02  0.1500E+01  0.1499E+01
     -7.754  0.0000E+00  0.0000E+00  0.1500E+01  0.1500E+01
     -7.688  0.1121E-14  0.0000E+00  0.1500E+01  0.1500E+01
     -7.622  0.9892E+01  0.7444E-02  0.2153E+01  0.1500E+01
     -7.556  0.5253E+01  0.1514E+02  0.2500E+01  0.2500E+01
     -7.490  0.0000E+00  0.0000E+00  0.2500E+01  0.2500E+01
     -7.424  0.0000E+00  0.0000E+00  0.2500E+01  0.2500E+01
     -7.358  0.6174E-03  0.3354E-13  0.2500E+01  0.2500E+01
     -7.292  0.1514E+02  0.1306E+02  0.3500E+01  0.3362E+01
     -7.226  0.1074E+00  0.2083E+01  0.3507E+01  0.3500E+01
     -7.160  0.1503E+02  0.7488E+01  0.4500E+01  0.3994E+01
     -7.094  0.4127E+01  0.7629E+01  0.4773E+01  0.4500E+01
     -7.028  0.1102E+02  0.1278E+02  0.5500E+01  0.5344E+01
     -6.962  0.0000E+00  0.2365E+01  0.5500E+01  0.5500E+01
     -6.896  0.0000E+00  0.0000E+00  0.5500E+01  0.5500E+01
     -6.830  0.0000E+00  0.0000E+00  0.5500E+01  0.5500E+01
     -6.764  0.9295E+00  0.1542E-08  0.5561E+01  0.5500E+01
     -6.698  0.1422E+02  0.9156E+01  0.6500E+01  0.6105E+01
     -6.632  0.0000E+00  0.5977E+01  0.6500E+01  0.6500E+01
     -6.566  0.0000E+00  0.0000E+00  0.6500E+01  0.6500E+01
     -6.500  0.0000E+00  0.0000E+00  0.6500E+01  0.6500E+01
     -6.434  0.0000E+00  0.0000E+00  0.6500E+01  0.6500E+01
     -6.368  0.0000E+00  0.0000E+00  0.6500E+01  0.6500E+01
     -6.302  0.1626E-02  0.0000E+00  0.6500E+01  0.6500E+01
     -6.236  0.1489E+02  0.4426E+01  0.7483E+01  0.6792E+01
     -6.170  0.6850E+01  0.1322E+02  0.7935E+01  0.7665E+01
     -6.104  0.3615E+01  0.5041E+01  0.8176E+01  0.8000E+01
     -6.038  0.1234E+02  0.1031E+02  0.8990E+01  0.8681E+01
     -5.972  0.3508E+01  0.4820E+01  0.9222E+01  0.9001E+01
     -5.906  0.4206E+01  0.7549E+01  0.9500E+01  0.9499E+01
     -5.840  0.2103E-04  0.0000E+00  0.9500E+01  0.9500E+01
     -5.774  0.9571E+01  0.2649E+01  0.1013E+02  0.9675E+01
     -5.707  0.5574E+01  0.1232E+02  0.1050E+02  0.1049E+02
     -5.641  0.0000E+00  0.1653E+00  0.1050E+02  0.1050E+02
     -5.575  0.0000E+00  0.0000E+00  0.1050E+02  0.1050E+02
     -5.509  0.0000E+00  0.0000E+00  0.1050E+02  0.1050E+02
     -5.443  0.1992E-02  0.1401E-14  0.1050E+02  0.1050E+02
     -5.377  0.9974E+01  0.4483E+01  0.1116E+02  0.1080E+02
     -5.311  0.5169E+01  0.1066E+02  0.1150E+02  0.1150E+02
     -5.245  0.9447E-12  0.0000E+00  0.1150E+02  0.1150E+02
     -5.179  0.4938E+01  0.1448E-01  0.1183E+02  0.1150E+02
     -5.113  0.2610E+01  0.6370E+01  0.1200E+02  0.1192E+02
     -5.047  0.0000E+00  0.1188E+01  0.1200E+02  0.1200E+02
     -4.981  0.0000E+00  0.0000E+00  0.1200E+02  0.1200E+02
     -4.915  0.0000E+00  0.0000E+00  0.1200E+02  0.1200E+02
     -4.849  0.0000E+00  0.0000E+00  0.1200E+02  0.1200E+02
     -4.783  0.0000E+00  0.0000E+00  0.1200E+02  0.1200E+02
     -4.717  0.0000E+00  0.0000E+00  0.1200E+02  0.1200E+02
     -4.651  0.0000E+00  0.0000E+00  0.1200E+02  0.1200E+02
     -4.585  0.0000E+00  0.0000E+00  0.1200E+02  0.1200E+02
     -4.519  0.0000E+00  0.0000E+00  0.1200E+02  0.1200E+02
     -4.453  0.0000E+00  0.0000E+00  0.1200E+02  0.1200E+02
     -4.387  0.3129E-13  0.0000E+00  0.1200E+02  0.1200E+02
     -4.321  0.3189E+01  0.2199E+00  0.1221E+02  0.1201E+02
     -4.255  0.2837E+01  0.4488E+01  0.1240E+02  0.1231E+02
     -4.189  0.4570E+01  0.3720E+01  0.1270E+02  0.1256E+02
     -4.123  0.7914E+01  0.9116E+01  0.1322E+02  0.1316E+02
     -4.057  0.1938E+01  0.9928E+00  0.1335E+02  0.1322E+02
     -3.991  0.7357E+01  0.6632E+01  0.1384E+02  0.1366E+02
     -3.925  0.8461E+01  0.7972E+01  0.1440E+02  0.1419E+02
     -3.859  0.7981E+01  0.9257E+01  0.1492E+02  0.1480E+02
     -3.793  0.7078E+01  0.7924E+01  0.1539E+02  0.1533E+02
     -3.727  0.4575E+01  0.1769E+01  0.1569E+02  0.1544E+02
     -3.661  0.1495E+02  0.1473E+02  0.1668E+02  0.1642E+02
     -3.595  0.1407E+02  0.1121E+02  0.1761E+02  0.1716E+02
     -3.529  0.1422E+02  0.1788E+02  0.1855E+02  0.1834E+02
     -3.463  0.8543E+01  0.8953E+01  0.1911E+02  0.1893E+02
     -3.397  0.9961E+01  0.1004E+02  0.1977E+02  0.1959E+02
     -3.331  0.1076E+02  0.7448E+01  0.2048E+02  0.2008E+02
     -3.264  0.1172E+02  0.9805E+01  0.2126E+02  0.2073E+02
     -3.198  0.9709E+01  0.1706E+02  0.2190E+02  0.2186E+02
     -3.132  0.1340E+02  0.1125E+02  0.2278E+02  0.2260E+02
     -3.066  0.9973E+01  0.1180E+02  0.2344E+02  0.2338E+02
     -3.000  0.8750E+01  0.6162E+01  0.2402E+02  0.2379E+02
     -2.934  0.8930E+01  0.1227E+02  0.2461E+02  0.2460E+02
     -2.868  0.8736E+01  0.6304E+01  0.2519E+02  0.2502E+02
     -2.802  0.1247E+02  0.1225E+02  0.2601E+02  0.2583E+02
     -2.736  0.1141E+02  0.1121E+02  0.2677E+02  0.2657E+02
     -2.670  0.1198E+02  0.1125E+02  0.2756E+02  0.2731E+02
     -2.604  0.1557E+02  0.1388E+02  0.2859E+02  0.2823E+02
     -2.538  0.1630E+02  0.1112E+02  0.2966E+02  0.2896E+02
     -2.472  0.1181E+02  0.2013E+02  0.3045E+02  0.3029E+02
     -2.406  0.1038E+02  0.1019E+02  0.3113E+02  0.3096E+02
     -2.340  0.1220E+02  0.1244E+02  0.3194E+02  0.3179E+02
     -2.274  0.1692E+02  0.1318E+02  0.3306E+02  0.3266E+02
     -2.208  0.1378E+02  0.1733E+02  0.3397E+02  0.3380E+02
     -2.142  0.1123E+02  0.1015E+02  0.3471E+02  0.3447E+02
     -2.076  0.1699E+02  0.1253E+02  0.3583E+02  0.3530E+02
     -2.010  0.1254E+02  0.1485E+02  0.3667E+02  0.3628E+02
     -1.944  0.1110E+02  0.1093E+02  0.3740E+02  0.3700E+02
     -1.878  0.8896E+01  0.1211E+02  0.3799E+02  0.3780E+02
     -1.812  0.9467E+01  0.5993E+01  0.3861E+02  0.3820E+02
     -1.746  0.1359E+02  0.1734E+02  0.3951E+02  0.3934E+02
     -1.680  0.1040E+02  0.9501E+01  0.4020E+02  0.3997E+02
     -1.614  0.7128E+01  0.9036E+01  0.4067E+02  0.4057E+02
     -1.548  0.1779E+02  0.1228E+02  0.4184E+02  0.4138E+02
     -1.482  0.9555E+01  0.1158E+02  0.4248E+02  0.4215E+02
     -1.416  0.9747E+01  0.1032E+02  0.4312E+02  0.4283E+02
     -1.350  0.2368E+02  0.2023E+02  0.4469E+02  0.4416E+02
     -1.284  0.1361E+02  0.1628E+02  0.4559E+02  0.4524E+02
     -1.218  0.1396E+02  0.1873E+02  0.4651E+02  0.4648E+02
     -1.152  0.1044E+02  0.7209E+01  0.4720E+02  0.4695E+02
     -1.086  0.1143E+02  0.1227E+02  0.4795E+02  0.4776E+02
     -1.020  0.1093E+02  0.1047E+02  0.4868E+02  0.4846E+02
     -0.954  0.1349E+02  0.1258E+02  0.4957E+02  0.4929E+02
     -0.887  0.1407E+02  0.1191E+02  0.5050E+02  0.5008E+02
     -0.821  0.1153E+02  0.1298E+02  0.5126E+02  0.5094E+02
     -0.755  0.6730E+01  0.1053E+02  0.5170E+02  0.5163E+02
     -0.689  0.9825E+01  0.6357E+01  0.5235E+02  0.5205E+02
     -0.623  0.1090E+02  0.1102E+02  0.5307E+02  0.5278E+02
     -0.557  0.1506E+02  0.1258E+02  0.5407E+02  0.5361E+02
     -0.491  0.1739E+02  0.1762E+02  0.5522E+02  0.5477E+02
     -0.425  0.1185E+02  0.1395E+02  0.5600E+02  0.5570E+02
     -0.359  0.8180E+01  0.7819E+01  0.5654E+02  0.5621E+02
     -0.293  0.1280E+02  0.1469E+02  0.5739E+02  0.5718E+02
     -0.227  0.1506E+02  0.1280E+02  0.5838E+02  0.5803E+02
     -0.161  0.1223E+02  0.1099E+02  0.5919E+02  0.5876E+02
     -0.095  0.1622E+02  0.1816E+02  0.6026E+02  0.5996E+02
     -0.029  0.8640E+01  0.1194E+02  0.6083E+02  0.6074E+02
      0.037  0.7985E+01  0.4099E+01  0.6136E+02  0.6101E+02
      0.103  0.1469E+02  0.1506E+02  0.6233E+02  0.6201E+02
      0.169  0.1360E+02  0.1536E+02  0.6323E+02  0.6302E+02
      0.235  0.1197E+02  0.9471E+01  0.6402E+02  0.6365E+02
      0.301  0.2386E+01  0.6145E+01  0.6418E+02  0.6406E+02
      0.367  0.1470E+02  0.1369E+02  0.6515E+02  0.6496E+02
      0.433  0.8181E+01  0.7413E+01  0.6569E+02  0.6545E+02
      0.499  0.1999E+02  0.1672E+02  0.6701E+02  0.6656E+02
      0.565  0.1162E+02  0.1608E+02  0.6778E+02  0.6762E+02
      0.631  0.5786E+01  0.5312E+01  0.6816E+02  0.6797E+02
      0.697  0.7086E+01  0.5389E+01  0.6863E+02  0.6833E+02
      0.763  0.2407E+02  0.1990E+02  0.7022E+02  0.6964E+02
      0.829  0.1417E+02  0.1940E+02  0.7116E+02  0.7092E+02
      0.895  0.6086E+01  0.7963E+01  0.7156E+02  0.7145E+02
      0.961  0.1074E+02  0.7070E+01  0.7227E+02  0.7192E+02
      1.027  0.9898E+01  0.1021E+02  0.7293E+02  0.7259E+02
      1.093  0.1336E+02  0.1422E+02  0.7381E+02  0.7353E+02
      1.159  0.1796E+02  0.1382E+02  0.7500E+02  0.7444E+02
      1.225  0.1158E+02  0.1722E+02  0.7576E+02  0.7558E+02
      1.291  0.1508E+02  0.1372E+02  0.7676E+02  0.7649E+02
      1.357  0.2030E+02  0.1824E+02  0.7810E+02  0.7769E+02
      1.423  0.1146E+02  0.1379E+02  0.7886E+02  0.7861E+02
      1.489  0.1027E+02  0.8357E+01  0.7954E+02  0.7916E+02
      1.556  0.3202E+02  0.2130E+02  0.8165E+02  0.8057E+02
      1.622  0.2001E+02  0.2682E+02  0.8298E+02  0.8234E+02
      1.688  0.1989E+02  0.1867E+02  0.8429E+02  0.8357E+02
      1.754  0.1921E+02  0.2384E+02  0.8556E+02  0.8514E+02
      1.820  0.1178E+02  0.1530E+02  0.8634E+02  0.8616E+02
      1.886  0.1056E+02  0.7980E+01  0.8704E+02  0.8668E+02
      1.952  0.1908E+02  0.1948E+02  0.8830E+02  0.8797E+02
      2.018  0.1301E+02  0.1244E+02  0.8916E+02  0.8879E+02
      2.084  0.1365E+02  0.1288E+02  0.9006E+02  0.8964E+02
      2.150  0.1725E+02  0.1801E+02  0.9120E+02  0.9083E+02
      2.216  0.1873E+02  0.1436E+02  0.9244E+02  0.9178E+02
      2.282  0.1287E+02  0.2099E+02  0.9329E+02  0.9317E+02
      2.348  0.1807E+02  0.1351E+02  0.9448E+02  0.9406E+02
      2.414  0.1331E+02  0.1468E+02  0.9536E+02  0.9503E+02
      2.480  0.1906E+02  0.1893E+02  0.9662E+02  0.9628E+02
      2.546  0.1856E+02  0.1738E+02  0.9785E+02  0.9743E+02
      2.612  0.1400E+02  0.1735E+02  0.9877E+02  0.9858E+02
      2.678  0.1259E+02  0.1176E+02  0.9960E+02  0.9935E+02
      2.744  0.1538E+02  0.1104E+02  0.1006E+03  0.1001E+03
      2.810  0.1230E+02  0.1477E+02  0.1014E+03  0.1011E+03
      2.876  0.1532E+02  0.1722E+02  0.1024E+03  0.1022E+03
      2.942  0.7187E+01  0.6467E+01  0.1029E+03  0.1026E+03
      3.008  0.1277E+02  0.1212E+02  0.1038E+03  0.1034E+03
      3.074  0.1153E+02  0.1297E+02  0.1045E+03  0.1043E+03
      3.140  0.1613E+02  0.1741E+02  0.1056E+03  0.1054E+03
      3.206  0.8782E+01  0.9577E+01  0.1062E+03  0.1061E+03
      3.272  0.1118E+02  0.9932E+01  0.1069E+03  0.1067E+03
      3.338  0.2307E+02  0.1790E+02  0.1084E+03  0.1079E+03
      3.404  0.1118E+02  0.1675E+02  0.1092E+03  0.1090E+03
      3.470  0.2492E+02  0.1790E+02  0.1108E+03  0.1102E+03
      3.536  0.1496E+02  0.1960E+02  0.1118E+03  0.1115E+03
      3.602  0.2094E+02  0.2124E+02  0.1132E+03  0.1129E+03
      3.668  0.2690E+02  0.2032E+02  0.1150E+03  0.1142E+03
      3.734  0.1427E+02  0.2034E+02  0.1159E+03  0.1156E+03
      3.800  0.8206E+01  0.8245E+01  0.1165E+03  0.1161E+03
      3.866  0.2335E+02  0.2093E+02  0.1180E+03  0.1175E+03
      3.932  0.2056E+02  0.2059E+02  0.1194E+03  0.1189E+03
      3.999  0.1097E+02  0.1351E+02  0.1201E+03  0.1198E+03
      4.065  0.1776E+02  0.1580E+02  0.1213E+03  0.1208E+03
      4.131  0.2231E+02  0.2253E+02  0.1227E+03  0.1223E+03
      4.197  0.9458E+01  0.1204E+02  0.1234E+03  0.1231E+03
      4.263  0.3049E+02  0.2773E+02  0.1254E+03  0.1249E+03
      4.329  0.1868E+02  0.2032E+02  0.1266E+03  0.1263E+03
      4.395  0.2131E+02  0.2178E+02  0.1280E+03  0.1277E+03
      4.461  0.1730E+02  0.2026E+02  0.1292E+03  0.1290E+03
      4.527  0.1890E+02  0.1371E+02  0.1304E+03  0.1300E+03
      4.593  0.2030E+02  0.1891E+02  0.1317E+03  0.1312E+03
      4.659  0.2400E+02  0.2770E+02  0.1333E+03  0.1330E+03
      4.725  0.2955E+02  0.2505E+02  0.1353E+03  0.1347E+03
      4.791  0.1950E+02  0.2363E+02  0.1366E+03  0.1363E+03
      4.857  0.2475E+02  0.2415E+02  0.1382E+03  0.1378E+03
      4.923  0.2104E+02  0.1756E+02  0.1396E+03  0.1390E+03
      4.989  0.2006E+02  0.2388E+02  0.1409E+03  0.1406E+03
      5.055  0.1070E+02  0.1325E+02  0.1416E+03  0.1415E+03
      5.121  0.2197E+02  0.1870E+02  0.1431E+03  0.1427E+03
      5.187  0.2210E+02  0.1714E+02  0.1446E+03  0.1438E+03
      5.253  0.2012E+02  0.2596E+02  0.1459E+03  0.1455E+03
      5.319  0.2625E+02  0.2586E+02  0.1476E+03  0.1473E+03
      5.385  0.2849E+02  0.2658E+02  0.1495E+03  0.1490E+03
      5.451  0.2325E+02  0.2261E+02  0.1510E+03  0.1505E+03
      5.517  0.2019E+02  0.2007E+02  0.1524E+03  0.1518E+03
      5.583  0.1856E+02  0.2272E+02  0.1536E+03  0.1533E+03
      5.649  0.2442E+02  0.2046E+02  0.1552E+03  0.1547E+03
      5.715  0.1795E+02  0.1422E+02  0.1564E+03  0.1556E+03
      5.781  0.2640E+02  0.2911E+02  0.1581E+03  0.1575E+03
      5.847  0.2030E+02  0.2240E+02  0.1595E+03  0.1590E+03
      5.913  0.2045E+02  0.2397E+02  0.1608E+03  0.1606E+03
      5.979  0.1839E+02  0.1695E+02  0.1621E+03  0.1617E+03
      6.045  0.2290E+02  0.1736E+02  0.1636E+03  0.1629E+03
      6.111  0.2191E+02  0.2682E+02  0.1650E+03  0.1647E+03
      6.177  0.1146E+02  0.1481E+02  0.1658E+03  0.1656E+03
      6.243  0.1266E+02  0.1466E+02  0.1666E+03  0.1666E+03
      6.309  0.2312E+02  0.1374E+02  0.1681E+03  0.1675E+03
      6.376  0.1738E+02  0.2177E+02  0.1693E+03  0.1690E+03
      6.442  0.1706E+02  0.1495E+02  0.1704E+03  0.1699E+03
      6.508  0.1157E+02  0.1192E+02  0.1712E+03  0.1707E+03
      6.574  0.1725E+02  0.1807E+02  0.1723E+03  0.1719E+03
      6.640  0.1383E+02  0.1385E+02  0.1732E+03  0.1728E+03
      6.706  0.1601E+02  0.2066E+02  0.1743E+03  0.1742E+03
      6.772  0.1037E+02  0.7151E+01  0.1750E+03  0.1747E+03
      6.838  0.1335E+02  0.1379E+02  0.1759E+03  0.1756E+03
      6.904  0.1249E+02  0.1016E+02  0.1767E+03  0.1763E+03
      6.970  0.1246E+02  0.1205E+02  0.1775E+03  0.1771E+03
      7.036  0.1435E+02  0.1199E+02  0.1785E+03  0.1778E+03
      7.102  0.1270E+02  0.1521E+02  0.1793E+03  0.1788E+03
      7.168  0.1434E+02  0.1647E+02  0.1803E+03  0.1799E+03
      7.234  0.1980E+02  0.1769E+02  0.1816E+03  0.1811E+03
      7.300  0.1076E+02  0.1465E+02  0.1823E+03  0.1821E+03
      7.366  0.4710E+01  0.3971E+01  0.1826E+03  0.1823E+03
      7.432  0.7219E+01  0.7436E+01  0.1831E+03  0.1828E+03
      7.498  0.1554E+02  0.1016E+02  0.1841E+03  0.1835E+03
      7.564  0.1297E+02  0.1636E+02  0.1849E+03  0.1846E+03
      7.630  0.1143E+02  0.1045E+02  0.1857E+03  0.1853E+03
      7.696  0.1389E+02  0.1263E+02  0.1866E+03  0.1861E+03
      7.762  0.2287E+02  0.2152E+02  0.1881E+03  0.1875E+03
      7.828  0.1015E+02  0.1344E+02  0.1888E+03  0.1884E+03
      7.894  0.1842E+02  0.1512E+02  0.1900E+03  0.1894E+03
      7.960  0.1158E+02  0.1738E+02  0.1908E+03  0.1906E+03
      8.026  0.1445E+02  0.1051E+02  0.1917E+03  0.1913E+03
      8.092  0.1767E+02  0.1220E+02  0.1929E+03  0.1921E+03
      8.158  0.1540E+02  0.2008E+02  0.1939E+03  0.1934E+03
      8.224  0.1157E+02  0.9347E+01  0.1947E+03  0.1940E+03
      8.290  0.1655E+02  0.1843E+02  0.1958E+03  0.1952E+03
      8.356  0.2644E+02  0.2097E+02  0.1975E+03  0.1966E+03
      8.422  0.1965E+02  0.1932E+02  0.1988E+03  0.1979E+03
      8.488  0.2652E+02  0.3005E+02  0.2006E+03  0.1999E+03
      8.554  0.1946E+02  0.2524E+02  0.2019E+03  0.2015E+03
      8.620  0.1693E+02  0.1522E+02  0.2030E+03  0.2026E+03
      8.686  0.1790E+02  0.1719E+02  0.2042E+03  0.2037E+03
      8.752  0.2697E+02  0.2230E+02  0.2060E+03  0.2052E+03
      8.819  0.2152E+02  0.2352E+02  0.2074E+03  0.2067E+03
      8.885  0.1896E+02  0.1885E+02  0.2086E+03  0.2080E+03
      8.951  0.2027E+02  0.2615E+02  0.2100E+03  0.2097E+03
      9.017  0.1836E+02  0.1448E+02  0.2112E+03  0.2106E+03
      9.083  0.2676E+02  0.2572E+02  0.2129E+03  0.2123E+03
      9.149  0.1935E+02  0.2240E+02  0.2142E+03  0.2138E+03
      9.215  0.1835E+02  0.1884E+02  0.2154E+03  0.2151E+03
      9.281  0.2575E+02  0.1942E+02  0.2171E+03  0.2164E+03
      9.347  0.2186E+02  0.2389E+02  0.2186E+03  0.2179E+03
      9.413  0.2612E+02  0.2479E+02  0.2203E+03  0.2196E+03
      9.479  0.2398E+02  0.2327E+02  0.2219E+03  0.2211E+03
      9.545  0.2069E+02  0.2151E+02  0.2233E+03  0.2225E+03
      9.611  0.2894E+02  0.3192E+02  0.2252E+03  0.2246E+03
      9.677  0.1980E+02  0.2213E+02  0.2265E+03  0.2261E+03
      9.743  0.1961E+02  0.1866E+02  0.2278E+03  0.2273E+03
      9.809  0.2261E+02  0.2098E+02  0.2293E+03  0.2287E+03
      9.875  0.2106E+02  0.2121E+02  0.2307E+03  0.2301E+03
      9.941  0.8383E+01  0.1346E+02  0.2312E+03  0.2310E+03
     10.007  0.9477E+01  0.8633E+01  0.2318E+03  0.2316E+03
     10.073  0.2502E+01  0.6363E+01  0.2320E+03  0.2320E+03
     10.139  0.0000E+00  0.0000E+00  0.2320E+03  0.2320E+03
     10.205  0.0000E+00  0.0000E+00  0.2320E+03  0.2320E+03
     10.271  0.0000E+00  0.0000E+00  0.2320E+03  0.2320E+03
     10.337  0.0000E+00  0.0000E+00  0.2320E+03  0.2320E+03
     10.403  0.0000E+00  0.0000E+00  0.2320E+03  0.2320E+03
     10.469  0.0000E+00  0.0000E+00  0.2320E+03  0.2320E+03
     10.535  0.0000E+00  0.0000E+00  0.2320E+03  0.2320E+03
     10.601  0.0000E+00  0.0000E+00  0.2320E+03  0.2320E+03
     10.667  0.0000E+00  0.0000E+00  0.2320E+03  0.2320E+03
     10.733  0.0000E+00  0.0000E+00  0.2320E+03  0.2320E+03
     10.799  0.0000E+00  0.0000E+00  0.2320E+03  0.2320E+03
     10.865  0.0000E+00  0.0000E+00  0.2320E+03  0.2320E+03
     10.931  0.0000E+00  0.0000E+00  0.2320E+03  0.2320E+03
