 vasp.6.4.3 19Mar24 (build Oct 22 2024 11:23:12) complex                        
  
 executed on             LinuxIFC date 2025.06.04  00:27:34
 running   64 mpi-ranks, on    4 nodes
 distrk:  each k-point on   64 cores,    1 groups
 distr:  one band on NCORE=  16 cores,    4 groups


--------------------------------------------------------------------------------------------------------


 INCAR:
   SYSTEM = Si and Ge interface calculation
   ISTART = 0
   ICHARG = 2
   LWAVE = .FALSE.
   LREAL = AUTO
   ENCUT = 700
   ENAUG = 900
   ADDGRID = .TRUE.
   LMAXMIX = 6
   LASPH = .TRUE.
   LMIXTAU = .TRUE.
   NCORE = 16
   NELM = 100
   NBANDS = 116
   EDIFF = 1d-7
   AMIX = 0.6
   ISMEAR = 0
   SIGMA = 0.01
   NELECT = 192
   ISPIN = 2
   NUPDOWN = 1
   LVTOT = .FALSE.
   LVHAR = .TRUE.

 POTCAR:    PAW_PBE Si 05Jan2001                  
 -----------------------------------------------------------------------------
|                                                                             |
|           W    W    AA    RRRRR   N    N  II  N    N   GGGG   !!!           |
|           W    W   A  A   R    R  NN   N  II  NN   N  G    G  !!!           |
|           W    W  A    A  R    R  N N  N  II  N N  N  G       !!!           |
|           W WW W  AAAAAA  RRRRR   N  N N  II  N  N N  G  GGG   !            |
|           WW  WW  A    A  R   R   N   NN  II  N   NN  G    G                |
|           W    W  A    A  R    R  N    N  II  N    N   GGGG   !!!           |
|                                                                             |
|     You use a magnetic or noncollinear calculation, but did not specify     |
|     the initial magnetic moment with the MAGMOM tag. Note that a            |
|     default of 0.021 will be used for all atoms. This ferromagnetic         |
|     setup may break the symmetry of the crystal, in particular it may       |
|     rule out finding an antiferromagnetic solution. Thence, we              |
|     recommend setting the initial magnetic moment manually or verifying     |
|     carefully that this magnetic setup is desired.                          |
|                                                                             |
 -----------------------------------------------------------------------------

 POTCAR:    PAW_PBE Si 05Jan2001                  
   VRHFIN =Si: s2p2                                                                                 
   LEXCH  = PE                                                                                      
   EATOM  =   103.0669 eV,    7.5752 Ry                                                             
                                                                                                    
   TITEL  = PAW_PBE Si 05Jan2001                                                                    
   LULTRA =        F    use ultrasoft PP ?                                                          
   IUNSCR =        1    unscreen: 0-lin 1-nonlin 2-no                                               
   RPACOR =    1.500    partial core radius                                                         
   POMASS =   28.085; ZVAL   =    4.000    mass and valenz                                          
   RCORE  =    1.900    outmost cutoff radius                                                       
   RWIGS  =    2.480; RWIGS  =    1.312    wigner-seitz radius (au A)                               
   ENMAX  =  245.345; ENMIN  =  184.009 eV                                                          
   ICORE  =        2    local potential                                                             
   LCOR   =        T    correct aug charges                                                         
   LPAW   =        T    paw PP                                                                      
   EAUG   =  322.069                                                                                
   DEXC   =    0.000                                                                                
   RMAX   =    1.950    core radius for proj-oper                                                   
   RAUG   =    1.300    factor for augmentation sphere                                              
   RDEP   =    1.993    radius for radial grids                                                     
   RDEPT  =    1.837    core radius for aug-charge                                                  
                                                                                                    
   Atomic configuration                                                                             
    6 entries                                                                                       
     n  l   j            E        occ.                                                              
     1  0  0.50     -1785.8828   2.0000                                                             
     2  0  0.50      -139.4969   2.0000                                                             
     2  1  1.50       -95.5546   6.0000                                                             
     3  0  0.50       -10.8127   2.0000                                                             
     3  1  0.50        -4.0811   2.0000                                                             
     3  2  1.50        -4.0817   0.0000                                                             
   Description                                                                                      
     l       E           TYP  RCUT    TYP  RCUT                                                     
     0    -10.8127223     23  1.900                                                                 
     0     -7.6451159     23  1.900                                                                 
     1     -4.0811372     23  1.900                                                                 
     1      2.4879257     23  1.900                                                                 
     2     -4.0817478      7  1.900                                                                 
  local pseudopotential read in
  partial core-charges read in
  partial kinetic energy density read in
  atomic valenz-charges read in
  non local Contribution for L=           0  read in
    real space projection operators read in
  non local Contribution for L=           0  read in
    real space projection operators read in
  non local Contribution for L=           1  read in
    real space projection operators read in
  non local Contribution for L=           1  read in
    real space projection operators read in
    PAW grid and wavefunctions read in
 
   number of l-projection  operators is LMAX  =           4
   number of lm-projection operators is LMMAX =           8
 
 Optimization of the real space projectors (new method)

 maximal supplied QI-value         = 19.84
 optimisation between [QCUT,QGAM] = [ 13.49, 26.99] = [ 50.98,203.92] Ry 
 Optimized for a Real-space Cutoff    1.07 Angstroem

   l    n(q)    QCUT    max X(q) W(low)/X(q) W(high)/X(q)  e(spline) 
   0      9    13.493   159.560    0.22E-03    0.15E-03    0.72E-07
   0      9    13.493   115.863    0.21E-03    0.15E-03    0.71E-07
   1      8    13.493    88.339    0.15E-03    0.11E-03    0.13E-06
   1      8    13.493    48.592    0.15E-03    0.10E-03    0.13E-06
  PAW_PBE Si 05Jan2001                  :
 energy of atom  1       EATOM= -103.0669
 kinetic energy error for atom=    0.0003 (will be added to EATOM!!)
 
 
 POSCAR: Si+Si
  positions in direct lattice
  No initial velocities read in


 exchange-correlation table for PE
   RHO(1)=    0.500       N(1)  =     2000
   RHO(2)=  100.500       N(2)  =     4000
 


--------------------------------------------------------------------------------------------------------


 ion  position               nearest neighbor table
   1  0.006  0.994  0.000-  37 2.31  34 2.35  10 2.35  47 2.48  46 2.62  15 2.97  30 2.97  43 2.97

   2  0.173  0.827  0.300-  16 2.35  35 2.35  11 2.35  34 2.35
   3  0.339  0.661  0.600-  17 2.35  36 2.35  12 2.35  35 2.35
   4  0.673  0.327  0.000-  44 1.81  38 2.17  48 2.35  28 2.35  13 2.35  41 2.58  45 2.73  18 2.97
                            33 2.97  39 2.98
   5  0.839  0.161  0.300-  10 2.35  29 2.35  28 2.35  14 2.35
   6  0.006  0.994  0.600-  37 1.43  11 2.35  15 2.35  29 2.35  30 2.35  46 2.62  43 2.97
   7  0.339  0.661  0.000-  42 1.04  31 2.35  16 2.35  45 2.75  12 2.97  36 2.97  48 3.08
   8  0.506  0.494  0.300-  13 2.35  32 2.35  31 2.35  17 2.35  45 2.74
   9  0.673  0.327  0.600-  14 2.35  33 2.35  32 2.35  18 2.35  38 2.82  44 3.13  41 3.15
  10  0.089  0.161  0.150-  47 2.31   5 2.35   1 2.35  23 2.35  22 2.35
  11  0.256  0.994  0.450-   6 2.35   2 2.35  24 2.35  23 2.35
  12  0.423  0.827  0.750-  43 2.00  40 2.31   3 2.35  24 2.35  46 2.44   7 2.97  19 2.97
  13  0.756  0.494  0.150-  39 2.09  48 2.17   8 2.35  25 2.35   4 2.35  26 2.35  45 2.58
  14  0.923  0.327  0.450-   9 2.35  27 2.35  26 2.35   5 2.35
  15  0.089  0.161  0.750-  47 1.43  37 1.57  27 2.35   6 2.35  41 2.52  38 2.88   1 2.97  22 2.97

  16  0.423  0.827  0.150-   2 2.35  19 2.35   7 2.35  20 2.35
  17  0.589  0.661  0.450-   3 2.35  20 2.35  21 2.35   8 2.35
  18  0.756  0.494  0.750-  39 2.09  21 2.35   9 2.35  48 2.82  38 2.90  25 2.97   4 2.97  45 3.15

  19  0.506  0.994  0.000-  40 2.31  28 2.35  16 2.35  44 2.48  43 2.62  33 2.97  12 2.97  46 2.97

  20  0.673  0.827  0.300-  34 2.35  17 2.35  29 2.35  16 2.35
  21  0.839  0.661  0.600-  18 2.35  35 2.35  30 2.35  17 2.35
  22  0.173  0.327  0.000-  47 1.81  41 2.17  45 2.35  10 2.35  31 2.35  38 2.58  48 2.73  36 2.97
                            15 2.97  42 2.98
  23  0.339  0.161  0.300-  28 2.35  10 2.35  32 2.35  11 2.35
  24  0.506  0.994  0.600-  40 1.43  29 2.35  11 2.35  33 2.35  12 2.35  43 2.62  46 2.97
  25  0.839  0.661  0.000-  39 1.04  13 2.35  34 2.35  48 2.75  30 2.97  18 2.97  45 3.08
  26  0.006  0.494  0.300-  31 2.35  14 2.35  13 2.35  35 2.35  48 2.74
  27  0.173  0.327  0.600-  14 2.35  15 2.35  32 2.35  36 2.35  41 2.82  47 3.13  38 3.15
  28  0.589  0.161  0.150-  44 2.31  19 2.35  23 2.35   4 2.35   5 2.35
  29  0.756  0.994  0.450-  20 2.35  24 2.35   5 2.35   6 2.35
  30  0.923  0.827  0.750-  46 2.00  37 2.31  21 2.35   6 2.35  43 2.44  25 2.97   1 2.97
  31  0.256  0.494  0.150-  42 2.09  45 2.17  26 2.35   7 2.35  22 2.35   8 2.35  48 2.58
  32  0.423  0.327  0.450-   8 2.35   9 2.35  23 2.35  27 2.35
  33  0.589  0.161  0.750-  44 1.43  40 1.57  24 2.35   9 2.35  38 2.52  41 2.88  19 2.97   4 2.97

  34  0.923  0.827  0.150-   1 2.35  20 2.35   2 2.35  25 2.35
  35  0.089  0.661  0.450-  21 2.35   2 2.35   3 2.35  26 2.35
  36  0.256  0.494  0.750-  42 2.09   3 2.35  27 2.35  45 2.82  41 2.90  22 2.97   7 2.97  48 3.15

  37  0.989  0.027  0.750-   6 1.43  15 1.57   1 2.31  30 2.31  46 2.35  47 2.35  43 2.35
  38  0.878  0.304  0.850-   4 2.17  48 2.35  47 2.35  44 2.35  33 2.52  22 2.58   9 2.82  15 2.88
                            18 2.90  27 3.15
  39  0.767  0.582  0.950-  25 1.04  13 2.09  18 2.09  48 2.35  45 2.35   4 2.98
  40  0.489  0.027  0.750-  24 1.43  33 1.57  19 2.31  12 2.31  46 2.35  43 2.35  44 2.35
  41  0.378  0.304  0.850-  22 2.17  45 2.35  44 2.35  47 2.35  15 2.52   4 2.58  27 2.82  33 2.88
                            36 2.90   9 3.15
  42  0.267  0.582  0.950-   7 1.04  31 2.09  36 2.09  45 2.35  48 2.35  22 2.98
  43  0.684  0.915  0.800-  12 2.00  40 2.35  37 2.35  30 2.44  24 2.62  19 2.62   1 2.97   6 2.97

  44  0.573  0.193  0.900-  33 1.43   4 1.81  28 2.31  40 2.35  41 2.35  38 2.35  19 2.48   9 3.13

  45  0.462  0.471  1.000-  31 2.17  22 2.35  42 2.35  41 2.35  39 2.35  13 2.58   4 2.73   8 2.74
                             7 2.75  36 2.82  25 3.08  18 3.15
  46  0.184  0.915  0.800-  30 2.00  37 2.35  40 2.35  12 2.44   6 2.62   1 2.62  24 2.97  19 2.97

  47  0.073  0.193  0.900-  15 1.43  22 1.81  10 2.31  37 2.35  38 2.35  41 2.35   1 2.48  27 3.13

  48  0.962  0.471  1.000-  13 2.17   4 2.35  39 2.35  42 2.35  38 2.35  31 2.58  22 2.73  26 2.74
                            25 2.75  18 2.82   7 3.08  36 3.15
 
 -----------------------------------------------------------------------------
|                                                                             |
|           W    W    AA    RRRRR   N    N  II  N    N   GGGG   !!!           |
|           W    W   A  A   R    R  NN   N  II  NN   N  G    G  !!!           |
|           W    W  A    A  R    R  N N  N  II  N N  N  G       !!!           |
|           W WW W  AAAAAA  RRRRR   N  N N  II  N  N N  G  GGG   !            |
|           WW  WW  A    A  R   R   N   NN  II  N   NN  G    G                |
|           W    W  A    A  R    R  N    N  II  N    N   GGGG   !!!           |
|                                                                             |
|     The distance between some ions is very small. Please check the          |
|     nearest-neighbor list in the OUTCAR file.                               |
|     I HOPE YOU KNOW WHAT YOU ARE DOING!                                     |
|                                                                             |
 -----------------------------------------------------------------------------

  LATTYP: Found a base centered orthorhombic cell.
 ALAT       =     7.6805944440
 B/A-ratio  =     2.9999998761
 C/A-ratio  =     1.1785115315
  
  Lattice vectors:
  
 A1 = (   3.8402969840, -11.5208911900,   0.0000000000)
 A2 = (   3.8402974600,  11.5208911900,   0.0000000000)
 A3 = (   0.0000000000,   0.0000000000,   9.0516691210)


Analysis of symmetry for initial positions (statically):
=====================================================================
 Subroutine PRICEL returns following result:
 
  LATTYP: Found a simple orthorhombic cell.
 ALAT       =     3.8402975369
 B/A-ratio  =     2.3570228697
 C/A-ratio  =     2.9999996301
  
  Lattice vectors:
  
 A1 = (  -3.8402975369,   0.0000000000,   0.0000000000)
 A2 = (   0.0000000000,   0.0000000000,   9.0516691210)
 A3 = (   0.0000005529,  11.5208911900,   0.0000000000)
 
   2 primitive cells build up your supercell.
 

 Routine SETGRP: Setting up the symmetry group for a 
 base centered orthorhombic supercell.


 Subroutine GETGRP returns: Found  1 space group operations
 (whereof  1 operations were pure point group operations)
 out of a pool of  8 trial point group operations.


The static configuration has the point symmetry C_1 .


Analysis of symmetry for dynamics (positions and initial velocities):
=====================================================================
 Subroutine PRICEL returns following result:
 
  LATTYP: Found a simple orthorhombic cell.
 ALAT       =     3.8402975369
 B/A-ratio  =     2.3570228697
 C/A-ratio  =     2.9999996301
  
  Lattice vectors:
  
 A1 = (  -3.8402975369,   0.0000000000,   0.0000000000)
 A2 = (   0.0000000000,   0.0000000000,   9.0516691210)
 A3 = (   0.0000005529,  11.5208911900,   0.0000000000)
 
   2 primitive cells build up your supercell.
 

 Routine SETGRP: Setting up the symmetry group for a 
 base centered orthorhombic supercell.


 Subroutine GETGRP returns: Found  1 space group operations
 (whereof  1 operations were pure point group operations)
 out of a pool of  8 trial point group operations.


The dynamic configuration has the point symmetry C_1 .


Analysis of structural, dynamic, and magnetic symmetry:
=====================================================================
 Subroutine PRICEL returns following result:
 
  LATTYP: Found a simple orthorhombic cell.
 ALAT       =     3.8402975369
 B/A-ratio  =     2.3570228697
 C/A-ratio  =     2.9999996301
  
  Lattice vectors:
  
 A1 = (  -3.8402975369,   0.0000000000,   0.0000000000)
 A2 = (   0.0000000000,   0.0000000000,   9.0516691210)
 A3 = (   0.0000005529,  11.5208911900,   0.0000000000)
 
   2 primitive cells build up your supercell.
 

 Routine SETGRP: Setting up the symmetry group for a 
 base centered orthorhombic supercell.


 Subroutine GETGRP returns: Found  1 space group operations
 (whereof  1 operations were pure point group operations)
 out of a pool of  8 trial point group operations.


The overall configuration has the point symmetry C_1 .


 Subroutine INISYM returns: Found  1 space group operations
 (whereof  1 operations are pure point group operations),
 and found     2 'primitive' translations


----------------------------------------------------------------------------------------

                                     Primitive cell                                     

  volume of cell :     400.4789

  direct lattice vectors                    reciprocal lattice vectors
    -3.840297537  0.000000000  0.000000000    -0.260396490  0.000000012  0.000000000
     0.000000000  0.000000000  9.051669121     0.000000000  0.000000000  0.110476862
     0.000000553 11.520891190  0.000000000     0.000000000  0.086798841  0.000000000

  length of vectors
     3.840297537  9.051669121 11.520891190     0.260396490  0.110476862  0.086798841

  position of ions in fractional coordinates (direct lattice)
     0.982203150  0.000000000  0.994067729
     0.482203064  0.299999893  0.827401042
     0.982202906  0.599999845  0.660734296
     0.982203124  0.000000000  0.327401042
     0.482203071  0.299999893  0.160734341
     0.982202770  0.599999845  0.994067669
     0.982203383  0.000000000  0.660734415
     0.482203038  0.299999893  0.494067699
     0.982203094  0.599999845  0.327400982
     0.982203067  0.149999961  0.160734370
     0.482203011  0.449999899  0.994067669
     0.982202800  0.749999821  0.827400923
     0.982203229  0.149999961  0.494067729
     0.482203157  0.449999899  0.327401042
     0.982202933  0.749999821  0.160734326
     0.982203396  0.149999961  0.827401161
     0.482203022  0.449999899  0.660734415
     0.982202953  0.749999821  0.494067729
     0.047768739  0.749999821  0.026538117
     0.547768975  0.849999845  0.304315925
     0.047769076  0.949999988  0.582093716
     0.547768741  0.799999893  0.915427029
     0.047768843  0.899999917  0.193204761
     0.547769228  0.999999940  0.470982552

  ion indices of the primitive-cell ions
   primitive index   ion index
                 1           1
                 2           2
                 3          21
                 4          22
                 5           5
                 6           6
                 7          25
                 8          26
                 9          27
                10          10
                11          29
                12          30
                13          31
                14          14
                15          15
                16          34
                17          35
                18          18
                19          37
                20          38
                21          39
                22          46
                23          47
                24          48

----------------------------------------------------------------------------------------

 
 
 KPOINTS: Automatic KPOINTS generated             

Automatic generation of k-mesh.
 Grid dimensions read from file:
 generate k-points for:    4    3    3

 Generating k-lattice:

  Cartesian coordinates                     Fractional coordinates (reciprocal lattice)
     0.032549564  0.010849854  0.000000000     0.250000000  0.000000000  0.000000000
     0.000000000  0.028932947  0.000000000     0.000000000  0.333333333  0.000000000
     0.000000000  0.000000000  0.036825621     0.000000000  0.000000000  0.333333333

  Length of vectors
     0.034310253  0.028932947  0.036825621

  Shift w.r.t. Gamma in fractional coordinates (k-lattice)
     0.000000000  0.000000000  0.000000000

 -----------------------------------------------------------------------------
|                                                                             |
|           W    W    AA    RRRRR   N    N  II  N    N   GGGG   !!!           |
|           W    W   A  A   R    R  NN   N  II  NN   N  G    G  !!!           |
|           W    W  A    A  R    R  N N  N  II  N N  N  G       !!!           |
|           W WW W  AAAAAA  RRRRR   N  N N  II  N  N N  G  GGG   !            |
|           WW  WW  A    A  R   R   N   NN  II  N   NN  G    G                |
|           W    W  A    A  R    R  N    N  II  N    N   GGGG   !!!           |
|                                                                             |
|     Your reciprocal lattice and k-lattice belong to different lattice       |
|     classes:                                                                |
|                                                                             |
|        The reciprocal lattice is base centered orthorhombic,                |
|        whereas your k-lattice is simple monoclinic.                         |
|                                                                             |
|     Results are often still useful ...                                      |
|                                                                             |
 -----------------------------------------------------------------------------

 WARNING: IBZKPT: internal override: KBLOWUP is changed to .FALSE.
      ... skipping the blow-up phase ...

 
 Subroutine IBZKPT returns following result:
 ===========================================
 
 Found     19 irreducible k-points:
 
 Following reciprocal coordinates:
            Coordinates               Weight
  0.000000  0.000000  0.000000      1.000000
  0.250000 -0.000000  0.000000      2.000000
  0.500000 -0.000000  0.000000      1.000000
  0.000000  0.333333  0.000000      2.000000
  0.250000  0.333333  0.000000      2.000000
  0.500000  0.333333  0.000000      2.000000
 -0.250000  0.333333  0.000000      2.000000
  0.000000  0.000000  0.333333      2.000000
  0.250000 -0.000000  0.333333      2.000000
  0.500000 -0.000000  0.333333      2.000000
 -0.250000  0.000000  0.333333      2.000000
  0.000000  0.333333  0.333333      2.000000
  0.250000  0.333333  0.333333      2.000000
  0.500000  0.333333  0.333333      2.000000
 -0.250000  0.333333  0.333333      2.000000
  0.000000 -0.333333  0.333333      2.000000
  0.250000 -0.333333  0.333333      2.000000
  0.500000 -0.333333  0.333333      2.000000
 -0.250000 -0.333333  0.333333      2.000000
 
 Following cartesian coordinates:
            Coordinates               Weight
  0.000000  0.000000  0.000000      1.000000
  0.032550  0.010850  0.000000      2.000000
  0.065099  0.021700  0.000000      1.000000
  0.000000  0.028933  0.000000      2.000000
  0.032550  0.039783  0.000000      2.000000
  0.065099  0.050633  0.000000      2.000000
 -0.032550  0.018083  0.000000      2.000000
  0.000000  0.000000  0.036826      2.000000
  0.032550  0.010850  0.036826      2.000000
  0.065099  0.021700  0.036826      2.000000
 -0.032550 -0.010850  0.036826      2.000000
  0.000000  0.028933  0.036826      2.000000
  0.032550  0.039783  0.036826      2.000000
  0.065099  0.050633  0.036826      2.000000
 -0.032550  0.018083  0.036826      2.000000
  0.000000 -0.028933  0.036826      2.000000
  0.032550 -0.018083  0.036826      2.000000
  0.065099 -0.007233  0.036826      2.000000
 -0.032550 -0.039783  0.036826      2.000000
 


--------------------------------------------------------------------------------------------------------




 Dimension of arrays:
   k-points           NKPTS =     19   k-points in BZ     NKDIM =     19   number of bands    NBANDS=    116
   number of dos      NEDOS =    301   number of ions     NIONS =     48
   non local maximal  LDIM  =      4   non local SUM 2l+1 LMDIM =      8
   total plane-waves  NPLWV = 240000
   max r-space proj   IRMAX =   1608   max aug-charges    IRDMAX=  80338
   dimension x,y,z NGX =    50 NGY =   80 NGZ =   60
   dimension x,y,z NGXF=   100 NGYF=  160 NGZF=  120
   support grid    NGXF=   200 NGYF=  320 NGZF=  240
   ions per type =              48
   NGX,Y,Z   is equivalent  to a cutoff of  10.82, 10.95, 11.02 a.u.
   NGXF,Y,Z  is equivalent  to a cutoff of  21.64, 21.90, 22.04 a.u.

 SYSTEM =  Si and Ge interface calculation         
 POSCAR =  Si+Si                                   

 Startparameter for this run:
   NWRITE =      2    write-flag & timer
   PREC   = normal    normal or accurate (medium, high low for compatibility)
   ISTART =      0    job   : 0-new  1-cont  2-samecut
   ICHARG =      2    charge: 1-file 2-atom 10-const
   ISPIN  =      2    spin polarized calculation?
   LNONCOLLINEAR =      F non collinear calculations
   LSORBIT =      F    spin-orbit coupling
   INIWAV =      1    electr: 0-lowe 1-rand  2-diag
   LASPH  =      T    aspherical Exc in radial PAW
 Electronic Relaxation 1
   ENCUT  =  700.0 eV  51.45 Ry    7.17 a.u.  16.57 26.20 19.53*2*pi/ulx,y,z
   ENINI  =  700.0     initial cutoff
   ENAUG  =  900.0 eV  augmentation charge cutoff
   NELM   =    100;   NELMIN=  2; NELMDL= -5     # of ELM steps 
   EDIFF  = 0.1E-06   stopping-criterion for ELM
   LREAL  =      T    real-space projection
   NLSPLINE    = F    spline interpolate recip. space projectors
   LCOMPAT=      F    compatible to vasp.4.4
   GGA_COMPAT  = T    GGA compatible to vasp.4.4-vasp.4.6
   LMAXPAW     = -100 max onsite density
   LMAXMIX     =    6 max onsite mixed and CHGCAR
   VOSKOWN=      0    Vosko Wilk Nusair interpolation
   ROPT   =   -0.00050
 Ionic relaxation
   EDIFFG = 0.1E-05   stopping-criterion for IOM
   NSW    =      0    number of steps for IOM
   NBLOCK =      1;   KBLOCK =      1    inner block; outer block 
   IBRION =     -1    ionic relax: 0-MD 1-quasi-New 2-CG
   NFREE  =      0    steps in history (QN), initial steepest desc. (CG)
   ISIF   =      2    stress and relaxation
   IWAVPR =     10    prediction:  0-non 1-charg 2-wave 3-comb
   ISYM   =      2    0-nonsym 1-usesym 2-fastsym
   LCORR  =      T    Harris-Foulkes like correction to forces

   POTIM  = 0.5000    time-step for ionic-motion
   TEIN   =    0.0    initial temperature
   TEBEG  =    0.0;   TEEND  =   0.0 temperature during run
   SMASS  =  -3.00    Nose mass-parameter (am)
   estimated Nose-frequenzy (Omega)   =  0.10E-29 period in steps = 0.13E+47 mass=  -0.135E-26a.u.
   SCALEE = 1.0000    scale energy and forces
   NPACO  =    256;   APACO  = 10.0  distance and # of slots for P.C.
   PSTRESS=    0.0 pullay stress

  Mass of Ions in am
   POMASS =  28.09
  Ionic Valenz
   ZVAL   =   4.00
  Atomic Wigner-Seitz radii
   RWIGS  =  -1.00
  virtual crystal weights 
   VCA    =   1.00
   NELECT =     192.0000    total number of electrons
   NUPDOWN=       1.0000    fix difference up-down

 DOS related values:
   EMIN   =  10.00;   EMAX   =-10.00  energy-range for DOS
   EFERMI =   0.00;   METHOD = LEGACY      
   ISMEAR =     0;   SIGMA  =   0.01  broadening in eV -4-tet -1-fermi 0-gaus

 Electronic relaxation 2 (details)
   IALGO  =     38    algorithm
   LDIAG  =      T    sub-space diagonalisation (order eigenvalues)
   LSUBROT=      F    optimize rotation matrix (better conditioning)
   TURBO    =      0    0=normal 1=particle mesh
   IRESTART =      0    0=no restart 2=restart with 2 vectors
   NREBOOT  =      0    no. of reboots
   NMIN     =      0    reboot dimension
   EREF     =   0.00    reference energy to select bands
   IMIX   =      4    mixing-type and parameters
     AMIX     =   0.60;   BMIX     =  1.00
     AMIX_MAG =   2.40;   BMIX_MAG =  1.00
     AMIN     =   0.10
     WC   =   100.;   INIMIX=   1;  MIXPRE=   1;  MAXMIX= -45

 Intra band minimization:
   WEIMIN = 0.0000     energy-eigenvalue tresh-hold
   EBREAK =  0.22E-09  absolut break condition
   DEPER  =   0.30     relativ break condition  

   TIME   =   0.40     timestep for ELM

  volume/ion in A,a.u.               =      16.69       112.61
  Fermi-wavevector in a.u.,A,eV,Ry     =   1.016964  1.921782 14.071347  1.034215
  Thomas-Fermi vector in A             =   2.150337
 
 Write flags
   LWAVE        =      F    write WAVECAR
   LDOWNSAMPLE  =      F    k-point downsampling of WAVECAR
   LCHARG       =      T    write CHGCAR
   LVTOT        =      F    write LOCPOT, total local potential
   LVHAR        =      T    write LOCPOT, Hartree potential only
   WRT_POTENTIAL=  hartree ionic  ! write potential to hdf5 file
   LELF         =      F    write electronic localiz. function (ELF)
   LORBIT       =      0    0 simple, 1 ext, 2 COOP (PROOUT), +10 PAW based schemes


 Dipole corrections
   LMONO      =      F    monopole corrections only (constant potential shift)
   LDIPOL     =      F    correct potential (dipole corrections)
   IDIPOL     =      0    1-x, 2-y, 3-z, 4-all directions 
   EPSILON    =  1.0000000 bulk dielectric constant
   LVACPOTAV  =      F  vacuum potentials using an averaging scheme for the charge density
   VACPOTFLAT =  0.1000000 required flatness to determine vacuum potential
 Exchange correlation treatment:
   GGA     = PE    functional components
   XC_C    = 1    coefficients multiplying the functional components
   LIBXC   =     F    Libxc                    
   VOSKOWN =     0    Vosko Wilk Nusair interpolation
   LHFCALC =     F    Hartree Fock is set to
   LHFONE  =     F    Hartree Fock one center treatment
   AEXX    =    0.0000 exact exchange contribution

 Parameters of functionals:
   PE:
     No parameter
 
 Van der Waals corrections
   IVDW    =     0    specifies the selected vdW correction

 Linear response parameters
   LEPSILON=     F    determine dielectric tensor
   LRPA    =     F    only Hartree local field effects (RPA)
   LNABLA  =     F    use nabla operator in PAW spheres
   LVEL    =     F    velocity operator in full k-point grid
   CSHIFT  =0.1000    complex shift for real part using Kramers Kronig
   OMEGAMAX=  -1.0    maximum frequency
   DEG_THRESHOLD= 0.2000000E-02 threshold for treating states as degnerate
   RTIME   =   -0.100 relaxation time in fs
  (WPLASMAI=    0.000 imaginary part of plasma frequency in eV, 0.658/RTIME)
   DFIELD  = 0.0000000 0.0000000 0.0000000 field for delta impulse in time
 
  Optional k-point grid parameters
   LKPOINTS_OPT  =     F    use optional k-point grid
   KPOINTS_OPT_MODE=     1    mode for optional k-point grid
 
 Orbital magnetization related:
   ORBITALMAG=     F  switch on orbital magnetization
   LCHIMAG   =     F  perturbation theory with respect to B field
   DQ        =  0.001000  dq finite difference perturbation B field
   LLRAUG    =     F  two centre corrections for induced B field
   LBONE     =     F  B-component reconstruction in AE one-centre
   LVGVCALC  =     T  calculate vGv susceptibility
   LVGVAPPL  =     F  apply vGv susceptibility instead of pGv for G=0

 Random number generation:
   RANDOM_GENERATOR = DEFAULT
   PCG_SEED         = not used


--------------------------------------------------------------------------------------------------------


 Static calculation
 charge density and potential will be updated during run
 spin polarized calculation
 Variant of blocked Davidson
 Davidson routine will perform the subspace rotation
 perform sub-space diagonalisation
    after iterative eigenvector-optimisation
 modified Broyden-mixing scheme, WC =      100.0
 initial mixing is a Kerker type mixing with AMIX =  0.6000 and BMIX =      1.0000
 Hartree-type preconditioning will be used
 using additional bands           20
 real space projection scheme for non local part
 use partial core corrections
 calculate Harris-corrections to forces 
   (improved forces if not selfconsistent)
 use gradient corrections 
 use of overlap-Matrix (Vanderbilt PP)
 Gauss-broadening in eV      SIGMA  =   0.01


--------------------------------------------------------------------------------------------------------


  energy-cutoff  :      700.00
  volume of cell :      800.96
      direct lattice vectors                 reciprocal lattice vectors
     7.680594444  0.000000000  0.000000000     0.130198256  0.043399418  0.000000000
    -3.840296984 11.520891190  0.000000000     0.000000000  0.086798841  0.000000000
     0.000000000  0.000000000  9.051669121     0.000000000  0.000000000  0.110476862

  length of vectors
     7.680594444 12.144085587  9.051669121     0.137241012  0.086798841  0.110476862


 
 k-points in units of 2pi/SCALE and weight: Automatic KPOINTS generated             
   0.00000000  0.00000000  0.00000000       0.028
   0.03254956  0.01084985  0.00000000       0.056
   0.06509913  0.02169971  0.00000000       0.028
   0.00000000  0.02893295  0.00000000       0.056
   0.03254956  0.03978280  0.00000000       0.056
   0.06509913  0.05063266  0.00000000       0.056
  -0.03254956  0.01808309  0.00000000       0.056
   0.00000000  0.00000000  0.03682562       0.056
   0.03254956  0.01084985  0.03682562       0.056
   0.06509913  0.02169971  0.03682562       0.056
  -0.03254956 -0.01084985  0.03682562       0.056
   0.00000000  0.02893295  0.03682562       0.056
   0.03254956  0.03978280  0.03682562       0.056
   0.06509913  0.05063266  0.03682562       0.056
  -0.03254956  0.01808309  0.03682562       0.056
   0.00000000 -0.02893295  0.03682562       0.056
   0.03254956 -0.01808309  0.03682562       0.056
   0.06509913 -0.00723324  0.03682562       0.056
  -0.03254956 -0.03978280  0.03682562       0.056
 
 k-points in reciprocal lattice and weights: Automatic KPOINTS generated             
   0.00000000  0.00000000  0.00000000       0.028
   0.25000000 -0.00000000  0.00000000       0.056
   0.50000000 -0.00000000  0.00000000       0.028
   0.00000000  0.33333333  0.00000000       0.056
   0.25000000  0.33333333  0.00000000       0.056
   0.50000000  0.33333333  0.00000000       0.056
  -0.25000000  0.33333333  0.00000000       0.056
   0.00000000  0.00000000  0.33333333       0.056
   0.25000000 -0.00000000  0.33333333       0.056
   0.50000000 -0.00000000  0.33333333       0.056
  -0.25000000  0.00000000  0.33333333       0.056
   0.00000000  0.33333333  0.33333333       0.056
   0.25000000  0.33333333  0.33333333       0.056
   0.50000000  0.33333333  0.33333333       0.056
  -0.25000000  0.33333333  0.33333333       0.056
   0.00000000 -0.33333333  0.33333333       0.056
   0.25000000 -0.33333333  0.33333333       0.056
   0.50000000 -0.33333333  0.33333333       0.056
  -0.25000000 -0.33333333  0.33333333       0.056
 
 position of ions in fractional coordinates (direct lattice) 
   0.00593229  0.99406773  0.00000000
   0.17259900  0.82740104  0.29999989
   0.33926573  0.66073430  0.59999984
   0.67259896  0.32740104  0.00000000
   0.83926570  0.16073434  0.29999989
   0.00593245  0.99406767  0.59999984
   0.33926564  0.66073442  0.00000000
   0.50593233  0.49406770  0.29999989
   0.67259908  0.32740101  0.59999984
   0.08926566  0.16073437  0.14999996
   0.25593239  0.99406767  0.44999990
   0.42259914  0.82740098  0.74999982
   0.75593227  0.49406773  0.14999996
   0.92259902  0.32740104  0.44999990
   0.08926570  0.16073433  0.74999982
   0.42259893  0.82740110  0.14999996
   0.58926570  0.66073447  0.44999990
   0.75593245  0.49406773  0.74999982
   0.50593233  0.99406773  0.00000000
   0.67259902  0.82740104  0.29999989
   0.83926576  0.66073430  0.59999984
   0.17259897  0.32740104  0.00000000
   0.33926567  0.16073437  0.29999989
   0.50593239  0.99406767  0.59999984
   0.83926558  0.66073442  0.00000000
   0.00593233  0.49406770  0.29999989
   0.17259896  0.32740098  0.59999984
   0.58926564  0.16073436  0.14999996
   0.75593239  0.99406767  0.44999990
   0.92259914  0.82740092  0.74999982
   0.25593227  0.49406773  0.14999996
   0.42259905  0.32740104  0.44999990
   0.58926576  0.16073433  0.74999982
   0.92259896  0.82740116  0.14999996
   0.08926570  0.66073442  0.44999990
   0.25593245  0.49406770  0.74999982
   0.98938477  0.02653812  0.74999982
   0.87827355  0.30431592  0.84999984
   0.76716238  0.58209372  0.94999999
   0.48938474  0.02653811  0.74999982
   0.37827355  0.30431592  0.84999984
   0.26716232  0.58209366  0.94999999
   0.68382919  0.91542697  0.79999989
   0.57271797  0.19320476  0.89999992
   0.46160677  0.47098255  0.99999994
   0.18382916  0.91542703  0.79999989
   0.07271797  0.19320476  0.89999992
   0.96160674  0.47098255  0.99999994
 
 position of ions in cartesian coordinates  (Angst):
  -3.77195179 11.45254614  0.00000000
  -1.85180278  9.53239738  2.71549977
   0.06834659  7.61224793  5.43100007
   3.90864259  3.77195178  0.00000000
   5.82879190  1.85180285  2.71549977
  -3.77195033 11.45254545  5.43100007
   0.06834545  7.61224930  0.00000000
   1.98849436  5.69210020  2.71549977
   3.90864361  3.77195143  5.43100007
   0.06834561  1.85180319  1.35775002
  -1.85180217 11.45254545  4.07325019
   0.06834709  9.53239668  6.78875022
   3.90864239  5.69210055  1.35775002
   5.82879166  3.77195178  4.07325019
   0.06834612  1.85180268  6.78875022
   0.06834502  9.53239807  1.35775002
   1.98849428  7.61224999  4.07325019
   3.90864377  5.69210055  6.78875022
   0.06834575 11.45254614  0.00000000
   1.98849455  9.53239738  2.71549977
   3.90864404  7.61224793  5.43100007
   0.06834548  3.77195178  0.00000000
   1.98849433  1.85180319  2.71549977
   0.06834644 11.45254545  5.43100007
   3.90864221  7.61224930  0.00000000
  -1.85180287  5.69210020  2.71549977
   0.06834559  3.77195109  5.43100007
   3.90864278  1.85180301  1.35775002
   1.98849505 11.45254545  4.07325019
   3.90864454  9.53239600  6.78875022
   0.06834517  5.69210055  1.35775002
   1.98849466  3.77195178  4.07325019
   3.90864381  1.85180268  6.78875022
   3.90864225  9.53239875  1.35775002
  -1.85180271  7.61224930  4.07325019
   0.06834666  5.69210020  6.78875022
   7.49714892  0.30574276  6.78875022
   5.57699940  3.50599066  7.69391735
   3.65685039  6.70623836  8.59908556
   3.65685149  0.30574271  6.78875022
   1.73670217  3.50599066  7.69391735
  -0.18344706  6.70623767  8.59908556
   1.73670323 10.54653451  7.24133433
   3.65685076  2.22589103  8.14650146
   1.73670153  5.42613873  9.05166858
  -2.10359444 10.54653519  7.24133433
  -0.18344646  2.22589103  8.14650146
   5.57699852  5.42613873  9.05166858
 


--------------------------------------------------------------------------------------------------------


 k-point     1 :   0.0000 0.0000 0.0000  plane waves:   33743
 k-point     2 :   0.2500-0.0000 0.0000  plane waves:   33668
 k-point     3 :   0.5000-0.0000 0.0000  plane waves:   33648
 k-point     4 :   0.0000 0.3333 0.0000  plane waves:   33748
 k-point     5 :   0.2500 0.3333 0.0000  plane waves:   33682
 k-point     6 :   0.5000 0.3333 0.0000  plane waves:   33633
 k-point     7 :  -0.2500 0.3333 0.0000  plane waves:   33683
 k-point     8 :   0.0000 0.0000 0.3333  plane waves:   33715
 k-point     9 :   0.2500-0.0000 0.3333  plane waves:   33676
 k-point    10 :   0.5000-0.0000 0.3333  plane waves:   33690
 k-point    11 :  -0.2500 0.0000 0.3333  plane waves:   33676
 k-point    12 :   0.0000 0.3333 0.3333  plane waves:   33668
 k-point    13 :   0.2500 0.3333 0.3333  plane waves:   33690
 k-point    14 :   0.5000 0.3333 0.3333  plane waves:   33674
 k-point    15 :  -0.2500 0.3333 0.3333  plane waves:   33690
 k-point    16 :   0.0000-0.3333 0.3333  plane waves:   33668
 k-point    17 :   0.2500-0.3333 0.3333  plane waves:   33690
 k-point    18 :   0.5000-0.3333 0.3333  plane waves:   33674
 k-point    19 :  -0.2500-0.3333 0.3333  plane waves:   33690

 maximum and minimum number of plane-waves per node :      2137     2071

 maximum number of plane-waves:     33748
 maximum index in each direction: 
   IXMAX=   16   IYMAX=   26   IZMAX=   19
   IXMIN=  -17   IYMIN=  -26   IZMIN=  -19


 real space projection operators:
  total allocation   :       4519.25 KBytes
  max/ min on nodes  :        368.31        267.38


 parallel 3D FFT for wavefunctions:
    minimum data exchange during FFTs selected (reduces bandwidth)
 parallel 3D FFT for charge:
    minimum data exchange during FFTs selected (reduces bandwidth)


 total amount of memory used by VASP MPI-rank0    79838. kBytes
=======================================================================

   base      :      30000. kBytes
   nonlr-proj:       1726. kBytes
   fftplans  :       5945. kBytes
   grid      :       4346. kBytes
   one-center:         18. kBytes
   wavefun   :      37803. kBytes
 
     INWAV:  cpu time      0.0000: real time      0.0002
 Broyden mixing: mesh for mixing (old mesh)
   NGX = 33   NGY = 53   NGZ = 39
  (NGX  =100   NGY  =160   NGZ  =120)
  gives a total of  68211 points

 initial charge density was supplied:
 charge density of overlapping atoms calculated
 number of electron     192.0000000 magnetization       1.0000000
 keeping initial charge density in first step


--------------------------------------------------------------------------------------------------------


 Maximum index for non-local projection operator          302
 Maximum index for augmentation-charges         4181 (set IRDMAX)


--------------------------------------------------------------------------------------------------------


 First call to EWALD:  gamma=   0.191
 Maximum number of real-space cells 3x 2x 3
 Maximum number of reciprocal cells 2x 3x 3

    FEWALD:  cpu time      0.0023: real time      0.0023


--------------------------------------- Ionic step        1  -------------------------------------------




--------------------------------------- Iteration      1(   1)  ---------------------------------------


    POTLOK:  cpu time      0.0799: real time      0.0808
    SETDIJ:  cpu time      0.2609: real time      0.2621
     EDDAV:  cpu time      5.9136: real time      5.9565
       DOS:  cpu time      0.0024: real time      0.0024
    --------------------------------------------
      LOOP:  cpu time      6.2568: real time      6.3019

 eigenvalue-minimisations  :  8816
 total energy-change (2. order) : 0.9820701E+03  (-0.9231328E+04)
 number of electron     192.0000000 magnetization       1.0000000
 augmentation part      192.0000000 magnetization       1.0000000

 Free energy of the ion-electron system (eV)
  ---------------------------------------------------
  alpha Z        PSCENC =        96.83389486
  Ewald energy   TEWEN  =     -4995.97834844
  -Hartree energ DENC   =      -722.94038518
  -exchange      EXHF   =         0.00000000
  -V(xc)+E(xc)   XCENC  =      -423.78816201
  PAW double counting   =      4229.94053997    -3385.46287860
  entropy T*S    EENTRO =        -0.00091489
  eigenvalues    EBANDS =      1236.26838186
  atomic energy  EATOM  =      4947.19793617
  Solvation  Ediel_sol  =         0.00000000
  ---------------------------------------------------
  free energy    TOTEN  =       982.07006372 eV

  energy without entropy =      982.07097862  energy(sigma->0) =      982.07052117


--------------------------------------------------------------------------------------------------------




--------------------------------------- Iteration      1(   2)  ---------------------------------------


     EDDAV:  cpu time      6.7312: real time      6.7830
       DOS:  cpu time      0.0019: real time      0.0019
    --------------------------------------------
      LOOP:  cpu time      6.7331: real time      6.7849

 eigenvalue-minimisations  : 10516
 total energy-change (2. order) :-0.9654311E+03  (-0.9301319E+03)
 number of electron     192.0000000 magnetization       1.0000000
 augmentation part      192.0000000 magnetization       1.0000000

 Free energy of the ion-electron system (eV)
  ---------------------------------------------------
  alpha Z        PSCENC =        96.83389486
  Ewald energy   TEWEN  =     -4995.97834844
  -Hartree energ DENC   =      -722.94038518
  -exchange      EXHF   =         0.00000000
  -V(xc)+E(xc)   XCENC  =      -423.78816201
  PAW double counting   =      4229.94053997    -3385.46287860
  entropy T*S    EENTRO =        -0.00041465
  eigenvalues    EBANDS =       270.83674949
  atomic energy  EATOM  =      4947.19793617
  Solvation  Ediel_sol  =         0.00000000
  ---------------------------------------------------
  free energy    TOTEN  =        16.63893160 eV

  energy without entropy =       16.63934625  energy(sigma->0) =       16.63913893


--------------------------------------------------------------------------------------------------------




--------------------------------------- Iteration      1(   3)  ---------------------------------------


     EDDAV:  cpu time      7.0514: real time      7.1036
       DOS:  cpu time      0.0018: real time      0.0018
    --------------------------------------------
      LOOP:  cpu time      7.0532: real time      7.1054

 eigenvalue-minimisations  : 11384
 total energy-change (2. order) :-0.9222638E+02  (-0.8807631E+02)
 number of electron     192.0000000 magnetization       1.0000000
 augmentation part      192.0000000 magnetization       1.0000000

 Free energy of the ion-electron system (eV)
  ---------------------------------------------------
  alpha Z        PSCENC =        96.83389486
  Ewald energy   TEWEN  =     -4995.97834844
  -Hartree energ DENC   =      -722.94038518
  -exchange      EXHF   =         0.00000000
  -V(xc)+E(xc)   XCENC  =      -423.78816201
  PAW double counting   =      4229.94053997    -3385.46287860
  entropy T*S    EENTRO =        -0.00119431
  eigenvalues    EBANDS =       178.61115408
  atomic energy  EATOM  =      4947.19793617
  Solvation  Ediel_sol  =         0.00000000
  ---------------------------------------------------
  free energy    TOTEN  =       -75.58744347 eV

  energy without entropy =      -75.58624916  energy(sigma->0) =      -75.58684631


--------------------------------------------------------------------------------------------------------




--------------------------------------- Iteration      1(   4)  ---------------------------------------


     EDDAV:  cpu time      7.4106: real time      7.4668
       DOS:  cpu time      0.0018: real time      0.0018
    --------------------------------------------
      LOOP:  cpu time      7.4124: real time      7.4686

 eigenvalue-minimisations  : 12128
 total energy-change (2. order) :-0.5282357E+01  (-0.5164838E+01)
 number of electron     192.0000000 magnetization       1.0000000
 augmentation part      192.0000000 magnetization       1.0000000

 Free energy of the ion-electron system (eV)
  ---------------------------------------------------
  alpha Z        PSCENC =        96.83389486
  Ewald energy   TEWEN  =     -4995.97834844
  -Hartree energ DENC   =      -722.94038518
  -exchange      EXHF   =         0.00000000
  -V(xc)+E(xc)   XCENC  =      -423.78816201
  PAW double counting   =      4229.94053997    -3385.46287860
  entropy T*S    EENTRO =        -0.00103171
  eigenvalues    EBANDS =       173.32863421
  atomic energy  EATOM  =      4947.19793617
  Solvation  Ediel_sol  =         0.00000000
  ---------------------------------------------------
  free energy    TOTEN  =       -80.86980074 eV

  energy without entropy =      -80.86876903  energy(sigma->0) =      -80.86928489


--------------------------------------------------------------------------------------------------------




--------------------------------------- Iteration      1(   5)  ---------------------------------------


     EDDAV:  cpu time      7.1165: real time      7.1762
       DOS:  cpu time      0.0020: real time      0.0020
    CHARGE:  cpu time      0.3194: real time      0.3211
    MIXING:  cpu time      0.0032: real time      0.0032
    --------------------------------------------
      LOOP:  cpu time      7.4412: real time      7.5026

 eigenvalue-minimisations  : 11376
 total energy-change (2. order) :-0.1885271E+00  (-0.1872864E+00)
 number of electron     191.9999998 magnetization       1.0000000
 augmentation part      -12.9740409 magnetization      -0.0373122

 Broyden mixing:
  rms(total) = 0.51472E+01    rms(broyden)= 0.51472E+01
  rms(prec ) = 0.61158E+01
  weight for this iteration     100.00

 Free energy of the ion-electron system (eV)
  ---------------------------------------------------
  alpha Z        PSCENC =        96.83389486
  Ewald energy   TEWEN  =     -4995.97834844
  -Hartree energ DENC   =      -722.94038518
  -exchange      EXHF   =         0.00000000
  -V(xc)+E(xc)   XCENC  =      -423.78816201
  PAW double counting   =      4229.94053997    -3385.46287860
  entropy T*S    EENTRO =        -0.00109374
  eigenvalues    EBANDS =       173.14016917
  atomic energy  EATOM  =      4947.19793617
  Solvation  Ediel_sol  =         0.00000000
  ---------------------------------------------------
  free energy    TOTEN  =       -81.05832780 eV

  energy without entropy =      -81.05723407  energy(sigma->0) =      -81.05778094


--------------------------------------------------------------------------------------------------------




--------------------------------------- Iteration      1(   6)  ---------------------------------------


    POTLOK:  cpu time      0.0611: real time      0.0615
    SETDIJ:  cpu time      0.2576: real time      0.2587
     EDDAV:  cpu time      6.7568: real time      6.8161
       DOS:  cpu time      0.0019: real time      0.0019
    CHARGE:  cpu time      0.3173: real time      0.3187
    MIXING:  cpu time      0.0025: real time      0.0025
    --------------------------------------------
      LOOP:  cpu time      7.3972: real time      7.4594

 eigenvalue-minimisations  : 10656
 total energy-change (2. order) : 0.3355369E+02  (-0.2616846E+02)
 number of electron     191.9999999 magnetization       1.0000000
 augmentation part      -12.0212839 magnetization      -0.0431943

 Broyden mixing:
  rms(total) = 0.28922E+01    rms(broyden)= 0.28922E+01
  rms(prec ) = 0.36756E+01
  weight for this iteration     100.00

 eigenvalues of (default mixing * dielectric matrix)
  average eigenvalue GAMMA=   1.1963
  1.1963

 Free energy of the ion-electron system (eV)
  ---------------------------------------------------
  alpha Z        PSCENC =        96.83389486
  Ewald energy   TEWEN  =     -4995.97834844
  -Hartree energ DENC   =      -922.75677113
  -exchange      EXHF   =         0.00000000
  -V(xc)+E(xc)   XCENC  =      -410.86033476
  PAW double counting   =     16926.44824836   -16090.61090960
  entropy T*S    EENTRO =        -0.00084805
  eigenvalues    EBANDS =       402.22249033
  atomic energy  EATOM  =      4947.19793617
  Solvation  Ediel_sol  =         0.00000000
  ---------------------------------------------------
  free energy    TOTEN  =       -47.50464226 eV

  energy without entropy =      -47.50379421  energy(sigma->0) =      -47.50421824


--------------------------------------------------------------------------------------------------------




--------------------------------------- Iteration      1(   7)  ---------------------------------------


    POTLOK:  cpu time      0.0592: real time      0.0612
    SETDIJ:  cpu time      0.2569: real time      0.2578
     EDDAV:  cpu time      6.3324: real time      6.3857
       DOS:  cpu time      0.0019: real time      0.0019
    CHARGE:  cpu time      0.3169: real time      0.3185
    MIXING:  cpu time      0.0025: real time      0.0025
    --------------------------------------------
      LOOP:  cpu time      6.9699: real time      7.0278

 eigenvalue-minimisations  :  9852
 total energy-change (2. order) : 0.1393965E+01  (-0.1324984E+02)
 number of electron     191.9999999 magnetization       1.0000000
 augmentation part      -12.1466592 magnetization      -0.0407023

 Broyden mixing:
  rms(total) = 0.19831E+01    rms(broyden)= 0.19831E+01
  rms(prec ) = 0.22405E+01
  weight for this iteration     100.00

 eigenvalues of (default mixing * dielectric matrix)
  average eigenvalue GAMMA=   0.9660
  1.4148  0.5173

 Free energy of the ion-electron system (eV)
  ---------------------------------------------------
  alpha Z        PSCENC =        96.83389486
  Ewald energy   TEWEN  =     -4995.97834844
  -Hartree energ DENC   =      -869.58544004
  -exchange      EXHF   =         0.00000000
  -V(xc)+E(xc)   XCENC  =      -409.04706511
  PAW double counting   =     26939.91479588   -26105.53328643
  entropy T*S    EENTRO =        -0.00118917
  eigenvalues    EBANDS =       350.08802515
  atomic energy  EATOM  =      4947.19793617
  Solvation  Ediel_sol  =         0.00000000
  ---------------------------------------------------
  free energy    TOTEN  =       -46.11067712 eV

  energy without entropy =      -46.10948796  energy(sigma->0) =      -46.11008254


--------------------------------------------------------------------------------------------------------




--------------------------------------- Iteration      1(   8)  ---------------------------------------


    POTLOK:  cpu time      0.0611: real time      0.0616
    SETDIJ:  cpu time      0.2561: real time      0.2572
     EDDAV:  cpu time      6.7356: real time      6.7919
       DOS:  cpu time      0.0018: real time      0.0019
    CHARGE:  cpu time      0.3175: real time      0.3193
    MIXING:  cpu time      0.0028: real time      0.0028
    --------------------------------------------
      LOOP:  cpu time      7.3750: real time      7.4348

 eigenvalue-minimisations  : 10640
 total energy-change (2. order) : 0.3316817E+00  (-0.2532229E+01)
 number of electron     191.9999999 magnetization       1.0000000
 augmentation part      -12.2766897 magnetization      -0.0398329

 Broyden mixing:
  rms(total) = 0.70186E+00    rms(broyden)= 0.70186E+00
  rms(prec ) = 0.10069E+01
  weight for this iteration     100.00

 eigenvalues of (default mixing * dielectric matrix)
  average eigenvalue GAMMA=   0.9803
  1.6158  0.6626  0.6626

 Free energy of the ion-electron system (eV)
  ---------------------------------------------------
  alpha Z        PSCENC =        96.83389486
  Ewald energy   TEWEN  =     -4995.97834844
  -Hartree energ DENC   =      -867.68147356
  -exchange      EXHF   =         0.00000000
  -V(xc)+E(xc)   XCENC  =      -407.35161202
  PAW double counting   =     37003.10526521   -36170.06126853
  entropy T*S    EENTRO =        -0.00090574
  eigenvalues    EBANDS =       348.15751664
  atomic energy  EATOM  =      4947.19793617
  Solvation  Ediel_sol  =         0.00000000
  ---------------------------------------------------
  free energy    TOTEN  =       -45.77899541 eV

  energy without entropy =      -45.77808967  energy(sigma->0) =      -45.77854254


--------------------------------------------------------------------------------------------------------




--------------------------------------- Iteration      1(   9)  ---------------------------------------


    POTLOK:  cpu time      0.0617: real time      0.0623
    SETDIJ:  cpu time      0.2576: real time      0.2585
     EDDAV:  cpu time      6.7194: real time      6.7751
       DOS:  cpu time      0.0018: real time      0.0018
    CHARGE:  cpu time      0.3161: real time      0.3180
    MIXING:  cpu time      0.0033: real time      0.0033
    --------------------------------------------
      LOOP:  cpu time      7.3599: real time      7.4190

 eigenvalue-minimisations  : 10528
 total energy-change (2. order) : 0.3010259E+00  (-0.9675927E+00)
 number of electron     191.9999999 magnetization       1.0000000
 augmentation part      -12.2923101 magnetization      -0.0418881

 Broyden mixing:
  rms(total) = 0.35530E+00    rms(broyden)= 0.35530E+00
  rms(prec ) = 0.66772E+00
  weight for this iteration     100.00

 eigenvalues of (default mixing * dielectric matrix)
  average eigenvalue GAMMA=   0.9153
  1.7006  0.7165  0.7165  0.5274

 Free energy of the ion-electron system (eV)
  ---------------------------------------------------
  alpha Z        PSCENC =        96.83389486
  Ewald energy   TEWEN  =     -4995.97834844
  -Hartree energ DENC   =      -881.27623313
  -exchange      EXHF   =         0.00000000
  -V(xc)+E(xc)   XCENC  =      -406.07402802
  PAW double counting   =     41776.37570616   -40944.41972205
  entropy T*S    EENTRO =        -0.00077163
  eigenvalues    EBANDS =       361.86359662
  atomic energy  EATOM  =      4947.19793617
  Solvation  Ediel_sol  =         0.00000000
  ---------------------------------------------------
  free energy    TOTEN  =       -45.47796947 eV

  energy without entropy =      -45.47719784  energy(sigma->0) =      -45.47758365


--------------------------------------------------------------------------------------------------------




--------------------------------------- Iteration      1(  10)  ---------------------------------------


    POTLOK:  cpu time      0.0602: real time      0.0612
    SETDIJ:  cpu time      0.2572: real time      0.2582
     EDDAV:  cpu time      6.6954: real time      6.7612
       DOS:  cpu time      0.0018: real time      0.0268
    CHARGE:  cpu time      0.3170: real time      0.3189
    MIXING:  cpu time      0.0030: real time      0.0030
    --------------------------------------------
      LOOP:  cpu time      7.3348: real time      7.4293

 eigenvalue-minimisations  : 10552
 total energy-change (2. order) : 0.2970078E+00  (-0.2034420E+00)
 number of electron     191.9999999 magnetization       1.0000000
 augmentation part      -12.2782894 magnetization      -0.0399717

 Broyden mixing:
  rms(total) = 0.19895E+00    rms(broyden)= 0.19895E+00
  rms(prec ) = 0.22920E+00
  weight for this iteration     100.00

 eigenvalues of (default mixing * dielectric matrix)
  average eigenvalue GAMMA=   0.9085
  1.5825  0.9025  0.9025  0.7221  0.4328

 Free energy of the ion-electron system (eV)
  ---------------------------------------------------
  alpha Z        PSCENC =        96.83389486
  Ewald energy   TEWEN  =     -4995.97834844
  -Hartree energ DENC   =      -884.30697806
  -exchange      EXHF   =         0.00000000
  -V(xc)+E(xc)   XCENC  =      -405.78198782
  PAW double counting   =     42108.41019396   -41276.84392233
  entropy T*S    EENTRO =        -0.00100795
  eigenvalues    EBANDS =       365.28925796
  atomic energy  EATOM  =      4947.19793617
  Solvation  Ediel_sol  =         0.00000000
  ---------------------------------------------------
  free energy    TOTEN  =       -45.18096166 eV

  energy without entropy =      -45.17995371  energy(sigma->0) =      -45.18045768


--------------------------------------------------------------------------------------------------------




--------------------------------------- Iteration      1(  11)  ---------------------------------------


    POTLOK:  cpu time      0.0598: real time      0.0612
    SETDIJ:  cpu time      0.2578: real time      0.2587
     EDDAV:  cpu time      6.7466: real time      6.7959
       DOS:  cpu time      0.0018: real time      0.0018
    CHARGE:  cpu time      0.3171: real time      0.3185
    MIXING:  cpu time      0.0020: real time      0.0020
    --------------------------------------------
      LOOP:  cpu time      7.3851: real time      7.4381

 eigenvalue-minimisations  : 10672
 total energy-change (2. order) :-0.2232101E-01  (-0.4711563E-01)
 number of electron     191.9999999 magnetization       1.0000000
 augmentation part      -12.2797330 magnetization      -0.0394849

 Broyden mixing:
  rms(total) = 0.16290E+00    rms(broyden)= 0.16290E+00
  rms(prec ) = 0.17376E+00
  weight for this iteration     100.00

 eigenvalues of (default mixing * dielectric matrix)
  average eigenvalue GAMMA=   0.8977
  1.4676  1.4676  0.7985  0.6255  0.6255  0.4012

 Free energy of the ion-electron system (eV)
  ---------------------------------------------------
  alpha Z        PSCENC =        96.83389486
  Ewald energy   TEWEN  =     -4995.97834844
  -Hartree energ DENC   =      -885.22089798
  -exchange      EXHF   =         0.00000000
  -V(xc)+E(xc)   XCENC  =      -405.78218576
  PAW double counting   =     41499.16509609   -40667.71638956
  entropy T*S    EENTRO =        -0.00093975
  eigenvalues    EBANDS =       366.29855170
  atomic energy  EATOM  =      4947.19793617
  Solvation  Ediel_sol  =         0.00000000
  ---------------------------------------------------
  free energy    TOTEN  =       -45.20328267 eV

  energy without entropy =      -45.20234292  energy(sigma->0) =      -45.20281279


--------------------------------------------------------------------------------------------------------




--------------------------------------- Iteration      1(  12)  ---------------------------------------


    POTLOK:  cpu time      0.0609: real time      0.0614
    SETDIJ:  cpu time      0.2580: real time      0.2591
     EDDAV:  cpu time      6.6269: real time      6.6744
       DOS:  cpu time      0.0018: real time      0.0018
    CHARGE:  cpu time      0.3218: real time      0.3231
    MIXING:  cpu time      0.0022: real time      0.0022
    --------------------------------------------
      LOOP:  cpu time      7.2716: real time      7.3221

 eigenvalue-minimisations  : 10536
 total energy-change (2. order) : 0.1363644E-02  (-0.6216898E-02)
 number of electron     191.9999999 magnetization       1.0000000
 augmentation part      -12.2838263 magnetization      -0.0393181

 Broyden mixing:
  rms(total) = 0.10431E+00    rms(broyden)= 0.10431E+00
  rms(prec ) = 0.10695E+00
  weight for this iteration     100.00

 eigenvalues of (default mixing * dielectric matrix)
  average eigenvalue GAMMA=   1.0760
  2.1181  2.1181  0.9066  0.7231  0.7231  0.4715  0.4715

 Free energy of the ion-electron system (eV)
  ---------------------------------------------------
  alpha Z        PSCENC =        96.83389486
  Ewald energy   TEWEN  =     -4995.97834844
  -Hartree energ DENC   =      -884.85473576
  -exchange      EXHF   =         0.00000000
  -V(xc)+E(xc)   XCENC  =      -405.82666296
  PAW double counting   =     40872.68585222   -40041.27884620
  entropy T*S    EENTRO =        -0.00096476
  eigenvalues    EBANDS =       366.01995584
  atomic energy  EATOM  =      4947.19793617
  Solvation  Ediel_sol  =         0.00000000
  ---------------------------------------------------
  free energy    TOTEN  =       -45.20191903 eV

  energy without entropy =      -45.20095427  energy(sigma->0) =      -45.20143665


--------------------------------------------------------------------------------------------------------




--------------------------------------- Iteration      1(  13)  ---------------------------------------


    POTLOK:  cpu time      0.0602: real time      0.0614
    SETDIJ:  cpu time      0.2582: real time      0.2593
     EDDAV:  cpu time      6.8491: real time      6.8972
       DOS:  cpu time      0.0019: real time      0.0019
    CHARGE:  cpu time      0.3152: real time      0.3168
    MIXING:  cpu time      0.0025: real time      0.0025
    --------------------------------------------
      LOOP:  cpu time      7.4872: real time      7.5391

 eigenvalue-minimisations  : 10872
 total energy-change (2. order) :-0.1633721E-02  (-0.2779739E-02)
 number of electron     191.9999999 magnetization       1.0000000
 augmentation part      -12.2833303 magnetization      -0.0390346

 Broyden mixing:
  rms(total) = 0.40355E-01    rms(broyden)= 0.40355E-01
  rms(prec ) = 0.47000E-01
  weight for this iteration     100.00

 eigenvalues of (default mixing * dielectric matrix)
  average eigenvalue GAMMA=   1.0190
  2.2031  1.7264  0.9749  0.7881  0.7881  0.6809  0.4574  0.5331

 Free energy of the ion-electron system (eV)
  ---------------------------------------------------
  alpha Z        PSCENC =        96.83389486
  Ewald energy   TEWEN  =     -4995.97834844
  -Hartree energ DENC   =      -884.97463511
  -exchange      EXHF   =         0.00000000
  -V(xc)+E(xc)   XCENC  =      -405.80651470
  PAW double counting   =     40115.54275785   -39284.27694617
  entropy T*S    EENTRO =        -0.00102186
  eigenvalues    EBANDS =       366.25932467
  atomic energy  EATOM  =      4947.19793617
  Solvation  Ediel_sol  =         0.00000000
  ---------------------------------------------------
  free energy    TOTEN  =       -45.20355275 eV

  energy without entropy =      -45.20253088  energy(sigma->0) =      -45.20304182


--------------------------------------------------------------------------------------------------------




--------------------------------------- Iteration      1(  14)  ---------------------------------------


    POTLOK:  cpu time      0.0607: real time      0.0612
    SETDIJ:  cpu time      0.2581: real time      0.2589
     EDDAV:  cpu time      6.7087: real time      6.7810
       DOS:  cpu time      0.0019: real time      0.0019
    CHARGE:  cpu time      0.3148: real time      0.3162
    MIXING:  cpu time      0.0028: real time      0.0028
    --------------------------------------------
      LOOP:  cpu time      7.3470: real time      7.4221

 eigenvalue-minimisations  : 10584
 total energy-change (2. order) : 0.1467473E-02  (-0.8607959E-03)
 number of electron     191.9999999 magnetization       1.0000000
 augmentation part      -12.2817108 magnetization      -0.0392487

 Broyden mixing:
  rms(total) = 0.14631E-01    rms(broyden)= 0.14631E-01
  rms(prec ) = 0.17233E-01
  weight for this iteration     100.00

 eigenvalues of (default mixing * dielectric matrix)
  average eigenvalue GAMMA=   0.9672
  2.1468  1.5982  1.0002  0.7991  0.7991  0.8328  0.4398  0.5446  0.5446

 Free energy of the ion-electron system (eV)
  ---------------------------------------------------
  alpha Z        PSCENC =        96.83389486
  Ewald energy   TEWEN  =     -4995.97834844
  -Hartree energ DENC   =      -885.43912744
  -exchange      EXHF   =         0.00000000
  -V(xc)+E(xc)   XCENC  =      -405.75329878
  PAW double counting   =     40396.82810943   -39565.58445933
  entropy T*S    EENTRO =        -0.00101077
  eigenvalues    EBANDS =       366.69421903
  atomic energy  EATOM  =      4947.19793617
  Solvation  Ediel_sol  =         0.00000000
  ---------------------------------------------------
  free energy    TOTEN  =       -45.20208527 eV

  energy without entropy =      -45.20107451  energy(sigma->0) =      -45.20157989


--------------------------------------------------------------------------------------------------------




--------------------------------------- Iteration      1(  15)  ---------------------------------------


    POTLOK:  cpu time      0.0599: real time      0.0613
    SETDIJ:  cpu time      0.2568: real time      0.2576
     EDDAV:  cpu time      6.4359: real time      6.4819
       DOS:  cpu time      0.0019: real time      0.0019
    CHARGE:  cpu time      0.3151: real time      0.3165
    MIXING:  cpu time      0.0023: real time      0.0024
    --------------------------------------------
      LOOP:  cpu time      7.0719: real time      7.1216

 eigenvalue-minimisations  : 10120
 total energy-change (2. order) :-0.1531924E-03  (-0.3520253E-03)
 number of electron     191.9999999 magnetization       1.0000000
 augmentation part      -12.2826314 magnetization      -0.0391367

 Broyden mixing:
  rms(total) = 0.94039E-02    rms(broyden)= 0.94039E-02
  rms(prec ) = 0.10992E-01
  weight for this iteration     100.00

 eigenvalues of (default mixing * dielectric matrix)
  average eigenvalue GAMMA=   0.9841
  2.1490  1.5560  1.5560  0.8915  0.7479  0.7479  0.6702  0.5945  0.4639  0.4639

 Free energy of the ion-electron system (eV)
  ---------------------------------------------------
  alpha Z        PSCENC =        96.83389486
  Ewald energy   TEWEN  =     -4995.97834844
  -Hartree energ DENC   =      -885.41518092
  -exchange      EXHF   =         0.00000000
  -V(xc)+E(xc)   XCENC  =      -405.74595973
  PAW double counting   =     40484.62971903   -39653.37999315
  entropy T*S    EENTRO =        -0.00100600
  eigenvalues    EBANDS =       366.65669972
  atomic energy  EATOM  =      4947.19793617
  Solvation  Ediel_sol  =         0.00000000
  ---------------------------------------------------
  free energy    TOTEN  =       -45.20223847 eV

  energy without entropy =      -45.20123247  energy(sigma->0) =      -45.20173547


--------------------------------------------------------------------------------------------------------




--------------------------------------- Iteration      1(  16)  ---------------------------------------


    POTLOK:  cpu time      0.0602: real time      0.0609
    SETDIJ:  cpu time      0.2571: real time      0.2579
     EDDAV:  cpu time      6.9056: real time      6.9534
       DOS:  cpu time      0.0019: real time      0.0019
    CHARGE:  cpu time      0.3142: real time      0.3157
    MIXING:  cpu time      0.0029: real time      0.0029
    --------------------------------------------
      LOOP:  cpu time      7.5420: real time      7.5928

 eigenvalue-minimisations  : 11168
 total energy-change (2. order) :-0.6066693E-06  (-0.2993229E-04)
 number of electron     191.9999999 magnetization       1.0000000
 augmentation part      -12.2830896 magnetization      -0.0392158

 Broyden mixing:
  rms(total) = 0.56143E-02    rms(broyden)= 0.56143E-02
  rms(prec ) = 0.60603E-02
  weight for this iteration     100.00

 eigenvalues of (default mixing * dielectric matrix)
  average eigenvalue GAMMA=   0.9758
  2.1475  1.6663  1.6663  0.7722  0.7722  0.7776  0.7776  0.6122  0.6122  0.4489
  0.4813

 Free energy of the ion-electron system (eV)
  ---------------------------------------------------
  alpha Z        PSCENC =        96.83389486
  Ewald energy   TEWEN  =     -4995.97834844
  -Hartree energ DENC   =      -885.39818580
  -exchange      EXHF   =         0.00000000
  -V(xc)+E(xc)   XCENC  =      -405.74357688
  PAW double counting   =     40505.49380229   -39674.24209788
  entropy T*S    EENTRO =        -0.00100711
  eigenvalues    EBANDS =       366.63534372
  atomic energy  EATOM  =      4947.19793617
  Solvation  Ediel_sol  =         0.00000000
  ---------------------------------------------------
  free energy    TOTEN  =       -45.20223907 eV

  energy without entropy =      -45.20123197  energy(sigma->0) =      -45.20173552


--------------------------------------------------------------------------------------------------------




--------------------------------------- Iteration      1(  17)  ---------------------------------------


    POTLOK:  cpu time      0.0594: real time      0.0614
    SETDIJ:  cpu time      0.2566: real time      0.2576
     EDDAV:  cpu time      6.6838: real time      6.7297
       DOS:  cpu time      0.0019: real time      0.0019
    CHARGE:  cpu time      0.3147: real time      0.3160
    MIXING:  cpu time      0.0025: real time      0.0025
    --------------------------------------------
      LOOP:  cpu time      7.3187: real time      7.3692

 eigenvalue-minimisations  : 10488
 total energy-change (2. order) : 0.1007844E-04  (-0.1733732E-04)
 number of electron     191.9999999 magnetization       1.0000000
 augmentation part      -12.2832300 magnetization      -0.0391960

 Broyden mixing:
  rms(total) = 0.27906E-02    rms(broyden)= 0.27906E-02
  rms(prec ) = 0.28524E-02
  weight for this iteration     100.00

 eigenvalues of (default mixing * dielectric matrix)
  average eigenvalue GAMMA=   0.9790
  1.9117  1.8781  1.8781  0.9113  0.9113  0.7995  0.7995  0.6054  0.5752  0.5752
  0.4512  0.4512

 Free energy of the ion-electron system (eV)
  ---------------------------------------------------
  alpha Z        PSCENC =        96.83389486
  Ewald energy   TEWEN  =     -4995.97834844
  -Hartree energ DENC   =      -885.38543731
  -exchange      EXHF   =         0.00000000
  -V(xc)+E(xc)   XCENC  =      -405.74520461
  PAW double counting   =     40489.73011058   -39658.47638082
  entropy T*S    EENTRO =        -0.00100716
  eigenvalues    EBANDS =       366.62220774
  atomic energy  EATOM  =      4947.19793617
  Solvation  Ediel_sol  =         0.00000000
  ---------------------------------------------------
  free energy    TOTEN  =       -45.20222900 eV

  energy without entropy =      -45.20122183  energy(sigma->0) =      -45.20172541


--------------------------------------------------------------------------------------------------------




--------------------------------------- Iteration      1(  18)  ---------------------------------------


    POTLOK:  cpu time      0.0608: real time      0.0619
    SETDIJ:  cpu time      0.2560: real time      0.2569
     EDDAV:  cpu time      6.5553: real time      6.6016
       DOS:  cpu time      0.0019: real time      0.0019
    CHARGE:  cpu time      0.3150: real time      0.3171
    MIXING:  cpu time      0.0030: real time      0.0030
    --------------------------------------------
      LOOP:  cpu time      7.1920: real time      7.2424

 eigenvalue-minimisations  : 10344
 total energy-change (2. order) : 0.4316498E-06  (-0.2097341E-05)
 number of electron     191.9999999 magnetization       1.0000000
 augmentation part      -12.2831979 magnetization      -0.0391816

 Broyden mixing:
  rms(total) = 0.13955E-02    rms(broyden)= 0.13955E-02
  rms(prec ) = 0.14341E-02
  weight for this iteration     100.00

 eigenvalues of (default mixing * dielectric matrix)
  average eigenvalue GAMMA=   0.9787
  2.0873  2.0873  1.6276  0.9949  0.9949  0.7764  0.7764  0.6969  0.6969  0.5938
  0.4762  0.4762  0.4378

 Free energy of the ion-electron system (eV)
  ---------------------------------------------------
  alpha Z        PSCENC =        96.83389486
  Ewald energy   TEWEN  =     -4995.97834844
  -Hartree energ DENC   =      -885.37614133
  -exchange      EXHF   =         0.00000000
  -V(xc)+E(xc)   XCENC  =      -405.74654713
  PAW double counting   =     40481.30767121   -39650.05209289
  entropy T*S    EENTRO =        -0.00100831
  eigenvalues    EBANDS =       366.61240731
  atomic energy  EATOM  =      4947.19793617
  Solvation  Ediel_sol  =         0.00000000
  ---------------------------------------------------
  free energy    TOTEN  =       -45.20222856 eV

  energy without entropy =      -45.20122025  energy(sigma->0) =      -45.20172441


--------------------------------------------------------------------------------------------------------




--------------------------------------- Iteration      1(  19)  ---------------------------------------


    POTLOK:  cpu time      0.0615: real time      0.0941
    SETDIJ:  cpu time      0.2565: real time      0.2574
     EDDAV:  cpu time      6.5432: real time      6.5894
       DOS:  cpu time      0.0018: real time      0.0018
    CHARGE:  cpu time      0.3148: real time      0.3164
    MIXING:  cpu time      0.0040: real time      0.0040
    --------------------------------------------
      LOOP:  cpu time      7.1818: real time      7.2632

 eigenvalue-minimisations  : 10320
 total energy-change (2. order) : 0.6078699E-07  (-0.2969311E-06)
 number of electron     191.9999999 magnetization       1.0000000
 augmentation part      -12.2831796 magnetization      -0.0391917

 Broyden mixing:
  rms(total) = 0.66827E-03    rms(broyden)= 0.66826E-03
  rms(prec ) = 0.71106E-03
  weight for this iteration     100.00

 eigenvalues of (default mixing * dielectric matrix)
  average eigenvalue GAMMA=   0.9815
  2.0965  2.0965  1.5402  1.1788  1.1788  0.7782  0.7782  0.7468  0.7468  0.6060
  0.6060  0.4984  0.4452  0.4452

 Free energy of the ion-electron system (eV)
  ---------------------------------------------------
  alpha Z        PSCENC =        96.83389486
  Ewald energy   TEWEN  =     -4995.97834844
  -Hartree energ DENC   =      -885.37487023
  -exchange      EXHF   =         0.00000000
  -V(xc)+E(xc)   XCENC  =      -405.74691982
  PAW double counting   =     40476.44189689   -39645.18610205
  entropy T*S    EENTRO =        -0.00100863
  eigenvalues    EBANDS =       366.61129275
  atomic energy  EATOM  =      4947.19793617
  Solvation  Ediel_sol  =         0.00000000
  ---------------------------------------------------
  free energy    TOTEN  =       -45.20222850 eV

  energy without entropy =      -45.20121987  energy(sigma->0) =      -45.20172419


--------------------------------------------------------------------------------------------------------




--------------------------------------- Iteration      1(  20)  ---------------------------------------


    POTLOK:  cpu time      0.0602: real time      0.0612
    SETDIJ:  cpu time      0.2567: real time      0.2575
     EDDAV:  cpu time      6.7718: real time      6.8194
       DOS:  cpu time      0.0019: real time      0.0019
    CHARGE:  cpu time      0.3165: real time      0.3181
    MIXING:  cpu time      0.0028: real time      0.0028
    --------------------------------------------
      LOOP:  cpu time      7.4099: real time      7.4610

 eigenvalue-minimisations  : 10840
 total energy-change (2. order) :-0.5760003E-06  (-0.9344236E-07)
 number of electron     191.9999999 magnetization       1.0000000
 augmentation part      -12.2831605 magnetization      -0.0391882

 Broyden mixing:
  rms(total) = 0.42318E-03    rms(broyden)= 0.42316E-03
  rms(prec ) = 0.44323E-03
  weight for this iteration     100.00

 eigenvalues of (default mixing * dielectric matrix)
  average eigenvalue GAMMA=   0.9862
  2.2227  1.8022  1.5899  1.5899  1.1620  0.8559  0.8559  0.7602  0.7602  0.6277
  0.6277  0.5514  0.4946  0.4464  0.4464

 Free energy of the ion-electron system (eV)
  ---------------------------------------------------
  alpha Z        PSCENC =        96.83389486
  Ewald energy   TEWEN  =     -4995.97834844
  -Hartree energ DENC   =      -885.37838978
  -exchange      EXHF   =         0.00000000
  -V(xc)+E(xc)   XCENC  =      -405.74674132
  PAW double counting   =     40474.17387937   -39642.91858936
  entropy T*S    EENTRO =        -0.00100827
  eigenvalues    EBANDS =       366.61513772
  atomic energy  EATOM  =      4947.19793617
  Solvation  Ediel_sol  =         0.00000000
  ---------------------------------------------------
  free energy    TOTEN  =       -45.20222908 eV

  energy without entropy =      -45.20122080  energy(sigma->0) =      -45.20172494


--------------------------------------------------------------------------------------------------------




--------------------------------------- Iteration      1(  21)  ---------------------------------------


    POTLOK:  cpu time      0.0599: real time      0.0612
    SETDIJ:  cpu time      0.2561: real time      0.2570
     EDDAV:  cpu time      5.6718: real time      5.7114
       DOS:  cpu time      0.0018: real time      0.0018
    CHARGE:  cpu time      0.3147: real time      0.3162
    MIXING:  cpu time      0.0040: real time      0.0041
    --------------------------------------------
      LOOP:  cpu time      6.3083: real time      6.3517

 eigenvalue-minimisations  :  8336
 total energy-change (2. order) :-0.1810167E-06  (-0.3807437E-07)
 number of electron     191.9999999 magnetization       1.0000000
 augmentation part      -12.2831538 magnetization      -0.0391862

 Broyden mixing:
  rms(total) = 0.27926E-03    rms(broyden)= 0.27924E-03
  rms(prec ) = 0.30063E-03
  weight for this iteration     100.00

 eigenvalues of (default mixing * dielectric matrix)
  average eigenvalue GAMMA=   0.9835
  2.2439  1.8586  1.8586  1.4826  1.0397  0.9306  0.9306  0.7692  0.7692  0.6972
  0.6972  0.5425  0.5425  0.4822  0.4499  0.4423

 Free energy of the ion-electron system (eV)
  ---------------------------------------------------
  alpha Z        PSCENC =        96.83389486
  Ewald energy   TEWEN  =     -4995.97834844
  -Hartree energ DENC   =      -885.37973975
  -exchange      EXHF   =         0.00000000
  -V(xc)+E(xc)   XCENC  =      -405.74652788
  PAW double counting   =     40475.38405500   -39644.12889174
  entropy T*S    EENTRO =        -0.00100808
  eigenvalues    EBANDS =       366.61640060
  atomic energy  EATOM  =      4947.19793617
  Solvation  Ediel_sol  =         0.00000000
[...]
     61       4.1418      1.00000
     62       4.3008      1.00000
     63       4.3500      1.00000
     64       4.3980      1.00000
     65       4.4875      1.00000
     66       4.7000      1.00000
     67       4.7180      1.00000
     68       4.7961      1.00000
     69       4.9271      1.00000
     70       4.9284      1.00000
     71       5.1751      1.00000
     72       5.2009      1.00000
     73       5.2349      1.00000
     74       5.3575      1.00000
     75       5.3741      1.00000
     76       5.4610      1.00000
     77       5.6011      1.00000
     78       5.6797      1.00000
     79       5.7674      1.00000
     80       5.8104      1.00000
     81       5.8693      1.00000
     82       6.0375      1.00000
     83       6.1623      1.00000
     84       6.2223      1.00000
     85       6.3270      1.00000
     86       6.4569      1.00000
     87       6.5978      1.00000
     88       6.8331      1.00000
     89       6.8888      1.00000
     90       7.0410      1.00000
     91       7.1336      1.00000
     92       7.2288      1.00000
     93       7.4985      1.00000
     94       7.6480      1.00000
     95       7.8407      1.00000
     96       7.9107      1.00000
     97       8.1038      0.00000
     98       8.3669      0.00000
     99       8.3719      0.00000
    100       8.4494      0.00000
    101       8.4734      0.00000
    102       8.6390      0.00000
    103       8.7253      0.00000
    104       8.7670      0.00000
    105       8.9346      0.00000
    106       9.0571      0.00000
    107       9.0811      0.00000
    108       9.3747      0.00000
    109       9.3755      0.00000
    110       9.4935      0.00000
    111       9.5774      0.00000
    112       9.6739      0.00000
    113       9.7922      0.00000
    114       9.8977      0.00000
    115       9.9123      0.00000
    116      10.0260      0.00000


--------------------------------------------------------------------------------------------------------


 soft charge-density along one line, spin component           1
         0         1         2         3         4         5         6         7         8         9
 total charge-density along one line
 
 soft charge-density along one line, spin component           2
         0         1         2         3         4         5         6         7         8         9
 total charge-density along one line
 
 pseudopotential strength for first ion, spin component:           1
 18.237  25.443   0.005  -0.003  -0.001   0.009  -0.005  -0.001
 25.443  35.500   0.007  -0.004  -0.001   0.013  -0.008  -0.001
  0.005   0.007   4.149  -0.000   0.000   7.731  -0.000   0.000
 -0.003  -0.004  -0.000   4.149   0.000  -0.000   7.730   0.000
 -0.001  -0.001   0.000   0.000   4.147   0.000   0.000   7.727
  0.009   0.013   7.731  -0.000   0.000  14.414  -0.001   0.000
 -0.005  -0.008  -0.000   7.730   0.000  -0.001  14.414   0.000
 -0.001  -0.001   0.000   0.000   7.727   0.000   0.000  14.408
 pseudopotential strength for first ion, spin component:           2
 18.234  25.439   0.005  -0.003  -0.001   0.009  -0.005  -0.001
 25.439  35.495   0.007  -0.004  -0.001   0.012  -0.007  -0.001
  0.005   0.007   4.148  -0.000   0.000   7.728  -0.001   0.000
 -0.003  -0.004  -0.000   4.148   0.000  -0.001   7.728   0.000
 -0.001  -0.001   0.000   0.000   4.146   0.000   0.000   7.725
  0.009   0.012   7.728  -0.001   0.000  14.410  -0.001   0.000
 -0.005  -0.007  -0.001   7.728   0.000  -0.001  14.410  -0.000
 -0.001  -0.001   0.000   0.000   7.725   0.000  -0.000  14.404
 total augmentation occupancy for first ion, spin component:           1
  5.746  -2.339   0.366  -0.280   0.018  -0.141   0.134   0.001
 -2.339   1.228  -0.245   0.213  -0.029   0.090  -0.098   0.000
  0.366  -0.245   3.206  -0.172  -0.109  -0.799   0.043   0.037
 -0.280   0.213  -0.172   3.221   0.016   0.043  -0.792   0.003
  0.018  -0.029  -0.109   0.016   1.942   0.036   0.003  -0.363
 -0.141   0.090  -0.799   0.043   0.036   0.213  -0.013  -0.012
  0.134  -0.098   0.043  -0.792   0.003  -0.013   0.212  -0.001
  0.001   0.000   0.037   0.003  -0.363  -0.012  -0.001   0.078
 total augmentation occupancy for first ion, spin component:           2
  0.036  -0.020   0.002   0.004   0.000  -0.001  -0.001  -0.000
 -0.020   0.012  -0.000  -0.005  -0.001   0.001   0.001   0.000
  0.002  -0.000   0.019   0.005   0.001  -0.004  -0.001   0.000
  0.004  -0.005   0.005   0.022   0.003  -0.001  -0.004  -0.000
  0.000  -0.001   0.001   0.003   0.022  -0.000  -0.000  -0.003
 -0.001   0.001  -0.004  -0.001  -0.000   0.001   0.000  -0.000
 -0.001   0.001  -0.001  -0.004  -0.000   0.000   0.001   0.000
 -0.000   0.000   0.000  -0.000  -0.003  -0.000   0.000   0.001


------------------------ aborting loop because EDIFF is reached ----------------------------------------


    CHARGE:  cpu time      0.3162: real time      0.3176
    FORLOC:  cpu time      0.0072: real time      0.0072
    FORNL :  cpu time      1.2803: real time      1.2873
    STRESS:  cpu time      3.8955: real time      3.9248
    FORCOR:  cpu time      0.0616: real time      0.0619
    FORHAR:  cpu time      0.0111: real time      0.0112
    MIXING:  cpu time      0.0029: real time      0.0029
    OFIELD:  cpu time      0.0000: real time      0.0000

  FORCE on cell =-STRESS in cart. coord.  units (eV):
  Direction    XX          YY          ZZ          XY          YZ          ZX
  --------------------------------------------------------------------------------------
  Alpha Z    96.83389    96.83389    96.83389
  Ewald   -1876.28297 -1241.47967 -1878.24711   106.29516   519.44745   -21.32916
  Hartree   494.26704   402.52299   -11.40581    -0.33066   137.26484     3.42148
  E(xc)    -648.91453  -652.93455  -654.56552    -1.09970    -3.65890     1.31771
  Local   -1313.78984 -1496.32476  -565.20078   -27.74222  -472.47562    28.74201
  n-local  2058.28574  2110.66074  2179.65946     8.53172    46.23224   -30.11535
  augment  -315.06621  -298.67904  -305.24772     3.42895     6.65723     1.56627
  Kinetic  1606.68649  1550.61863  1553.83566    -6.57466   -12.80103    -0.36177
  Fock        0.00000     0.00000     0.00000     0.00000     0.00000     0.00000
  -------------------------------------------------------------------------------------
  Total     102.01962   471.21824   415.66208    82.50859   220.66623   -16.75881
  in kB     204.07260   942.59058   831.46009   165.04416   441.40462   -33.52310
  external pressure =      659.37 kB  Pullay stress =        0.00 kB


 VOLUME and BASIS-vectors are now :
 -----------------------------------------------------------------------------
  energy-cutoff  :      700.00
  volume of cell :      800.96
      direct lattice vectors                 reciprocal lattice vectors
     7.680594444  0.000000000  0.000000000     0.130198256  0.043399418  0.000000000
    -3.840296984 11.520891190  0.000000000     0.000000000  0.086798841  0.000000000
     0.000000000  0.000000000  9.051669121     0.000000000  0.000000000  0.110476862

  length of vectors
     7.680594444 12.144085587  9.051669121     0.137241012  0.086798841  0.110476862


 FORCES acting on ions
    electron-ion (+dipol)            ewald-force                    non-local-force                 convergence-correction
 -----------------------------------------------------------------------------------------------
   -.843E+00 0.435E+02 -.715E+02   0.632E+00 -.439E+02 0.717E+02   0.603E+00 -.123E+01 0.813E+00   0.245E-04 -.370E-03 0.320E-03
   -.118E+00 0.295E+01 -.305E+01   -.266E-01 -.325E+01 0.312E+01   0.104E+00 0.244E+00 -.902E-01   0.573E-06 0.871E-04 0.833E-05
   0.179E+00 -.277E+00 0.268E+02   0.470E-01 0.478E+00 -.263E+02   -.907E-01 -.186E+00 -.682E+00   0.188E-05 0.101E-04 0.319E-04
   0.972E+01 -.240E+02 -.696E+02   -.882E+01 0.196E+02 0.675E+02   -.143E+01 0.152E+02 0.107E+02   0.229E-04 0.443E-03 0.204E-03
   -.370E+00 0.113E+02 -.121E+02   -.154E+00 -.113E+02 0.126E+02   0.472E+00 -.363E-01 -.348E+00   -.151E-05 -.134E-03 0.557E-04
   -.126E+02 0.377E+02 0.141E+03   0.129E+02 -.401E+02 -.149E+03   0.935E+01 -.109E+02 -.440E+02   0.461E-04 -.400E-03 -.547E-03
   -.211E+02 -.127E+03 -.391E+02   0.439E+02 0.217E+03 0.824E+02   0.140E+02 0.466E+02 0.246E+02   -.517E-04 -.245E-03 -.129E-03
   -.551E+00 -.141E+02 -.468E+02   0.750E+00 0.143E+02 0.473E+02   -.212E+00 0.960E-01 0.241E-01   -.727E-05 0.638E-04 0.158E-04
   0.156E+01 -.269E+02 0.596E+02   -.161E+01 0.258E+02 -.603E+02   0.751E-01 0.109E+01 0.122E+00   0.139E-04 0.245E-03 -.152E-03
   -.168E+01 0.259E+02 -.682E+02   0.193E+01 -.265E+02 0.687E+02   -.166E-01 0.323E+00 0.665E+00   0.561E-05 -.184E-03 0.286E-03
   0.127E+01 0.140E+02 0.439E+02   -.634E+00 -.142E+02 -.435E+02   -.803E+00 0.472E-01 -.921E+00   0.116E-05 -.970E-04 -.162E-03
   0.146E+02 0.803E+02 0.986E+01   -.120E+02 -.785E+02 -.984E+01   -.693E+01 -.713E+01 -.107E+01   0.725E-05 -.178E-03 0.221E-04
   0.750E+01 -.105E+02 -.101E+03   -.633E+01 0.929E+01 0.991E+02   -.272E+01 0.206E+00 0.576E+01   0.282E-05 0.199E-03 -.106E-03
   0.316E+00 -.106E+02 0.146E+02   0.148E+00 0.105E+02 -.141E+02   -.536E+00 0.190E+00 -.811E+00   -.474E-05 0.499E-04 0.314E-05
   -.226E+02 -.394E+02 0.109E+03   0.227E+02 0.382E+02 -.114E+03   0.148E+02 0.204E+02 -.477E+02   0.101E-03 0.251E-03 -.440E-03
   0.767E-01 -.346E+01 -.259E+02   0.183E-01 0.313E+01 0.255E+02   0.374E-01 0.713E+00 0.565E+00   0.309E-05 0.593E-04 0.116E-04
   -.235E+00 -.397E+01 0.276E+01   0.239E-01 0.434E+01 -.244E+01   0.145E+00 -.194E+00 -.328E+00   -.323E-05 0.148E-04 0.232E-04
   -.736E+00 -.237E+02 0.748E+02   -.195E+00 0.268E+02 -.733E+02   0.152E+01 -.514E+01 -.459E+01   -.233E-05 0.145E-03 0.537E-04
   -.843E+00 0.435E+02 -.715E+02   0.632E+00 -.439E+02 0.717E+02   0.603E+00 -.123E+01 0.813E+00   0.232E-04 -.371E-03 0.316E-03
   -.118E+00 0.295E+01 -.305E+01   -.266E-01 -.325E+01 0.312E+01   0.104E+00 0.244E+00 -.902E-01   -.123E-05 0.870E-04 0.757E-05
   0.179E+00 -.277E+00 0.268E+02   0.470E-01 0.478E+00 -.263E+02   -.907E-01 -.186E+00 -.682E+00   0.431E-05 0.950E-05 0.300E-04
   0.972E+01 -.240E+02 -.696E+02   -.882E+01 0.196E+02 0.675E+02   -.143E+01 0.152E+02 0.107E+02   0.185E-04 0.446E-03 0.204E-03
   -.370E+00 0.113E+02 -.121E+02   -.154E+00 -.113E+02 0.126E+02   0.472E+00 -.363E-01 -.348E+00   -.128E-05 -.135E-03 0.575E-04
   -.126E+02 0.377E+02 0.141E+03   0.129E+02 -.401E+02 -.149E+03   0.935E+01 -.109E+02 -.440E+02   0.407E-04 -.401E-03 -.544E-03
   -.211E+02 -.127E+03 -.391E+02   0.439E+02 0.217E+03 0.824E+02   0.140E+02 0.466E+02 0.246E+02   -.474E-04 -.240E-03 -.127E-03
   -.551E+00 -.141E+02 -.468E+02   0.750E+00 0.143E+02 0.473E+02   -.212E+00 0.960E-01 0.241E-01   -.420E-05 0.644E-04 0.148E-04
   0.156E+01 -.269E+02 0.596E+02   -.161E+01 0.258E+02 -.603E+02   0.751E-01 0.109E+01 0.122E+00   0.140E-04 0.245E-03 -.150E-03
   -.168E+01 0.259E+02 -.682E+02   0.193E+01 -.265E+02 0.687E+02   -.166E-01 0.323E+00 0.665E+00   0.680E-05 -.188E-03 0.288E-03
   0.127E+01 0.140E+02 0.439E+02   -.634E+00 -.142E+02 -.435E+02   -.803E+00 0.472E-01 -.921E+00   -.405E-06 -.966E-04 -.165E-03
   0.146E+02 0.803E+02 0.986E+01   -.120E+02 -.785E+02 -.984E+01   -.693E+01 -.713E+01 -.107E+01   0.125E-04 -.179E-03 0.199E-04
   0.750E+01 -.105E+02 -.101E+03   -.633E+01 0.929E+01 0.991E+02   -.272E+01 0.206E+00 0.576E+01   0.223E-06 0.199E-03 -.113E-03
   0.316E+00 -.106E+02 0.146E+02   0.148E+00 0.105E+02 -.141E+02   -.536E+00 0.190E+00 -.811E+00   -.653E-05 0.489E-04 0.299E-05
   -.226E+02 -.394E+02 0.109E+03   0.227E+02 0.382E+02 -.114E+03   0.148E+02 0.204E+02 -.477E+02   0.101E-03 0.244E-03 -.440E-03
   0.767E-01 -.346E+01 -.259E+02   0.183E-01 0.313E+01 0.255E+02   0.374E-01 0.713E+00 0.565E+00   0.470E-05 0.617E-04 0.140E-04
   -.235E+00 -.397E+01 0.276E+01   0.239E-01 0.434E+01 -.244E+01   0.145E+00 -.194E+00 -.328E+00   -.205E-05 0.155E-04 0.238E-04
   -.736E+00 -.237E+02 0.748E+02   -.195E+00 0.268E+02 -.733E+02   0.152E+01 -.514E+01 -.459E+01   -.465E-05 0.145E-03 0.598E-04
   0.297E+02 0.467E+02 -.303E+02   -.323E+02 -.442E+02 0.372E+02   -.131E+02 -.183E+02 0.449E+02   -.822E-04 -.717E-03 -.409E-04
   -.197E+02 -.173E+02 0.406E+02   0.192E+02 0.174E+02 -.399E+02   0.239E+01 -.385E+00 -.250E+01   0.543E-04 0.490E-03 -.599E-04
   0.295E+02 -.116E+02 0.499E+02   -.558E+02 -.768E+02 -.967E+02   -.120E+02 -.416E+02 -.204E+02   0.815E-04 0.140E-03 0.416E-04
   0.297E+02 0.467E+02 -.303E+02   -.323E+02 -.442E+02 0.372E+02   -.131E+02 -.183E+02 0.449E+02   -.840E-04 -.718E-03 -.390E-04
   -.197E+02 -.173E+02 0.406E+02   0.192E+02 0.174E+02 -.399E+02   0.239E+01 -.385E+00 -.250E+01   0.451E-04 0.491E-03 -.609E-04
   0.295E+02 -.116E+02 0.499E+02   -.558E+02 -.768E+02 -.967E+02   -.120E+02 -.416E+02 -.204E+02   0.810E-04 0.141E-03 0.436E-04
   -.251E+02 0.511E+02 -.293E+02   0.231E+02 -.521E+02 0.265E+02   0.685E+01 0.261E+01 0.540E+01   0.246E-04 -.367E-03 0.101E-03
   0.265E+02 0.264E+02 -.705E+02   -.281E+02 -.182E+02 0.781E+02   -.101E+02 -.603E+01 0.359E+02   -.935E-04 0.170E-03 0.485E-03
   -.206E+02 -.213E+02 -.101E+02   0.205E+02 0.224E+02 0.989E+01   0.285E+01 -.211E+01 -.179E+01   -.508E-04 0.208E-03 -.280E-04
   -.251E+02 0.511E+02 -.293E+02   0.231E+02 -.521E+02 0.265E+02   0.685E+01 0.261E+01 0.540E+01   0.329E-04 -.368E-03 0.995E-04
   0.265E+02 0.264E+02 -.705E+02   -.281E+02 -.182E+02 0.781E+02   -.101E+02 -.603E+01 0.359E+02   -.964E-04 0.180E-03 0.490E-03
   -.206E+02 -.213E+02 -.101E+02   0.205E+02 0.224E+02 0.989E+01   0.285E+01 -.211E+01 -.179E+01   -.363E-04 0.207E-03 -.285E-04
 -----------------------------------------------------------------------------------------------
   -.105E+02 0.110E+02 -.843E+01   -.604E-13 0.604E-13 -.208E-12   0.106E+02 -.111E+02 0.842E+01   0.195E-03 -.228E-03 0.374E-05
 
 
 POSITION                                       TOTAL-FORCE (eV/Angst)
 -----------------------------------------------------------------------------------
     -3.77195     11.45255      0.00000         0.391992     -1.626853      1.006075
     -1.85180      9.53240      2.71550        -0.040144     -0.058045     -0.027283
      0.06835      7.61225      5.43100         0.134441      0.016911     -0.169293
      3.90864      3.77195      0.00000        -0.527170     10.871194      8.532594
      5.82879      1.85180      2.71550        -0.052860     -0.038674      0.104957
     -3.77195     11.45255      5.43100         9.715990    -13.310150    -52.106931
      0.06835      7.61225      0.00000        36.856494    135.947639     67.830495
      1.98849      5.69210      2.71550        -0.013823      0.253646      0.505078
      3.90864      3.77195      5.43100         0.023899      0.081543     -0.506914
      0.06835      1.85180      1.35775         0.235122     -0.235643      1.179129
     -1.85180     11.45255      4.07325        -0.167663     -0.110009     -0.584562
      0.06835      9.53240      6.78875        -4.378697     -5.396985     -1.054154
      3.90864      5.69210      1.35775        -1.548290     -1.030141      4.328086
      5.82879      3.77195      4.07325        -0.073489      0.109681     -0.273569
      0.06835      1.85180      6.78875        14.942677     19.256933    -52.839423
      0.06835      9.53240      1.35775         0.131888      0.379279      0.153236
      1.98849      7.61225      4.07325        -0.066319      0.182538     -0.010153
      3.90864      5.69210      6.78875         0.588001     -2.040233     -3.025960
      0.06835     11.45255      0.00000         0.391992     -1.626853      1.006075
      1.98849      9.53240      2.71550        -0.040144     -0.058045     -0.027283
      3.90864      7.61225      5.43100         0.134441      0.016911     -0.169293
      0.06835      3.77195      0.00000        -0.527170     10.871194      8.532594
      1.98849      1.85180      2.71550        -0.052860     -0.038674      0.104957
      0.06835     11.45255      5.43100         9.715990    -13.310150    -52.106931
      3.90864      7.61225      0.00000        36.856494    135.947639     67.830495
     -1.85180      5.69210      2.71550        -0.013823      0.253646      0.505078
      0.06835      3.77195      5.43100         0.023899      0.081543     -0.506914
      3.90864      1.85180      1.35775         0.235122     -0.235643      1.179129
      1.98850     11.45255      4.07325        -0.167663     -0.110009     -0.584562
      3.90864      9.53240      6.78875        -4.378697     -5.396985     -1.054154
      0.06835      5.69210      1.35775        -1.548290     -1.030141      4.328086
      1.98849      3.77195      4.07325        -0.073489      0.109681     -0.273569
      3.90864      1.85180      6.78875        14.942677     19.256933    -52.839423
      3.90864      9.53240      1.35775         0.131888      0.379279      0.153236
     -1.85180      7.61225      4.07325        -0.066319      0.182538     -0.010153
      0.06835      5.69210      6.78875         0.588001     -2.040233     -3.025960
      7.49715      0.30574      6.78875       -15.662096    -15.808574     51.788353
      5.57700      3.50599      7.69392         1.895671     -0.264314     -1.805358
      3.65685      6.70624      8.59909       -38.283551   -129.978126    -67.189847
      3.65685      0.30574      6.78875       -15.662096    -15.808574     51.788353
      1.73670      3.50599      7.69392         1.895671     -0.264314     -1.805358
     -0.18345      6.70624      8.59909       -38.283551   -129.978126    -67.189847
      1.73670     10.54653      7.24133         4.835878      1.665079      2.614629
      3.65685      2.22589      8.14650       -11.713354      2.163474     43.527350
      1.73670      5.42614      9.05167         2.775404     -1.030169     -1.976535
     -2.10359     10.54654      7.24133         4.835878      1.665079      2.614629
     -0.18345      2.22589      8.14650       -11.713354      2.163474     43.527350
      5.57700      5.42614      9.05167         2.775404     -1.030169     -1.976535
 -----------------------------------------------------------------------------------
    total drift:                                0.022401     -0.054627     -0.009479


--------------------------------------------------------------------------------------------------------



  FREE ENERGIE OF THE ION-ELECTRON SYSTEM (eV)
  ---------------------------------------------------
  free  energy   TOTEN  =       -45.20222918 eV

  energy  without entropy=      -45.20122103  energy(sigma->0) =      -45.20172510
 


--------------------------------------------------------------------------------------------------------


    POTLOK:  cpu time      0.3172: real time      0.3183


--------------------------------------------------------------------------------------------------------


     LOOP+:  cpu time    165.3444: real time    166.7948
    4ORBIT:  cpu time      0.0000: real time      0.0000

 total amount of memory used by VASP MPI-rank0    79838. kBytes
=======================================================================

   base      :      30000. kBytes
   nonlr-proj:       1726. kBytes
   fftplans  :       5945. kBytes
   grid      :       4346. kBytes
   one-center:         18. kBytes
   wavefun   :      37803. kBytes
 
  
  
 General timing and accounting informations for this job:
 ========================================================
  
                  Total CPU time used (sec):      183.171
                            User time (sec):      180.042
                          System time (sec):        3.128
                         Elapsed time (sec):      185.707
  
                   Maximum memory used (kb):      305824.
                   Average memory used (kb):          N/A
  
                          Minor page faults:        48007
                          Major page faults:           30
                 Voluntary context switches:         1372
