<?xml version="1.0" encoding="ISO-8859-1"?>
<modeling>
 <generator>
  <i name="program" type="string">vasp </i>
  <i name="version" type="string">6.4.3  </i>
  <i name="subversion" type="string">19Mar24 (build Oct 22 2024 11:23:12) complex                          parallel </i>
  <i name="platform" type="string">LinuxIFC </i>
  <i name="date" type="string">2025 06 04 </i>
  <i name="time" type="string">00:27:34 </i>
 </generator>
 <incar>
  <i type="string" name="SYSTEM">Si and Ge interface calculation</i>
  <i type="int" name="ISTART">     0</i>
  <i type="logical" name="ADDGRID"> T  </i>
  <i type="int" name="ISPIN">     2</i>
  <i name="AMIX">      0.60000000</i>
  <i type="int" name="ICHARG">     2</i>
  <i type="int" name="NELM">   100</i>
  <i name="EDIFF">      0.00000010</i>
  <i name="ENCUT">    700.00000000</i>
  <i name="ENAUG">    900.00000000</i>
  <i type="int" name="NBANDS">   116</i>
  <i name="NUPDOWN">      1.00000000</i>
  <i name="NELECT">    192.00000000</i>
  <i type="string" name="LREAL">AUTO</i>
  <i type="int" name="ISMEAR">     0</i>
  <i name="SIGMA">      0.01000000</i>
  <i type="int" name="LMAXMIX">     6</i>
  <i type="logical" name="LWAVE"> F  </i>
  <i type="logical" name="LVTOT"> F  </i>
  <i type="logical" name="LVHAR"> T  </i>
  <i type="logical" name="LASPH"> T  </i>
  <i type="logical" name="LMIXTAU"> T  </i>
 </incar>
 <primitive_cell>
  <structure name="primitive_cell" >
   <crystal>
    <varray name="basis" >
     <v>      -3.84029754       0.00000000       0.00000000 </v>
     <v>       0.00000000       0.00000000       9.05166912 </v>
     <v>       0.00000055      11.52089119       0.00000000 </v>
    </varray>
    <i name="volume">    400.47888105 </i>
    <varray name="rec_basis" >
     <v>      -0.26039649       0.00000001       0.00000000 </v>
     <v>       0.00000000       0.00000000       0.11047686 </v>
     <v>       0.00000000       0.08679884       0.00000000 </v>
    </varray>
   </crystal>
   <varray name="positions" >
    <v>       0.98220315       0.00000000       0.99406773 </v>
    <v>       0.48220306       0.29999989       0.82740104 </v>
    <v>       0.98220291       0.59999984       0.66073430 </v>
    <v>       0.98220312       0.00000000       0.32740104 </v>
    <v>       0.48220307       0.29999989       0.16073434 </v>
    <v>       0.98220277       0.59999984       0.99406767 </v>
    <v>       0.98220338       0.00000000       0.66073442 </v>
    <v>       0.48220304       0.29999989       0.49406770 </v>
    <v>       0.98220309       0.59999984       0.32740098 </v>
    <v>       0.98220307       0.14999996       0.16073437 </v>
    <v>       0.48220301       0.44999990       0.99406767 </v>
    <v>       0.98220280       0.74999982       0.82740092 </v>
    <v>       0.98220323       0.14999996       0.49406773 </v>
    <v>       0.48220316       0.44999990       0.32740104 </v>
    <v>       0.98220293       0.74999982       0.16073433 </v>
    <v>       0.98220340       0.14999996       0.82740116 </v>
    <v>       0.48220302       0.44999990       0.66073442 </v>
    <v>       0.98220295       0.74999982       0.49406773 </v>
    <v>       0.04776874       0.74999982       0.02653812 </v>
    <v>       0.54776898       0.84999984       0.30431592 </v>
    <v>       0.04776908       0.94999999       0.58209372 </v>
    <v>       0.54776874       0.79999989       0.91542703 </v>
    <v>       0.04776884       0.89999992       0.19320476 </v>
    <v>       0.54776923       0.99999994       0.47098255 </v>
   </varray>
  </structure>
  <varray name="primitive_index" >
   <v type="int" >        1 </v>
   <v type="int" >        2 </v>
   <v type="int" >       21 </v>
   <v type="int" >       22 </v>
   <v type="int" >        5 </v>
   <v type="int" >        6 </v>
   <v type="int" >       25 </v>
   <v type="int" >       26 </v>
   <v type="int" >       27 </v>
   <v type="int" >       10 </v>
   <v type="int" >       29 </v>
   <v type="int" >       30 </v>
   <v type="int" >       31 </v>
   <v type="int" >       14 </v>
   <v type="int" >       15 </v>
   <v type="int" >       34 </v>
   <v type="int" >       35 </v>
   <v type="int" >       18 </v>
   <v type="int" >       37 </v>
   <v type="int" >       38 </v>
   <v type="int" >       39 </v>
   <v type="int" >       46 </v>
   <v type="int" >       47 </v>
   <v type="int" >       48 </v>
  </varray>
 </primitive_cell>
 <kpoints>
  <generation param="Gamma">
   <v type="int" name="divisions">       4        3        3 </v>
   <v name="usershift">      0.00000000       0.00000000       0.00000000 </v>
   <v name="genvec1">      0.25000000       0.00000000       0.00000000 </v>
   <v name="genvec2">      0.00000000       0.33333333       0.00000000 </v>
   <v name="genvec3">      0.00000000       0.00000000       0.33333333 </v>
   <v name="shift">      0.00000000       0.00000000       0.00000000 </v>
  </generation>
  <varray name="kpointlist" >
   <v>       0.00000000       0.00000000       0.00000000 </v>
   <v>       0.25000000      -0.00000000       0.00000000 </v>
   <v>       0.50000000      -0.00000000       0.00000000 </v>
   <v>       0.00000000       0.33333333       0.00000000 </v>
   <v>       0.25000000       0.33333333       0.00000000 </v>
   <v>       0.50000000       0.33333333       0.00000000 </v>
   <v>      -0.25000000       0.33333333       0.00000000 </v>
   <v>       0.00000000       0.00000000       0.33333333 </v>
   <v>       0.25000000      -0.00000000       0.33333333 </v>
   <v>       0.50000000      -0.00000000       0.33333333 </v>
   <v>      -0.25000000       0.00000000       0.33333333 </v>
   <v>       0.00000000       0.33333333       0.33333333 </v>
   <v>       0.25000000       0.33333333       0.33333333 </v>
   <v>       0.50000000       0.33333333       0.33333333 </v>
   <v>      -0.25000000       0.33333333       0.33333333 </v>
   <v>       0.00000000      -0.33333333       0.33333333 </v>
   <v>       0.25000000      -0.33333333       0.33333333 </v>
   <v>       0.50000000      -0.33333333       0.33333333 </v>
   <v>      -0.25000000      -0.33333333       0.33333333 </v>
  </varray>
  <varray name="weights" >
   <v>       0.02777778 </v>
   <v>       0.05555556 </v>
   <v>       0.02777778 </v>
   <v>       0.05555556 </v>
   <v>       0.05555556 </v>
   <v>       0.05555556 </v>
   <v>       0.05555556 </v>
   <v>       0.05555556 </v>
   <v>       0.05555556 </v>
   <v>       0.05555556 </v>
   <v>       0.05555556 </v>
   <v>       0.05555556 </v>
   <v>       0.05555556 </v>
   <v>       0.05555556 </v>
   <v>       0.05555556 </v>
   <v>       0.05555556 </v>
   <v>       0.05555556 </v>
   <v>       0.05555556 </v>
   <v>       0.05555556 </v>
  </varray>
 </kpoints>
 <parameters>
  <separator name="general" >
   <i type="string" name="SYSTEM">Si and Ge interface calculation</i>
   <i type="logical" name="LCOMPAT"> F  </i>
  </separator>
  <separator name="electronic" >
   <i type="string" name="PREC">normal</i>
   <i name="ENMAX">    700.00000000</i>
   <i name="ENAUG">    900.00000000</i>
   <i name="EDIFF">      0.00000010</i>
   <i type="int" name="IALGO">    38</i>
   <i type="int" name="IWAVPR">    10</i>
   <i type="int" name="NBANDS">   116</i>
   <i type="int" name="NBANDSLOW">    -1</i>
   <i type="int" name="NBANDSHIGH">    -1</i>
   <i name="NELECT">    192.00000000</i>
   <i type="int" name="TURBO">     0</i>
   <i type="int" name="IRESTART">     0</i>
   <i type="int" name="NREBOOT">     0</i>
   <i type="int" name="NMIN">     0</i>
   <i name="EREF">      0.00000000</i>
   <separator name="electronic smearing" >
    <i type="int" name="ISMEAR">     0</i>
    <i name="SIGMA">      0.01000000</i>
    <i name="KSPACING">      0.50000000</i>
    <i type="logical" name="KGAMMA"> T  </i>
    <i type="logical" name="KBLOWUP"> F  </i>
   </separator>
   <separator name="electronic projectors" >
    <i type="logical" name="LREAL"> T  </i>
    <v name="ROPT">     -0.00050000</v>
    <i type="int" name="LMAXPAW">  -100</i>
    <i type="int" name="LMAXMIX">     6</i>
    <i type="logical" name="NLSPLINE"> F  </i>
   </separator>
   <separator name="electronic startup" >
    <i type="int" name="ISTART">     0</i>
    <i type="int" name="ICHARG">     2</i>
    <i type="int" name="INIWAV">     1</i>
   </separator>
   <separator name="electronic spin" >
    <i type="int" name="ISPIN">     2</i>
    <i type="logical" name="LNONCOLLINEAR"> F  </i>
    <v name="MAGMOM">      0.02083333      0.02083333      0.02083333      0.02083333      0.02083333      0.02083333      0.02083333      0.02083333      0.02083333      0.02083333      0.02083333      0.02083333      0.02083333      0.02083333      0.02083333      0.02083333      0.02083333      0.02083333      0.02083333      0.02083333
      0.02083333      0.02083333      0.02083333      0.02083333      0.02083333      0.02083333      0.02083333      0.02083333      0.02083333      0.02083333      0.02083333      0.02083333      0.02083333      0.02083333      0.02083333      0.02083333      0.02083333      0.02083333      0.02083333      0.02083333
      0.02083333      0.02083333      0.02083333      0.02083333      0.02083333      0.02083333      0.02083333      0.02083333</v>
    <i name="NUPDOWN">      1.00000000</i>
    <i type="logical" name="LSORBIT"> F  </i>
    <v name="SAXIS">      0.00000000      0.00000000      1.00000000</v>
    <i type="logical" name="LSPIRAL"> F  </i>
    <v name="QSPIRAL">      0.00000000      0.00000000      0.00000000</v>
    <i type="logical" name="LZEROZ"> F  </i>
   </separator>
   <separator name="electronic exchange-correlation" >
    <i type="logical" name="LASPH"> T  </i>
   </separator>
   <separator name="electronic convergence" >
    <i type="int" name="NELM">   100</i>
    <i type="int" name="NELMDL">    -5</i>
    <i type="int" name="NELMIN">     2</i>
    <i name="ENINI">    700.00000000</i>
    <separator name="electronic convergence detail" >
     <i type="logical" name="LDIAG"> T  </i>
     <i type="logical" name="LSUBROT"> F  </i>
     <i name="WEIMIN">      0.00000000</i>
     <i name="EBREAK">      0.00000000</i>
     <i name="DEPER">      0.30000000</i>
     <i type="int" name="NRMM">     4</i>
     <i name="TIME">      0.40000000</i>
    </separator>
   </separator>
   <separator name="electronic mixer" >
    <i name="AMIX">      0.60000000</i>
    <i name="BMIX">      1.00000000</i>
    <i name="AMIN">      0.10000000</i>
    <i name="AMIX_MAG">      2.40000000</i>
    <i name="BMIX_MAG">      1.00000000</i>
    <separator name="electronic mixer details" >
     <i type="int" name="IMIX">     4</i>
     <i type="logical" name="MIXFIRST"> F  </i>
     <i type="int" name="MAXMIX">   -45</i>
     <i name="WC">    100.00000000</i>
     <i type="int" name="INIMIX">     1</i>
     <i type="int" name="MIXPRE">     1</i>
     <i type="int" name="MREMOVE">     5</i>
    </separator>
   </separator>
   <separator name="electronic dipolcorrection" >
    <i type="logical" name="LDIPOL"> F  </i>
    <i type="logical" name="LMONO"> F  </i>
    <i type="int" name="IDIPOL">     0</i>
    <i name="EPSILON">      1.00000000</i>
    <v name="DIPOL">   -100.00000000   -100.00000000   -100.00000000</v>
    <i name="EFIELD">      0.00000000</i>
    <i type="logical" name="LVACPOTAV"> F  </i>
   </separator>
  </separator>
  <separator name="grids" >
   <i type="int" name="NGX">    50</i>
   <i type="int" name="NGY">    80</i>
   <i type="int" name="NGZ">    60</i>
   <i type="int" name="NGXF">   100</i>
   <i type="int" name="NGYF">   160</i>
   <i type="int" name="NGZF">   120</i>
   <i type="logical" name="ADDGRID"> T  </i>
  </separator>
  <separator name="ionic" >
   <i type="int" name="NSW">     0</i>
   <i type="int" name="IBRION">    -1</i>
   <i type="int" name="MDALGO">     0</i>
   <i type="int" name="ISIF">     2</i>
   <i name="PSTRESS">      0.00000000</i>
   <i name="EDIFFG">      0.00000100</i>
   <i type="int" name="NFREE">     0</i>
   <i name="POTIM">      0.50000000</i>
   <i name="SMASS">     -3.00000000</i>
   <i name="SCALEE">      1.00000000</i>
  </separator>
  <separator name="ionic md" >
   <i name="TEBEG">      0.00010000</i>
   <i name="TEEND">      0.00010000</i>
   <i type="int" name="NBLOCK">     1</i>
   <i type="int" name="KBLOCK">     1</i>
   <i type="int" name="NPACO">   256</i>
   <i name="APACO">     10.00000000</i>
  </separator>
  <separator name="symmetry" >
   <i type="int" name="ISYM">     2</i>
   <i name="SYMPREC">      0.00001000</i>
  </separator>
  <separator name="dos" >
   <i type="int" name="LORBIT">     0</i>
   <v name="RWIGS">     -1.00000000</v>
   <i type="int" name="NEDOS">   301</i>
   <i name="EMIN">     10.00000000</i>
   <i name="EMAX">    -10.00000000</i>
   <i name="EFERMI">      0.00000000</i>
  </separator>
  <separator name="writing" >
   <i type="int" name="NWRITE">     2</i>
   <i type="logical" name="LWAVE"> F  </i>
   <i type="logical" name="LDOWNSAMPLE"> F  </i>
   <i type="logical" name="LCHARG"> T  </i>
   <i type="logical" name="LPARD"> F  </i>
   <i type="logical" name="LVTOT"> F  </i>
   <i type="logical" name="LVHAR"> T  </i>
   <i type="logical" name="LELF"> F  </i>
   <i type="logical" name="LOPTICS"> F  </i>
   <v name="STM">      0.00000000      0.00000000      0.00000000      0.00000000      0.00000000      0.00000000      0.00000000</v>
  </separator>
  <separator name="performance" >
   <i type="int" name="NPAR">     4</i>
   <i type="int" name="NSIM">     4</i>
   <i type="int" name="NBLK">    -1</i>
   <i type="logical" name="LPLANE"> T  </i>
   <i type="logical" name="LSCALAPACK"> T  </i>
   <i type="logical" name="LSCAAWARE"> F  </i>
   <i type="logical" name="LSCALU"> F  </i>
   <i type="logical" name="LASYNC"> F  </i>
   <i type="logical" name="LORBITALREAL"> F  </i>
  </separator>
  <separator name="miscellaneous" >
   <i type="int" name="IDIOT">     3</i>
   <i type="int" name="PHON_NSTRUCT">    -1</i>
   <i type="logical" name="LMUSIC"> F  </i>
   <v name="POMASS">     28.08500000</v>
   <v name="DARWINR">      0.00000000</v>
   <v name="DARWINV">      1.00000000</v>
   <i type="logical" name="LCORR"> T  </i>
  </separator>
  <i type="logical" name="GGA_COMPAT"> T  </i>
  <i type="logical" name="LBERRY"> F  </i>
  <i type="int" name="ICORELEVEL">     0</i>
  <i type="logical" name="LDAU"> F  </i>
  <i type="int" name="I_CONSTRAINED_M">     0</i>
  <separator name="electronic exchange-correlation" >
   <i type="string" name="GGA    ">PE</i>
   <i type="string" name="XC_C">1</i>
   <i type="int" name="VOSKOWN">     0</i>
   <i type="logical" name="LHFCALC"> F  </i>
   <i type="string" name="PRECFOCK"></i>
   <i type="logical" name="LSYMGRAD"> F  </i>
   <i type="logical" name="LHFONE"> F  </i>
   <i type="logical" name="LRHFCALC"> F  </i>
   <i type="logical" name="LTHOMAS"> F  </i>
   <i type="logical" name="LMODELHF"> F  </i>
   <i type="logical" name="LFOCKACE"> F  </i>
   <i name="ENCUT4O">     -1.00000000</i>
   <i type="int" name="EXXOEP">     0</i>
   <i type="int" name="FOURORBIT">     0</i>
   <i name="AEXX">      0.00000000</i>
   <i name="HFALPHA">      0.00000000</i>
   <i name="MCALPHA">      0.00000000</i>
   <i name="ALDAX">      1.00000000</i>
   <i name="AGGAX">      1.00000000</i>
   <i name="AMGGAX">      1.00000000</i>
   <i name="ALDAC">      1.00000000</i>
   <i name="AGGAC">      1.00000000</i>
   <i name="AMGGAC">      1.00000000</i>
   <i type="int" name="NKREDX">     1</i>
   <i type="int" name="NKREDY">     1</i>
   <i type="int" name="NKREDZ">     1</i>
   <i type="logical" name="SHIFTRED"> F  </i>
   <i type="logical" name="ODDONLY"> F  </i>
   <i type="logical" name="EVENONLY"> F  </i>
   <i type="int" name="LMAXFOCK">     0</i>
   <i type="int" name="NMAXFOCKAE">     0</i>
   <i type="logical" name="LFOCKAEDFT"> F  </i>
   <i name="HFSCREEN">      0.00000000</i>
   <i name="HFSCREENC">      0.00000000</i>
   <i type="int" name="NBANDSGWLOW">     0</i>
  </separator>
  <separator name="vdW DFT" >
   <i type="logical" name="LUSE_VDW"> F  </i>
   <i type="int" name="IVDW_NL">    -1</i>
   <i type="logical" name="LSPIN_VDW"> F  </i>
   <i name="ZAB_VDW">     -0.84910000</i>
   <i name="GAMMA_VDW">      1.39626340</i>
   <i name="ALPHA_VDW">      0.00000000</i>
   <i name="PARAM1">      0.12340000</i>
   <i name="PARAM2">      1.00000000</i>
   <i name="BPARAM">      6.30000000</i>
   <i name="CPARAM">      0.00930000</i>
  </separator>
  <separator name="model GW" >
   <i type="int" name="MODEL_GW">     0</i>
   <i name="MODEL_EPS0">     10.01197121</i>
   <i name="MODEL_ALPHA">      1.00000000</i>
  </separator>
  <separator name="linear response parameters" >
   <i type="logical" name="LEPSILON"> F  </i>
   <i type="logical" name="LRPA"> F  </i>
   <i type="logical" name="LNABLA"> F  </i>
   <i type="logical" name="LVEL"> F  </i>
   <i name="CSHIFT">      0.10000000</i>
   <i name="OMEGAMAX">     -1.00000000</i>
   <i name="DEG_THRESHOLD">      0.00200000</i>
   <i name="RTIME">     -0.10000000</i>
   <i name="WPLASMAI">      0.00000000</i>
   <v name="DFIELD">      0.00000000      0.00000000      0.00000000</v>
   <v name="WPLASMA">      0.00000000      0.00000000      0.00000000      0.00000000      0.00000000      0.00000000      0.00000000      0.00000000      0.00000000</v>
  </separator>
  <separator name="orbital magnetization" >
   <i type="logical" name="NUCIND"> F  </i>
   <v name="MAGPOS">      0.00000000      0.00000000      0.00000000</v>
   <i type="logical" name="LNICSALL"> T  </i>
   <i type="logical" name="ORBITALMAG"> F  </i>
   <i type="logical" name="LMAGBLOCH"> F  </i>
   <i type="logical" name="LCHIMAG"> F  </i>
   <i type="logical" name="LGAUGE"> T  </i>
   <i type="int" name="MAGATOM">     0</i>
   <v name="MAGDIPOL">      0.00000000      0.00000000      0.00000000</v>
   <v name="AVECCONST">      0.00000000      0.00000000      0.00000000</v>
  </separator>
  <separator name="response functions" >
   <i type="logical" name="LALL_IN_ONE"> F  </i>
   <i type="int" name="IALL_IN_ONE">    -1</i>
   <i type="int" name="NBANDS_WAVE">    -1</i>
   <i type="logical" name="LFINITE_TEMPERATURE"> F  </i>
   <i type="logical" name="LADDER"> F  </i>
   <i type="logical" name="LRPAFORCE"> F  </i>
   <i type="logical" name="LFXC"> F  </i>
   <i type="logical" name="LHARTREE"> T  </i>
   <i type="int" name="IBSE">     0</i>
   <v type="int" name="KPOINT">    -1     0     0     0</v>
   <i type="logical" name="LTCTC"> F  </i>
   <i type="logical" name="LTCTE"> F  </i>
   <i type="logical" name="LTETE"> F  </i>
   <i type="logical" name="LTRIPLET"> F  </i>
   <i type="logical" name="LFXCEPS"> F  </i>
   <i type="logical" name="LFXHEG"> F  </i>
   <i type="int" name="NATURALO">     2</i>
   <i type="logical" name="LHOLEGF"> F  </i>
   <i type="logical" name="L2ORDER"> F  </i>
   <i type="logical" name="LDMP1"> F  </i>
   <i type="logical" name="LMP2LT"> F  </i>
   <i type="logical" name="LSMP2LT"> F  </i>
   <i type="logical" name="LGWLF"> F  </i>
   <i name="ENCUTGW">     -1.60000002</i>
   <i name="ENCUTGWSOFT">     -1.60000002</i>
   <i name="ENCUTLF">     -1.00000000</i>
   <i type="logical" name="ESF_SPLINES"> F  </i>
   <i name="ESF_CONV">      0.01000000</i>
   <i type="int" name="ESF_NINTER">    15</i>
   <i type="int" name="LMAXMP2">    -1</i>
   <i name="SCISSOR">      0.00000000</i>
   <i type="int" name="NOMEGA">     0</i>
   <i type="int" name="NOMEGAR">     0</i>
   <i type="int" name="NBANDSGW">    -1</i>
   <i type="int" name="NBANDSO">    -1</i>
   <i type="int" name="NBANDSV">    -1</i>
   <i type="int" name="NELMGW">     1</i>
   <i type="int" name="NELMHF">     1</i>
   <i type="int" name="DIM">     3</i>
   <i type="int" name="IESPILON">     4</i>
   <i type="int" name="ANTIRES">     0</i>
   <i name="OMEGAMAX">    -30.00000000</i>
   <i name="OMEGAMIN">    -30.00000000</i>
   <i name="OMEGATL">   -200.00000000</i>
   <i type="int" name="OMEGAGRID">     0</i>
   <i name="CSHIFT">     -0.10000000</i>
   <i type="logical" name="LSELFENERGY"> F  </i>
   <i type="logical" name="LSPECTRAL"> F  </i>
   <i type="logical" name="LSPECTRALGW"> F  </i>
   <i type="logical" name="LSINGLES"> F  </i>
   <i type="logical" name="LFERMIGW"> F  </i>
   <i type="logical" name="ODDONLYGW"> F  </i>
   <i type="logical" name="EVENONLYGW"> F  </i>
   <i type="int" name="NKREDLFX">     1</i>
   <i type="int" name="NKREDLFY">     1</i>
   <i type="int" name="NKREDLFZ">     1</i>
   <i type="int" name="MAXMEM">  2800</i>
   <i type="int" name="TELESCOPE">     0</i>
   <i type="int" name="NTAUPAR">    -1</i>
   <i type="int" name="NOMEGAPAR">    -1</i>
   <i name="DAMP_NEWTON">      0.80000001</i>
   <i name="LAMBDA">      1.00000000</i>
  </separator>
  <separator name="External order field" >
   <i name="OFIELD_KAPPA">      0.00000000</i>
   <v name="OFIELD_K">      0.00000000      0.00000000      0.00000000</v>
   <i name="OFIELD_Q6_NEAR">      0.00000000</i>
   <i name="OFIELD_Q6_FAR">      0.00000000</i>
   <i name="OFIELD_A">      0.00000000</i>
  </separator>
  <separator name="optional k-points parameters" >
   <i type="int" name="KPOINTS_OPT_MODE">     1</i>
   <i type="logical" name="LKPOINTS_OPT"> F  </i>
  </separator>
 </parameters>
 <atominfo>
  <atoms>      48 </atoms>
  <types>       1 </types>
  <array name="atoms" >
   <dimension dim="1">ion</dimension>
   <field type="string">element</field>
   <field type="int">atomtype</field>
   <set>
    <rc><c>Si</c><c>   1</c></rc>
    <rc><c>Si</c><c>   1</c></rc>
    <rc><c>Si</c><c>   1</c></rc>
    <rc><c>Si</c><c>   1</c></rc>
    <rc><c>Si</c><c>   1</c></rc>
    <rc><c>Si</c><c>   1</c></rc>
    <rc><c>Si</c><c>   1</c></rc>
    <rc><c>Si</c><c>   1</c></rc>
    <rc><c>Si</c><c>   1</c></rc>
    <rc><c>Si</c><c>   1</c></rc>
    <rc><c>Si</c><c>   1</c></rc>
    <rc><c>Si</c><c>   1</c></rc>
    <rc><c>Si</c><c>   1</c></rc>
    <rc><c>Si</c><c>   1</c></rc>
    <rc><c>Si</c><c>   1</c></rc>
    <rc><c>Si</c><c>   1</c></rc>
    <rc><c>Si</c><c>   1</c></rc>
    <rc><c>Si</c><c>   1</c></rc>
    <rc><c>Si</c><c>   1</c></rc>
    <rc><c>Si</c><c>   1</c></rc>
    <rc><c>Si</c><c>   1</c></rc>
    <rc><c>Si</c><c>   1</c></rc>
    <rc><c>Si</c><c>   1</c></rc>
    <rc><c>Si</c><c>   1</c></rc>
    <rc><c>Si</c><c>   1</c></rc>
    <rc><c>Si</c><c>   1</c></rc>
    <rc><c>Si</c><c>   1</c></rc>
    <rc><c>Si</c><c>   1</c></rc>
    <rc><c>Si</c><c>   1</c></rc>
    <rc><c>Si</c><c>   1</c></rc>
    <rc><c>Si</c><c>   1</c></rc>
    <rc><c>Si</c><c>   1</c></rc>
    <rc><c>Si</c><c>   1</c></rc>
    <rc><c>Si</c><c>   1</c></rc>
    <rc><c>Si</c><c>   1</c></rc>
    <rc><c>Si</c><c>   1</c></rc>
    <rc><c>Si</c><c>   1</c></rc>
    <rc><c>Si</c><c>   1</c></rc>
    <rc><c>Si</c><c>   1</c></rc>
    <rc><c>Si</c><c>   1</c></rc>
    <rc><c>Si</c><c>   1</c></rc>
    <rc><c>Si</c><c>   1</c></rc>
    <rc><c>Si</c><c>   1</c></rc>
    <rc><c>Si</c><c>   1</c></rc>
    <rc><c>Si</c><c>   1</c></rc>
    <rc><c>Si</c><c>   1</c></rc>
    <rc><c>Si</c><c>   1</c></rc>
    <rc><c>Si</c><c>   1</c></rc>
   </set>
  </array>
  <array name="atomtypes" >
   <dimension dim="1">type</dimension>
   <field type="int">atomspertype</field>
   <field type="string">element</field>
   <field>mass</field>
   <field>valence</field>
   <field type="string">pseudopotential</field>
   <set>
    <rc><c>  48</c><c>Si</c><c>     28.08500000</c><c>      4.00000000</c><c>  PAW_PBE Si 05Jan2001                  </c></rc>
   </set>
  </array>
 </atominfo>
 <structure name="initialpos" >
  <crystal>
   <varray name="basis" >
    <v>       7.68059444       0.00000000       0.00000000 </v>
    <v>      -3.84029698      11.52089119       0.00000000 </v>
    <v>       0.00000000       0.00000000       9.05166912 </v>
   </varray>
   <i name="volume">    800.95769642 </i>
   <varray name="rec_basis" >
    <v>       0.13019826       0.04339942       0.00000000 </v>
    <v>       0.00000000       0.08679884       0.00000000 </v>
    <v>       0.00000000       0.00000000       0.11047686 </v>
   </varray>
  </crystal>
  <varray name="positions" >
   <v>       0.00593229       0.99406773       0.00000000 </v>
   <v>       0.17259900       0.82740104       0.29999989 </v>
   <v>       0.33926573       0.66073430       0.59999984 </v>
   <v>       0.67259896       0.32740104       0.00000000 </v>
   <v>       0.83926570       0.16073434       0.29999989 </v>
   <v>       0.00593245       0.99406767       0.59999984 </v>
   <v>       0.33926564       0.66073442       0.00000000 </v>
   <v>       0.50593233       0.49406770       0.29999989 </v>
   <v>       0.67259908       0.32740101       0.59999984 </v>
   <v>       0.08926566       0.16073437       0.14999996 </v>
   <v>       0.25593239       0.99406767       0.44999990 </v>
   <v>       0.42259914       0.82740098       0.74999982 </v>
   <v>       0.75593227       0.49406773       0.14999996 </v>
   <v>       0.92259902       0.32740104       0.44999990 </v>
   <v>       0.08926570       0.16073433       0.74999982 </v>
   <v>       0.42259893       0.82740110       0.14999996 </v>
   <v>       0.58926570       0.66073447       0.44999990 </v>
   <v>       0.75593245       0.49406773       0.74999982 </v>
   <v>       0.50593233       0.99406773       0.00000000 </v>
   <v>       0.67259902       0.82740104       0.29999989 </v>
   <v>       0.83926576       0.66073430       0.59999984 </v>
   <v>       0.17259897       0.32740104       0.00000000 </v>
   <v>       0.33926567       0.16073437       0.29999989 </v>
   <v>       0.50593239       0.99406767       0.59999984 </v>
   <v>       0.83926558       0.66073442       0.00000000 </v>
   <v>       0.00593233       0.49406770       0.29999989 </v>
   <v>       0.17259896       0.32740098       0.59999984 </v>
   <v>       0.58926564       0.16073436       0.14999996 </v>
   <v>       0.75593239       0.99406767       0.44999990 </v>
   <v>       0.92259914       0.82740092       0.74999982 </v>
   <v>       0.25593227       0.49406773       0.14999996 </v>
   <v>       0.42259905       0.32740104       0.44999990 </v>
   <v>       0.58926576       0.16073433       0.74999982 </v>
   <v>       0.92259896       0.82740116       0.14999996 </v>
   <v>       0.08926570       0.66073442       0.44999990 </v>
   <v>       0.25593245       0.49406770       0.74999982 </v>
   <v>       0.98938477       0.02653812       0.74999982 </v>
   <v>       0.87827355       0.30431592       0.84999984 </v>
   <v>       0.76716238       0.58209372       0.94999999 </v>
   <v>       0.48938474       0.02653811       0.74999982 </v>
   <v>       0.37827355       0.30431592       0.84999984 </v>
   <v>       0.26716232       0.58209366       0.94999999 </v>
   <v>       0.68382919       0.91542697       0.79999989 </v>
   <v>       0.57271797       0.19320476       0.89999992 </v>
   <v>       0.46160677       0.47098255       0.99999994 </v>
   <v>       0.18382916       0.91542703       0.79999989 </v>
   <v>       0.07271797       0.19320476       0.89999992 </v>
   <v>       0.96160674       0.47098255       0.99999994 </v>
  </varray>
 </structure>
 <calculation>
  <scstep>
   <time name="dav">    5.91    5.96</time>
   <time name="total">    6.26    6.30</time>
   <energy>
    <i name="alphaZ">     96.83389486 </i>
    <i name="ewald">  -4995.97834844 </i>
    <i name="hartreedc">   -722.94038518 </i>
    <i name="XCdc">   -423.78816201 </i>
    <i name="pawpsdc">   4229.94053997 </i>
    <i name="pawaedc">  -3385.46287860 </i>
    <i name="eentropy">     -0.00091489 </i>
    <i name="bandstr">   1236.26838186 </i>
    <i name="atom">   4947.19793617 </i>
    <i name="e_fr_energy">    982.07006372 </i>
    <i name="e_wo_entrp">    982.07097862 </i>
    <i name="e_0_energy">    982.07052117 </i>
   </energy>
  </scstep>
  <scstep>
   <time name="dav">    6.73    6.78</time>
   <time name="total">    6.73    6.78</time>
   <energy>
    <i name="e_fr_energy">     16.63893160 </i>
    <i name="e_wo_entrp">     16.63934625 </i>
    <i name="e_0_energy">     16.63913893 </i>
   </energy>
  </scstep>
  <scstep>
   <time name="dav">    7.05    7.10</time>
   <time name="total">    7.05    7.11</time>
   <energy>
    <i name="e_fr_energy">    -75.58744347 </i>
    <i name="e_wo_entrp">    -75.58624916 </i>
    <i name="e_0_energy">    -75.58684631 </i>
   </energy>
  </scstep>
  <scstep>
   <time name="dav">    7.41    7.47</time>
   <time name="total">    7.41    7.47</time>
   <energy>
    <i name="e_fr_energy">    -80.86980074 </i>
    <i name="e_wo_entrp">    -80.86876903 </i>
    <i name="e_0_energy">    -80.86928489 </i>
   </energy>
  </scstep>
  <scstep>
   <time name="dav">    7.12    7.18</time>
   <time name="total">    7.44    7.50</time>
   <energy>
    <i name="e_fr_energy">    -81.05832780 </i>
    <i name="e_wo_entrp">    -81.05723407 </i>
    <i name="e_0_energy">    -81.05778094 </i>
   </energy>
  </scstep>
  <scstep>
   <time name="dav">    6.76    6.82</time>
   <time name="total">    7.40    7.46</time>
   <energy>
    <i name="e_fr_energy">    -47.50464226 </i>
    <i name="e_wo_entrp">    -47.50379421 </i>
    <i name="e_0_energy">    -47.50421824 </i>
   </energy>
  </scstep>
  <scstep>
   <time name="dav">    6.33    6.39</time>
   <time name="total">    6.97    7.03</time>
   <energy>
    <i name="e_fr_energy">    -46.11067712 </i>
    <i name="e_wo_entrp">    -46.10948796 </i>
    <i name="e_0_energy">    -46.11008254 </i>
   </energy>
  </scstep>
  <scstep>
   <time name="dav">    6.74    6.79</time>
   <time name="total">    7.37    7.43</time>
   <energy>
    <i name="e_fr_energy">    -45.77899541 </i>
    <i name="e_wo_entrp">    -45.77808967 </i>
    <i name="e_0_energy">    -45.77854254 </i>
   </energy>
  </scstep>
  <scstep>
   <time name="dav">    6.72    6.78</time>
   <time name="total">    7.36    7.42</time>
   <energy>
    <i name="e_fr_energy">    -45.47796947 </i>
    <i name="e_wo_entrp">    -45.47719784 </i>
    <i name="e_0_energy">    -45.47758365 </i>
   </energy>
  </scstep>
  <scstep>
   <time name="dav">    6.70    6.76</time>
   <time name="total">    7.33    7.43</time>
   <energy>
    <i name="e_fr_energy">    -45.18096166 </i>
    <i name="e_wo_entrp">    -45.17995371 </i>
    <i name="e_0_energy">    -45.18045768 </i>
   </energy>
  </scstep>
  <scstep>
   <time name="dav">    6.75    6.80</time>
   <time name="total">    7.39    7.44</time>
   <energy>
    <i name="e_fr_energy">    -45.20328267 </i>
    <i name="e_wo_entrp">    -45.20234292 </i>
    <i name="e_0_energy">    -45.20281279 </i>
   </energy>
  </scstep>
  <scstep>
   <time name="dav">    6.63    6.67</time>
   <time name="total">    7.27    7.32</time>
   <energy>
    <i name="e_fr_energy">    -45.20191903 </i>
    <i name="e_wo_entrp">    -45.20095427 </i>
    <i name="e_0_energy">    -45.20143665 </i>
   </energy>
  </scstep>
  <scstep>
   <time name="dav">    6.85    6.90</time>
   <time name="total">    7.49    7.54</time>
   <energy>
    <i name="e_fr_energy">    -45.20355275 </i>
    <i name="e_wo_entrp">    -45.20253088 </i>
    <i name="e_0_energy">    -45.20304182 </i>
   </energy>
  </scstep>
  <scstep>
   <time name="dav">    6.71    6.78</time>
   <time name="total">    7.35    7.42</time>
   <energy>
    <i name="e_fr_energy">    -45.20208527 </i>
    <i name="e_wo_entrp">    -45.20107451 </i>
    <i name="e_0_energy">    -45.20157989 </i>
   </energy>
  </scstep>
  <scstep>
   <time name="dav">    6.44    6.48</time>
   <time name="total">    7.07    7.12</time>
   <energy>
    <i name="e_fr_energy">    -45.20223847 </i>
    <i name="e_wo_entrp">    -45.20123247 </i>
    <i name="e_0_energy">    -45.20173547 </i>
   </energy>
  </scstep>
  <scstep>
   <time name="dav">    6.91    6.95</time>
   <time name="total">    7.54    7.59</time>
   <energy>
    <i name="e_fr_energy">    -45.20223907 </i>
    <i name="e_wo_entrp">    -45.20123197 </i>
    <i name="e_0_energy">    -45.20173552 </i>
   </energy>
  </scstep>
  <scstep>
   <time name="dav">    6.68    6.73</time>
   <time name="total">    7.32    7.37</time>
   <energy>
    <i name="e_fr_energy">    -45.20222900 </i>
    <i name="e_wo_entrp">    -45.20122183 </i>
    <i name="e_0_energy">    -45.20172541 </i>
   </energy>
  </scstep>
  <scstep>
   <time name="dav">    6.56    6.60</time>
   <time name="total">    7.19    7.24</time>
   <energy>
    <i name="e_fr_energy">    -45.20222856 </i>
    <i name="e_wo_entrp">    -45.20122025 </i>
    <i name="e_0_energy">    -45.20172441 </i>
   </energy>
  </scstep>
  <scstep>
   <time name="dav">    6.54    6.59</time>
   <time name="total">    7.18    7.26</time>
   <energy>
    <i name="e_fr_energy">    -45.20222850 </i>
    <i name="e_wo_entrp">    -45.20121987 </i>
    <i name="e_0_energy">    -45.20172419 </i>
   </energy>
  </scstep>
  <scstep>
   <time name="dav">    6.77    6.82</time>
   <time name="total">    7.41    7.46</time>
   <energy>
    <i name="e_fr_energy">    -45.20222908 </i>
    <i name="e_wo_entrp">    -45.20122080 </i>
    <i name="e_0_energy">    -45.20172494 </i>
   </energy>
  </scstep>
  <scstep>
   <time name="dav">    5.67    5.71</time>
   <time name="total">    6.31    6.35</time>
   <energy>
    <i name="e_fr_energy">    -45.20222926 </i>
    <i name="e_wo_entrp">    -45.20122118 </i>
    <i name="e_0_energy">    -45.20172522 </i>
   </energy>
  </scstep>
  <scstep>
   <time name="dav">    4.41    4.44</time>
   <time name="total">    4.73    4.76</time>
   <energy>
    <i name="alphaZ">     96.83389486 </i>
    <i name="ewald">  -4995.97834844 </i>
    <i name="hartreedc">   -885.37982948 </i>
    <i name="XCdc">   -405.74644605 </i>
    <i name="pawpsdc">  40476.45066249 </i>
    <i name="pawaedc"> -39645.19544758 </i>
    <i name="eentropy">     -0.00100816 </i>
    <i name="bandstr">    366.61635701 </i>
    <i name="atom">   4947.19793617 </i>
    <i name="e_fr_energy">    -45.20222918 </i>
    <i name="e_wo_entrp">    -45.20122103 </i>
    <i name="e_0_energy">    -45.20172510 </i>
   </energy>
  </scstep>
  <structure>
   <crystal>
    <varray name="basis" >
     <v>       7.68059444       0.00000000       0.00000000 </v>
     <v>      -3.84029698      11.52089119       0.00000000 </v>
     <v>       0.00000000       0.00000000       9.05166912 </v>
    </varray>
    <i name="volume">    800.95769642 </i>
    <varray name="rec_basis" >
     <v>       0.13019826       0.04339942       0.00000000 </v>
     <v>       0.00000000       0.08679884       0.00000000 </v>
     <v>       0.00000000       0.00000000       0.11047686 </v>
    </varray>
   </crystal>
   <varray name="positions" >
    <v>       0.00593229       0.99406773       0.00000000 </v>
    <v>       0.17259900       0.82740104       0.29999989 </v>
    <v>       0.33926573       0.66073430       0.59999984 </v>
    <v>       0.67259896       0.32740104       0.00000000 </v>
    <v>       0.83926570       0.16073434       0.29999989 </v>
    <v>       0.00593245       0.99406767       0.59999984 </v>
    <v>       0.33926564       0.66073442       0.00000000 </v>
    <v>       0.50593233       0.49406770       0.29999989 </v>
    <v>       0.67259908       0.32740101       0.59999984 </v>
    <v>       0.08926566       0.16073437       0.14999996 </v>
    <v>       0.25593239       0.99406767       0.44999990 </v>
    <v>       0.42259914       0.82740098       0.74999982 </v>
    <v>       0.75593227       0.49406773       0.14999996 </v>
    <v>       0.92259902       0.32740104       0.44999990 </v>
    <v>       0.08926570       0.16073433       0.74999982 </v>
    <v>       0.42259893       0.82740110       0.14999996 </v>
    <v>       0.58926570       0.66073447       0.44999990 </v>
    <v>       0.75593245       0.49406773       0.74999982 </v>
    <v>       0.50593233       0.99406773       0.00000000 </v>
    <v>       0.67259902       0.82740104       0.29999989 </v>
    <v>       0.83926576       0.66073430       0.59999984 </v>
    <v>       0.17259897       0.32740104       0.00000000 </v>
    <v>       0.33926567       0.16073437       0.29999989 </v>
    <v>       0.50593239       0.99406767       0.59999984 </v>
    <v>       0.83926558       0.66073442       0.00000000 </v>
    <v>       0.00593233       0.49406770       0.29999989 </v>
    <v>       0.17259896       0.32740098       0.59999984 </v>
    <v>       0.58926564       0.16073436       0.14999996 </v>
    <v>       0.75593239       0.99406767       0.44999990 </v>
    <v>       0.92259914       0.82740092       0.74999982 </v>
    <v>       0.25593227       0.49406773       0.14999996 </v>
    <v>       0.42259905       0.32740104       0.44999990 </v>
    <v>       0.58926576       0.16073433       0.74999982 </v>
    <v>       0.92259896       0.82740116       0.14999996 </v>
    <v>       0.08926570       0.66073442       0.44999990 </v>
    <v>       0.25593245       0.49406770       0.74999982 </v>
    <v>       0.98938477       0.02653812       0.74999982 </v>
    <v>       0.87827355       0.30431592       0.84999984 </v>
    <v>       0.76716238       0.58209372       0.94999999 </v>
    <v>       0.48938474       0.02653811       0.74999982 </v>
    <v>       0.37827355       0.30431592       0.84999984 </v>
    <v>       0.26716232       0.58209366       0.94999999 </v>
    <v>       0.68382919       0.91542697       0.79999989 </v>
    <v>       0.57271797       0.19320476       0.89999992 </v>
    <v>       0.46160677       0.47098255       0.99999994 </v>
    <v>       0.18382916       0.91542703       0.79999989 </v>
    <v>       0.07271797       0.19320476       0.89999992 </v>
    <v>       0.96160674       0.47098255       0.99999994 </v>
   </varray>
  </structure>
  <varray name="forces" >
   <v>       0.39199178      -1.62685276       1.00607480 </v>
   <v>      -0.04014406      -0.05804495      -0.02728278 </v>
   <v>       0.13444076       0.01691141      -0.16929286 </v>
   <v>      -0.52717020      10.87119428       8.53259398 </v>
   <v>      -0.05286027      -0.03867365       0.10495676 </v>
   <v>       9.71599028     -13.31014986     -52.10693053 </v>
   <v>      36.85649435     135.94763878      67.83049472 </v>
   <v>      -0.01382293       0.25364585       0.50507775 </v>
   <v>       0.02389877       0.08154257      -0.50691375 </v>
   <v>       0.23512201      -0.23564300       1.17912926 </v>
   <v>      -0.16766256      -0.11000933      -0.58456186 </v>
   <v>      -4.37869700      -5.39698507      -1.05415438 </v>
   <v>      -1.54828969      -1.03014134       4.32808631 </v>
   <v>      -0.07348940       0.10968130      -0.27356884 </v>
   <v>      14.94267686      19.25693257     -52.83942294 </v>
   <v>       0.13188760       0.37927944       0.15323568 </v>
   <v>      -0.06631888       0.18253751      -0.01015298 </v>
   <v>       0.58800135      -2.04023282      -3.02595976 </v>
   <v>       0.39199178      -1.62685276       1.00607480 </v>
   <v>      -0.04014406      -0.05804495      -0.02728278 </v>
   <v>       0.13444076       0.01691141      -0.16929286 </v>
   <v>      -0.52717020      10.87119428       8.53259398 </v>
   <v>      -0.05286027      -0.03867365       0.10495676 </v>
   <v>       9.71599028     -13.31014986     -52.10693053 </v>
   <v>      36.85649435     135.94763878      67.83049472 </v>
   <v>      -0.01382293       0.25364585       0.50507775 </v>
   <v>       0.02389877       0.08154257      -0.50691375 </v>
   <v>       0.23512201      -0.23564300       1.17912926 </v>
   <v>      -0.16766256      -0.11000933      -0.58456186 </v>
   <v>      -4.37869700      -5.39698507      -1.05415438 </v>
   <v>      -1.54828969      -1.03014134       4.32808631 </v>
   <v>      -0.07348940       0.10968130      -0.27356884 </v>
   <v>      14.94267686      19.25693257     -52.83942294 </v>
   <v>       0.13188760       0.37927944       0.15323568 </v>
   <v>      -0.06631888       0.18253751      -0.01015298 </v>
   <v>       0.58800135      -2.04023282      -3.02595976 </v>
   <v>     -15.66209615     -15.80857377      51.78835264 </v>
   <v>       1.89567086      -0.26431437      -1.80535804 </v>
   <v>     -38.28355143    -129.97812647     -67.18984739 </v>
   <v>     -15.66209615     -15.80857377      51.78835264 </v>
   <v>       1.89567086      -0.26431437      -1.80535804 </v>
   <v>     -38.28355143    -129.97812647     -67.18984739 </v>
   <v>       4.83587789       1.66507905       2.61462872 </v>
   <v>     -11.71335441       2.16347378      43.52735045 </v>
   <v>       2.77540448      -1.03016915      -1.97653496 </v>
   <v>       4.83587789       1.66507905       2.61462872 </v>
   <v>     -11.71335441       2.16347378      43.52735045 </v>
   <v>       2.77540448      -1.03016915      -1.97653496 </v>
  </varray>
  <varray name="stress" >
   <v>     204.07260499     165.04416313     -33.52309618 </v>
   <v>     165.04416062     942.59057725     441.40460793 </v>
   <v>     -33.52309466     441.40461767     831.46009101 </v>
  </varray>
  <energy>
   <i name="e_fr_energy">    -45.20222918 </i>
   <i name="e_wo_entrp">    -45.20122103 </i>
   <i name="e_0_energy">    -45.20172510 </i>
  </energy>
  <time name="totalsc">  165.34  166.79</time>
  <eigenvalues>
   <array>
    <dimension dim="1">band</dimension>
    <dimension dim="2">kpoint</dimension>
    <dimension dim="3">spin</dimension>
    <field>eigene</field>
    <field>occ</field>
    <set>
     <set comment="spin 1">
      <set comment="kpoint 1">
       <r>   -7.9764    1.0000 </r>
       <r>   -7.1847    1.0000 </r>
       <r>   -7.1816    1.0000 </r>
       <r>   -6.2199    1.0000 </r>
       <r>   -5.9930    1.0000 </r>
       <r>   -5.1459    1.0000 </r>
       <r>   -4.0223    1.0000 </r>
       <r>   -3.7796    1.0000 </r>
       <r>   -3.7384    1.0000 </r>
       <r>   -3.6822    1.0000 </r>
       <r>   -3.4030    1.0000 </r>
       <r>   -3.3199    1.0000 </r>
       <r>   -2.9693    1.0000 </r>
       <r>   -2.8064    1.0000 </r>
       <r>   -2.7815    1.0000 </r>
       <r>   -2.4903    1.0000 </r>
       <r>   -2.2842    1.0000 </r>
       <r>   -2.1054    1.0000 </r>
       <r>   -2.0196    1.0000 </r>
       <r>   -1.7284    1.0000 </r>
       <r>   -1.6026    1.0000 </r>
       <r>   -1.5373    1.0000 </r>
       <r>   -1.4947    1.0000 </r>
       <r>   -1.2081    1.0000 </r>
       <r>   -0.7473    1.0000 </r>
       <r>   -0.5108    1.0000 </r>
       <r>   -0.4424    1.0000 </r>
       <r>   -0.2727    1.0000 </r>
       <r>   -0.2271    1.0000 </r>
       <r>   -0.0875    1.0000 </r>
       <r>   -0.0761    1.0000 </r>
       <r>    0.3127    1.0000 </r>
       <r>    0.3206    1.0000 </r>
       <r>    0.4498    1.0000 </r>
       <r>    0.6024    1.0000 </r>
       <r>    0.7390    1.0000 </r>
       <r>    1.0139    1.0000 </r>
       <r>    1.1470    1.0000 </r>
       <r>    1.2096    1.0000 </r>
       <r>    1.4710    1.0000 </r>
       <r>    1.5970    1.0000 </r>
       <r>    1.6027    1.0000 </r>
       <r>    1.6629    1.0000 </r>
       <r>    1.8866    1.0000 </r>
       <r>    1.9199    1.0000 </r>
       <r>    2.1694    1.0000 </r>
       <r>    2.2003    1.0000 </r>
       <r>    2.4699    1.0000 </r>
       <r>    2.5352    1.0000 </r>
       <r>    2.6948    1.0000 </r>
       <r>    2.8797    1.0000 </r>
       <r>    2.9615    1.0000 </r>
       <r>    3.1272    1.0000 </r>
       <r>    3.2270    1.0000 </r>
       <r>    3.3527    1.0000 </r>
       <r>    3.3834    1.0000 </r>
       <r>    3.5529    1.0000 </r>
       <r>    3.5823    1.0000 </r>
       <r>    3.8023    1.0000 </r>
       <r>    3.9907    1.0000 </r>
       <r>    4.0518    1.0000 </r>
       <r>    4.0955    1.0000 </r>
       <r>    4.3767    1.0000 </r>
       <r>    4.5611    1.0000 </r>
       <r>    4.5959    1.0000 </r>
       <r>    4.6769    1.0000 </r>
       <r>    4.7638    1.0000 </r>
       <r>    4.8244    1.0000 </r>
       <r>    4.9815    1.0000 </r>
       <r>    5.0028    1.0000 </r>
       <r>    5.0728    1.0000 </r>
       <r>    5.1570    1.0000 </r>
       <r>    5.3219    1.0000 </r>
       <r>    5.3685    1.0000 </r>
       <r>    5.4073    1.0000 </r>
       <r>    5.4829    1.0000 </r>
       <r>    5.5060    1.0000 </r>
       <r>    5.6432    1.0000 </r>
       <r>    5.7152    1.0000 </r>
       <r>    5.7584    1.0000 </r>
       <r>    5.8488    1.0000 </r>
       <r>    5.9566    1.0000 </r>
       <r>    5.9750    1.0000 </r>
       <r>    5.9869    1.0000 </r>
       <r>    6.1960    1.0000 </r>
       <r>    6.3642    1.0000 </r>
       <r>    6.4764    1.0000 </r>
       <r>    6.7743    1.0000 </r>
       <r>    7.0183    1.0000 </r>
       <r>    7.1088    1.0000 </r>
       <r>    7.2870    1.0000 </r>
       <r>    7.3257    1.0000 </r>
       <r>    7.5821    1.0000 </r>
       <r>    7.7343    1.0000 </r>
       <r>    7.8600    1.0000 </r>
       <r>    7.9397    1.0000 </r>
       <r>    8.0106    1.0000 </r>
       <r>    8.1180    0.0017 </r>
       <r>    8.3429    0.0000 </r>
       <r>    8.3938    0.0000 </r>
       <r>    8.4001    0.0000 </r>
       <r>    8.5162    0.0000 </r>
       <r>    8.5843    0.0000 </r>
       <r>    8.6665    0.0000 </r>
       <r>    8.7428    0.0000 </r>
       <r>    8.8680    0.0000 </r>
       <r>    9.0025    0.0000 </r>
       <r>    9.0495    0.0000 </r>
       <r>    9.0895    0.0000 </r>
       <r>    9.1687    0.0000 </r>
       <r>    9.2434    0.0000 </r>
       <r>    9.3016    0.0000 </r>
       <r>    9.3719    0.0000 </r>
       <r>    9.5592    0.0000 </r>
       <r>    9.7922    0.0000 </r>
       <r>    9.8559    0.0000 </r>
      </set>
      <set comment="kpoint 2">
       <r>   -7.8814    1.0000 </r>
       <r>   -7.3286    1.0000 </r>
       <r>   -7.0691    1.0000 </r>
       <r>   -6.2790    1.0000 </r>
       <r>   -6.1020    1.0000 </r>
       <r>   -5.3658    1.0000 </r>
       <r>   -3.9783    1.0000 </r>
       <r>   -3.6708    1.0000 </r>
       <r>   -3.6185    1.0000 </r>
       <r>   -3.5375    1.0000 </r>
       <r>   -3.2493    1.0000 </r>
       <r>   -3.2381    1.0000 </r>
       <r>   -2.9173    1.0000 </r>
       <r>   -2.8372    1.0000 </r>
       <r>   -2.6336    1.0000 </r>
       <r>   -2.5255    1.0000 </r>
       <r>   -2.3249    1.0000 </r>
       <r>   -2.2290    1.0000 </r>
       <r>   -2.2250    1.0000 </r>
       <r>   -1.8814    1.0000 </r>
       <r>   -1.7739    1.0000 </r>
       <r>   -1.3879    1.0000 </r>
       <r>   -1.3668    1.0000 </r>
       <r>   -1.1796    1.0000 </r>
       <r>   -0.5548    1.0000 </r>
       <r>   -0.5421    1.0000 </r>
       <r>   -0.3602    1.0000 </r>
       <r>   -0.2195    1.0000 </r>
       <r>   -0.1673    1.0000 </r>
       <r>   -0.1624    1.0000 </r>
       <r>    0.0837    1.0000 </r>
       <r>    0.2291    1.0000 </r>
       <r>    0.4510    1.0000 </r>
       <r>    0.4880    1.0000 </r>
       <r>    0.5385    1.0000 </r>
       <r>    0.7603    1.0000 </r>
       <r>    0.7649    1.0000 </r>
       <r>    0.9725    1.0000 </r>
       <r>    1.1556    1.0000 </r>
       <r>    1.3646    1.0000 </r>
       <r>    1.3742    1.0000 </r>
       <r>    1.5836    1.0000 </r>
       <r>    1.6760    1.0000 </r>
       <r>    1.8545    1.0000 </r>
       <r>    2.0052    1.0000 </r>
       <r>    2.0979    1.0000 </r>
       <r>    2.3089    1.0000 </r>
       <r>    2.3877    1.0000 </r>
       <r>    2.4489    1.0000 </r>
       <r>    2.7322    1.0000 </r>
       <r>    2.7981    1.0000 </r>
       <r>    3.0887    1.0000 </r>
       <r>    3.2576    1.0000 </r>
       <r>    3.3425    1.0000 </r>
       <r>    3.3749    1.0000 </r>
       <r>    3.4789    1.0000 </r>
       <r>    3.5220    1.0000 </r>
       <r>    3.6573    1.0000 </r>
       <r>    3.8590    1.0000 </r>
       <r>    3.9026    1.0000 </r>
       <r>    4.1231    1.0000 </r>
       <r>    4.1983    1.0000 </r>
       <r>    4.3490    1.0000 </r>
       <r>    4.4026    1.0000 </r>
       <r>    4.5532    1.0000 </r>
       <r>    4.6267    1.0000 </r>
       <r>    4.6849    1.0000 </r>
       <r>    4.7392    1.0000 </r>
       <r>    4.7946    1.0000 </r>
       <r>    4.8792    1.0000 </r>
       <r>    4.9328    1.0000 </r>
       <r>    4.9740    1.0000 </r>
       <r>    5.1306    1.0000 </r>
       <r>    5.2520    1.0000 </r>
       <r>    5.2924    1.0000 </r>
       <r>    5.3789    1.0000 </r>
       <r>    5.4690    1.0000 </r>
       <r>    5.5287    1.0000 </r>
       <r>    5.7080    1.0000 </r>
       <r>    5.7130    1.0000 </r>
       <r>    5.8767    1.0000 </r>
       <r>    5.9699    1.0000 </r>
       <r>    6.0602    1.0000 </r>
       <r>    6.1314    1.0000 </r>
       <r>    6.3516    1.0000 </r>
       <r>    6.4523    1.0000 </r>
       <r>    6.5098    1.0000 </r>
       <r>    6.8415    1.0000 </r>
       <r>    6.9548    1.0000 </r>
       <r>    7.0308    1.0000 </r>
       <r>    7.0590    1.0000 </r>
       <r>    7.5129    1.0000 </r>
       <r>    7.7190    1.0000 </r>
       <r>    7.7581    1.0000 </r>
       <r>    7.8478    1.0000 </r>
       <r>    7.9746    1.0000 </r>
       <r>    8.0860    0.9453 </r>
       <r>    8.2054    0.0000 </r>
       <r>    8.3506    0.0000 </r>
       <r>    8.3973    0.0000 </r>
       <r>    8.6231    0.0000 </r>
       <r>    8.6355    0.0000 </r>
       <r>    8.7451    0.0000 </r>
       <r>    8.8292    0.0000 </r>
       <r>    8.9205    0.0000 </r>
       <r>    9.0158    0.0000 </r>
       <r>    9.0971    0.0000 </r>
       <r>    9.2216    0.0000 </r>
       <r>    9.2804    0.0000 </r>
       <r>    9.3296    0.0000 </r>
       <r>    9.4056    0.0000 </r>
       <r>    9.5597    0.0000 </r>
       <r>    9.6379    0.0000 </r>
       <r>    9.6917    0.0000 </r>
       <r>    9.8129    0.0000 </r>
       <r>    9.8676    0.0000 </r>
      </set>
      <set comment="kpoint 3">
       <r>   -7.6283    1.0000 </r>
       <r>   -7.6283    1.0000 </r>
       <r>   -6.7435    1.0000 </r>
       <r>   -6.7435    1.0000 </r>
       <r>   -5.7783    1.0000 </r>
       <r>   -5.7783    1.0000 </r>
       <r>   -3.8209    1.0000 </r>
       <r>   -3.8209    1.0000 </r>
       <r>   -3.3829    1.0000 </r>
       <r>   -3.3829    1.0000 </r>
       <r>   -3.1488    1.0000 </r>
       <r>   -3.1488    1.0000 </r>
       <r>   -2.8620    1.0000 </r>
       <r>   -2.8620    1.0000 </r>
       <r>   -2.6883    1.0000 </r>
       <r>   -2.6883    1.0000 </r>
       <r>   -2.3118    1.0000 </r>
       <r>   -2.3118    1.0000 </r>
       <r>   -2.0083    1.0000 </r>
       <r>   -2.0083    1.0000 </r>
       <r>   -1.5631    1.0000 </r>
       <r>   -1.5631    1.0000 </r>
       <r>   -1.0871    1.0000 </r>
       <r>   -1.0871    1.0000 </r>
       <r>   -0.6007    1.0000 </r>
       <r>   -0.6007    1.0000 </r>
       <r>   -0.4272    1.0000 </r>
       <r>   -0.4272    1.0000 </r>
       <r>   -0.1549    1.0000 </r>
       <r>   -0.1549    1.0000 </r>
       <r>    0.1390    1.0000 </r>
       <r>    0.1390    1.0000 </r>
       <r>    0.3413    1.0000 </r>
       <r>    0.3413    1.0000 </r>
       <r>    0.5336    1.0000 </r>
       <r>    0.5336    1.0000 </r>
       <r>    0.8305    1.0000 </r>
       <r>    0.8305    1.0000 </r>
       <r>    1.1816    1.0000 </r>
       <r>    1.1816    1.0000 </r>
       <r>    1.5537    1.0000 </r>
       <r>    1.5537    1.0000 </r>
       <r>    1.9314    1.0000 </r>
       <r>    1.9314    1.0000 </r>
       <r>    2.2321    1.0000 </r>
       <r>    2.2321    1.0000 </r>
       <r>    2.5561    1.0000 </r>
       <r>    2.5561    1.0000 </r>
       <r>    2.6351    1.0000 </r>
       <r>    2.6351    1.0000 </r>
       <r>    3.0162    1.0000 </r>
       <r>    3.0162    1.0000 </r>
       <r>    3.2867    1.0000 </r>
       <r>    3.2867    1.0000 </r>
       <r>    3.4411    1.0000 </r>
       <r>    3.4411    1.0000 </r>
       <r>    3.5830    1.0000 </r>
       <r>    3.5830    1.0000 </r>
       <r>    3.7229    1.0000 </r>
       <r>    3.7229    1.0000 </r>
       <r>    3.8612    1.0000 </r>
       <r>    3.8612    1.0000 </r>
       <r>    4.0089    1.0000 </r>
       <r>    4.0089    1.0000 </r>
       <r>    4.2408    1.0000 </r>
       <r>    4.2408    1.0000 </r>
       <r>    4.5894    1.0000 </r>
       <r>    4.5894    1.0000 </r>
       <r>    4.6883    1.0000 </r>
       <r>    4.6883    1.0000 </r>
       <r>    4.9056    1.0000 </r>
       <r>    4.9056    1.0000 </r>
       <r>    5.1785    1.0000 </r>
       <r>    5.1785    1.0000 </r>
       <r>    5.3774    1.0000 </r>
       <r>    5.3774    1.0000 </r>
       <r>    5.4468    1.0000 </r>
       <r>    5.4468    1.0000 </r>
       <r>    5.8404    1.0000 </r>
       <r>    5.8404    1.0000 </r>
       <r>    6.0823    1.0000 </r>
       <r>    6.0823    1.0000 </r>
       <r>    6.2010    1.0000 </r>
       <r>    6.2010    1.0000 </r>
       <r>    6.6340    1.0000 </r>
       <r>    6.6340    1.0000 </r>
       <r>    6.9515    1.0000 </r>
       <r>    6.9515    1.0000 </r>
       <r>    7.1326    1.0000 </r>
       <r>    7.1326    1.0000 </r>
       <r>    7.4702    1.0000 </r>
       <r>    7.4702    1.0000 </r>
       <r>    7.7202    1.0000 </r>
       <r>    7.7202    1.0000 </r>
       <r>    7.9903    1.0000 </r>
       <r>    7.9903    1.0000 </r>
       <r>    8.1283    0.0000 </r>
       <r>    8.1283    0.0000 </r>
       <r>    8.5478    0.0000 </r>
       <r>    8.5478    0.0000 </r>
       <r>    8.6986    0.0000 </r>
       <r>    8.6986    0.0000 </r>
       <r>    8.8518    0.0000 </r>
       <r>    8.8518    0.0000 </r>
       <r>    8.9123    0.0000 </r>
       <r>    8.9123    0.0000 </r>
       <r>    9.1355    0.0000 </r>
       <r>    9.1355    0.0000 </r>
       <r>    9.2489    0.0000 </r>
       <r>    9.2489    0.0000 </r>
       <r>    9.5177    0.0000 </r>
       <r>    9.5177    0.0000 </r>
       <r>    9.6133    0.0000 </r>
       <r>    9.6133    0.0000 </r>
       <r>    9.7930    0.0000 </r>
       <r>    9.7931    0.0000 </r>
      </set>
      <set comment="kpoint 4">
       <r>   -7.9685    1.0000 </r>
       <r>   -7.2137    1.0000 </r>
       <r>   -7.1879    1.0000 </r>
       <r>   -6.1706    1.0000 </r>
       <r>   -5.9652    1.0000 </r>
       <r>   -5.1931    1.0000 </r>
       <r>   -4.1962    1.0000 </r>
       <r>   -3.7207    1.0000 </r>
       <r>   -3.7152    1.0000 </r>
       <r>   -3.5917    1.0000 </r>
       <r>   -3.2643    1.0000 </r>
       <r>   -3.2569    1.0000 </r>
       <r>   -3.1049    1.0000 </r>
       <r>   -2.7863    1.0000 </r>
       <r>   -2.7858    1.0000 </r>
       <r>   -2.5500    1.0000 </r>
       <r>   -2.3915    1.0000 </r>
       <r>   -2.2444    1.0000 </r>
       <r>   -2.0927    1.0000 </r>
       <r>   -1.7227    1.0000 </r>
       <r>   -1.4291    1.0000 </r>
       <r>   -1.4021    1.0000 </r>
       <r>   -1.2823    1.0000 </r>
       <r>   -1.1134    1.0000 </r>
       <r>   -0.8316    1.0000 </r>
       <r>   -0.7054    1.0000 </r>
       <r>   -0.6204    1.0000 </r>
       <r>   -0.3688    1.0000 </r>
       <r>   -0.2717    1.0000 </r>
       <r>    0.0247    1.0000 </r>
       <r>    0.0395    1.0000 </r>
       <r>    0.3355    1.0000 </r>
       <r>    0.4103    1.0000 </r>
       <r>    0.6299    1.0000 </r>
       <r>    0.6330    1.0000 </r>
       <r>    0.8104    1.0000 </r>
       <r>    0.9455    1.0000 </r>
       <r>    1.0461    1.0000 </r>
       <r>    1.1553    1.0000 </r>
       <r>    1.3220    1.0000 </r>
       <r>    1.4472    1.0000 </r>
       <r>    1.5987    1.0000 </r>
       <r>    1.6522    1.0000 </r>
       <r>    1.7276    1.0000 </r>
       <r>    2.0150    1.0000 </r>
       <r>    2.2060    1.0000 </r>
       <r>    2.3589    1.0000 </r>
       <r>    2.4971    1.0000 </r>
       <r>    2.5245    1.0000 </r>
       <r>    2.6118    1.0000 </r>
       <r>    2.7051    1.0000 </r>
       <r>    3.0535    1.0000 </r>
       <r>    3.3050    1.0000 </r>
       <r>    3.3281    1.0000 </r>
       <r>    3.3814    1.0000 </r>
       <r>    3.4985    1.0000 </r>
       <r>    3.5555    1.0000 </r>
       <r>    3.7914    1.0000 </r>
       <r>    3.8468    1.0000 </r>
       <r>    3.9576    1.0000 </r>
       <r>    4.0011    1.0000 </r>
       <r>    4.1970    1.0000 </r>
       <r>    4.2690    1.0000 </r>
       <r>    4.3654    1.0000 </r>
       <r>    4.4999    1.0000 </r>
       <r>    4.5899    1.0000 </r>
       <r>    4.6226    1.0000 </r>
       <r>    4.6672    1.0000 </r>
       <r>    4.7238    1.0000 </r>
       <r>    4.8178    1.0000 </r>
       <r>    4.9228    1.0000 </r>
       <r>    5.2782    1.0000 </r>
       <r>    5.3386    1.0000 </r>
       <r>    5.4400    1.0000 </r>
       <r>    5.5602    1.0000 </r>
       <r>    5.6035    1.0000 </r>
       <r>    5.6394    1.0000 </r>
       <r>    5.7059    1.0000 </r>
       <r>    5.7250    1.0000 </r>
       <r>    5.8554    1.0000 </r>
       <r>    5.8783    1.0000 </r>
       <r>    6.0528    1.0000 </r>
       <r>    6.0569    1.0000 </r>
       <r>    6.1972    1.0000 </r>
       <r>    6.2595    1.0000 </r>
       <r>    6.3289    1.0000 </r>
       <r>    6.4244    1.0000 </r>
       <r>    6.6330    1.0000 </r>
       <r>    6.8813    1.0000 </r>
       <r>    7.2193    1.0000 </r>
       <r>    7.2508    1.0000 </r>
       <r>    7.2654    1.0000 </r>
       <r>    7.5052    1.0000 </r>
       <r>    7.7333    1.0000 </r>
       <r>    7.7631    1.0000 </r>
       <r>    8.0040    1.0000 </r>
       <r>    8.0552    1.0000 </r>
       <r>    8.2129    0.0000 </r>
       <r>    8.2656    0.0000 </r>
       <r>    8.4084    0.0000 </r>
       <r>    8.4712    0.0000 </r>
       <r>    8.5184    0.0000 </r>
       <r>    8.7231    0.0000 </r>
       <r>    8.7899    0.0000 </r>
       <r>    8.9049    0.0000 </r>
       <r>    8.9890    0.0000 </r>
       <r>    9.0479    0.0000 </r>
       <r>    9.0800    0.0000 </r>
       <r>    9.1968    0.0000 </r>
       <r>    9.2390    0.0000 </r>
       <r>    9.2501    0.0000 </r>
       <r>    9.3791    0.0000 </r>
       <r>    9.4885    0.0000 </r>
       <r>    9.5260    0.0000 </r>
       <r>    9.5768    0.0000 </r>
       <r>    9.7062    0.0000 </r>
      </set>
      <set comment="kpoint 5">
       <r>   -7.8731    1.0000 </r>
       <r>   -7.3332    1.0000 </r>
       <r>   -7.1038    1.0000 </r>
       <r>   -6.2473    1.0000 </r>
       <r>   -6.0472    1.0000 </r>
       <r>   -5.4197    1.0000 </r>
       <r>   -4.1462    1.0000 </r>
       <r>   -3.5849    1.0000 </r>
       <r>   -3.4883    1.0000 </r>
       <r>   -3.4486    1.0000 </r>
       <r>   -3.2754    1.0000 </r>
       <r>   -3.1680    1.0000 </r>
       <r>   -2.9678    1.0000 </r>
       <r>   -2.9035    1.0000 </r>
       <r>   -2.7114    1.0000 </r>
       <r>   -2.6419    1.0000 </r>
       <r>   -2.3889    1.0000 </r>
       <r>   -2.2701    1.0000 </r>
       <r>   -2.1133    1.0000 </r>
       <r>   -1.8165    1.0000 </r>
       <r>   -1.7035    1.0000 </r>
       <r>   -1.3833    1.0000 </r>
       <r>   -1.3545    1.0000 </r>
       <r>   -1.0589    1.0000 </r>
       <r>   -0.6339    1.0000 </r>
       <r>   -0.6307    1.0000 </r>
       <r>   -0.5119    1.0000 </r>
       <r>   -0.2694    1.0000 </r>
       <r>   -0.1413    1.0000 </r>
       <r>    0.0750    1.0000 </r>
       <r>    0.1704    1.0000 </r>
       <r>    0.1888    1.0000 </r>
       <r>    0.3360    1.0000 </r>
       <r>    0.5097    1.0000 </r>
       <r>    0.7105    1.0000 </r>
       <r>    0.8009    1.0000 </r>
       <r>    0.8544    1.0000 </r>
       <r>    0.9614    1.0000 </r>
       <r>    1.0266    1.0000 </r>
       <r>    1.3028    1.0000 </r>
       <r>    1.3071    1.0000 </r>
       <r>    1.4926    1.0000 </r>
       <r>    1.6580    1.0000 </r>
       <r>    1.6833    1.0000 </r>
       <r>    1.9572    1.0000 </r>
       <r>    2.1556    1.0000 </r>
       <r>    2.2723    1.0000 </r>
       <r>    2.3224    1.0000 </r>
       <r>    2.5369    1.0000 </r>
       <r>    2.8735    1.0000 </r>
       <r>    3.0493    1.0000 </r>
       <r>    3.0734    1.0000 </r>
       <r>    3.1080    1.0000 </r>
       <r>    3.3504    1.0000 </r>
       <r>    3.4450    1.0000 </r>
       <r>    3.6184    1.0000 </r>
       <r>    3.6756    1.0000 </r>
       <r>    3.7931    1.0000 </r>
       <r>    3.9033    1.0000 </r>
       <r>    4.0123    1.0000 </r>
       <r>    4.0308    1.0000 </r>
       <r>    4.1578    1.0000 </r>
       <r>    4.2088    1.0000 </r>
       <r>    4.2907    1.0000 </r>
       <r>    4.3395    1.0000 </r>
       <r>    4.3706    1.0000 </r>
       <r>    4.6080    1.0000 </r>
       <r>    4.6712    1.0000 </r>
       <r>    4.7246    1.0000 </r>
       <r>    4.8195    1.0000 </r>
       <r>    4.9386    1.0000 </r>
       <r>    5.1078    1.0000 </r>
       <r>    5.1524    1.0000 </r>
       <r>    5.1821    1.0000 </r>
       <r>    5.2528    1.0000 </r>
       <r>    5.3978    1.0000 </r>
       <r>    5.4190    1.0000 </r>
       <r>    5.6232    1.0000 </r>
       <r>    5.7455    1.0000 </r>
       <r>    5.8275    1.0000 </r>
       <r>    5.9530    1.0000 </r>
       <r>    6.0408    1.0000 </r>
       <r>    6.0566    1.0000 </r>
       <r>    6.1961    1.0000 </r>
       <r>    6.2774    1.0000 </r>
       <r>    6.6629    1.0000 </r>
       <r>    6.6692    1.0000 </r>
       <r>    6.7381    1.0000 </r>
       <r>    6.9119    1.0000 </r>
       <r>    7.0980    1.0000 </r>
       <r>    7.1152    1.0000 </r>
       <r>    7.3700    1.0000 </r>
       <r>    7.5495    1.0000 </r>
       <r>    7.8369    1.0000 </r>
       <r>    7.8402    1.0000 </r>
       <r>    8.0724    0.9998 </r>
       <r>    8.1521    0.0000 </r>
       <r>    8.3296    0.0000 </r>
       <r>    8.4457    0.0000 </r>
       <r>    8.4888    0.0000 </r>
       <r>    8.5455    0.0000 </r>
       <r>    8.6165    0.0000 </r>
       <r>    8.6767    0.0000 </r>
       <r>    8.7937    0.0000 </r>
       <r>    8.8248    0.0000 </r>
       <r>    9.0027    0.0000 </r>
       <r>    9.0946    0.0000 </r>
       <r>    9.1790    0.0000 </r>
       <r>    9.2338    0.0000 </r>
       <r>    9.3351    0.0000 </r>
       <r>    9.4841    0.0000 </r>
       <r>    9.5492    0.0000 </r>
       <r>    9.5994    0.0000 </r>
       <r>    9.8282    0.0000 </r>
       <r>    9.8773    0.0000 </r>
       <r>    9.9795    0.0000 </r>
      </set>
      <set comment="kpoint 6">
       <r>   -7.6318    1.0000 </r>
       <r>   -7.6248    1.0000 </r>
       <r>   -6.7601    1.0000 </r>
       <r>   -6.7256    1.0000 </r>
       <r>   -5.8073    1.0000 </r>
       <r>   -5.7508    1.0000 </r>
       <r>   -3.8954    1.0000 </r>
       <r>   -3.7290    1.0000 </r>
       <r>   -3.4217    1.0000 </r>
       <r>   -3.3430    1.0000 </r>
       <r>   -3.1838    1.0000 </r>
       <r>   -3.0856    1.0000 </r>
       <r>   -2.9941    1.0000 </r>
       <r>   -2.8315    1.0000 </r>
       <r>   -2.7108    1.0000 </r>
       <r>   -2.5540    1.0000 </r>
       <r>   -2.3851    1.0000 </r>
       <r>   -2.3021    1.0000 </r>
       <r>   -2.0243    1.0000 </r>
       <r>   -1.9460    1.0000 </r>
       <r>   -1.6761    1.0000 </r>
       <r>   -1.5015    1.0000 </r>
       <r>   -1.1892    1.0000 </r>
       <r>   -1.0096    1.0000 </r>
       <r>   -0.7091    1.0000 </r>
       <r>   -0.6111    1.0000 </r>
       <r>   -0.3404    1.0000 </r>
       <r>   -0.2555    1.0000 </r>
       <r>   -0.1273    1.0000 </r>
       <r>   -0.1029    1.0000 </r>
       <r>    0.1094    1.0000 </r>
       <r>    0.1248    1.0000 </r>
       <r>    0.3201    1.0000 </r>
       <r>    0.3962    1.0000 </r>
       <r>    0.4499    1.0000 </r>
       <r>    0.5370    1.0000 </r>
       <r>    0.7256    1.0000 </r>
       <r>    0.7566    1.0000 </r>
       <r>    1.1500    1.0000 </r>
       <r>    1.2280    1.0000 </r>
       <r>    1.5389    1.0000 </r>
       <r>    1.5432    1.0000 </r>
       <r>    1.8724    1.0000 </r>
       <r>    1.9647    1.0000 </r>
       <r>    2.1562    1.0000 </r>
       <r>    2.2272    1.0000 </r>
       <r>    2.4589    1.0000 </r>
       <r>    2.6394    1.0000 </r>
       <r>    2.8254    1.0000 </r>
       <r>    2.8781    1.0000 </r>
       <r>    2.9257    1.0000 </r>
       <r>    3.1443    1.0000 </r>
       <r>    3.2852    1.0000 </r>
       <r>    3.3157    1.0000 </r>
       <r>    3.4249    1.0000 </r>
       <r>    3.4705    1.0000 </r>
       <r>    3.4891    1.0000 </r>
       <r>    3.5751    1.0000 </r>
       <r>    3.6472    1.0000 </r>
       <r>    3.6532    1.0000 </r>
       <r>    3.7877    1.0000 </r>
       <r>    3.9390    1.0000 </r>
       <r>    4.0598    1.0000 </r>
       <r>    4.1048    1.0000 </r>
       <r>    4.2066    1.0000 </r>
       <r>    4.2225    1.0000 </r>
       <r>    4.4235    1.0000 </r>
       <r>    4.5389    1.0000 </r>
       <r>    4.7080    1.0000 </r>
       <r>    4.7946    1.0000 </r>
       <r>    4.8045    1.0000 </r>
       <r>    4.9913    1.0000 </r>
       <r>    5.0350    1.0000 </r>
       <r>    5.0925    1.0000 </r>
       <r>    5.2982    1.0000 </r>
       <r>    5.3294    1.0000 </r>
       <r>    5.5317    1.0000 </r>
       <r>    5.6997    1.0000 </r>
       <r>    5.7817    1.0000 </r>
       <r>    5.7869    1.0000 </r>
       <r>    5.9092    1.0000 </r>
       <r>    6.2056    1.0000 </r>
       <r>    6.2675    1.0000 </r>
       <r>    6.3515    1.0000 </r>
       <r>    6.6031    1.0000 </r>
       <r>    6.6325    1.0000 </r>
       <r>    6.7548    1.0000 </r>
       <r>    7.0059    1.0000 </r>
       <r>    7.0735    1.0000 </r>
       <r>    7.1804    1.0000 </r>
       <r>    7.3913    1.0000 </r>
       <r>    7.4936    1.0000 </r>
       <r>    7.7215    1.0000 </r>
       <r>    7.8836    1.0000 </r>
       <r>    7.9114    1.0000 </r>
       <r>    8.0651    1.0000 </r>
       <r>    8.2150    0.0000 </r>
       <r>    8.2164    0.0000 </r>
       <r>    8.4423    0.0000 </r>
       <r>    8.5021    0.0000 </r>
       <r>    8.5232    0.0000 </r>
       <r>    8.7480    0.0000 </r>
       <r>    8.7710    0.0000 </r>
       <r>    8.8378    0.0000 </r>
       <r>    9.0399    0.0000 </r>
       <r>    9.0961    0.0000 </r>
       <r>    9.1415    0.0000 </r>
       <r>    9.2090    0.0000 </r>
       <r>    9.3414    0.0000 </r>
       <r>    9.3565    0.0000 </r>
       <r>    9.4956    0.0000 </r>
       <r>    9.5401    0.0000 </r>
       <r>    9.6260    0.0000 </r>
       <r>    9.6433    0.0000 </r>
       <r>    9.7599    0.0000 </r>
       <r>    9.8309    0.0000 </r>
      </set>
      <set comment="kpoint 7">
       <r>   -7.8793    1.0000 </r>
       <r>   -7.3299    1.0000 </r>
       <r>   -7.0784    1.0000 </r>
       <r>   -6.2704    1.0000 </r>
       <r>   -6.0876    1.0000 </r>
       <r>   -5.3808    1.0000 </r>
       <r>   -4.0310    1.0000 </r>
       <r>   -3.6535    1.0000 </r>
       <r>   -3.5910    1.0000 </r>
       <r>   -3.5093    1.0000 </r>
       <r>   -3.2442    1.0000 </r>
       <r>   -3.1839    1.0000 </r>
       <r>   -2.9871    1.0000 </r>
       <r>   -2.8366    1.0000 </r>
       <r>   -2.6151    1.0000 </r>
       <r>   -2.5493    1.0000 </r>
       <r>   -2.3820    1.0000 </r>
       <r>   -2.2692    1.0000 </r>
       <r>   -2.1487    1.0000 </r>
       <r>   -1.9534    1.0000 </r>
       <r>   -1.6710    1.0000 </r>
       <r>   -1.4881    1.0000 </r>
       <r>   -1.3598    1.0000 </r>
       <r>   -1.0530    1.0000 </r>
       <r>   -0.5620    1.0000 </r>
       <r>   -0.5338    1.0000 </r>
       <r>   -0.3731    1.0000 </r>
       <r>   -0.3133    1.0000 </r>
       <r>   -0.1568    1.0000 </r>
       <r>   -0.0556    1.0000 </r>
       <r>    0.0681    1.0000 </r>
       <r>    0.2898    1.0000 </r>
       <r>    0.4070    1.0000 </r>
       <r>    0.4581    1.0000 </r>
       <r>    0.6117    1.0000 </r>
       <r>    0.7277    1.0000 </r>
       <r>    0.7704    1.0000 </r>
       <r>    0.8817    1.0000 </r>
       <r>    1.1175    1.0000 </r>
       <r>    1.2538    1.0000 </r>
       <r>    1.4857    1.0000 </r>
       <r>    1.5395    1.0000 </r>
       <r>    1.6119    1.0000 </r>
       <r>    1.9089    1.0000 </r>
       <r>    2.0848    1.0000 </r>
       <r>    2.1182    1.0000 </r>
       <r>    2.2902    1.0000 </r>
       <r>    2.3463    1.0000 </r>
       <r>    2.5207    1.0000 </r>
       <r>    2.6648    1.0000 </r>
       <r>    2.7409    1.0000 </r>
       <r>    3.0909    1.0000 </r>
       <r>    3.2917    1.0000 </r>
       <r>    3.4226    1.0000 </r>
       <r>    3.4627    1.0000 </r>
       <r>    3.6235    1.0000 </r>
       <r>    3.6455    1.0000 </r>
       <r>    3.6879    1.0000 </r>
       <r>    3.8448    1.0000 </r>
       <r>    3.9996    1.0000 </r>
       <r>    4.0224    1.0000 </r>
       <r>    4.0608    1.0000 </r>
       <r>    4.2491    1.0000 </r>
       <r>    4.3106    1.0000 </r>
       <r>    4.5191    1.0000 </r>
       <r>    4.5217    1.0000 </r>
       <r>    4.5850    1.0000 </r>
       <r>    4.7566    1.0000 </r>
       <r>    4.8389    1.0000 </r>
       <r>    4.8531    1.0000 </r>
       <r>    4.9326    1.0000 </r>
       <r>    5.0582    1.0000 </r>
       <r>    5.1065    1.0000 </r>
       <r>    5.2181    1.0000 </r>
       <r>    5.2944    1.0000 </r>
       <r>    5.4146    1.0000 </r>
       <r>    5.5028    1.0000 </r>
       <r>    5.5046    1.0000 </r>
       <r>    5.6439    1.0000 </r>
       <r>    5.7039    1.0000 </r>
       <r>    5.9206    1.0000 </r>
       <r>    5.9478    1.0000 </r>
       <r>    6.0642    1.0000 </r>
       <r>    6.1176    1.0000 </r>
       <r>    6.2921    1.0000 </r>
       <r>    6.4729    1.0000 </r>
       <r>    6.5559    1.0000 </r>
       <r>    6.9397    1.0000 </r>
       <r>    6.9466    1.0000 </r>
       <r>    7.1071    1.0000 </r>
       <r>    7.1694    1.0000 </r>
       <r>    7.4599    1.0000 </r>
       <r>    7.6826    1.0000 </r>
       <r>    7.7167    1.0000 </r>
       <r>    7.8759    1.0000 </r>
       <r>    7.9689    1.0000 </r>
       <r>    8.2210    0.0000 </r>
       <r>    8.2531    0.0000 </r>
       <r>    8.2930    0.0000 </r>
       <r>    8.4456    0.0000 </r>
       <r>    8.4937    0.0000 </r>
       <r>    8.7267    0.0000 </r>
       <r>    8.7969    0.0000 </r>
       <r>    8.8473    0.0000 </r>
       <r>    8.8714    0.0000 </r>
       <r>    9.0193    0.0000 </r>
       <r>    9.1109    0.0000 </r>
       <r>    9.1628    0.0000 </r>
       <r>    9.2747    0.0000 </r>
       <r>    9.3329    0.0000 </r>
       <r>    9.3676    0.0000 </r>
       <r>    9.5740    0.0000 </r>
       <r>    9.6806    0.0000 </r>
       <r>    9.7301    0.0000 </r>
       <r>    9.7797    0.0000 </r>
       <r>    9.9639    0.0000 </r>
      </set>
      <set comment="kpoint 8">
       <r>   -7.9701    1.0000 </r>
       <r>   -7.1832    1.0000 </r>
       <r>   -7.1821    1.0000 </r>
       <r>   -6.2194    1.0000 </r>
       <r>   -5.9912    1.0000 </r>
       <r>   -5.1495    1.0000 </r>
       <r>   -4.2803    1.0000 </r>
       <r>   -4.0544    1.0000 </r>
       <r>   -3.7197    1.0000 </r>
       <r>   -3.5836    1.0000 </r>
       <r>   -3.3301    1.0000 </r>
       <r>   -3.0349    1.0000 </r>
       <r>   -2.7974    1.0000 </r>
       <r>   -2.7402    1.0000 </r>
       <r>   -2.4849    1.0000 </r>
       <r>   -2.4242    1.0000 </r>
       <r>   -2.1735    1.0000 </r>
       <r>   -2.1602    1.0000 </r>
       <r>   -1.9178    1.0000 </r>
       <r>   -1.8214    1.0000 </r>
       <r>   -1.5788    1.0000 </r>
       <r>   -1.5652    1.0000 </r>
       <r>   -1.4050    1.0000 </r>
       <r>   -1.3450    1.0000 </r>
       <r>   -1.1736    1.0000 </r>
       <r>   -1.0594    1.0000 </r>
       <r>   -0.5970    1.0000 </r>
       <r>   -0.3374    1.0000 </r>
       <r>   -0.2781    1.0000 </r>
       <r>   -0.1747    1.0000 </r>
       <r>   -0.1454    1.0000 </r>
       <r>    0.3224    1.0000 </r>
       <r>    0.4765    1.0000 </r>
       <r>    0.7335    1.0000 </r>
       <r>    0.8137    1.0000 </r>
       <r>    1.1431    1.0000 </r>
       <r>    1.1588    1.0000 </r>
       <r>    1.2702    1.0000 </r>
       <r>    1.3346    1.0000 </r>
       <r>    1.3626    1.0000 </r>
       <r>    1.5334    1.0000 </r>
       <r>    1.5626    1.0000 </r>
       <r>    1.6635    1.0000 </r>
       <r>    1.6739    1.0000 </r>
       <r>    1.9069    1.0000 </r>
       <r>    2.0331    1.0000 </r>
       <r>    2.3292    1.0000 </r>
       <r>    2.4312    1.0000 </r>
       <r>    2.4368    1.0000 </r>
       <r>    2.5799    1.0000 </r>
       <r>    2.7873    1.0000 </r>
       <r>    2.7998    1.0000 </r>
       <r>    3.0847    1.0000 </r>
       <r>    3.1009    1.0000 </r>
       <r>    3.2820    1.0000 </r>
       <r>    3.3293    1.0000 </r>
       <r>    3.5729    1.0000 </r>
       <r>    3.6473    1.0000 </r>
       <r>    3.9087    1.0000 </r>
       <r>    3.9103    1.0000 </r>
       <r>    4.0705    1.0000 </r>
       <r>    4.3065    1.0000 </r>
       <r>    4.3425    1.0000 </r>
       <r>    4.4087    1.0000 </r>
       <r>    4.5666    1.0000 </r>
       <r>    4.6781    1.0000 </r>
       <r>    4.7034    1.0000 </r>
       <r>    4.9347    1.0000 </r>
       <r>    4.9736    1.0000 </r>
       <r>    4.9867    1.0000 </r>
       <r>    5.0084    1.0000 </r>
       <r>    5.1858    1.0000 </r>
       <r>    5.2923    1.0000 </r>
       <r>    5.3363    1.0000 </r>
       <r>    5.4128    1.0000 </r>
       <r>    5.4219    1.0000 </r>
       <r>    5.7124    1.0000 </r>
       <r>    5.8327    1.0000 </r>
       <r>    5.8799    1.0000 </r>
       <r>    5.9913    1.0000 </r>
       <r>    6.0216    1.0000 </r>
       <r>    6.0509    1.0000 </r>
       <r>    6.2744    1.0000 </r>
       <r>    6.2863    1.0000 </r>
       <r>    6.3306    1.0000 </r>
       <r>    6.4061    1.0000 </r>
       <r>    6.5563    1.0000 </r>
       <r>    6.6545    1.0000 </r>
       <r>    6.6732    1.0000 </r>
       <r>    7.0173    1.0000 </r>
       <r>    7.1417    1.0000 </r>
       <r>    7.2254    1.0000 </r>
       <r>    7.6125    1.0000 </r>
       <r>    7.8128    1.0000 </r>
       <r>    7.9604    1.0000 </r>
       <r>    7.9783    1.0000 </r>
       <r>    8.0935    0.7091 </r>
       <r>    8.2382    0.0000 </r>
       <r>    8.3029    0.0000 </r>
       <r>    8.3927    0.0000 </r>
       <r>    8.4077    0.0000 </r>
       <r>    8.4903    0.0000 </r>
       <r>    8.5106    0.0000 </r>
       <r>    8.6176    0.0000 </r>
       <r>    8.6261    0.0000 </r>
       <r>    8.9687    0.0000 </r>
       <r>    9.0526    0.0000 </r>
       <r>    9.0978    0.0000 </r>
       <r>    9.1320    0.0000 </r>
       <r>    9.2498    0.0000 </r>
       <r>    9.2801    0.0000 </r>
       <r>    9.4242    0.0000 </r>
       <r>    9.4774    0.0000 </r>
       <r>    9.5571    0.0000 </r>
       <r>    9.6137    0.0000 </r>
       <r>    9.6640    0.0000 </r>
      </set>
      <set comment="kpoint 9">
       <r>   -7.8755    1.0000 </r>
       <r>   -7.3262    1.0000 </r>
       <r>   -7.0696    1.0000 </r>
       <r>   -6.2757    1.0000 </r>
       <r>   -6.1010    1.0000 </r>
       <r>   -5.3736    1.0000 </r>
       <r>   -4.1630    1.0000 </r>
       <r>   -4.0065    1.0000 </r>
       <r>   -3.6104    1.0000 </r>
       <r>   -3.4323    1.0000 </r>
       <r>   -3.3330    1.0000 </r>
       <r>   -2.8884    1.0000 </r>
       <r>   -2.8867    1.0000 </r>
       <r>   -2.6292    1.0000 </r>
       <r>   -2.6071    1.0000 </r>
       <r>   -2.3276    1.0000 </r>
       <r>   -2.2492    1.0000 </r>
       <r>   -2.0763    1.0000 </r>
       <r>   -1.9059    1.0000 </r>
       <r>   -1.8415    1.0000 </r>
       <r>   -1.5867    1.0000 </r>
       <r>   -1.5519    1.0000 </r>
       <r>   -1.3225    1.0000 </r>
       <r>   -1.2494    1.0000 </r>
       <r>   -1.0557    1.0000 </r>
       <r>   -0.9671    1.0000 </r>
       <r>   -0.8309    1.0000 </r>
       <r>   -0.4179    1.0000 </r>
       <r>   -0.3240    1.0000 </r>
       <r>   -0.2526    1.0000 </r>
       <r>   -0.0587    1.0000 </r>
       <r>    0.2072    1.0000 </r>
       <r>    0.4623    1.0000 </r>
       <r>    0.5794    1.0000 </r>
       <r>    0.7135    1.0000 </r>
       <r>    0.9470    1.0000 </r>
       <r>    1.0611    1.0000 </r>
       <r>    1.3334    1.0000 </r>
       <r>    1.3338    1.0000 </r>
       <r>    1.4199    1.0000 </r>
       <r>    1.4609    1.0000 </r>
       <r>    1.6650    1.0000 </r>
       <r>    1.7175    1.0000 </r>
       <r>    1.7369    1.0000 </r>
       <r>    1.9587    1.0000 </r>
       <r>    2.0861    1.0000 </r>
       <r>    2.0885    1.0000 </r>
       <r>    2.2163    1.0000 </r>
       <r>    2.4150    1.0000 </r>
       <r>    2.6673    1.0000 </r>
       <r>    2.8320    1.0000 </r>
       <r>    3.0954    1.0000 </r>
       <r>    3.2338    1.0000 </r>
       <r>    3.2454    1.0000 </r>
       <r>    3.3384    1.0000 </r>
       <r>    3.4546    1.0000 </r>
       <r>    3.5988    1.0000 </r>
       <r>    3.6513    1.0000 </r>
       <r>    3.8604    1.0000 </r>
       <r>    3.8791    1.0000 </r>
       <r>    4.0506    1.0000 </r>
       <r>    4.2061    1.0000 </r>
       <r>    4.2243    1.0000 </r>
       <r>    4.4172    1.0000 </r>
       <r>    4.4245    1.0000 </r>
       <r>    4.5357    1.0000 </r>
       <r>    4.7642    1.0000 </r>
       <r>    4.7757    1.0000 </r>
       <r>    4.9032    1.0000 </r>
       <r>    4.9077    1.0000 </r>
       <r>    5.1405    1.0000 </r>
       <r>    5.2237    1.0000 </r>
       <r>    5.2973    1.0000 </r>
       <r>    5.3294    1.0000 </r>
       <r>    5.3490    1.0000 </r>
       <r>    5.4300    1.0000 </r>
       <r>    5.5215    1.0000 </r>
       <r>    5.6095    1.0000 </r>
       <r>    5.7492    1.0000 </r>
       <r>    5.7739    1.0000 </r>
       <r>    5.8673    1.0000 </r>
       <r>    6.0728    1.0000 </r>
       <r>    6.0958    1.0000 </r>
       <r>    6.3124    1.0000 </r>
       <r>    6.3615    1.0000 </r>
       <r>    6.4910    1.0000 </r>
       <r>    6.6450    1.0000 </r>
       <r>    6.6561    1.0000 </r>
       <r>    6.7501    1.0000 </r>
       <r>    6.9448    1.0000 </r>
       <r>    7.1425    1.0000 </r>
       <r>    7.2871    1.0000 </r>
       <r>    7.4308    1.0000 </r>
       <r>    7.6641    1.0000 </r>
       <r>    7.6839    1.0000 </r>
       <r>    8.1036    0.1881 </r>
       <r>    8.1340    0.0000 </r>
       <r>    8.2864    0.0000 </r>
       <r>    8.2911    0.0000 </r>
       <r>    8.4057    0.0000 </r>
       <r>    8.5049    0.0000 </r>
       <r>    8.6519    0.0000 </r>
       <r>    8.7390    0.0000 </r>
       <r>    8.8575    0.0000 </r>
       <r>    8.9231    0.0000 </r>
       <r>    9.0270    0.0000 </r>
       <r>    9.1508    0.0000 </r>
       <r>    9.2022    0.0000 </r>
       <r>    9.2671    0.0000 </r>
       <r>    9.4459    0.0000 </r>
       <r>    9.4487    0.0000 </r>
       <r>    9.5656    0.0000 </r>
       <r>    9.7022    0.0000 </r>
       <r>    9.7563    0.0000 </r>
       <r>    9.7736    0.0000 </r>
       <r>    9.8479    0.0000 </r>
      </set>
      <set comment="kpoint 10">
       <r>   -7.6241    1.0000 </r>
       <r>   -7.6238    1.0000 </r>
       <r>   -6.7422    1.0000 </r>
       <r>   -6.7401    1.0000 </r>
       <r>   -5.7874    1.0000 </r>
       <r>   -5.7809    1.0000 </r>
       <r>   -3.8985    1.0000 </r>
       <r>   -3.8872    1.0000 </r>
       <r>   -3.7057    1.0000 </r>
[...]
       <r>     9.0166    18.3619   211.1762 </r>
       <r>     9.0826    26.7629   212.9448 </r>
       <r>     9.1487    19.3491   214.2223 </r>
       <r>     9.2147    18.3467   215.4347 </r>
       <r>     9.2807    25.7490   217.1355 </r>
       <r>     9.3467    21.8566   218.5802 </r>
       <r>     9.4128    26.1229   220.3059 </r>
       <r>     9.4788    23.9802   221.8898 </r>
       <r>     9.5448    20.6855   223.2556 </r>
       <r>     9.6108    28.9379   225.1668 </r>
       <r>     9.6769    19.7971   226.4739 </r>
       <r>     9.7429    19.6065   227.7685 </r>
       <r>     9.8089    22.6064   229.2621 </r>
       <r>     9.8750    21.0590   230.6546 </r>
       <r>     9.9410     8.3825   231.2091 </r>
       <r>    10.0070     9.4773   231.8348 </r>
       <r>    10.0730     2.5015   232.0000 </r>
       <r>    10.1391     0.0000   232.0000 </r>
       <r>    10.2051     0.0000   232.0000 </r>
       <r>    10.2711     0.0000   232.0000 </r>
       <r>    10.3372     0.0000   232.0000 </r>
       <r>    10.4032     0.0000   232.0000 </r>
       <r>    10.4692     0.0000   232.0000 </r>
       <r>    10.5352     0.0000   232.0000 </r>
       <r>    10.6013     0.0000   232.0000 </r>
       <r>    10.6673     0.0000   232.0000 </r>
       <r>    10.7333     0.0000   232.0000 </r>
       <r>    10.7993     0.0000   232.0000 </r>
       <r>    10.8654     0.0000   232.0000 </r>
       <r>    10.9314     0.0000   232.0000 </r>
      </set>
      <set comment="spin 2">
       <r>    -8.8768     0.0000     0.0000 </r>
       <r>    -8.8108     0.0000     0.0000 </r>
       <r>    -8.7447     0.0000     0.0000 </r>
       <r>    -8.6787     0.0000     0.0000 </r>
       <r>    -8.6127     0.0000     0.0000 </r>
       <r>    -8.5467     0.0000     0.0000 </r>
       <r>    -8.4806     0.0000     0.0000 </r>
       <r>    -8.4146     0.0000     0.0000 </r>
       <r>    -8.3486     0.0000     0.0000 </r>
       <r>    -8.2826     0.0000     0.0000 </r>
       <r>    -8.2165     0.0000     0.0000 </r>
       <r>    -8.1505     0.0000     0.0000 </r>
       <r>    -8.0845     0.0000     0.0000 </r>
       <r>    -8.0184     0.0000     0.0000 </r>
       <r>    -7.9524     0.3338     0.0220 </r>
       <r>    -7.8864     7.2388     0.5000 </r>
       <r>    -7.8204    15.1277     1.4988 </r>
       <r>    -7.7543     0.0000     1.5000 </r>
       <r>    -7.6883     0.0000     1.5000 </r>
       <r>    -7.6223     0.0074     1.5005 </r>
       <r>    -7.5563    15.1378     2.5000 </r>
       <r>    -7.4902     0.0000     2.5000 </r>
       <r>    -7.4242     0.0000     2.5000 </r>
       <r>    -7.3582     0.0000     2.5000 </r>
       <r>    -7.2921    13.0619     3.3624 </r>
       <r>    -7.2261     2.0834     3.5000 </r>
       <r>    -7.1601     7.4878     3.9944 </r>
       <r>    -7.0941     7.6289     4.5000 </r>
       <r>    -7.0280    12.7801     5.3438 </r>
       <r>    -6.9620     2.3651     5.5000 </r>
       <r>    -6.8960     0.0000     5.5000 </r>
       <r>    -6.8300     0.0000     5.5000 </r>
       <r>    -6.7639     0.0000     5.5000 </r>
       <r>    -6.6979     9.1565     6.1046 </r>
       <r>    -6.6319     5.9766     6.5000 </r>
       <r>    -6.5658     0.0000     6.5000 </r>
       <r>    -6.4998     0.0000     6.5000 </r>
       <r>    -6.4338     0.0000     6.5000 </r>
       <r>    -6.3678     0.0000     6.5000 </r>
       <r>    -6.3017     0.0000     6.5000 </r>
       <r>    -6.2357     4.4262     6.7922 </r>
       <r>    -6.1697    13.2244     7.6654 </r>
       <r>    -6.1037     5.0407     8.0000 </r>
       <r>    -6.0376    10.3099     8.6807 </r>
       <r>    -5.9716     4.8196     9.0010 </r>
       <r>    -5.9056     7.5493     9.4994 </r>
       <r>    -5.8395     0.0000     9.5000 </r>
       <r>    -5.7735     2.6488     9.6749 </r>
       <r>    -5.7075    12.3226    10.4885 </r>
       <r>    -5.6415     0.1653    10.5000 </r>
       <r>    -5.5754     0.0000    10.5000 </r>
       <r>    -5.5094     0.0000    10.5000 </r>
       <r>    -5.4434     0.0000    10.5000 </r>
       <r>    -5.3774     4.4825    10.7960 </r>
       <r>    -5.3113    10.6588    11.4997 </r>
       <r>    -5.2453     0.0000    11.5000 </r>
       <r>    -5.1793     0.0145    11.5010 </r>
       <r>    -5.1132     6.3700    11.9215 </r>
       <r>    -5.0472     1.1882    12.0000 </r>
       <r>    -4.9812     0.0000    12.0000 </r>
       <r>    -4.9152     0.0000    12.0000 </r>
       <r>    -4.8491     0.0000    12.0000 </r>
       <r>    -4.7831     0.0000    12.0000 </r>
       <r>    -4.7171     0.0000    12.0000 </r>
       <r>    -4.6511     0.0000    12.0000 </r>
       <r>    -4.5850     0.0000    12.0000 </r>
       <r>    -4.5190     0.0000    12.0000 </r>
       <r>    -4.4530     0.0000    12.0000 </r>
       <r>    -4.3869     0.0000    12.0000 </r>
       <r>    -4.3209     0.2199    12.0145 </r>
       <r>    -4.2549     4.4877    12.3108 </r>
       <r>    -4.1889     3.7195    12.5564 </r>
       <r>    -4.1228     9.1157    13.1583 </r>
       <r>    -4.0568     0.9928    13.2242 </r>
       <r>    -3.9908     6.6319    13.6621 </r>
       <r>    -3.9248     7.9721    14.1903 </r>
       <r>    -3.8587     9.2569    14.8015 </r>
       <r>    -3.7927     7.9242    15.3262 </r>
       <r>    -3.7267     1.7694    15.4449 </r>
       <r>    -3.6606    14.7258    16.4172 </r>
       <r>    -3.5946    11.2122    17.1577 </r>
       <r>    -3.5286    17.8758    18.3385 </r>
       <r>    -3.4626     8.9534    18.9297 </r>
       <r>    -3.3965    10.0439    19.5929 </r>
       <r>    -3.3305     7.4480    20.0848 </r>
       <r>    -3.2645     9.8048    20.7322 </r>
       <r>    -3.1985    17.0601    21.8586 </r>
       <r>    -3.1324    11.2501    22.6025 </r>
       <r>    -3.0664    11.7957    23.3816 </r>
       <r>    -3.0004     6.1618    23.7885 </r>
       <r>    -2.9343    12.2744    24.5993 </r>
       <r>    -2.8683     6.3035    25.0171 </r>
       <r>    -2.8023    12.2480    25.8262 </r>
       <r>    -2.7363    11.2075    26.5662 </r>
       <r>    -2.6702    11.2498    27.3092 </r>
       <r>    -2.6042    13.8847    28.2268 </r>
       <r>    -2.5382    11.1241    28.9616 </r>
       <r>    -2.4722    20.1304    30.2908 </r>
       <r>    -2.4061    10.1921    30.9645 </r>
       <r>    -2.3401    12.4409    31.7859 </r>
       <r>    -2.2741    13.1807    32.6565 </r>
       <r>    -2.2080    17.3328    33.8013 </r>
       <r>    -2.1420    10.1501    34.4724 </r>
       <r>    -2.0760    12.5331    35.3001 </r>
       <r>    -2.0100    14.8503    36.2808 </r>
       <r>    -1.9439    10.9252    37.0022 </r>
       <r>    -1.8779    12.1149    37.8021 </r>
       <r>    -1.8119     5.9934    38.1979 </r>
       <r>    -1.7459    17.3444    39.3431 </r>
       <r>    -1.6798     9.5010    39.9726 </r>
       <r>    -1.6138     9.0358    40.5697 </r>
       <r>    -1.5478    12.2763    41.3802 </r>
       <r>    -1.4817    11.5780    42.1471 </r>
       <r>    -1.4157    10.3210    42.8286 </r>
       <r>    -1.3497    20.2269    44.1646 </r>
       <r>    -1.2837    16.2767    45.2399 </r>
       <r>    -1.2176    18.7305    46.4781 </r>
       <r>    -1.1516     7.2093    46.9546 </r>
       <r>    -1.0856    12.2719    47.7649 </r>
       <r>    -1.0196    10.4670    48.4576 </r>
       <r>    -0.9535    12.5800    49.2897 </r>
       <r>    -0.8875    11.9142    50.0782 </r>
       <r>    -0.8215    12.9818    50.9353 </r>
       <r>    -0.7554    10.5332    51.6310 </r>
       <r>    -0.6894     6.3573    52.0508 </r>
       <r>    -0.6234    11.0248    52.7788 </r>
       <r>    -0.5574    12.5797    53.6094 </r>
       <r>    -0.4913    17.6178    54.7730 </r>
       <r>    -0.4253    13.9472    55.6951 </r>
       <r>    -0.3593     7.8187    56.2126 </r>
       <r>    -0.2933    14.6874    57.1823 </r>
       <r>    -0.2272    12.7956    58.0304 </r>
       <r>    -0.1612    10.9862    58.7559 </r>
       <r>    -0.0952    18.1627    59.9552 </r>
       <r>    -0.0291    11.9437    60.7438 </r>
       <r>     0.0369     4.0995    61.0146 </r>
       <r>     0.1029    15.0551    62.0091 </r>
       <r>     0.1689    15.3563    63.0241 </r>
       <r>     0.2350     9.4712    63.6495 </r>
       <r>     0.3010     6.1451    64.0561 </r>
       <r>     0.3670    13.6911    64.9601 </r>
       <r>     0.4331     7.4130    65.4497 </r>
       <r>     0.4991    16.7233    66.5565 </r>
       <r>     0.5651    16.0804    67.6196 </r>
       <r>     0.6311     5.3121    67.9704 </r>
       <r>     0.6972     5.3890    68.3262 </r>
       <r>     0.7632    19.9010    69.6402 </r>
       <r>     0.8292    19.3972    70.9223 </r>
       <r>     0.8952     7.9633    71.4481 </r>
       <r>     0.9613     7.0704    71.9167 </r>
       <r>     1.0273    10.2089    72.5914 </r>
       <r>     1.0933    14.2194    73.5303 </r>
       <r>     1.1594    13.8209    74.4441 </r>
       <r>     1.2254    17.2179    75.5831 </r>
       <r>     1.2914    13.7189    76.4895 </r>
       <r>     1.3574    18.2367    77.6944 </r>
       <r>     1.4235    13.7917    78.6058 </r>
       <r>     1.4895     8.3568    79.1581 </r>
       <r>     1.5555    21.2997    80.5652 </r>
       <r>     1.6215    26.8231    82.3370 </r>
       <r>     1.6876    18.6747    83.5700 </r>
       <r>     1.7536    23.8405    85.1442 </r>
       <r>     1.8196    15.3001    86.1567 </r>
       <r>     1.8857     7.9795    86.6840 </r>
       <r>     1.9517    19.4791    87.9701 </r>
       <r>     2.0177    12.4352    88.7929 </r>
       <r>     2.0837    12.8768    89.6432 </r>
       <r>     2.1498    18.0094    90.8323 </r>
       <r>     2.2158    14.3552    91.7809 </r>
       <r>     2.2818    20.9869    93.1669 </r>
       <r>     2.3478    13.5137    94.0593 </r>
       <r>     2.4139    14.6754    95.0284 </r>
       <r>     2.4799    18.9290    96.2807 </r>
       <r>     2.5459    17.3753    97.4297 </r>
       <r>     2.6120    17.3464    98.5757 </r>
       <r>     2.6780    11.7555    99.3539 </r>
       <r>     2.7440    11.0414   100.0833 </r>
       <r>     2.8100    14.7702   101.0586 </r>
       <r>     2.8761    17.2231   102.1958 </r>
       <r>     2.9421     6.4669   102.6232 </r>
       <r>     3.0081    12.1220   103.4236 </r>
       <r>     3.0741    12.9711   104.2802 </r>
       <r>     3.1402    17.4082   105.4296 </r>
       <r>     3.2062     9.5772   106.0636 </r>
       <r>     3.2722     9.9320   106.7221 </r>
       <r>     3.3383    17.9044   107.9067 </r>
       <r>     3.4043    16.7472   109.0128 </r>
       <r>     3.4703    17.8956   110.1944 </r>
       <r>     3.5363    19.6001   111.4893 </r>
       <r>     3.6024    21.2439   112.8957 </r>
       <r>     3.6684    20.3222   114.2390 </r>
       <r>     3.7344    20.3450   115.5829 </r>
       <r>     3.8004     8.2448   116.1296 </r>
       <r>     3.8665    20.9344   117.5126 </r>
       <r>     3.9325    20.5944   118.8740 </r>
       <r>     3.9985    13.5136   119.7674 </r>
       <r>     4.0646    15.7958   120.8107 </r>
       <r>     4.1306    22.5305   122.3021 </r>
       <r>     4.1966    12.0405   123.0973 </r>
       <r>     4.2626    27.7273   124.9296 </r>
       <r>     4.3287    20.3216   126.2716 </r>
       <r>     4.3947    21.7773   127.7096 </r>
       <r>     4.4607    20.2592   129.0474 </r>
       <r>     4.5267    13.7069   129.9533 </r>
       <r>     4.5928    18.9076   131.2025 </r>
       <r>     4.6588    27.7033   133.0320 </r>
       <r>     4.7248    25.0475   134.6899 </r>
       <r>     4.7909    23.6336   136.2532 </r>
       <r>     4.8569    24.1526   137.8485 </r>
       <r>     4.9229    17.5625   139.0099 </r>
       <r>     4.9889    23.8840   140.5881 </r>
       <r>     5.0550    13.2471   141.4628 </r>
       <r>     5.1210    18.6994   142.6976 </r>
       <r>     5.1870    17.1389   143.8296 </r>
       <r>     5.2530    25.9589   145.5442 </r>
       <r>     5.3191    25.8554   147.2548 </r>
       <r>     5.3851    26.5758   149.0116 </r>
       <r>     5.4511    22.6059   150.5066 </r>
       <r>     5.5172    20.0741   151.8351 </r>
       <r>     5.5832    22.7193   153.3358 </r>
       <r>     5.6492    20.4604   154.6873 </r>
       <r>     5.7152    14.2159   155.6264 </r>
       <r>     5.7813    29.1130   157.5486 </r>
       <r>     5.8473    22.4038   159.0297 </r>
       <r>     5.9133    23.9728   160.6127 </r>
       <r>     5.9793    16.9519   161.7330 </r>
       <r>     6.0454    17.3571   162.8800 </r>
       <r>     6.1114    26.8236   164.6516 </r>
       <r>     6.1774    14.8065   165.6300 </r>
       <r>     6.2435    14.6612   166.6017 </r>
       <r>     6.3095    13.7421   167.5117 </r>
       <r>     6.3755    21.7653   168.9503 </r>
       <r>     6.4415    14.9455   169.9372 </r>
       <r>     6.5076    11.9241   170.7247 </r>
       <r>     6.5736    18.0686   171.9178 </r>
       <r>     6.6396    13.8472   172.8321 </r>
       <r>     6.7056    20.6605   174.1972 </r>
       <r>     6.7717     7.1510   174.6722 </r>
       <r>     6.8377    13.7869   175.5825 </r>
       <r>     6.9037    10.1618   176.2549 </r>
       <r>     6.9698    12.0513   177.0525 </r>
       <r>     7.0358    11.9930   177.8444 </r>
       <r>     7.1018    15.2062   178.8484 </r>
       <r>     7.1678    16.4661   179.9359 </r>
       <r>     7.2339    17.6860   181.1038 </r>
       <r>     7.2999    14.6547   182.0719 </r>
       <r>     7.3659     3.9709   182.3349 </r>
       <r>     7.4319     7.4362   182.8270 </r>
       <r>     7.4980    10.1556   183.4976 </r>
       <r>     7.5640    16.3628   184.5781 </r>
       <r>     7.6300    10.4462   185.2679 </r>
       <r>     7.6961    12.6272   186.1016 </r>
       <r>     7.7621    21.5159   187.5244 </r>
       <r>     7.8281    13.4392   188.4129 </r>
       <r>     7.8941    15.1208   189.4113 </r>
       <r>     7.9602    17.3796   190.5623 </r>
       <r>     8.0262    10.5121   191.2570 </r>
       <r>     8.0922    12.2024   192.0634 </r>
       <r>     8.1582    20.0755   193.3910 </r>
       <r>     8.2243     9.3470   194.0085 </r>
       <r>     8.2903    18.4250   195.2251 </r>
       <r>     8.3563    20.9654   196.6099 </r>
       <r>     8.4224    19.3179   197.8863 </r>
       <r>     8.4884    30.0527   199.8706 </r>
       <r>     8.5544    25.2387   201.5457 </r>
       <r>     8.6204    15.2240   202.5515 </r>
       <r>     8.6865    17.1852   203.6890 </r>
       <r>     8.7525    22.3012   205.1619 </r>
       <r>     8.8185    23.5183   206.7152 </r>
       <r>     8.8845    18.8511   207.9619 </r>
       <r>     8.9506    26.1504   209.6892 </r>
       <r>     9.0166    14.4795   210.6473 </r>
       <r>     9.0826    25.7176   212.3459 </r>
       <r>     9.1487    22.3969   213.8248 </r>
       <r>     9.2147    18.8443   215.0692 </r>
       <r>     9.2807    19.4161   216.3514 </r>
       <r>     9.3467    23.8897   217.9300 </r>
       <r>     9.4128    24.7921   219.5688 </r>
       <r>     9.4788    23.2672   221.1058 </r>
       <r>     9.5448    21.5064   222.5260 </r>
       <r>     9.6108    31.9157   224.6338 </r>
       <r>     9.6769    22.1314   226.0978 </r>
       <r>     9.7429    18.6569   227.3298 </r>
       <r>     9.8089    20.9826   228.7171 </r>
       <r>     9.8750    21.2107   230.1190 </r>
       <r>     9.9410    13.4622   231.0090 </r>
       <r>    10.0070     8.6330   231.5798 </r>
       <r>    10.0730     6.3632   232.0000 </r>
       <r>    10.1391     0.0000   232.0000 </r>
       <r>    10.2051     0.0000   232.0000 </r>
       <r>    10.2711     0.0000   232.0000 </r>
       <r>    10.3372     0.0000   232.0000 </r>
       <r>    10.4032     0.0000   232.0000 </r>
       <r>    10.4692     0.0000   232.0000 </r>
       <r>    10.5352     0.0000   232.0000 </r>
       <r>    10.6013     0.0000   232.0000 </r>
       <r>    10.6673     0.0000   232.0000 </r>
       <r>    10.7333     0.0000   232.0000 </r>
       <r>    10.7993     0.0000   232.0000 </r>
       <r>    10.8654     0.0000   232.0000 </r>
       <r>    10.9314     0.0000   232.0000 </r>
      </set>
     </set>
    </array>
   </total>
  </dos>
 </calculation>
 <structure name="finalpos" >
  <crystal>
   <varray name="basis" >
    <v>       7.68059444       0.00000000       0.00000000 </v>
    <v>      -3.84029698      11.52089119       0.00000000 </v>
    <v>       0.00000000       0.00000000       9.05166912 </v>
   </varray>
   <i name="volume">    800.95769642 </i>
   <varray name="rec_basis" >
    <v>       0.13019826       0.04339942       0.00000000 </v>
    <v>       0.00000000       0.08679884       0.00000000 </v>
    <v>       0.00000000       0.00000000       0.11047686 </v>
   </varray>
  </crystal>
  <varray name="positions" >
   <v>       0.00593229       0.99406773       0.00000000 </v>
   <v>       0.17259900       0.82740104       0.29999989 </v>
   <v>       0.33926573       0.66073430       0.59999984 </v>
   <v>       0.67259896       0.32740104       0.00000000 </v>
   <v>       0.83926570       0.16073434       0.29999989 </v>
   <v>       0.00593245       0.99406767       0.59999984 </v>
   <v>       0.33926564       0.66073442       0.00000000 </v>
   <v>       0.50593233       0.49406770       0.29999989 </v>
   <v>       0.67259908       0.32740101       0.59999984 </v>
   <v>       0.08926566       0.16073437       0.14999996 </v>
   <v>       0.25593239       0.99406767       0.44999990 </v>
   <v>       0.42259914       0.82740098       0.74999982 </v>
   <v>       0.75593227       0.49406773       0.14999996 </v>
   <v>       0.92259902       0.32740104       0.44999990 </v>
   <v>       0.08926570       0.16073433       0.74999982 </v>
   <v>       0.42259893       0.82740110       0.14999996 </v>
   <v>       0.58926570       0.66073447       0.44999990 </v>
   <v>       0.75593245       0.49406773       0.74999982 </v>
   <v>       0.50593233       0.99406773       0.00000000 </v>
   <v>       0.67259902       0.82740104       0.29999989 </v>
   <v>       0.83926576       0.66073430       0.59999984 </v>
   <v>       0.17259897       0.32740104       0.00000000 </v>
   <v>       0.33926567       0.16073437       0.29999989 </v>
   <v>       0.50593239       0.99406767       0.59999984 </v>
   <v>       0.83926558       0.66073442       0.00000000 </v>
   <v>       0.00593233       0.49406770       0.29999989 </v>
   <v>       0.17259896       0.32740098       0.59999984 </v>
   <v>       0.58926564       0.16073436       0.14999996 </v>
   <v>       0.75593239       0.99406767       0.44999990 </v>
   <v>       0.92259914       0.82740092       0.74999982 </v>
   <v>       0.25593227       0.49406773       0.14999996 </v>
   <v>       0.42259905       0.32740104       0.44999990 </v>
   <v>       0.58926576       0.16073433       0.74999982 </v>
   <v>       0.92259896       0.82740116       0.14999996 </v>
   <v>       0.08926570       0.66073442       0.44999990 </v>
   <v>       0.25593245       0.49406770       0.74999982 </v>
   <v>       0.98938477       0.02653812       0.74999982 </v>
   <v>       0.87827355       0.30431592       0.84999984 </v>
   <v>       0.76716238       0.58209372       0.94999999 </v>
   <v>       0.48938474       0.02653811       0.74999982 </v>
   <v>       0.37827355       0.30431592       0.84999984 </v>
   <v>       0.26716232       0.58209366       0.94999999 </v>
   <v>       0.68382919       0.91542697       0.79999989 </v>
   <v>       0.57271797       0.19320476       0.89999992 </v>
   <v>       0.46160677       0.47098255       0.99999994 </v>
   <v>       0.18382916       0.91542703       0.79999989 </v>
   <v>       0.07271797       0.19320476       0.89999992 </v>
   <v>       0.96160674       0.47098255       0.99999994 </v>
  </varray>
 </structure>
</modeling>
