   20   20   20    1
  0.2220216E+02  0.6789986E-09  0.6789986E-09  0.1742378E-08  0.5000000E-15
  1.000000000000000E-004
  CAR 
 Si and Ge interface calculation         
     80     36     51
