Si and Ge interface calculation         
           1
    16.293001    0.000000    0.000000
     0.000000   16.293001    0.000000
     0.000000    0.000000   10.122644
   Si   Ge
   108    48
Direct configuration=     1
   0.00000000  0.99406773  0.00000000
   0.00000000  0.82740104  0.26825997
   0.00000000  0.66073430  0.53652000
   0.33333334  0.99406773  0.00000000
   0.33333334  0.82740104  0.26825997
   0.33333334  0.66073430  0.53652000
   0.66666669  0.99406773  0.00000000
   0.66666669  0.82740104  0.26825997
   0.66666669  0.66073430  0.53652000
   0.00000000  0.32740104  0.00000000
   0.00000000  0.16073437  0.26825997
   0.00000000  0.99406767  0.53652000
   0.33333334  0.32740104  0.00000000
   0.33333334  0.16073437  0.26825997
   0.33333334  0.99406767  0.53652000
   0.66666669  0.32740104  0.00000000
   0.66666669  0.16073437  0.26825997
   0.66666669  0.99406767  0.53652000
   0.00000000  0.66073442  0.00000000
   0.00000000  0.49406770  0.26825997
   0.00000000  0.32740104  0.53652000
   0.33333334  0.66073442  0.00000000
   0.33333334  0.49406770  0.26825997
   0.33333334  0.32740104  0.53652000
   0.66666669  0.66073442  0.00000000
   0.66666669  0.49406770  0.26825997
   0.66666669  0.32740104  0.53652000
   0.08333334  0.07740105  0.13413000
   0.08333334  0.91073436  0.40238991
   0.08333334  0.74406767  0.67064995
   0.41666669  0.07740105  0.13413000
   0.41666669  0.91073436  0.40238991
   0.41666669  0.74406767  0.67064995
   0.75000000  0.07740105  0.13413000
   0.75000000  0.91073436  0.40238991
   0.75000000  0.74406767  0.67064995
   0.08333334  0.41073436  0.13413000
   0.08333334  0.24406767  0.40238991
   0.08333334  0.07740098  0.67064995
   0.41666669  0.41073436  0.13413000
   0.41666669  0.24406767  0.40238991
   0.41666669  0.07740098  0.67064995
   0.75000000  0.41073436  0.13413000
   0.75000000  0.24406767  0.40238991
   0.75000000  0.07740098  0.67064995
   0.08333334  0.74406773  0.13413000
   0.08333334  0.57740104  0.40238991
   0.08333334  0.41073436  0.67064995
   0.41666669  0.74406773  0.13413000
   0.41666669  0.57740104  0.40238991
   0.41666669  0.41073436  0.67064995
   0.75000000  0.74406773  0.13413000
   0.75000000  0.57740104  0.40238991
   0.75000000  0.41073436  0.67064995
   0.16666667  0.16073438  0.00000000
   0.16666667  0.99406767  0.26825997
   0.16666667  0.82740098  0.53652000
   0.50000000  0.16073438  0.00000000
   0.50000000  0.99406767  0.26825997
   0.50000000  0.82740098  0.53652000
   0.83333337  0.16073438  0.00000000
   0.83333337  0.99406767  0.26825997
   0.83333337  0.82740098  0.53652000
   0.16666667  0.49406770  0.00000000
   0.16666667  0.32740104  0.26825997
   0.16666667  0.16073431  0.53652000
   0.50000000  0.49406770  0.00000000
   0.50000000  0.32740104  0.26825997
   0.50000000  0.16073431  0.53652000
   0.83333337  0.49406770  0.00000000
   0.83333337  0.32740104  0.26825997
   0.83333337  0.16073431  0.53652000
   0.16666667  0.82740104  0.00000000
   0.16666667  0.66073436  0.26825997
   0.16666667  0.49406764  0.53652000
   0.50000000  0.82740104  0.00000000
   0.50000000  0.66073436  0.26825997
   0.50000000  0.49406764  0.53652000
   0.83333337  0.82740104  0.00000000
   0.83333337  0.66073436  0.26825997
   0.83333337  0.49406764  0.53652000
   0.25000000  0.24406771  0.13413000
   0.25000000  0.07740103  0.40238991
   0.25000000  0.91073436  0.67064995
   0.58333337  0.24406771  0.13413000
   0.58333337  0.07740103  0.40238991
   0.58333337  0.91073436  0.67064995
   0.91666669  0.24406771  0.13413000
   0.91666669  0.07740103  0.40238991
   0.91666669  0.91073436  0.67064995
   0.25000000  0.57740116  0.13413000
   0.25000000  0.41073445  0.40238991
   0.25000000  0.24406774  0.67064995
   0.58333337  0.57740116  0.13413000
   0.58333337  0.41073445  0.40238991
   0.58333337  0.24406774  0.67064995
   0.91666669  0.57740116  0.13413000
   0.91666669  0.41073445  0.40238991
   0.91666669  0.24406774  0.67064995
   0.25000000  0.91073436  0.13413000
   0.25000000  0.74406767  0.40238991
   0.25000000  0.57740104  0.67064995
   0.58333337  0.91073436  0.13413000
   0.58333337  0.74406767  0.40238991
   0.58333337  0.57740104  0.67064995
   0.91666669  0.91073436  0.13413000
   0.91666669  0.74406767  0.40238991
   0.91666669  0.57740104  0.67064995
   0.41323769  0.91002428  0.67065000
   0.03823772  0.52113533  0.73652005
   0.66323775  0.13224643  0.80238998
   0.28823781  0.74335754  0.86826003
   0.91323781  0.35446858  0.93413007
   0.53823769  0.96557951  0.00000000
   0.91323775  0.91002428  0.67065000
   0.53823781  0.52113533  0.73652005
   0.16323775  0.13224638  0.80238998
   0.78823781  0.74335754  0.86826003
   0.41323793  0.35446858  0.93413007
   0.03823781  0.96557951  0.00000000
   0.78823769  0.66002423  0.67065000
   0.41323775  0.27113533  0.73652005
   0.03823778  0.88224638  0.80238998
   0.66323787  0.49335754  0.86826015
   0.28823799  0.10446864  0.93413007
   0.91323769  0.71557951  0.00000000
   0.28823769  0.66002423  0.67065000
   0.91323775  0.27113527  0.73652005
   0.53823775  0.88224632  0.80238998
   0.16323781  0.49335748  0.86826003
   0.78823793  0.10446852  0.93413007
   0.41323769  0.71557939  0.00000000
   0.53823769  0.66002423  0.67065000
   0.16323771  0.27113530  0.73652005
   0.78823775  0.88224632  0.80238998
   0.41323781  0.49335748  0.86826003
   0.03823793  0.10446858  0.93413007
   0.66323769  0.71557939  0.00000000
   0.03823770  0.66002423  0.67065000
   0.66323775  0.27113533  0.73652005
   0.28823775  0.88224638  0.80238998
   0.91323781  0.49335748  0.86826015
   0.53823793  0.10446858  0.93413007
   0.16323781  0.71557951  0.00000000
   0.66323763  0.91002428  0.67065000
   0.28823769  0.52113533  0.73652005
   0.91323769  0.13224643  0.80238998
   0.53823781  0.74335742  0.86826003
   0.16323793  0.35446858  0.93413007
   0.78823769  0.96557951  0.00000000
   0.16323771  0.91002428  0.67065000
   0.78823775  0.52113533  0.73652005
   0.41323781  0.13224643  0.80238998
   0.03823787  0.74335754  0.86826003
   0.66323793  0.35446858  0.93413007
   0.28823769  0.96557951  0.00000000
