  72  72   0   0
  0.2358891E+02  0.8001338E-09  0.1600268E-08  0.1326432E-08  0.5000000E-15
  1.000000000000000E-004
  CAR 
 Si and Ge interface calculation         
      6.84414966     -9.52261117  301      3.67860392      1.00000000
     -9.523  0.0000E+00  0.0000E+00  0.0000E+00  0.0000E+00
     -9.468  0.0000E+00  0.0000E+00  0.0000E+00  0.0000E+00
     -9.413  0.0000E+00  0.0000E+00  0.0000E+00  0.0000E+00
     -9.359  0.0000E+00  0.0000E+00  0.0000E+00  0.0000E+00
     -9.304  0.0000E+00  0.0000E+00  0.0000E+00  0.0000E+00
     -9.250  0.0000E+00  0.0000E+00  0.0000E+00  0.0000E+00
     -9.195  0.0000E+00  0.0000E+00  0.0000E+00  0.0000E+00
     -9.141  0.0000E+00  0.0000E+00  0.0000E+00  0.0000E+00
     -9.086  0.0000E+00  0.0000E+00  0.0000E+00  0.0000E+00
     -9.032  0.0000E+00  0.0000E+00  0.0000E+00  0.0000E+00
     -8.977  0.0000E+00  0.0000E+00  0.0000E+00  0.0000E+00
     -8.922  0.0000E+00  0.0000E+00  0.0000E+00  0.0000E+00
     -8.868  0.0000E+00  0.0000E+00  0.0000E+00  0.0000E+00
     -8.813  0.1045E-05  0.5243E-08  0.5699E-07  0.2860E-09
     -8.759  0.2343E+01  0.2223E+01  0.1278E+00  0.1213E+00
     -8.704  0.2328E+01  0.2377E+01  0.2548E+00  0.2510E+00
     -8.650  0.6618E+01  0.4587E+01  0.6158E+00  0.5012E+00
     -8.595  0.1162E+02  0.1361E+02  0.1250E+01  0.1243E+01
     -8.541  0.4623E+01  0.4704E+01  0.1502E+01  0.1500E+01
     -8.486  0.1295E+02  0.1071E+02  0.2208E+01  0.2084E+01
     -8.431  0.7612E+00  0.3035E+01  0.2250E+01  0.2250E+01
     -8.377  0.3896E+01  0.3186E+01  0.2463E+01  0.2424E+01
     -8.322  0.6862E+00  0.1396E+01  0.2500E+01  0.2500E+01
     -8.268  0.1239E+02  0.1081E+02  0.3176E+01  0.3090E+01
     -8.213  0.1285E+02  0.1321E+02  0.3877E+01  0.3811E+01
     -8.159  0.1103E+02  0.8462E+01  0.4478E+01  0.4272E+01
     -8.104  0.2062E+02  0.2256E+02  0.5603E+01  0.5503E+01
     -8.050  0.3958E+01  0.4796E+01  0.5819E+01  0.5764E+01
     -7.995  0.6038E+01  0.5395E+01  0.6149E+01  0.6059E+01
     -7.940  0.9098E+01  0.8494E+01  0.6645E+01  0.6522E+01
     -7.886  0.2022E+02  0.2225E+02  0.7748E+01  0.7736E+01
     -7.831  0.9852E+01  0.8861E+01  0.8286E+01  0.8220E+01
     -7.777  0.1626E+02  0.1487E+02  0.9173E+01  0.9031E+01
     -7.722  0.1436E+02  0.1551E+02  0.9956E+01  0.9877E+01
     -7.668  0.1007E+02  0.9440E+01  0.1051E+02  0.1039E+02
     -7.613  0.2087E+02  0.2260E+02  0.1164E+02  0.1163E+02
     -7.559  0.2947E+02  0.2939E+02  0.1325E+02  0.1323E+02
     -7.504  0.2418E+02  0.2166E+02  0.1457E+02  0.1441E+02
     -7.449  0.1295E+02  0.1377E+02  0.1528E+02  0.1516E+02
     -7.395  0.1303E+02  0.1191E+02  0.1599E+02  0.1581E+02
     -7.340  0.1091E+02  0.1134E+02  0.1658E+02  0.1643E+02
     -7.286  0.1989E+02  0.1963E+02  0.1767E+02  0.1750E+02
     -7.231  0.1541E+02  0.1610E+02  0.1851E+02  0.1838E+02
     -7.177  0.2469E+02  0.1967E+02  0.1986E+02  0.1945E+02
     -7.122  0.2085E+02  0.2536E+02  0.2099E+02  0.2084E+02
     -7.068  0.3980E+02  0.3802E+02  0.2316E+02  0.2291E+02
     -7.013  0.1760E+02  0.1992E+02  0.2412E+02  0.2400E+02
     -6.958  0.1877E+02  0.1811E+02  0.2515E+02  0.2499E+02
     -6.904  0.3469E+02  0.2730E+02  0.2704E+02  0.2647E+02
     -6.849  0.2923E+02  0.3790E+02  0.2864E+02  0.2854E+02
     -6.795  0.1903E+02  0.1739E+02  0.2967E+02  0.2949E+02
     -6.740  0.1688E+02  0.1450E+02  0.3060E+02  0.3028E+02
     -6.686  0.2398E+02  0.2753E+02  0.3190E+02  0.3178E+02
     -6.631  0.2634E+02  0.2622E+02  0.3334E+02  0.3321E+02
     -6.577  0.2244E+02  0.2062E+02  0.3456E+02  0.3434E+02
     -6.522  0.3067E+02  0.2653E+02  0.3624E+02  0.3579E+02
     -6.467  0.4005E+02  0.4325E+02  0.3842E+02  0.3815E+02
     -6.413  0.1528E+02  0.1688E+02  0.3926E+02  0.3907E+02
     -6.358  0.2054E+02  0.2167E+02  0.4038E+02  0.4025E+02
     -6.304  0.7867E+01  0.8565E+01  0.4081E+02  0.4072E+02
     -6.249  0.1795E+02  0.1173E+02  0.4179E+02  0.4136E+02
     -6.195  0.2018E+02  0.2313E+02  0.4289E+02  0.4262E+02
     -6.140  0.2376E+02  0.2001E+02  0.4418E+02  0.4371E+02
     -6.086  0.1903E+02  0.2112E+02  0.4522E+02  0.4486E+02
     -6.031  0.1320E+02  0.1626E+02  0.4594E+02  0.4575E+02
     -5.976  0.2093E+02  0.1597E+02  0.4708E+02  0.4662E+02
     -5.922  0.1983E+02  0.2525E+02  0.4816E+02  0.4800E+02
     -5.867  0.3601E+02  0.3291E+02  0.5013E+02  0.4979E+02
     -5.813  0.1824E+02  0.1778E+02  0.5112E+02  0.5076E+02
     -5.758  0.2392E+02  0.2833E+02  0.5243E+02  0.5231E+02
     -5.704  0.1271E+02  0.1417E+02  0.5312E+02  0.5308E+02
     -5.649  0.1981E+02  0.1321E+02  0.5420E+02  0.5380E+02
     -5.595  0.2169E+02  0.2657E+02  0.5539E+02  0.5525E+02
     -5.540  0.1442E+02  0.1342E+02  0.5617E+02  0.5599E+02
     -5.485  0.1076E+02  0.1095E+02  0.5676E+02  0.5658E+02
     -5.431  0.2668E+02  0.2289E+02  0.5822E+02  0.5783E+02
     -5.376  0.2163E+02  0.2590E+02  0.5940E+02  0.5924E+02
     -5.322  0.1838E+02  0.1743E+02  0.6040E+02  0.6020E+02
     -5.267  0.1737E+02  0.1561E+02  0.6135E+02  0.6105E+02
     -5.213  0.1575E+02  0.1752E+02  0.6221E+02  0.6200E+02
     -5.158  0.1441E+02  0.1586E+02  0.6299E+02  0.6287E+02
     -5.104  0.1747E+02  0.1486E+02  0.6395E+02  0.6368E+02
     -5.049  0.4355E+02  0.4494E+02  0.6632E+02  0.6613E+02
     -4.994  0.5568E+01  0.9061E+01  0.6663E+02  0.6663E+02
     -4.940  0.9627E+01  0.9079E+01  0.6715E+02  0.6712E+02
     -4.885  0.3536E+01  0.2616E+01  0.6734E+02  0.6726E+02
     -4.831  0.1127E+02  0.1019E+02  0.6796E+02  0.6782E+02
     -4.776  0.7727E+00  0.3313E+01  0.6800E+02  0.6800E+02
     -4.722  0.8383E+01  0.1724E+01  0.6846E+02  0.6809E+02
     -4.667  0.1515E+02  0.1259E+02  0.6928E+02  0.6878E+02
     -4.613  0.1970E+02  0.1711E+02  0.7036E+02  0.6971E+02
     -4.558  0.1656E+02  0.2538E+02  0.7126E+02  0.7110E+02
     -4.503  0.2099E+02  0.1807E+02  0.7241E+02  0.7209E+02
     -4.449  0.2366E+02  0.2536E+02  0.7370E+02  0.7347E+02
     -4.394  0.7867E+01  0.1175E+02  0.7413E+02  0.7411E+02
     -4.340  0.2800E+02  0.2235E+02  0.7565E+02  0.7533E+02
     -4.285  0.2824E+02  0.3007E+02  0.7720E+02  0.7697E+02
     -4.231  0.3589E+02  0.3333E+02  0.7915E+02  0.7879E+02
     -4.176  0.2334E+02  0.1796E+02  0.8043E+02  0.7977E+02
     -4.122  0.2666E+02  0.3209E+02  0.8188E+02  0.8152E+02
     -4.067  0.1801E+02  0.2293E+02  0.8286E+02  0.8277E+02
     -4.012  0.1432E+02  0.9906E+01  0.8364E+02  0.8331E+02
     -3.958  0.6738E+01  0.1077E+02  0.8401E+02  0.8390E+02
     -3.903  0.6400E+01  0.6712E+01  0.8436E+02  0.8426E+02
     -3.849  0.2163E+02  0.2010E+02  0.8554E+02  0.8536E+02
     -3.794  0.1121E+02  0.1046E+02  0.8615E+02  0.8593E+02
     -3.740  0.1666E+02  0.1430E+02  0.8706E+02  0.8671E+02
     -3.685  0.2207E+02  0.2280E+02  0.8827E+02  0.8796E+02
     -3.631  0.4420E+02  0.4349E+02  0.9068E+02  0.9033E+02
     -3.576  0.2725E+02  0.2584E+02  0.9216E+02  0.9174E+02
     -3.521  0.2692E+02  0.2463E+02  0.9363E+02  0.9308E+02
     -3.467  0.2897E+02  0.2936E+02  0.9521E+02  0.9468E+02
     -3.412  0.1987E+02  0.2688E+02  0.9630E+02  0.9615E+02
     -3.358  0.3730E+02  0.3286E+02  0.9833E+02  0.9794E+02
     -3.303  0.2462E+02  0.2288E+02  0.9968E+02  0.9919E+02
     -3.249  0.2219E+02  0.2991E+02  0.1009E+03  0.1008E+03
     -3.194  0.1908E+02  0.1568E+02  0.1019E+03  0.1017E+03
     -3.140  0.1625E+02  0.1946E+02  0.1028E+03  0.1027E+03
     -3.085  0.1725E+02  0.1478E+02  0.1038E+03  0.1035E+03
     -3.030  0.7716E+01  0.1081E+02  0.1042E+03  0.1041E+03
     -2.976  0.1911E+02  0.1648E+02  0.1052E+03  0.1050E+03
     -2.921  0.8725E+01  0.8321E+01  0.1057E+03  0.1055E+03
     -2.867  0.3028E+02  0.2545E+02  0.1073E+03  0.1069E+03
     -2.812  0.2010E+02  0.2582E+02  0.1084E+03  0.1083E+03
     -2.758  0.3221E+02  0.2914E+02  0.1102E+03  0.1099E+03
     -2.703  0.1705E+02  0.2119E+02  0.1111E+03  0.1110E+03
     -2.649  0.1829E+02  0.2000E+02  0.1121E+03  0.1121E+03
     -2.594  0.9265E+01  0.6686E+01  0.1126E+03  0.1125E+03
     -2.539  0.1517E+02  0.9243E+01  0.1135E+03  0.1130E+03
     -2.485  0.1927E+02  0.2548E+02  0.1145E+03  0.1144E+03
     -2.430  0.2047E+02  0.1723E+02  0.1156E+03  0.1153E+03
     -2.376  0.2231E+02  0.2368E+02  0.1168E+03  0.1166E+03
     -2.321  0.9740E+01  0.1384E+02  0.1174E+03  0.1174E+03
     -2.267  0.2243E+02  0.1273E+02  0.1186E+03  0.1181E+03
     -2.212  0.2084E+02  0.2758E+02  0.1197E+03  0.1196E+03
     -2.158  0.8640E+01  0.8973E+01  0.1202E+03  0.1201E+03
     -2.103  0.1891E+02  0.1432E+02  0.1212E+03  0.1208E+03
     -2.048  0.2444E+02  0.2719E+02  0.1226E+03  0.1223E+03
     -1.994  0.6500E+01  0.1020E+02  0.1229E+03  0.1229E+03
     -1.939  0.1495E+02  0.1479E+02  0.1237E+03  0.1237E+03
     -1.885  0.4092E+01  0.3827E+01  0.1240E+03  0.1239E+03
     -1.830  0.1487E+02  0.1149E+02  0.1248E+03  0.1245E+03
     -1.776  0.1645E+02  0.1606E+02  0.1257E+03  0.1254E+03
     -1.721  0.8089E+01  0.8503E+01  0.1261E+03  0.1259E+03
     -1.667  0.2001E+02  0.2018E+02  0.1272E+03  0.1270E+03
     -1.612  0.7142E+01  0.7132E+01  0.1276E+03  0.1274E+03
     -1.557  0.1759E+02  0.2049E+02  0.1286E+03  0.1285E+03
     -1.503  0.1036E+02  0.1202E+02  0.1291E+03  0.1291E+03
     -1.448  0.1112E+02  0.7185E+01  0.1297E+03  0.1295E+03
     -1.394  0.2238E+02  0.2406E+02  0.1310E+03  0.1308E+03
     -1.339  0.1871E+02  0.1536E+02  0.1320E+03  0.1317E+03
     -1.285  0.2437E+02  0.2160E+02  0.1333E+03  0.1328E+03
     -1.230  0.3775E+01  0.9965E+01  0.1335E+03  0.1334E+03
     -1.176  0.8990E+01  0.1057E+02  0.1340E+03  0.1340E+03
     -1.121  0.6895E+01  0.7046E+01  0.1344E+03  0.1344E+03
     -1.066  0.5470E+01  0.3263E+01  0.1347E+03  0.1345E+03
     -1.012  0.7351E+01  0.7802E+01  0.1351E+03  0.1350E+03
     -0.957  0.3184E+01  0.4807E+01  0.1352E+03  0.1352E+03
     -0.903  0.4618E+01  0.5193E+01  0.1355E+03  0.1355E+03
     -0.848  0.1285E+02  0.6173E+01  0.1362E+03  0.1358E+03
     -0.794  0.1356E+02  0.1782E+02  0.1369E+03  0.1368E+03
     -0.739  0.2095E+02  0.1462E+02  0.1381E+03  0.1376E+03
     -0.685  0.1659E+02  0.2244E+02  0.1390E+03  0.1388E+03
     -0.630  0.1851E+02  0.2034E+02  0.1400E+03  0.1399E+03
     -0.575  0.2389E+01  0.1232E+01  0.1401E+03  0.1400E+03
     -0.521  0.2897E+02  0.2513E+02  0.1417E+03  0.1414E+03
     -0.466  0.2379E+02  0.2767E+02  0.1430E+03  0.1429E+03
     -0.412  0.1478E+02  0.1443E+02  0.1438E+03  0.1437E+03
     -0.357  0.3040E+02  0.2725E+02  0.1455E+03  0.1452E+03
     -0.303  0.3634E+02  0.3792E+02  0.1475E+03  0.1472E+03
     -0.248  0.2337E+02  0.1907E+02  0.1487E+03  0.1483E+03
     -0.194  0.5699E+02  0.5809E+02  0.1518E+03  0.1514E+03
     -0.139  0.2413E+02  0.2871E+02  0.1532E+03  0.1530E+03
     -0.084  0.4417E+02  0.3909E+02  0.1556E+03  0.1551E+03
     -0.030  0.3117E+02  0.3504E+02  0.1573E+03  0.1571E+03
      0.025  0.4314E+02  0.4041E+02  0.1596E+03  0.1593E+03
      0.079  0.4665E+02  0.4398E+02  0.1622E+03  0.1617E+03
      0.134  0.3929E+02  0.4192E+02  0.1643E+03  0.1639E+03
      0.188  0.3162E+02  0.2974E+02  0.1660E+03  0.1656E+03
      0.243  0.2799E+02  0.2847E+02  0.1676E+03  0.1671E+03
      0.297  0.4783E+02  0.4362E+02  0.1702E+03  0.1695E+03
      0.352  0.5168E+02  0.5478E+02  0.1730E+03  0.1725E+03
      0.407  0.3387E+02  0.3636E+02  0.1748E+03  0.1745E+03
      0.461  0.3058E+02  0.3116E+02  0.1765E+03  0.1762E+03
      0.516  0.4558E+02  0.4747E+02  0.1790E+03  0.1788E+03
      0.570  0.4435E+02  0.4125E+02  0.1814E+03  0.1810E+03
      0.625  0.5622E+02  0.5368E+02  0.1845E+03  0.1839E+03
      0.679  0.5471E+02  0.4313E+02  0.1875E+03  0.1863E+03
      0.734  0.2801E+02  0.4734E+02  0.1890E+03  0.1889E+03
      0.788  0.4668E+02  0.3953E+02  0.1915E+03  0.1910E+03
      0.843  0.3425E+02  0.3698E+02  0.1934E+03  0.1930E+03
      0.898  0.3090E+02  0.3112E+02  0.1951E+03  0.1947E+03
      0.952  0.4177E+02  0.3914E+02  0.1974E+03  0.1969E+03
      1.007  0.2977E+02  0.3178E+02  0.1990E+03  0.1986E+03
      1.061  0.4431E+02  0.3788E+02  0.2014E+03  0.2007E+03
      1.116  0.4680E+02  0.5643E+02  0.2040E+03  0.2038E+03
      1.170  0.5310E+02  0.3970E+02  0.2069E+03  0.2059E+03
      1.225  0.3167E+02  0.4311E+02  0.2086E+03  0.2083E+03
      1.279  0.6142E+02  0.5190E+02  0.2119E+03  0.2111E+03
      1.334  0.3728E+02  0.4810E+02  0.2140E+03  0.2137E+03
      1.389  0.4189E+02  0.3283E+02  0.2163E+03  0.2155E+03
      1.443  0.4818E+02  0.4961E+02  0.2189E+03  0.2182E+03
      1.498  0.4819E+02  0.4753E+02  0.2215E+03  0.2208E+03
      1.552  0.3829E+02  0.4737E+02  0.2236E+03  0.2234E+03
      1.607  0.3508E+02  0.2122E+02  0.2255E+03  0.2246E+03
      1.661  0.5487E+02  0.6040E+02  0.2285E+03  0.2279E+03
      1.716  0.3875E+02  0.4419E+02  0.2306E+03  0.2303E+03
      1.770  0.4100E+02  0.3899E+02  0.2329E+03  0.2324E+03
      1.825  0.4025E+02  0.4163E+02  0.2351E+03  0.2347E+03
      1.880  0.5027E+02  0.4051E+02  0.2378E+03  0.2369E+03
      1.934  0.4067E+02  0.5131E+02  0.2400E+03  0.2397E+03
      1.989  0.3132E+02  0.2858E+02  0.2417E+03  0.2412E+03
      2.043  0.3003E+02  0.3036E+02  0.2434E+03  0.2429E+03
      2.098  0.3247E+02  0.2764E+02  0.2451E+03  0.2444E+03
      2.152  0.3692E+02  0.4498E+02  0.2472E+03  0.2469E+03
      2.207  0.2463E+02  0.2430E+02  0.2485E+03  0.2482E+03
      2.261  0.3370E+02  0.3241E+02  0.2503E+03  0.2500E+03
      2.316  0.5170E+02  0.5330E+02  0.2532E+03  0.2529E+03
      2.371  0.3385E+02  0.2953E+02  0.2550E+03  0.2545E+03
      2.425  0.2849E+02  0.2909E+02  0.2566E+03  0.2561E+03
      2.480  0.3370E+02  0.3959E+02  0.2584E+03  0.2582E+03
      2.534  0.3636E+02  0.2184E+02  0.2604E+03  0.2594E+03
      2.589  0.2772E+02  0.4024E+02  0.2619E+03  0.2616E+03
      2.643  0.4103E+02  0.2726E+02  0.2641E+03  0.2631E+03
      2.698  0.1456E+02  0.2847E+02  0.2649E+03  0.2646E+03
      2.752  0.2448E+02  0.2302E+02  0.2663E+03  0.2659E+03
      2.807  0.2946E+02  0.2783E+02  0.2679E+03  0.2674E+03
      2.862  0.3322E+02  0.3182E+02  0.2697E+03  0.2692E+03
      2.916  0.3354E+02  0.3044E+02  0.2715E+03  0.2708E+03
      2.971  0.2171E+02  0.2869E+02  0.2727E+03  0.2724E+03
      3.025  0.3303E+02  0.2628E+02  0.2745E+03  0.2738E+03
      3.080  0.2179E+02  0.2517E+02  0.2757E+03  0.2752E+03
      3.134  0.1153E+02  0.1537E+02  0.2763E+03  0.2760E+03
      3.189  0.1191E+02  0.1205E+02  0.2770E+03  0.2767E+03
      3.243  0.9789E+01  0.1496E+02  0.2775E+03  0.2775E+03
      3.298  0.5781E+01  0.3120E+00  0.2778E+03  0.2775E+03
      3.353  0.3323E+02  0.2493E+02  0.2796E+03  0.2789E+03
      3.407  0.3013E+02  0.2357E+02  0.2813E+03  0.2802E+03
      3.462  0.1647E+02  0.3002E+02  0.2822E+03  0.2818E+03
      3.516  0.1867E+02  0.1036E+02  0.2832E+03  0.2824E+03
      3.571  0.4090E+02  0.2533E+02  0.2854E+03  0.2837E+03
      3.625  0.1468E+02  0.3563E+02  0.2862E+03  0.2857E+03
      3.680  0.3563E+02  0.2483E+02  0.2882E+03  0.2870E+03
      3.734  0.3685E+02  0.2396E+02  0.2902E+03  0.2884E+03
      3.789  0.3979E+02  0.4412E+02  0.2923E+03  0.2908E+03
      3.844  0.2380E+02  0.3859E+02  0.2936E+03  0.2929E+03
      3.898  0.2195E+02  0.2172E+02  0.2948E+03  0.2940E+03
      3.953  0.3193E+02  0.2662E+02  0.2966E+03  0.2955E+03
      4.007  0.2342E+02  0.3972E+02  0.2979E+03  0.2977E+03
      4.062  0.3149E+02  0.2095E+02  0.2996E+03  0.2988E+03
      4.116  0.1850E+02  0.2924E+02  0.3006E+03  0.3004E+03
      4.171  0.2201E+02  0.2212E+02  0.3018E+03  0.3016E+03
      4.225  0.2540E+02  0.2724E+02  0.3032E+03  0.3031E+03
      4.280  0.2759E+02  0.1563E+02  0.3047E+03  0.3040E+03
      4.335  0.2785E+02  0.2547E+02  0.3062E+03  0.3053E+03
      4.389  0.2530E+02  0.3142E+02  0.3076E+03  0.3071E+03
      4.444  0.2675E+02  0.2579E+02  0.3090E+03  0.3085E+03
      4.498  0.4297E+02  0.3215E+02  0.3114E+03  0.3102E+03
      4.553  0.2318E+02  0.3841E+02  0.3126E+03  0.3123E+03
      4.607  0.3879E+02  0.2655E+02  0.3148E+03  0.3138E+03
      4.662  0.2075E+02  0.3062E+02  0.3159E+03  0.3154E+03
      4.716  0.3044E+02  0.3064E+02  0.3176E+03  0.3171E+03
      4.771  0.2314E+02  0.2740E+02  0.3188E+03  0.3186E+03
      4.826  0.1948E+02  0.1161E+02  0.3199E+03  0.3192E+03
      4.880  0.2689E+02  0.3187E+02  0.3213E+03  0.3210E+03
      4.935  0.2709E+02  0.2391E+02  0.3228E+03  0.3223E+03
      4.989  0.3313E+02  0.3916E+02  0.3246E+03  0.3244E+03
      5.044  0.2182E+02  0.1582E+02  0.3258E+03  0.3253E+03
      5.098  0.4368E+02  0.4428E+02  0.3282E+03  0.3277E+03
      5.153  0.3169E+02  0.3475E+02  0.3299E+03  0.3296E+03
      5.207  0.3048E+02  0.2870E+02  0.3316E+03  0.3312E+03
      5.262  0.2361E+02  0.2695E+02  0.3329E+03  0.3326E+03
      5.317  0.3780E+02  0.3520E+02  0.3349E+03  0.3345E+03
      5.371  0.3398E+02  0.2800E+02  0.3368E+03  0.3361E+03
      5.426  0.5203E+02  0.5746E+02  0.3396E+03  0.3392E+03
      5.480  0.2414E+02  0.2370E+02  0.3410E+03  0.3405E+03
      5.535  0.2370E+02  0.2978E+02  0.3423E+03  0.3421E+03
      5.589  0.2396E+02  0.2189E+02  0.3436E+03  0.3433E+03
      5.644  0.1799E+02  0.1308E+02  0.3445E+03  0.3440E+03
      5.698  0.2605E+02  0.2820E+02  0.3460E+03  0.3456E+03
      5.753  0.1904E+02  0.2573E+02  0.3470E+03  0.3470E+03
      5.808  0.3541E+02  0.2195E+02  0.3489E+03  0.3482E+03
      5.862  0.1963E+02  0.3356E+02  0.3500E+03  0.3500E+03
      5.917  0.1369E+02  0.1174E+02  0.3507E+03  0.3506E+03
      5.971  0.7043E+01  0.6869E+01  0.3511E+03  0.3510E+03
      6.026  0.6735E+01  0.8698E+01  0.3515E+03  0.3515E+03
      6.080  0.4946E+01  0.4783E+01  0.3518E+03  0.3518E+03
      6.135  0.4191E+01  0.4568E+01  0.3520E+03  0.3520E+03
      6.189  0.0000E+00  0.0000E+00  0.3520E+03  0.3520E+03
      6.244  0.0000E+00  0.0000E+00  0.3520E+03  0.3520E+03
      6.299  0.0000E+00  0.0000E+00  0.3520E+03  0.3520E+03
      6.353  0.0000E+00  0.0000E+00  0.3520E+03  0.3520E+03
      6.408  0.0000E+00  0.0000E+00  0.3520E+03  0.3520E+03
      6.462  0.0000E+00  0.0000E+00  0.3520E+03  0.3520E+03
      6.517  0.0000E+00  0.0000E+00  0.3520E+03  0.3520E+03
      6.571  0.0000E+00  0.0000E+00  0.3520E+03  0.3520E+03
      6.626  0.0000E+00  0.0000E+00  0.3520E+03  0.3520E+03
      6.680  0.0000E+00  0.0000E+00  0.3520E+03  0.3520E+03
      6.735  0.0000E+00  0.0000E+00  0.3520E+03  0.3520E+03
      6.790  0.0000E+00  0.0000E+00  0.3520E+03  0.3520E+03
      6.844  0.0000E+00  0.0000E+00  0.3520E+03  0.3520E+03
