 264 264   0   0
  0.2741953E+02  0.1946760E-08  0.1946760E-08  0.1910025E-08  0.5000000E-15
  1.000000000000000E-004
  CAR 
 Si and Ge interface calculation         
      6.75739764     -8.81554852  301      4.15272492      1.00000000
     -8.816  0.0000E+00  0.0000E+00  0.0000E+00  0.0000E+00
     -8.764  0.0000E+00  0.0000E+00  0.0000E+00  0.0000E+00
     -8.712  0.0000E+00  0.0000E+00  0.0000E+00  0.0000E+00
     -8.660  0.0000E+00  0.0000E+00  0.0000E+00  0.0000E+00
     -8.608  0.0000E+00  0.0000E+00  0.0000E+00  0.0000E+00
     -8.556  0.0000E+00  0.0000E+00  0.0000E+00  0.0000E+00
     -8.504  0.0000E+00  0.0000E+00  0.0000E+00  0.0000E+00
     -8.452  0.0000E+00  0.0000E+00  0.0000E+00  0.0000E+00
     -8.400  0.0000E+00  0.0000E+00  0.0000E+00  0.0000E+00
     -8.348  0.0000E+00  0.0000E+00  0.0000E+00  0.0000E+00
     -8.296  0.0000E+00  0.0000E+00  0.0000E+00  0.0000E+00
     -8.245  0.0000E+00  0.0000E+00  0.0000E+00  0.0000E+00
     -8.193  0.0000E+00  0.0000E+00  0.0000E+00  0.0000E+00
     -8.141  0.1400E-04  0.3763E-05  0.7266E-06  0.1954E-06
     -8.089  0.9597E+01  0.9554E+01  0.4982E+00  0.4960E+00
     -8.037  0.1735E+02  0.1656E+02  0.1399E+01  0.1355E+01
     -7.985  0.2212E+02  0.2258E+02  0.2547E+01  0.2528E+01
     -7.933  0.1837E+02  0.1873E+02  0.3500E+01  0.3500E+01
     -7.881  0.9630E+01  0.9631E+01  0.4000E+01  0.4000E+01
     -7.829  0.1888E+02  0.1685E+02  0.4980E+01  0.4875E+01
     -7.777  0.1265E+02  0.1391E+02  0.5636E+01  0.5597E+01
     -7.725  0.2227E+02  0.2206E+02  0.6792E+01  0.6742E+01
     -7.674  0.2255E+02  0.2277E+02  0.7963E+01  0.7924E+01
     -7.622  0.3263E+02  0.3232E+02  0.9657E+01  0.9602E+01
     -7.570  0.1624E+02  0.1730E+02  0.1050E+02  0.1050E+02
     -7.518  0.3475E+01  0.2601E+01  0.1068E+02  0.1064E+02
     -7.466  0.2394E+02  0.2419E+02  0.1192E+02  0.1189E+02
     -7.414  0.1111E+02  0.1174E+02  0.1250E+02  0.1250E+02
     -7.362  0.3448E+02  0.3205E+02  0.1429E+02  0.1416E+02
     -7.310  0.2331E+02  0.2574E+02  0.1550E+02  0.1550E+02
     -7.258  0.1519E+02  0.1398E+02  0.1629E+02  0.1623E+02
     -7.206  0.3213E+02  0.3277E+02  0.1796E+02  0.1793E+02
     -7.154  0.2903E+02  0.2759E+02  0.1946E+02  0.1936E+02
     -7.103  0.4097E+02  0.4220E+02  0.2159E+02  0.2155E+02
     -7.051  0.1781E+02  0.1732E+02  0.2251E+02  0.2245E+02
     -6.999  0.5231E+02  0.5175E+02  0.2523E+02  0.2513E+02
     -6.947  0.4323E+02  0.4351E+02  0.2747E+02  0.2739E+02
     -6.895  0.3831E+02  0.3922E+02  0.2946E+02  0.2943E+02
     -6.843  0.3516E+02  0.3378E+02  0.3129E+02  0.3118E+02
     -6.791  0.2845E+02  0.2799E+02  0.3276E+02  0.3264E+02
     -6.739  0.3824E+02  0.3744E+02  0.3475E+02  0.3458E+02
     -6.687  0.5844E+02  0.5995E+02  0.3778E+02  0.3769E+02
     -6.635  0.6213E+02  0.6087E+02  0.4101E+02  0.4085E+02
     -6.583  0.4491E+02  0.4569E+02  0.4334E+02  0.4322E+02
     -6.532  0.4655E+02  0.4710E+02  0.4576E+02  0.4567E+02
     -6.480  0.2201E+02  0.2171E+02  0.4690E+02  0.4679E+02
     -6.428  0.3044E+02  0.3058E+02  0.4848E+02  0.4838E+02
     -6.376  0.4031E+02  0.4101E+02  0.5057E+02  0.5051E+02
     -6.324  0.6220E+02  0.6093E+02  0.5380E+02  0.5367E+02
     -6.272  0.4759E+02  0.4825E+02  0.5627E+02  0.5618E+02
     -6.220  0.4934E+02  0.4868E+02  0.5883E+02  0.5871E+02
     -6.168  0.4450E+02  0.4402E+02  0.6114E+02  0.6099E+02
     -6.116  0.6107E+02  0.6064E+02  0.6431E+02  0.6414E+02
     -6.064  0.5718E+02  0.5768E+02  0.6728E+02  0.6713E+02
     -6.012  0.6619E+02  0.6652E+02  0.7072E+02  0.7059E+02
     -5.961  0.6947E+02  0.6940E+02  0.7432E+02  0.7419E+02
     -5.909  0.6673E+02  0.6638E+02  0.7779E+02  0.7763E+02
     -5.857  0.7281E+02  0.7403E+02  0.8157E+02  0.8148E+02
     -5.805  0.8550E+02  0.8400E+02  0.8600E+02  0.8584E+02
     -5.753  0.8121E+02  0.8045E+02  0.9022E+02  0.9001E+02
     -5.701  0.6653E+02  0.6681E+02  0.9367E+02  0.9348E+02
     -5.649  0.7594E+02  0.7549E+02  0.9761E+02  0.9740E+02
     -5.597  0.9916E+02  0.9848E+02  0.1028E+03  0.1025E+03
     -5.545  0.8245E+02  0.8358E+02  0.1070E+03  0.1069E+03
     -5.493  0.7250E+02  0.7124E+02  0.1108E+03  0.1105E+03
     -5.441  0.7432E+02  0.7565E+02  0.1147E+03  0.1145E+03
     -5.390  0.6491E+02  0.6434E+02  0.1180E+03  0.1178E+03
     -5.338  0.7874E+02  0.7936E+02  0.1221E+03  0.1219E+03
     -5.286  0.6521E+02  0.6509E+02  0.1255E+03  0.1253E+03
     -5.234  0.8490E+02  0.8528E+02  0.1299E+03  0.1297E+03
     -5.182  0.6265E+02  0.6295E+02  0.1332E+03  0.1330E+03
     -5.130  0.6441E+02  0.6598E+02  0.1365E+03  0.1364E+03
     -5.078  0.5816E+02  0.5658E+02  0.1395E+03  0.1394E+03
     -5.026  0.7439E+02  0.7235E+02  0.1434E+03  0.1431E+03
     -4.974  0.7424E+02  0.7554E+02  0.1472E+03  0.1470E+03
     -4.922  0.7170E+02  0.7052E+02  0.1510E+03  0.1507E+03
     -4.870  0.5858E+02  0.5946E+02  0.1540E+03  0.1538E+03
     -4.818  0.6044E+02  0.5933E+02  0.1571E+03  0.1569E+03
     -4.767  0.8902E+02  0.9139E+02  0.1618E+03  0.1616E+03
     -4.715  0.9711E+02  0.9432E+02  0.1668E+03  0.1665E+03
     -4.663  0.1116E+03  0.1108E+03  0.1726E+03  0.1723E+03
     -4.611  0.1184E+03  0.1168E+03  0.1787E+03  0.1783E+03
     -4.559  0.1219E+03  0.1224E+03  0.1851E+03  0.1847E+03
     -4.507  0.1016E+03  0.1018E+03  0.1904E+03  0.1900E+03
     -4.455  0.1246E+03  0.1252E+03  0.1968E+03  0.1965E+03
     -4.403  0.9810E+02  0.9803E+02  0.2019E+03  0.2016E+03
     -4.351  0.1165E+03  0.1184E+03  0.2080E+03  0.2077E+03
     -4.299  0.7728E+02  0.7723E+02  0.2120E+03  0.2117E+03
     -4.247  0.8570E+02  0.8653E+02  0.2164E+03  0.2162E+03
     -4.196  0.4197E+02  0.4209E+02  0.2186E+03  0.2184E+03
     -4.144  0.6930E+02  0.6574E+02  0.2222E+03  0.2218E+03
     -4.092  0.9174E+02  0.9344E+02  0.2270E+03  0.2267E+03
     -4.040  0.5252E+02  0.5381E+02  0.2297E+03  0.2295E+03
     -3.988  0.5126E+02  0.5267E+02  0.2323E+03  0.2322E+03
     -3.936  0.6891E+02  0.6829E+02  0.2359E+03  0.2357E+03
     -3.884  0.5977E+02  0.5807E+02  0.2390E+03  0.2388E+03
     -3.832  0.7488E+02  0.7345E+02  0.2429E+03  0.2426E+03
     -3.780  0.6985E+02  0.7164E+02  0.2465E+03  0.2463E+03
     -3.728  0.5898E+02  0.6129E+02  0.2496E+03  0.2495E+03
     -3.676  0.6695E+02  0.6325E+02  0.2531E+03  0.2527E+03
     -3.625  0.7127E+02  0.7048E+02  0.2568E+03  0.2564E+03
     -3.573  0.6019E+02  0.6495E+02  0.2599E+03  0.2598E+03
     -3.521  0.8422E+02  0.8241E+02  0.2643E+03  0.2641E+03
     -3.469  0.3602E+02  0.3735E+02  0.2661E+03  0.2660E+03
     -3.417  0.7997E+02  0.7460E+02  0.2703E+03  0.2699E+03
     -3.365  0.9013E+02  0.9621E+02  0.2750E+03  0.2749E+03
     -3.313  0.5645E+02  0.5245E+02  0.2779E+03  0.2776E+03
     -3.261  0.7176E+02  0.7424E+02  0.2816E+03  0.2814E+03
     -3.209  0.7784E+02  0.7801E+02  0.2857E+03  0.2855E+03
     -3.157  0.7747E+02  0.7549E+02  0.2897E+03  0.2894E+03
     -3.105  0.7296E+02  0.7241E+02  0.2935E+03  0.2932E+03
     -3.054  0.8428E+02  0.8639E+02  0.2978E+03  0.2976E+03
     -3.002  0.5945E+02  0.5673E+02  0.3009E+03  0.3006E+03
     -2.950  0.6492E+02  0.6755E+02  0.3043E+03  0.3041E+03
     -2.898  0.7468E+02  0.7505E+02  0.3082E+03  0.3080E+03
     -2.846  0.8942E+02  0.8658E+02  0.3128E+03  0.3125E+03
     -2.794  0.9918E+02  0.9768E+02  0.3180E+03  0.3176E+03
     -2.742  0.8885E+02  0.9423E+02  0.3226E+03  0.3225E+03
     -2.690  0.9309E+02  0.9050E+02  0.3274E+03  0.3271E+03
     -2.638  0.8723E+02  0.8751E+02  0.3319E+03  0.3317E+03
     -2.586  0.1006E+03  0.1006E+03  0.3372E+03  0.3369E+03
     -2.534  0.1127E+03  0.1124E+03  0.3430E+03  0.3427E+03
     -2.483  0.1057E+03  0.1045E+03  0.3485E+03  0.3482E+03
     -2.431  0.1251E+03  0.1245E+03  0.3550E+03  0.3546E+03
     -2.379  0.9649E+02  0.9897E+02  0.3600E+03  0.3598E+03
     -2.327  0.8749E+02  0.8643E+02  0.3645E+03  0.3643E+03
     -2.275  0.1100E+03  0.1108E+03  0.3703E+03  0.3700E+03
     -2.223  0.9510E+02  0.9369E+02  0.3752E+03  0.3749E+03
     -2.171  0.9737E+02  0.9896E+02  0.3802E+03  0.3800E+03
     -2.119  0.6156E+02  0.6252E+02  0.3834E+03  0.3833E+03
     -2.067  0.3476E+02  0.3809E+02  0.3852E+03  0.3852E+03
     -2.015  0.5275E+02  0.5027E+02  0.3880E+03  0.3878E+03
     -1.963  0.6865E+02  0.6824E+02  0.3916E+03  0.3914E+03
     -1.912  0.8434E+02  0.8204E+02  0.3959E+03  0.3956E+03
     -1.860  0.9253E+02  0.9389E+02  0.4007E+03  0.4005E+03
     -1.808  0.9462E+02  0.9442E+02  0.4056E+03  0.4054E+03
     -1.756  0.6703E+02  0.6639E+02  0.4091E+03  0.4089E+03
     -1.704  0.6237E+02  0.6317E+02  0.4124E+03  0.4121E+03
     -1.652  0.1153E+03  0.1128E+03  0.4183E+03  0.4180E+03
     -1.600  0.9571E+02  0.9798E+02  0.4233E+03  0.4231E+03
     -1.548  0.9408E+02  0.9582E+02  0.4282E+03  0.4281E+03
     -1.496  0.5734E+02  0.5672E+02  0.4312E+03  0.4310E+03
     -1.444  0.9128E+02  0.8858E+02  0.4359E+03  0.4356E+03
     -1.392  0.7945E+02  0.8083E+02  0.4400E+03  0.4398E+03
     -1.341  0.4407E+02  0.4631E+02  0.4423E+03  0.4422E+03
     -1.289  0.6050E+02  0.5894E+02  0.4455E+03  0.4453E+03
     -1.237  0.5350E+02  0.5364E+02  0.4482E+03  0.4480E+03
     -1.185  0.6244E+02  0.6237E+02  0.4515E+03  0.4513E+03
     -1.133  0.5257E+02  0.5231E+02  0.4542E+03  0.4540E+03
     -1.081  0.5008E+02  0.5117E+02  0.4568E+03  0.4567E+03
     -1.029  0.4710E+02  0.4664E+02  0.4593E+03  0.4591E+03
     -0.977  0.5067E+02  0.5126E+02  0.4619E+03  0.4617E+03
     -0.925  0.5244E+02  0.5048E+02  0.4646E+03  0.4644E+03
     -0.873  0.4976E+02  0.5168E+02  0.4672E+03  0.4670E+03
     -0.821  0.3509E+02  0.3568E+02  0.4690E+03  0.4689E+03
     -0.770  0.6023E+02  0.5883E+02  0.4721E+03  0.4719E+03
     -0.718  0.8772E+02  0.8545E+02  0.4767E+03  0.4764E+03
     -0.666  0.4201E+02  0.4614E+02  0.4789E+03  0.4788E+03
     -0.614  0.4195E+02  0.3698E+02  0.4811E+03  0.4807E+03
     -0.562  0.8266E+02  0.8280E+02  0.4853E+03  0.4850E+03
     -0.510  0.3408E+02  0.3973E+02  0.4871E+03  0.4871E+03
     -0.458  0.2345E+02  0.2284E+02  0.4883E+03  0.4882E+03
     -0.406  0.2170E+02  0.2184E+02  0.4895E+03  0.4894E+03
     -0.354  0.4631E+02  0.4485E+02  0.4919E+03  0.4917E+03
     -0.302  0.4381E+02  0.4555E+02  0.4941E+03  0.4941E+03
     -0.250  0.4753E+02  0.4570E+02  0.4966E+03  0.4964E+03
     -0.199  0.9941E+02  0.9821E+02  0.5018E+03  0.5015E+03
     -0.147  0.7870E+02  0.7834E+02  0.5058E+03  0.5056E+03
     -0.095  0.7108E+02  0.7240E+02  0.5095E+03  0.5094E+03
     -0.043  0.1168E+03  0.1140E+03  0.5156E+03  0.5153E+03
      0.009  0.1276E+03  0.1296E+03  0.5222E+03  0.5220E+03
      0.061  0.1145E+03  0.1134E+03  0.5282E+03  0.5279E+03
      0.113  0.1101E+03  0.1063E+03  0.5339E+03  0.5334E+03
      0.165  0.1568E+03  0.1576E+03  0.5420E+03  0.5416E+03
      0.217  0.1179E+03  0.1222E+03  0.5481E+03  0.5479E+03
      0.269  0.8295E+02  0.8275E+02  0.5524E+03  0.5522E+03
      0.321  0.8160E+02  0.8242E+02  0.5567E+03  0.5565E+03
      0.372  0.9994E+02  0.9805E+02  0.5619E+03  0.5616E+03
      0.424  0.7469E+02  0.7701E+02  0.5657E+03  0.5656E+03
      0.476  0.9986E+02  0.9649E+02  0.5709E+03  0.5706E+03
      0.528  0.9652E+02  0.9845E+02  0.5759E+03  0.5757E+03
      0.580  0.7682E+02  0.7403E+02  0.5799E+03  0.5796E+03
      0.632  0.1199E+03  0.1222E+03  0.5862E+03  0.5859E+03
      0.684  0.1584E+03  0.1555E+03  0.5944E+03  0.5940E+03
      0.736  0.1567E+03  0.1563E+03  0.6025E+03  0.6021E+03
      0.788  0.1176E+03  0.1193E+03  0.6086E+03  0.6083E+03
      0.840  0.1251E+03  0.1251E+03  0.6151E+03  0.6148E+03
      0.892  0.1291E+03  0.1299E+03  0.6218E+03  0.6215E+03
      0.943  0.1018E+03  0.1023E+03  0.6271E+03  0.6268E+03
      0.995  0.7258E+02  0.7163E+02  0.6309E+03  0.6306E+03
      1.047  0.1207E+03  0.1234E+03  0.6371E+03  0.6370E+03
      1.099  0.1350E+03  0.1302E+03  0.6441E+03  0.6437E+03
      1.151  0.1459E+03  0.1472E+03  0.6517E+03  0.6514E+03
      1.203  0.1397E+03  0.1377E+03  0.6590E+03  0.6585E+03
      1.255  0.1685E+03  0.1702E+03  0.6677E+03  0.6674E+03
      1.307  0.1657E+03  0.1648E+03  0.6763E+03  0.6759E+03
      1.359  0.1651E+03  0.1614E+03  0.6849E+03  0.6843E+03
      1.411  0.1895E+03  0.1916E+03  0.6947E+03  0.6942E+03
      1.463  0.1887E+03  0.1886E+03  0.7045E+03  0.7040E+03
      1.515  0.1511E+03  0.1534E+03  0.7124E+03  0.7120E+03
      1.566  0.1911E+03  0.1835E+03  0.7223E+03  0.7215E+03
      1.618  0.2123E+03  0.2177E+03  0.7333E+03  0.7328E+03
      1.670  0.1880E+03  0.1878E+03  0.7431E+03  0.7426E+03
      1.722  0.1664E+03  0.1664E+03  0.7517E+03  0.7512E+03
      1.774  0.1870E+03  0.1861E+03  0.7614E+03  0.7609E+03
      1.826  0.1814E+03  0.1800E+03  0.7708E+03  0.7702E+03
      1.878  0.1834E+03  0.1839E+03  0.7803E+03  0.7797E+03
      1.930  0.1589E+03  0.1611E+03  0.7886E+03  0.7881E+03
      1.982  0.1603E+03  0.1589E+03  0.7969E+03  0.7964E+03
      2.034  0.2231E+03  0.2210E+03  0.8085E+03  0.8078E+03
      2.086  0.1584E+03  0.1612E+03  0.8167E+03  0.8162E+03
      2.137  0.1863E+03  0.1859E+03  0.8264E+03  0.8258E+03
      2.189  0.1844E+03  0.1838E+03  0.8360E+03  0.8354E+03
      2.241  0.1880E+03  0.1862E+03  0.8457E+03  0.8451E+03
      2.293  0.1619E+03  0.1669E+03  0.8541E+03  0.8537E+03
      2.345  0.1635E+03  0.1599E+03  0.8626E+03  0.8620E+03
      2.397  0.1581E+03  0.1585E+03  0.8708E+03  0.8702E+03
      2.449  0.1954E+03  0.1933E+03  0.8810E+03  0.8803E+03
      2.501  0.1574E+03  0.1600E+03  0.8891E+03  0.8886E+03
      2.553  0.1326E+03  0.1352E+03  0.8960E+03  0.8956E+03
      2.605  0.1677E+03  0.1661E+03  0.9047E+03  0.9042E+03
      2.657  0.1554E+03  0.1562E+03  0.9128E+03  0.9123E+03
      2.708  0.1168E+03  0.1188E+03  0.9188E+03  0.9185E+03
      2.760  0.1299E+03  0.1247E+03  0.9256E+03  0.9250E+03
      2.812  0.1453E+03  0.1450E+03  0.9331E+03  0.9325E+03
      2.864  0.1298E+03  0.1308E+03  0.9399E+03  0.9393E+03
      2.916  0.1436E+03  0.1442E+03  0.9473E+03  0.9468E+03
      2.968  0.1395E+03  0.1406E+03  0.9546E+03  0.9541E+03
      3.020  0.1172E+03  0.1163E+03  0.9606E+03  0.9601E+03
      3.072  0.1303E+03  0.1312E+03  0.9674E+03  0.9669E+03
      3.124  0.1268E+03  0.1278E+03  0.9740E+03  0.9736E+03
      3.176  0.1223E+03  0.1170E+03  0.9803E+03  0.9796E+03
      3.228  0.1150E+03  0.1215E+03  0.9863E+03  0.9859E+03
      3.279  0.1017E+03  0.1026E+03  0.9916E+03  0.9913E+03
      3.331  0.1157E+03  0.1143E+03  0.9976E+03  0.9972E+03
      3.383  0.1207E+03  0.1191E+03  0.1004E+04  0.1003E+04
      3.435  0.7621E+02  0.7750E+02  0.1008E+04  0.1007E+04
      3.487  0.6310E+02  0.6700E+02  0.1011E+04  0.1011E+04
      3.539  0.9009E+02  0.8689E+02  0.1016E+04  0.1015E+04
      3.591  0.1021E+03  0.9816E+02  0.1021E+04  0.1020E+04
      3.643  0.8520E+02  0.8917E+02  0.1025E+04  0.1025E+04
      3.695  0.9778E+02  0.9393E+02  0.1031E+04  0.1030E+04
      3.747  0.5892E+02  0.6171E+02  0.1034E+04  0.1033E+04
      3.799  0.5684E+02  0.5640E+02  0.1037E+04  0.1036E+04
      3.850  0.4443E+02  0.4664E+02  0.1039E+04  0.1039E+04
      3.902  0.4901E+02  0.5086E+02  0.1041E+04  0.1041E+04
      3.954  0.3721E+02  0.3572E+02  0.1043E+04  0.1043E+04
      4.006  0.3349E+02  0.3295E+02  0.1045E+04  0.1045E+04
      4.058  0.6527E+02  0.6459E+02  0.1048E+04  0.1048E+04
      4.110  0.6779E+02  0.5830E+02  0.1052E+04  0.1051E+04
      4.162  0.9253E+02  0.9071E+02  0.1057E+04  0.1056E+04
      4.214  0.1079E+03  0.1081E+03  0.1062E+04  0.1061E+04
      4.266  0.7763E+02  0.8377E+02  0.1066E+04  0.1066E+04
      4.318  0.7837E+02  0.7939E+02  0.1071E+04  0.1070E+04
      4.370  0.1115E+03  0.1146E+03  0.1076E+04  0.1076E+04
      4.421  0.7957E+02  0.6876E+02  0.1080E+04  0.1079E+04
      4.473  0.1166E+03  0.1229E+03  0.1086E+04  0.1086E+04
      4.525  0.1236E+03  0.1219E+03  0.1093E+04  0.1092E+04
      4.577  0.1147E+03  0.1093E+03  0.1099E+04  0.1098E+04
      4.629  0.1240E+03  0.1270E+03  0.1105E+04  0.1104E+04
      4.681  0.7090E+02  0.8144E+02  0.1109E+04  0.1109E+04
      4.733  0.9767E+02  0.8688E+02  0.1114E+04  0.1113E+04
      4.785  0.1291E+03  0.1301E+03  0.1121E+04  0.1120E+04
      4.837  0.1202E+03  0.1244E+03  0.1127E+04  0.1126E+04
      4.889  0.1101E+03  0.1060E+03  0.1133E+04  0.1132E+04
      4.941  0.1323E+03  0.1357E+03  0.1140E+04  0.1139E+04
      4.992  0.1266E+03  0.1252E+03  0.1146E+04  0.1145E+04
      5.044  0.1116E+03  0.1105E+03  0.1152E+04  0.1151E+04
      5.096  0.1243E+03  0.1289E+03  0.1158E+04  0.1158E+04
      5.148  0.1084E+03  0.1071E+03  0.1164E+04  0.1163E+04
      5.200  0.1353E+03  0.1342E+03  0.1171E+04  0.1170E+04
      5.252  0.1153E+03  0.1183E+03  0.1177E+04  0.1177E+04
      5.304  0.9336E+02  0.9455E+02  0.1182E+04  0.1181E+04
      5.356  0.9157E+02  0.9110E+02  0.1187E+04  0.1186E+04
      5.408  0.1171E+03  0.1157E+03  0.1193E+04  0.1192E+04
      5.460  0.1289E+03  0.1299E+03  0.1199E+04  0.1199E+04
      5.512  0.1380E+03  0.1350E+03  0.1207E+04  0.1206E+04
      5.563  0.1386E+03  0.1424E+03  0.1214E+04  0.1213E+04
      5.615  0.1448E+03  0.1421E+03  0.1221E+04  0.1221E+04
      5.667  0.1324E+03  0.1322E+03  0.1228E+04  0.1228E+04
      5.719  0.1335E+03  0.1341E+03  0.1235E+04  0.1234E+04
      5.771  0.1179E+03  0.1191E+03  0.1241E+04  0.1241E+04
      5.823  0.1355E+03  0.1320E+03  0.1248E+04  0.1248E+04
      5.875  0.1417E+03  0.1453E+03  0.1256E+04  0.1255E+04
      5.927  0.1337E+03  0.1341E+03  0.1263E+04  0.1262E+04
      5.979  0.1155E+03  0.1305E+03  0.1269E+04  0.1269E+04
      6.031  0.5716E+02  0.5337E+02  0.1271E+04  0.1272E+04
      6.083  0.1019E+02  0.8191E+01  0.1272E+04  0.1272E+04
      6.134  0.0000E+00  0.0000E+00  0.1272E+04  0.1272E+04
      6.186  0.0000E+00  0.0000E+00  0.1272E+04  0.1272E+04
      6.238  0.0000E+00  0.0000E+00  0.1272E+04  0.1272E+04
      6.290  0.0000E+00  0.0000E+00  0.1272E+04  0.1272E+04
      6.342  0.0000E+00  0.0000E+00  0.1272E+04  0.1272E+04
      6.394  0.0000E+00  0.0000E+00  0.1272E+04  0.1272E+04
      6.446  0.0000E+00  0.0000E+00  0.1272E+04  0.1272E+04
      6.498  0.0000E+00  0.0000E+00  0.1272E+04  0.1272E+04
      6.550  0.0000E+00  0.0000E+00  0.1272E+04  0.1272E+04
      6.602  0.0000E+00  0.0000E+00  0.1272E+04  0.1272E+04
      6.654  0.0000E+00  0.0000E+00  0.1272E+04  0.1272E+04
      6.705  0.0000E+00  0.0000E+00  0.1272E+04  0.1272E+04
      6.757  0.0000E+00  0.0000E+00  0.1272E+04  0.1272E+04
