  48  48   0   0
  0.2846441E+02  0.9177115E-09  0.1451029E-08  0.1081533E-08  0.5000000E-15
  1.000000000000000E-004
  CAR 
 Si and Ge interface calculation         
      7.80594458     -9.86637065  301      5.30296560      1.00000000
     -9.866  0.0000E+00  0.0000E+00  0.0000E+00  0.0000E+00
     -9.807  0.0000E+00  0.0000E+00  0.0000E+00  0.0000E+00
     -9.749  0.0000E+00  0.0000E+00  0.0000E+00  0.0000E+00
     -9.690  0.0000E+00  0.0000E+00  0.0000E+00  0.0000E+00
     -9.631  0.0000E+00  0.0000E+00  0.0000E+00  0.0000E+00
     -9.572  0.0000E+00  0.0000E+00  0.0000E+00  0.0000E+00
     -9.513  0.0000E+00  0.0000E+00  0.0000E+00  0.0000E+00
     -9.454  0.0000E+00  0.0000E+00  0.0000E+00  0.0000E+00
     -9.395  0.0000E+00  0.0000E+00  0.0000E+00  0.0000E+00
     -9.336  0.0000E+00  0.0000E+00  0.0000E+00  0.0000E+00
     -9.277  0.0000E+00  0.0000E+00  0.0000E+00  0.0000E+00
     -9.218  0.0000E+00  0.0000E+00  0.0000E+00  0.0000E+00
     -9.159  0.0000E+00  0.0000E+00  0.0000E+00  0.0000E+00
     -9.101  0.2055E-06  0.6557E-13  0.1211E-07  0.3863E-14
     -9.042  0.8467E+01  0.6124E+01  0.4988E+00  0.3608E+00
     -8.983  0.1670E+02  0.1007E+02  0.1483E+01  0.9542E+00
     -8.924  0.2908E+00  0.9266E+01  0.1500E+01  0.1500E+01
     -8.865  0.6936E-05  0.6344E-11  0.1500E+01  0.1500E+01
     -8.806  0.1697E+02  0.1479E+02  0.2500E+01  0.2371E+01
     -8.747  0.0000E+00  0.2189E+01  0.2500E+01  0.2500E+01
     -8.688  0.6231E-11  0.0000E+00  0.2500E+01  0.2500E+01
     -8.629  0.1484E+02  0.2300E+01  0.3374E+01  0.2635E+01
     -8.570  0.2142E+01  0.1468E+02  0.3500E+01  0.3500E+01
     -8.511  0.8481E+01  0.8473E+01  0.4000E+01  0.3999E+01
     -8.453  0.0000E+00  0.1240E-01  0.4000E+01  0.4000E+01
     -8.394  0.0000E+00  0.0000E+00  0.4000E+01  0.4000E+01
     -8.335  0.0000E+00  0.0000E+00  0.4000E+01  0.4000E+01
     -8.276  0.0000E+00  0.0000E+00  0.4000E+01  0.4000E+01
     -8.217  0.0000E+00  0.0000E+00  0.4000E+01  0.4000E+01
     -8.158  0.0000E+00  0.0000E+00  0.4000E+01  0.4000E+01
     -8.099  0.0000E+00  0.0000E+00  0.4000E+01  0.4000E+01
     -8.040  0.1073E+01  0.6167E-02  0.4063E+01  0.4000E+01
     -7.981  0.7415E+01  0.8482E+01  0.4500E+01  0.4500E+01
     -7.922  0.1679E+02  0.1005E+02  0.5489E+01  0.5092E+01
     -7.864  0.1852E+00  0.6922E+01  0.5500E+01  0.5500E+01
     -7.805  0.0000E+00  0.0000E+00  0.5500E+01  0.5500E+01
     -7.746  0.0000E+00  0.0000E+00  0.5500E+01  0.5500E+01
     -7.687  0.1804E+01  0.7436E-02  0.5606E+01  0.5500E+01
     -7.628  0.1517E+02  0.1697E+02  0.6500E+01  0.6500E+01
     -7.569  0.0000E+00  0.0000E+00  0.6500E+01  0.6500E+01
     -7.510  0.0000E+00  0.0000E+00  0.6500E+01  0.6500E+01
     -7.451  0.0000E+00  0.0000E+00  0.6500E+01  0.6500E+01
     -7.392  0.0000E+00  0.0000E+00  0.6500E+01  0.6500E+01
     -7.333  0.3750E+01  0.4992E-01  0.6721E+01  0.6503E+01
     -7.274  0.1323E+02  0.1693E+02  0.7500E+01  0.7500E+01
     -7.216  0.0000E+00  0.0000E+00  0.7500E+01  0.7500E+01
     -7.157  0.2709E-02  0.3572E-06  0.7500E+01  0.7500E+01
     -7.098  0.1671E+02  0.1306E+02  0.8484E+01  0.8269E+01
     -7.039  0.5278E+00  0.3915E+01  0.8516E+01  0.8500E+01
     -6.980  0.1671E+02  0.1696E+02  0.9500E+01  0.9499E+01
     -6.921  0.0000E+00  0.1052E-01  0.9500E+01  0.9500E+01
     -6.862  0.0000E+00  0.0000E+00  0.9500E+01  0.9500E+01
     -6.803  0.2696E-08  0.0000E+00  0.9500E+01  0.9500E+01
     -6.744  0.1645E+02  0.6017E+01  0.1047E+02  0.9854E+01
     -6.685  0.5273E+00  0.1096E+02  0.1050E+02  0.1050E+02
     -6.626  0.0000E+00  0.0000E+00  0.1050E+02  0.1050E+02
     -6.568  0.0000E+00  0.0000E+00  0.1050E+02  0.1050E+02
     -6.509  0.0000E+00  0.0000E+00  0.1050E+02  0.1050E+02
     -6.450  0.3012E-12  0.0000E+00  0.1050E+02  0.1050E+02
     -6.391  0.9454E+01  0.6067E+00  0.1106E+02  0.1054E+02
     -6.332  0.7521E+01  0.1637E+02  0.1150E+02  0.1150E+02
     -6.273  0.0000E+00  0.0000E+00  0.1150E+02  0.1150E+02
     -6.214  0.1528E-08  0.0000E+00  0.1150E+02  0.1150E+02
     -6.155  0.6764E+01  0.1949E+01  0.1190E+02  0.1161E+02
     -6.096  0.1724E+01  0.6539E+01  0.1200E+02  0.1200E+02
     -6.037  0.0000E+00  0.0000E+00  0.1200E+02  0.1200E+02
     -5.978  0.0000E+00  0.0000E+00  0.1200E+02  0.1200E+02
     -5.920  0.0000E+00  0.0000E+00  0.1200E+02  0.1200E+02
     -5.861  0.0000E+00  0.0000E+00  0.1200E+02  0.1200E+02
     -5.802  0.9897E-08  0.6910E-14  0.1200E+02  0.1200E+02
     -5.743  0.4349E+01  0.2254E+01  0.1226E+02  0.1213E+02
     -5.684  0.1109E+02  0.7353E+01  0.1291E+02  0.1257E+02
     -5.625  0.1003E+02  0.1585E+02  0.1350E+02  0.1350E+02
     -5.566  0.3926E-14  0.0000E+00  0.1350E+02  0.1350E+02
     -5.507  0.6383E+01  0.2659E+00  0.1388E+02  0.1352E+02
     -5.448  0.1059E+02  0.1671E+02  0.1450E+02  0.1450E+02
     -5.389  0.4485E+00  0.1049E-02  0.1453E+02  0.1450E+02
     -5.330  0.2381E+01  0.2828E+01  0.1467E+02  0.1467E+02
     -5.272  0.1857E+02  0.8343E+01  0.1576E+02  0.1516E+02
     -5.213  0.1103E+02  0.1838E+02  0.1641E+02  0.1624E+02
     -5.154  0.5468E+01  0.5478E+01  0.1673E+02  0.1656E+02
     -5.095  0.4539E+01  0.7407E+01  0.1700E+02  0.1700E+02
     -5.036  0.2482E+01  0.3637E+00  0.1715E+02  0.1702E+02
     -4.977  0.1267E+02  0.1261E+02  0.1789E+02  0.1776E+02
     -4.918  0.1402E+02  0.6762E+01  0.1872E+02  0.1816E+02
     -4.859  0.4691E+01  0.1317E+02  0.1900E+02  0.1894E+02
     -4.800  0.7646E+01  0.5881E+01  0.1945E+02  0.1928E+02
     -4.741  0.1514E+02  0.1421E+02  0.2034E+02  0.2012E+02
     -4.682  0.1246E+02  0.1289E+02  0.2107E+02  0.2088E+02
     -4.624  0.1010E+02  0.1284E+02  0.2167E+02  0.2164E+02
     -4.565  0.4678E+01  0.1280E+01  0.2194E+02  0.2171E+02
     -4.506  0.1456E+02  0.1110E+02  0.2280E+02  0.2237E+02
     -4.447  0.1048E+02  0.1747E+02  0.2342E+02  0.2340E+02
     -4.388  0.1651E+02  0.1009E+02  0.2439E+02  0.2399E+02
     -4.329  0.2301E+02  0.1792E+02  0.2575E+02  0.2505E+02
     -4.270  0.1189E+02  0.2316E+02  0.2645E+02  0.2641E+02
     -4.211  0.7542E+01  0.4582E+01  0.2689E+02  0.2668E+02
     -4.152  0.2672E+02  0.2001E+02  0.2846E+02  0.2786E+02
     -4.093  0.2805E+02  0.3322E+02  0.3012E+02  0.2982E+02
     -4.035  0.1205E+02  0.1175E+02  0.3083E+02  0.3051E+02
     -3.976  0.1039E+02  0.1246E+02  0.3144E+02  0.3124E+02
     -3.917  0.3112E+02  0.2758E+02  0.3327E+02  0.3287E+02
     -3.858  0.8171E+01  0.1488E+02  0.3375E+02  0.3374E+02
     -3.799  0.1002E+02  0.9535E+01  0.3434E+02  0.3430E+02
     -3.740  0.1356E+02  0.9925E+01  0.3514E+02  0.3489E+02
     -3.681  0.1947E+02  0.1705E+02  0.3629E+02  0.3589E+02
     -3.622  0.1462E+02  0.1639E+02  0.3715E+02  0.3686E+02
     -3.563  0.1496E+02  0.1754E+02  0.3803E+02  0.3789E+02
     -3.504  0.2148E+02  0.2064E+02  0.3930E+02  0.3911E+02
     -3.445  0.6036E+01  0.8244E+01  0.3965E+02  0.3959E+02
     -3.387  0.1141E+02  0.9115E+01  0.4033E+02  0.4013E+02
     -3.328  0.1017E+02  0.9387E+01  0.4092E+02  0.4068E+02
     -3.269  0.1356E+02  0.1492E+02  0.4172E+02  0.4156E+02
     -3.210  0.9472E+01  0.7170E+01  0.4228E+02  0.4199E+02
     -3.151  0.1841E+02  0.1630E+02  0.4337E+02  0.4295E+02
     -3.092  0.1710E+02  0.1984E+02  0.4437E+02  0.4411E+02
     -3.033  0.1866E+02  0.2085E+02  0.4547E+02  0.4534E+02
     -2.974  0.1392E+02  0.1319E+02  0.4629E+02  0.4612E+02
     -2.915  0.1323E+02  0.1312E+02  0.4707E+02  0.4689E+02
     -2.856  0.1208E+02  0.1130E+02  0.4778E+02  0.4756E+02
     -2.797  0.1904E+02  0.1838E+02  0.4890E+02  0.4864E+02
     -2.739  0.1569E+02  0.1553E+02  0.4983E+02  0.4956E+02
     -2.680  0.1216E+02  0.1251E+02  0.5055E+02  0.5029E+02
     -2.621  0.2705E+01  0.6321E+01  0.5071E+02  0.5067E+02
     -2.562  0.4834E+01  0.3596E+01  0.5099E+02  0.5088E+02
     -2.503  0.1466E+02  0.1094E+02  0.5185E+02  0.5152E+02
     -2.444  0.9503E+01  0.1271E+02  0.5241E+02  0.5227E+02
     -2.385  0.1802E+02  0.1451E+02  0.5347E+02  0.5313E+02
     -2.326  0.2701E+02  0.2628E+02  0.5507E+02  0.5467E+02
     -2.267  0.1515E+02  0.1523E+02  0.5596E+02  0.5557E+02
     -2.208  0.1492E+02  0.2070E+02  0.5684E+02  0.5679E+02
     -2.149  0.1869E+02  0.1320E+02  0.5794E+02  0.5757E+02
     -2.091  0.1738E+02  0.1674E+02  0.5896E+02  0.5855E+02
     -2.032  0.1058E+02  0.1654E+02  0.5959E+02  0.5953E+02
     -1.973  0.1793E+02  0.1405E+02  0.6064E+02  0.6036E+02
     -1.914  0.4637E+01  0.8061E+01  0.6092E+02  0.6083E+02
     -1.855  0.6934E+01  0.5611E+01  0.6132E+02  0.6116E+02
     -1.796  0.7303E+01  0.9923E+01  0.6175E+02  0.6175E+02
     -1.737  0.1036E+02  0.6936E+01  0.6236E+02  0.6216E+02
     -1.678  0.1477E+02  0.1387E+02  0.6323E+02  0.6297E+02
     -1.619  0.9399E+01  0.9427E+01  0.6379E+02  0.6353E+02
     -1.560  0.1267E+02  0.1375E+02  0.6453E+02  0.6434E+02
     -1.501  0.7758E+01  0.9311E+01  0.6499E+02  0.6489E+02
     -1.443  0.1109E+02  0.7365E+01  0.6564E+02  0.6532E+02
     -1.384  0.1500E+02  0.1572E+02  0.6653E+02  0.6625E+02
     -1.325  0.2757E+02  0.2503E+02  0.6815E+02  0.6772E+02
     -1.266  0.1632E+02  0.2314E+02  0.6911E+02  0.6908E+02
     -1.207  0.1773E+02  0.1481E+02  0.7016E+02  0.6996E+02
     -1.148  0.1469E+02  0.1379E+02  0.7102E+02  0.7077E+02
     -1.089  0.4346E+01  0.5473E+01  0.7128E+02  0.7109E+02
     -1.030  0.2094E+02  0.1531E+02  0.7251E+02  0.7199E+02
     -0.971  0.1909E+02  0.2284E+02  0.7364E+02  0.7334E+02
     -0.912  0.6397E+01  0.1108E+02  0.7401E+02  0.7399E+02
     -0.853  0.1489E+02  0.1195E+02  0.7489E+02  0.7469E+02
     -0.795  0.2400E+02  0.1905E+02  0.7631E+02  0.7582E+02
     -0.736  0.8964E+01  0.1725E+02  0.7683E+02  0.7683E+02
     -0.677  0.2262E+01  0.2014E+00  0.7697E+02  0.7685E+02
     -0.618  0.1158E+02  0.1050E+02  0.7765E+02  0.7746E+02
     -0.559  0.1237E+02  0.1367E+02  0.7838E+02  0.7827E+02
     -0.500  0.1712E+02  0.1576E+02  0.7939E+02  0.7920E+02
     -0.441  0.2170E+02  0.2053E+02  0.8066E+02  0.8041E+02
     -0.382  0.1097E+02  0.1112E+02  0.8131E+02  0.8106E+02
     -0.323  0.2107E+02  0.1688E+02  0.8255E+02  0.8206E+02
     -0.264  0.3670E+02  0.3067E+02  0.8471E+02  0.8386E+02
     -0.206  0.9951E+01  0.2227E+02  0.8530E+02  0.8518E+02
     -0.147  0.7717E+01  0.9196E+01  0.8576E+02  0.8572E+02
     -0.088  0.1926E+02  0.1171E+02  0.8689E+02  0.8641E+02
     -0.029  0.1766E+02  0.1910E+02  0.8793E+02  0.8753E+02
      0.030  0.1047E+02  0.1449E+02  0.8855E+02  0.8839E+02
      0.089  0.2091E+02  0.1708E+02  0.8978E+02  0.8939E+02
      0.148  0.8626E+01  0.1128E+02  0.9029E+02  0.9006E+02
      0.207  0.1356E+02  0.1306E+02  0.9109E+02  0.9083E+02
      0.266  0.1807E+02  0.1162E+02  0.9215E+02  0.9151E+02
      0.325  0.1913E+02  0.2270E+02  0.9328E+02  0.9285E+02
      0.384  0.1200E+02  0.1410E+02  0.9398E+02  0.9368E+02
      0.442  0.1543E+02  0.1339E+02  0.9489E+02  0.9447E+02
      0.501  0.1996E+02  0.2310E+02  0.9607E+02  0.9583E+02
      0.560  0.1502E+02  0.1549E+02  0.9695E+02  0.9674E+02
      0.619  0.2998E+02  0.2332E+02  0.9872E+02  0.9811E+02
      0.678  0.1287E+02  0.2030E+02  0.9948E+02  0.9931E+02
      0.737  0.5951E+01  0.7486E+01  0.9983E+02  0.9975E+02
      0.796  0.1829E+02  0.1630E+02  0.1009E+03  0.1007E+03
      0.855  0.1175E+02  0.1081E+02  0.1016E+03  0.1013E+03
      0.914  0.1539E+02  0.1800E+02  0.1025E+03  0.1024E+03
      0.973  0.1661E+02  0.1451E+02  0.1035E+03  0.1033E+03
      1.032  0.1359E+02  0.1268E+02  0.1043E+03  0.1040E+03
      1.090  0.2848E+02  0.3000E+02  0.1060E+03  0.1058E+03
      1.149  0.1533E+02  0.1606E+02  0.1069E+03  0.1067E+03
      1.208  0.1394E+02  0.1269E+02  0.1077E+03  0.1075E+03
      1.267  0.1072E+02  0.1212E+02  0.1083E+03  0.1082E+03
      1.326  0.2088E+02  0.1885E+02  0.1095E+03  0.1093E+03
      1.385  0.2174E+02  0.2244E+02  0.1108E+03  0.1106E+03
      1.444  0.2206E+02  0.2106E+02  0.1121E+03  0.1119E+03
      1.503  0.5881E+01  0.8034E+01  0.1125E+03  0.1123E+03
      1.562  0.1438E+02  0.1168E+02  0.1133E+03  0.1130E+03
      1.621  0.1969E+02  0.1900E+02  0.1145E+03  0.1141E+03
      1.680  0.1380E+02  0.1389E+02  0.1153E+03  0.1150E+03
      1.738  0.1596E+02  0.1860E+02  0.1162E+03  0.1161E+03
      1.797  0.1623E+02  0.1106E+02  0.1172E+03  0.1167E+03
      1.856  0.1580E+02  0.2050E+02  0.1181E+03  0.1179E+03
      1.915  0.1049E+02  0.1088E+02  0.1187E+03  0.1186E+03
      1.974  0.1161E+02  0.8477E+01  0.1194E+03  0.1191E+03
      2.033  0.2169E+02  0.1797E+02  0.1207E+03  0.1201E+03
      2.092  0.1406E+02  0.1885E+02  0.1215E+03  0.1212E+03
      2.151  0.1837E+02  0.2062E+02  0.1226E+03  0.1224E+03
      2.210  0.2030E+02  0.2002E+02  0.1238E+03  0.1236E+03
      2.269  0.1315E+02  0.1124E+02  0.1246E+03  0.1243E+03
      2.328  0.2326E+02  0.2227E+02  0.1260E+03  0.1256E+03
      2.386  0.3851E+02  0.2964E+02  0.1282E+03  0.1273E+03
      2.445  0.2053E+02  0.2944E+02  0.1294E+03  0.1291E+03
      2.504  0.1972E+02  0.1815E+02  0.1306E+03  0.1301E+03
      2.563  0.3266E+02  0.3369E+02  0.1325E+03  0.1321E+03
      2.622  0.3227E+02  0.2379E+02  0.1344E+03  0.1335E+03
      2.681  0.2626E+02  0.3784E+02  0.1360E+03  0.1358E+03
      2.740  0.1875E+02  0.1718E+02  0.1371E+03  0.1368E+03
      2.799  0.3021E+02  0.2963E+02  0.1388E+03  0.1385E+03
      2.858  0.2613E+02  0.1869E+02  0.1404E+03  0.1396E+03
      2.917  0.3392E+02  0.3912E+02  0.1424E+03  0.1419E+03
      2.976  0.1694E+02  0.2073E+02  0.1434E+03  0.1431E+03
      3.034  0.2580E+02  0.2501E+02  0.1449E+03  0.1446E+03
      3.093  0.1558E+02  0.1891E+02  0.1458E+03  0.1457E+03
      3.152  0.2569E+02  0.2367E+02  0.1473E+03  0.1471E+03
      3.211  0.4200E+02  0.3643E+02  0.1498E+03  0.1493E+03
      3.270  0.2323E+02  0.2974E+02  0.1512E+03  0.1510E+03
      3.329  0.2862E+02  0.2070E+02  0.1529E+03  0.1522E+03
      3.388  0.2951E+02  0.3387E+02  0.1546E+03  0.1542E+03
      3.447  0.2081E+02  0.1656E+02  0.1558E+03  0.1552E+03
      3.506  0.3079E+02  0.3247E+02  0.1576E+03  0.1571E+03
      3.565  0.2638E+02  0.2443E+02  0.1592E+03  0.1586E+03
      3.623  0.3051E+02  0.3390E+02  0.1610E+03  0.1606E+03
      3.682  0.9553E+01  0.1407E+02  0.1616E+03  0.1614E+03
      3.741  0.2434E+02  0.1893E+02  0.1630E+03  0.1625E+03
      3.800  0.2904E+02  0.2949E+02  0.1647E+03  0.1642E+03
      3.859  0.1588E+02  0.1830E+02  0.1656E+03  0.1653E+03
      3.918  0.3590E+02  0.2706E+02  0.1678E+03  0.1669E+03
      3.977  0.2106E+02  0.3289E+02  0.1690E+03  0.1688E+03
      4.036  0.1220E+02  0.7986E+01  0.1697E+03  0.1693E+03
      4.095  0.2766E+02  0.2510E+02  0.1713E+03  0.1708E+03
      4.154  0.1604E+02  0.2427E+02  0.1723E+03  0.1722E+03
      4.213  0.1542E+02  0.1372E+02  0.1732E+03  0.1730E+03
      4.271  0.1039E+02  0.9496E+01  0.1738E+03  0.1736E+03
      4.330  0.1135E+02  0.6936E+01  0.1745E+03  0.1740E+03
      4.389  0.2506E+02  0.2664E+02  0.1760E+03  0.1756E+03
      4.448  0.1715E+02  0.1902E+02  0.1770E+03  0.1767E+03
      4.507  0.1703E+02  0.1693E+02  0.1780E+03  0.1777E+03
      4.566  0.1113E+02  0.1314E+02  0.1786E+03  0.1785E+03
      4.625  0.7334E+01  0.4960E+01  0.1791E+03  0.1788E+03
      4.684  0.2144E+02  0.1746E+02  0.1803E+03  0.1798E+03
      4.743  0.2219E+02  0.2477E+02  0.1816E+03  0.1812E+03
      4.802  0.1806E+02  0.1684E+02  0.1827E+03  0.1822E+03
      4.861  0.1392E+02  0.1638E+02  0.1835E+03  0.1832E+03
      4.919  0.1492E+02  0.1398E+02  0.1844E+03  0.1840E+03
      4.978  0.1584E+02  0.1558E+02  0.1853E+03  0.1849E+03
      5.037  0.1271E+02  0.1773E+02  0.1861E+03  0.1860E+03
      5.096  0.1870E+02  0.1433E+02  0.1872E+03  0.1868E+03
      5.155  0.2208E+02  0.2191E+02  0.1885E+03  0.1881E+03
      5.214  0.1790E+02  0.1310E+02  0.1895E+03  0.1889E+03
      5.273  0.2019E+02  0.2443E+02  0.1907E+03  0.1903E+03
      5.332  0.1754E+02  0.1900E+02  0.1917E+03  0.1915E+03
      5.391  0.1009E+02  0.7643E+01  0.1923E+03  0.1919E+03
      5.450  0.2656E+02  0.2395E+02  0.1939E+03  0.1933E+03
      5.509  0.2775E+02  0.2601E+02  0.1955E+03  0.1948E+03
      5.567  0.1580E+02  0.2302E+02  0.1965E+03  0.1962E+03
      5.626  0.1995E+02  0.1820E+02  0.1976E+03  0.1973E+03
      5.685  0.2200E+02  0.2274E+02  0.1989E+03  0.1986E+03
      5.744  0.2202E+02  0.2512E+02  0.2002E+03  0.2001E+03
      5.803  0.3458E+02  0.2303E+02  0.2023E+03  0.2015E+03
      5.862  0.2060E+02  0.2641E+02  0.2035E+03  0.2030E+03
      5.921  0.3793E+02  0.3109E+02  0.2057E+03  0.2048E+03
      5.980  0.2467E+02  0.3357E+02  0.2072E+03  0.2068E+03
      6.039  0.2473E+02  0.2261E+02  0.2086E+03  0.2081E+03
      6.098  0.2510E+02  0.2314E+02  0.2101E+03  0.2095E+03
      6.157  0.2768E+02  0.2951E+02  0.2117E+03  0.2113E+03
      6.215  0.2822E+02  0.2187E+02  0.2134E+03  0.2125E+03
      6.274  0.2881E+02  0.3228E+02  0.2151E+03  0.2144E+03
      6.333  0.2913E+02  0.3040E+02  0.2168E+03  0.2162E+03
      6.392  0.2119E+02  0.2723E+02  0.2181E+03  0.2178E+03
      6.451  0.1451E+02  0.1101E+02  0.2189E+03  0.2185E+03
      6.510  0.4083E+02  0.3993E+02  0.2213E+03  0.2208E+03
      6.569  0.1798E+02  0.2158E+02  0.2224E+03  0.2221E+03
      6.628  0.2799E+02  0.2773E+02  0.2240E+03  0.2237E+03
      6.687  0.2464E+02  0.2104E+02  0.2255E+03  0.2250E+03
      6.746  0.3489E+02  0.3244E+02  0.2275E+03  0.2269E+03
      6.805  0.1484E+02  0.2021E+02  0.2284E+03  0.2281E+03
      6.863  0.1848E+02  0.1938E+02  0.2295E+03  0.2292E+03
      6.922  0.3019E+02  0.2900E+02  0.2313E+03  0.2309E+03
      6.981  0.1028E+02  0.1103E+02  0.2319E+03  0.2316E+03
      7.040  0.1831E+01  0.7097E+01  0.2320E+03  0.2320E+03
      7.099  0.0000E+00  0.0000E+00  0.2320E+03  0.2320E+03
      7.158  0.0000E+00  0.0000E+00  0.2320E+03  0.2320E+03
      7.217  0.0000E+00  0.0000E+00  0.2320E+03  0.2320E+03
      7.276  0.0000E+00  0.0000E+00  0.2320E+03  0.2320E+03
      7.335  0.0000E+00  0.0000E+00  0.2320E+03  0.2320E+03
      7.394  0.0000E+00  0.0000E+00  0.2320E+03  0.2320E+03
      7.452  0.0000E+00  0.0000E+00  0.2320E+03  0.2320E+03
      7.511  0.0000E+00  0.0000E+00  0.2320E+03  0.2320E+03
      7.570  0.0000E+00  0.0000E+00  0.2320E+03  0.2320E+03
      7.629  0.0000E+00  0.0000E+00  0.2320E+03  0.2320E+03
      7.688  0.0000E+00  0.0000E+00  0.2320E+03  0.2320E+03
      7.747  0.0000E+00  0.0000E+00  0.2320E+03  0.2320E+03
      7.806  0.0000E+00  0.0000E+00  0.2320E+03  0.2320E+03
