 vasp.6.4.3 19Mar24 (build Oct 22 2024 11:23:12) complex                        
  
 executed on             LinuxIFC date 2025.06.04  01:03:12
 running   64 mpi-ranks, on    4 nodes
 distrk:  each k-point on   64 cores,    1 groups
 distr:  one band on NCORE=  16 cores,    4 groups


--------------------------------------------------------------------------------------------------------


 INCAR:
   SYSTEM = Si and Ge interface calculation
   ISTART = 0
   ICHARG = 2
   LWAVE = .FALSE.
   LREAL = AUTO
   ENCUT = 700
   ENAUG = 900
   ADDGRID = .TRUE.
   LMAXMIX = 6
   LASPH = .TRUE.
   LMIXTAU = .TRUE.
   NCORE = 16
   NELM = 100
   NBANDS = 116
   EDIFF = 1d-7
   AMIX = 0.6
   ISMEAR = 0
   SIGMA = 0.01
   NELECT = 192
   ISPIN = 2
   NUPDOWN = 1
   LVTOT = .FALSE.
   LVHAR = .TRUE.

 POTCAR:    PAW_PBE Sn 08Apr2002                  
 -----------------------------------------------------------------------------
|                                                                             |
|           W    W    AA    RRRRR   N    N  II  N    N   GGGG   !!!           |
|           W    W   A  A   R    R  NN   N  II  NN   N  G    G  !!!           |
|           W    W  A    A  R    R  N N  N  II  N N  N  G       !!!           |
|           W WW W  AAAAAA  RRRRR   N  N N  II  N  N N  G  GGG   !            |
|           WW  WW  A    A  R   R   N   NN  II  N   NN  G    G                |
|           W    W  A    A  R    R  N    N  II  N    N   GGGG   !!!           |
|                                                                             |
|     You use a magnetic or noncollinear calculation, but did not specify     |
|     the initial magnetic moment with the MAGMOM tag. Note that a            |
|     default of 0.021 will be used for all atoms. This ferromagnetic         |
|     setup may break the symmetry of the crystal, in particular it may       |
|     rule out finding an antiferromagnetic solution. Thence, we              |
|     recommend setting the initial magnetic moment manually or verifying     |
|     carefully that this magnetic setup is desired.                          |
|                                                                             |
 -----------------------------------------------------------------------------

 POTCAR:    PAW_PBE Sn 08Apr2002                  
   VRHFIN =Sn: s2p2                                                                                 
   LEXCH  = PE                                                                                      
   EATOM  =    94.0860 eV,    6.9151 Ry                                                             
                                                                                                    
   TITEL  = PAW_PBE Sn 08Apr2002                                                                    
   LULTRA =        F    use ultrasoft PP ?                                                          
   IUNSCR =        1    unscreen: 0-lin 1-nonlin 2-no                                               
   RPACOR =    2.000    partial core radius                                                         
   POMASS =  118.710; ZVAL   =    4.000    mass and valenz                                          
   RCORE  =    3.000    outmost cutoff radius                                                       
   RWIGS  =    2.960; RWIGS  =    1.566    wigner-seitz radius (au A)                               
   ENMAX  =  103.236; ENMIN  =   77.427 eV                                                          
   ICORE  =        3    local potential                                                             
   LCOR   =        T    correct aug charges                                                         
   LPAW   =        T    paw PP                                                                      
   EAUG   =  263.585                                                                                
   DEXC   =    0.000                                                                                
   RMAX   =    3.078    core radius for proj-oper                                                   
   RAUG   =    1.300    factor for augmentation sphere                                              
   RDEP   =    3.022    radius for radial grids                                                     
   RDEPT  =    2.655    core radius for aug-charge                                                  
                                                                                                    
   Atomic configuration                                                                             
   13 entries                                                                                       
     n  l   j            E        occ.                                                              
     1  0  0.50    -29007.2859   2.0000                                                             
     2  0  0.50     -4378.8056   2.0000                                                             
     2  1  1.50     -3930.4293   6.0000                                                             
     3  0  0.50      -845.0264   2.0000                                                             
     3  1  1.50      -698.5725   6.0000                                                             
     3  2  2.50      -473.2839  10.0000                                                             
     4  0  0.50      -133.9036   2.0000                                                             
     4  1  1.50       -89.6752   6.0000                                                             
     4  2  2.50       -25.8375  10.0000                                                             
     5  0  0.50       -10.5484   2.0000                                                             
     5  1  0.50        -3.6940   2.0000                                                             
     5  2  1.50        -1.3606   0.0000                                                             
     4  3  2.50        -4.0817   0.0000                                                             
   Description                                                                                      
     l       E           TYP  RCUT    TYP  RCUT                                                     
     0    -10.5483727     23  3.000                                                                 
     0     27.2116520     23  3.000                                                                 
     1     -3.6939829     23  3.000                                                                 
     1      1.9821976     23  3.000                                                                 
     2     -1.3605826     23  3.000                                                                 
     3     -2.7211652     23  3.000                                                                 
  local pseudopotential read in
  partial core-charges read in
  partial kinetic energy density read in
  atomic valenz-charges read in
  non local Contribution for L=           0  read in
    real space projection operators read in
  non local Contribution for L=           0  read in
    real space projection operators read in
  non local Contribution for L=           1  read in
    real space projection operators read in
  non local Contribution for L=           1  read in
    real space projection operators read in
  non local Contribution for L=           2  read in
    real space projection operators read in
    PAW grid and wavefunctions read in
 
   number of l-projection  operators is LMAX  =           5
   number of lm-projection operators is LMMAX =          13
 
 Optimization of the real space projectors (new method)

 maximal supplied QI-value         = 12.47
 optimisation between [QCUT,QGAM] = [ 12.47, 27.06] = [ 43.56,205.12] Ry 
 Optimized for a Real-space Cutoff    1.58 Angstroem

   l    n(q)    QCUT    max X(q) W(low)/X(q) W(high)/X(q)  e(spline) 
   0     13    12.472    14.688    0.45E-04    0.45E-04    0.25E-05
   0     13    12.472     7.308    0.94E-04    0.11E-03    0.61E-05
   1     12    12.472    45.102    0.34E-03    0.14E-03    0.21E-05
   1     12    12.472    30.691    0.31E-03    0.13E-03    0.20E-05
   2     12    12.472     7.156    0.86E-04    0.11E-03    0.17E-05
 WARNING: PSMAXN for non-local potential too small
          PSMAXN should be >   13.5545592237991       NTYP=           1
  PAW_PBE Sn 08Apr2002                  :
 energy of atom  1       EATOM=  -94.0860
 kinetic energy error for atom=    0.0000 (will be added to EATOM!!)
 
 
 POSCAR: Sn+Sn
  positions in direct lattice
  No initial velocities read in


 exchange-correlation table for PE
   RHO(1)=    0.500       N(1)  =     2000
   RHO(2)=  100.500       N(2)  =     4000
 


--------------------------------------------------------------------------------------------------------


 ion  position               nearest neighbor table
   1  0.005  0.995  0.000-  37 2.75  34 2.81  10 2.81  47 2.95  46 3.15  43 3.54  15 3.55  30 3.55

   2  0.172  0.828  0.300-  35 2.81  16 2.81  11 2.81  34 2.81
   3  0.338  0.662  0.600-  17 2.81  12 2.81  35 2.81  36 2.81
   4  0.672  0.328  0.000-  44 2.17  38 2.60  48 2.81  13 2.81  28 2.81  41 3.07  45 3.24  39 3.55
                            33 3.55  18 3.55
   5  0.838  0.162  0.300-  10 2.81  29 2.81  14 2.81  28 2.81
   6  0.005  0.995  0.600-  37 1.70  11 2.81  15 2.81  29 2.81  30 2.81  46 3.15  43 3.54
   7  0.338  0.662  0.000-  42 1.26  31 2.81  16 2.81  45 3.30  36 3.55  12 3.55  48 3.68
   8  0.505  0.495  0.300-  13 2.81  32 2.81  17 2.81  31 2.81  45 3.27
   9  0.672  0.328  0.600-  14 2.81  32 2.81  33 2.81  18 2.81  38 3.38  44 3.75  41 3.75
  10  0.088  0.162  0.150-  47 2.75   1 2.81   5 2.81  22 2.81  23 2.81
  11  0.255  0.995  0.450-   6 2.81  23 2.81  24 2.81   2 2.81
  12  0.422  0.828  0.750-  43 2.40  40 2.74   3 2.81  24 2.81  46 2.90   7 3.55  19 3.55
  13  0.755  0.495  0.150-  39 2.49  48 2.60   8 2.81   4 2.81  25 2.81  26 2.81  45 3.07
  14  0.922  0.328  0.450-   9 2.81  26 2.81   5 2.81  27 2.81
  15  0.088  0.162  0.750-  47 1.70  37 1.88  27 2.81   6 2.81  41 3.01  38 3.42   1 3.55  22 3.55

  16  0.422  0.828  0.150-  19 2.81   2 2.81  20 2.81   7 2.81
  17  0.588  0.662  0.450-   3 2.81  20 2.81  21 2.81   8 2.81
  18  0.755  0.495  0.750-  39 2.49  21 2.81   9 2.81  48 3.38  38 3.48  25 3.55   4 3.55  45 3.75

  19  0.505  0.995  0.000-  40 2.75  28 2.81  16 2.81  44 2.95  43 3.15  46 3.54  33 3.55  12 3.55

  20  0.672  0.828  0.300-  29 2.81  17 2.81  34 2.81  16 2.81
  21  0.838  0.662  0.600-  35 2.81  18 2.81  30 2.81  17 2.81
  22  0.172  0.328  0.000-  47 2.17  41 2.60  45 2.81  31 2.81  10 2.81  38 3.07  48 3.24  42 3.55
                            15 3.55  36 3.55
  23  0.338  0.162  0.300-  28 2.81  11 2.81  32 2.81  10 2.81
  24  0.505  0.995  0.600-  40 1.70  29 2.81  33 2.81  11 2.81  12 2.81  43 3.15  46 3.54
  25  0.838  0.662  0.000-  39 1.26  13 2.81  34 2.81  48 3.30  18 3.55  30 3.55  45 3.68
  26  0.005  0.495  0.300-  31 2.81  14 2.81  13 2.81  35 2.81  48 3.27
  27  0.172  0.328  0.600-  32 2.81  15 2.81  14 2.81  36 2.81  41 3.38  47 3.75  38 3.75
  28  0.588  0.162  0.150-  44 2.75  19 2.81  23 2.81   4 2.81   5 2.81
  29  0.755  0.995  0.450-  24 2.81  20 2.81   5 2.81   6 2.81
  30  0.922  0.828  0.750-  46 2.40  37 2.74  21 2.81   6 2.81  43 2.90  25 3.55   1 3.55
  31  0.255  0.495  0.150-  42 2.49  45 2.60  26 2.81   7 2.81  22 2.81   8 2.81  48 3.07
  32  0.422  0.328  0.450-  27 2.81   8 2.81  23 2.81   9 2.81
  33  0.588  0.162  0.750-  44 1.70  40 1.88  24 2.81   9 2.81  38 3.01  41 3.42  19 3.55   4 3.55

  34  0.922  0.828  0.150-   1 2.81  20 2.81   2 2.81  25 2.81
  35  0.088  0.662  0.450-   2 2.81  21 2.81   3 2.81  26 2.81
  36  0.255  0.495  0.750-  42 2.49   3 2.81  27 2.81  45 3.38  41 3.48   7 3.55  22 3.55  48 3.75

  37  0.989  0.027  0.750-   6 1.70  15 1.88  30 2.74   1 2.75  47 2.81  46 2.81  43 2.81
  38  0.878  0.304  0.850-   4 2.60  48 2.81  44 2.81  47 2.81  33 3.01  22 3.07   9 3.38  15 3.42
                            18 3.48  27 3.75
  39  0.767  0.582  0.950-  25 1.26  13 2.49  18 2.49  48 2.81  45 2.81   4 3.55
  40  0.489  0.027  0.750-  24 1.70  33 1.88  12 2.74  19 2.75  44 2.81  46 2.81  43 2.81
  41  0.378  0.304  0.850-  22 2.60  47 2.81  44 2.81  45 2.81  15 3.01   4 3.07  27 3.38  33 3.42
                            36 3.48   9 3.75
  42  0.267  0.582  0.950-   7 1.26  31 2.49  36 2.49  45 2.81  48 2.81  22 3.55
  43  0.684  0.915  0.800-  12 2.40  40 2.81  37 2.81  30 2.90  19 3.15  24 3.15   1 3.54   6 3.54

  44  0.573  0.193  0.900-  33 1.70   4 2.17  28 2.75  40 2.81  41 2.81  38 2.81  19 2.95   9 3.75

  45  0.462  0.471  0.000-  31 2.60  22 2.81  42 2.81  39 2.81  41 2.81  13 3.07   4 3.24   8 3.27
                             7 3.30  36 3.38  25 3.68  18 3.75
  46  0.184  0.915  0.800-  30 2.40  37 2.81  40 2.81  12 2.90   1 3.15   6 3.15  19 3.54  24 3.54

  47  0.073  0.193  0.900-  15 1.70  22 2.17  10 2.75  37 2.81  41 2.81  38 2.81   1 2.95  27 3.75

  48  0.962  0.471  0.000-  13 2.60   4 2.81  39 2.81  42 2.81  38 2.81  31 3.07  22 3.24  26 3.27
                            25 3.30  18 3.38   7 3.68  36 3.75
 
 -----------------------------------------------------------------------------
|                                                                             |
|           W    W    AA    RRRRR   N    N  II  N    N   GGGG   !!!           |
|           W    W   A  A   R    R  NN   N  II  NN   N  G    G  !!!           |
|           W    W  A    A  R    R  N N  N  II  N N  N  G       !!!           |
|           W WW W  AAAAAA  RRRRR   N  N N  II  N  N N  G  GGG   !            |
|           WW  WW  A    A  R   R   N   NN  II  N   NN  G    G                |
|           W    W  A    A  R    R  N    N  II  N    N   GGGG   !!!           |
|                                                                             |
|     The distance between some ions is very small. Please check the          |
|     nearest-neighbor list in the OUTCAR file.                               |
|     I HOPE YOU KNOW WHAT YOU ARE DOING!                                     |
|                                                                             |
 -----------------------------------------------------------------------------

  LATTYP: Found a base centered orthorhombic cell.
 ALAT       =     9.1771144870
 B/A-ratio  =     3.0000002078
 C/A-ratio  =     1.1785113263
  
  Lattice vectors:
  
 A1 = (   4.5885577200, -13.7656726840,   0.0000000000)
 A2 = (   4.5885567670,  13.7656726840,   0.0000000000)
 A3 = (   0.0000000000,   0.0000000000,  10.8153333660)


Analysis of symmetry for initial positions (statically):
=====================================================================
 Subroutine PRICEL returns following result:
 
  LATTYP: Found a simple orthorhombic cell.
 ALAT       =     4.5885570783
 B/A-ratio  =     2.3570227375
 C/A-ratio  =     3.0000003158
  
  Lattice vectors:
  
 A1 = (  -4.5885570783,   0.0000000000,   0.0000000000)
 A2 = (   0.0000000000,   0.0000000000,  10.8153333660)
 A3 = (  -0.0000006417,  13.7656726840,   0.0000000000)
 
   2 primitive cells build up your supercell.
 

 Routine SETGRP: Setting up the symmetry group for a 
 base centered orthorhombic supercell.


 Subroutine GETGRP returns: Found  1 space group operations
 (whereof  1 operations were pure point group operations)
 out of a pool of  8 trial point group operations.


The static configuration has the point symmetry C_1 .


Analysis of symmetry for dynamics (positions and initial velocities):
=====================================================================
 Subroutine PRICEL returns following result:
 
  LATTYP: Found a simple orthorhombic cell.
 ALAT       =     4.5885570783
 B/A-ratio  =     2.3570227375
 C/A-ratio  =     3.0000003158
  
  Lattice vectors:
  
 A1 = (  -4.5885570783,   0.0000000000,   0.0000000000)
 A2 = (   0.0000000000,   0.0000000000,  10.8153333660)
 A3 = (  -0.0000006417,  13.7656726840,   0.0000000000)
 
   2 primitive cells build up your supercell.
 

 Routine SETGRP: Setting up the symmetry group for a 
 base centered orthorhombic supercell.


 Subroutine GETGRP returns: Found  1 space group operations
 (whereof  1 operations were pure point group operations)
 out of a pool of  8 trial point group operations.


The dynamic configuration has the point symmetry C_1 .


Analysis of structural, dynamic, and magnetic symmetry:
=====================================================================
 Subroutine PRICEL returns following result:
 
  LATTYP: Found a simple orthorhombic cell.
 ALAT       =     4.5885570783
 B/A-ratio  =     2.3570227375
 C/A-ratio  =     3.0000003158
  
  Lattice vectors:
  
 A1 = (  -4.5885570783,   0.0000000000,   0.0000000000)
 A2 = (   0.0000000000,   0.0000000000,  10.8153333660)
 A3 = (  -0.0000006417,  13.7656726840,   0.0000000000)
 
   2 primitive cells build up your supercell.
 

 Routine SETGRP: Setting up the symmetry group for a 
 base centered orthorhombic supercell.


 Subroutine GETGRP returns: Found  1 space group operations
 (whereof  1 operations were pure point group operations)
 out of a pool of  8 trial point group operations.


The overall configuration has the point symmetry C_1 .


 Subroutine INISYM returns: Found  1 space group operations
 (whereof  1 operations are pure point group operations),
 and found     2 'primitive' translations


----------------------------------------------------------------------------------------

                                     Primitive cell                                     

  volume of cell :     683.1459

  direct lattice vectors                    reciprocal lattice vectors
    -4.588557078  0.000000000  0.000000000    -0.217933434 -0.000000010  0.000000000
     0.000000000  0.000000000 10.815333366     0.000000000  0.000000000  0.092461320
    -0.000000642 13.765672684  0.000000000     0.000000000  0.072644470  0.000000000

  length of vectors
     4.588557078 10.815333366 13.765672684     0.217933434  0.092461320  0.072644470

  position of ions in fractional coordinates (direct lattice)
     0.985105300  0.000000000  0.995035112
     0.485105145  0.300000042  0.828368425
     0.985105037  0.599999964  0.661701739
     0.985105233  0.000000000  0.328368425
     0.485105022  0.300000042  0.161701724
     0.985104978  0.599999964  0.995035112
     0.985105157  0.000000000  0.661701739
     0.485105156  0.300000042  0.495035052
     0.985105204  0.599999964  0.328368366
     0.985105211  0.149999991  0.161701739
     0.485105102  0.450000018  0.995035052
     0.985105032  0.750000060  0.828368366
     0.985105348  0.149999991  0.495035082
     0.485105449  0.450000018  0.328368425
     0.985105091  0.750000060  0.161701739
     0.985105151  0.149999991  0.828368485
     0.485105210  0.450000018  0.661701858
     0.985104834  0.750000060  0.495035142
     0.047768506  0.750000060  0.026538117
     0.547768650  0.850000143  0.304315925
     0.047768597  0.950000167  0.582093656
     0.547768639  0.800000131  0.915426910
     0.047768588  0.900000095  0.193204641
     0.547768644  0.000000119  0.470982671

  ion indices of the primitive-cell ions
   primitive index   ion index
                 1           1
                 2           2
                 3          21
                 4          22
                 5           5
                 6           6
                 7          25
                 8          26
                 9          27
                10          10
                11          29
                12          30
                13          31
                14          14
                15          15
                16          34
                17          35
                18          18
                19          37
                20          38
                21          39
                22          46
                23          47
                24          48

----------------------------------------------------------------------------------------

 
 
 KPOINTS: Automatic KPOINTS generated             

Automatic generation of k-mesh.
 Grid dimensions read from file:
 generate k-points for:    4    2    3

 Generating k-lattice:

  Cartesian coordinates                     Fractional coordinates (reciprocal lattice)
     0.027241678  0.009080560  0.000000000     0.250000000  0.000000000  0.000000000
     0.000000000  0.036322235  0.000000000     0.000000000  0.500000000  0.000000000
     0.000000000  0.000000000  0.030820440     0.000000000  0.000000000  0.333333333

  Length of vectors
     0.028715250  0.036322235  0.030820440

  Shift w.r.t. Gamma in fractional coordinates (k-lattice)
     0.000000000  0.000000000  0.000000000

 -----------------------------------------------------------------------------
|                                                                             |
|           W    W    AA    RRRRR   N    N  II  N    N   GGGG   !!!           |
|           W    W   A  A   R    R  NN   N  II  NN   N  G    G  !!!           |
|           W    W  A    A  R    R  N N  N  II  N N  N  G       !!!           |
|           W WW W  AAAAAA  RRRRR   N  N N  II  N  N N  G  GGG   !            |
|           WW  WW  A    A  R   R   N   NN  II  N   NN  G    G                |
|           W    W  A    A  R    R  N    N  II  N    N   GGGG   !!!           |
|                                                                             |
|     Your reciprocal lattice and k-lattice belong to different lattice       |
|     classes:                                                                |
|                                                                             |
|        The reciprocal lattice is base centered orthorhombic,                |
|        whereas your k-lattice is simple monoclinic.                         |
|                                                                             |
|     Results are often still useful ...                                      |
|                                                                             |
 -----------------------------------------------------------------------------

 WARNING: IBZKPT: internal override: KBLOWUP is changed to .FALSE.
      ... skipping the blow-up phase ...

 
 Subroutine IBZKPT returns following result:
 ===========================================
 
 Found     14 irreducible k-points:
 
 Following reciprocal coordinates:
            Coordinates               Weight
  0.000000  0.000000  0.000000      1.000000
  0.250000 -0.000000  0.000000      2.000000
  0.500000 -0.000000  0.000000      1.000000
  0.000000  0.500000  0.000000      1.000000
  0.250000  0.500000  0.000000      2.000000
  0.500000  0.500000  0.000000      1.000000
  0.000000  0.000000  0.333333      2.000000
  0.250000 -0.000000  0.333333      2.000000
  0.500000 -0.000000  0.333333      2.000000
 -0.250000  0.000000  0.333333      2.000000
  0.000000  0.500000  0.333333      2.000000
  0.250000  0.500000  0.333333      2.000000
  0.500000  0.500000  0.333333      2.000000
 -0.250000  0.500000  0.333333      2.000000
 
 Following cartesian coordinates:
            Coordinates               Weight
  0.000000  0.000000  0.000000      1.000000
  0.027242  0.009081  0.000000      2.000000
  0.054483  0.018161  0.000000      1.000000
  0.000000  0.036322  0.000000      1.000000
  0.027242  0.045403  0.000000      2.000000
  0.054483  0.054483  0.000000      1.000000
  0.000000  0.000000  0.030820      2.000000
  0.027242  0.009081  0.030820      2.000000
  0.054483  0.018161  0.030820      2.000000
 -0.027242 -0.009081  0.030820      2.000000
  0.000000  0.036322  0.030820      2.000000
  0.027242  0.045403  0.030820      2.000000
  0.054483  0.054483  0.030820      2.000000
 -0.027242  0.027242  0.030820      2.000000
 


--------------------------------------------------------------------------------------------------------




 Dimension of arrays:
   k-points           NKPTS =     14   k-points in BZ     NKDIM =     14   number of bands    NBANDS=    116
   number of dos      NEDOS =    301   number of ions     NIONS =     48
   non local maximal  LDIM  =      5   non local SUM 2l+1 LMDIM =     13
   total plane-waves  NPLWV = 403200
   max r-space proj   IRMAX =   4911   max aug-charges    IRDMAX= 227423
   dimension x,y,z NGX =    60 NGY =   96 NGZ =   70
   dimension x,y,z NGXF=   120 NGYF=  192 NGZF=  140
   support grid    NGXF=   240 NGYF=  384 NGZF=  280
   ions per type =              48
   NGX,Y,Z   is equivalent  to a cutoff of  10.87, 11.00, 10.76 a.u.
   NGXF,Y,Z  is equivalent  to a cutoff of  21.74, 22.00, 21.52 a.u.

 SYSTEM =  Si and Ge interface calculation         
 POSCAR =  Sn+Sn                                   

 Startparameter for this run:
   NWRITE =      2    write-flag & timer
   PREC   = normal    normal or accurate (medium, high low for compatibility)
   ISTART =      0    job   : 0-new  1-cont  2-samecut
   ICHARG =      2    charge: 1-file 2-atom 10-const
   ISPIN  =      2    spin polarized calculation?
   LNONCOLLINEAR =      F non collinear calculations
   LSORBIT =      F    spin-orbit coupling
   INIWAV =      1    electr: 0-lowe 1-rand  2-diag
   LASPH  =      T    aspherical Exc in radial PAW
 Electronic Relaxation 1
   ENCUT  =  700.0 eV  51.45 Ry    7.17 a.u.  19.80 31.30 23.33*2*pi/ulx,y,z
   ENINI  =  700.0     initial cutoff
   ENAUG  =  900.0 eV  augmentation charge cutoff
   NELM   =    100;   NELMIN=  2; NELMDL= -5     # of ELM steps 
   EDIFF  = 0.1E-06   stopping-criterion for ELM
   LREAL  =      T    real-space projection
   NLSPLINE    = F    spline interpolate recip. space projectors
   LCOMPAT=      F    compatible to vasp.4.4
   GGA_COMPAT  = T    GGA compatible to vasp.4.4-vasp.4.6
   LMAXPAW     = -100 max onsite density
   LMAXMIX     =    6 max onsite mixed and CHGCAR
   VOSKOWN=      0    Vosko Wilk Nusair interpolation
   ROPT   =   -0.00050
 Ionic relaxation
   EDIFFG = 0.1E-05   stopping-criterion for IOM
   NSW    =      0    number of steps for IOM
   NBLOCK =      1;   KBLOCK =      1    inner block; outer block 
   IBRION =     -1    ionic relax: 0-MD 1-quasi-New 2-CG
   NFREE  =      0    steps in history (QN), initial steepest desc. (CG)
   ISIF   =      2    stress and relaxation
   IWAVPR =     10    prediction:  0-non 1-charg 2-wave 3-comb
   ISYM   =      2    0-nonsym 1-usesym 2-fastsym
   LCORR  =      T    Harris-Foulkes like correction to forces

   POTIM  = 0.5000    time-step for ionic-motion
   TEIN   =    0.0    initial temperature
   TEBEG  =    0.0;   TEEND  =   0.0 temperature during run
   SMASS  =  -3.00    Nose mass-parameter (am)
   estimated Nose-frequenzy (Omega)   =  0.10E-29 period in steps = 0.13E+47 mass=  -0.192E-26a.u.
   SCALEE = 1.0000    scale energy and forces
   NPACO  =    256;   APACO  = 10.0  distance and # of slots for P.C.
   PSTRESS=    0.0 pullay stress

  Mass of Ions in am
   POMASS = 118.71
  Ionic Valenz
   ZVAL   =   4.00
  Atomic Wigner-Seitz radii
   RWIGS  =  -1.00
  virtual crystal weights 
   VCA    =   1.00
   NELECT =     192.0000    total number of electrons
   NUPDOWN=       1.0000    fix difference up-down

 DOS related values:
   EMIN   =  10.00;   EMAX   =-10.00  energy-range for DOS
   EFERMI =   0.00;   METHOD = LEGACY      
   ISMEAR =     0;   SIGMA  =   0.01  broadening in eV -4-tet -1-fermi 0-gaus

 Electronic relaxation 2 (details)
   IALGO  =     38    algorithm
   LDIAG  =      T    sub-space diagonalisation (order eigenvalues)
   LSUBROT=      F    optimize rotation matrix (better conditioning)
   TURBO    =      0    0=normal 1=particle mesh
   IRESTART =      0    0=no restart 2=restart with 2 vectors
   NREBOOT  =      0    no. of reboots
   NMIN     =      0    reboot dimension
   EREF     =   0.00    reference energy to select bands
   IMIX   =      4    mixing-type and parameters
     AMIX     =   0.60;   BMIX     =  1.00
     AMIX_MAG =   2.40;   BMIX_MAG =  1.00
     AMIN     =   0.10
     WC   =   100.;   INIMIX=   1;  MIXPRE=   1;  MAXMIX= -45

 Intra band minimization:
   WEIMIN = 0.0000     energy-eigenvalue tresh-hold
   EBREAK =  0.22E-09  absolut break condition
   DEPER  =   0.30     relativ break condition  

   TIME   =   0.40     timestep for ELM

  volume/ion in A,a.u.               =      28.46       192.09
  Fermi-wavevector in a.u.,A,eV,Ry     =   0.851126  1.608396  9.856281  0.724416
  Thomas-Fermi vector in A             =   1.967211
 
 Write flags
   LWAVE        =      F    write WAVECAR
   LDOWNSAMPLE  =      F    k-point downsampling of WAVECAR
   LCHARG       =      T    write CHGCAR
   LVTOT        =      F    write LOCPOT, total local potential
   LVHAR        =      T    write LOCPOT, Hartree potential only
   WRT_POTENTIAL=  hartree ionic  ! write potential to hdf5 file
   LELF         =      F    write electronic localiz. function (ELF)
   LORBIT       =      0    0 simple, 1 ext, 2 COOP (PROOUT), +10 PAW based schemes


 Dipole corrections
   LMONO      =      F    monopole corrections only (constant potential shift)
   LDIPOL     =      F    correct potential (dipole corrections)
   IDIPOL     =      0    1-x, 2-y, 3-z, 4-all directions 
   EPSILON    =  1.0000000 bulk dielectric constant
   LVACPOTAV  =      F  vacuum potentials using an averaging scheme for the charge density
   VACPOTFLAT =  0.1000000 required flatness to determine vacuum potential
 Exchange correlation treatment:
   GGA     = PE    functional components
   XC_C    = 1    coefficients multiplying the functional components
   LIBXC   =     F    Libxc                    
   VOSKOWN =     0    Vosko Wilk Nusair interpolation
   LHFCALC =     F    Hartree Fock is set to
   LHFONE  =     F    Hartree Fock one center treatment
   AEXX    =    0.0000 exact exchange contribution

 Parameters of functionals:
   PE:
     No parameter
 
 Van der Waals corrections
   IVDW    =     0    specifies the selected vdW correction

 Linear response parameters
   LEPSILON=     F    determine dielectric tensor
   LRPA    =     F    only Hartree local field effects (RPA)
   LNABLA  =     F    use nabla operator in PAW spheres
   LVEL    =     F    velocity operator in full k-point grid
   CSHIFT  =0.1000    complex shift for real part using Kramers Kronig
   OMEGAMAX=  -1.0    maximum frequency
   DEG_THRESHOLD= 0.2000000E-02 threshold for treating states as degnerate
   RTIME   =   -0.100 relaxation time in fs
  (WPLASMAI=    0.000 imaginary part of plasma frequency in eV, 0.658/RTIME)
   DFIELD  = 0.0000000 0.0000000 0.0000000 field for delta impulse in time
 
  Optional k-point grid parameters
   LKPOINTS_OPT  =     F    use optional k-point grid
   KPOINTS_OPT_MODE=     1    mode for optional k-point grid
 
 Orbital magnetization related:
   ORBITALMAG=     F  switch on orbital magnetization
   LCHIMAG   =     F  perturbation theory with respect to B field
   DQ        =  0.001000  dq finite difference perturbation B field
   LLRAUG    =     F  two centre corrections for induced B field
   LBONE     =     F  B-component reconstruction in AE one-centre
   LVGVCALC  =     T  calculate vGv susceptibility
   LVGVAPPL  =     F  apply vGv susceptibility instead of pGv for G=0

 Random number generation:
   RANDOM_GENERATOR = DEFAULT
   PCG_SEED         = not used


--------------------------------------------------------------------------------------------------------


 Static calculation
 charge density and potential will be updated during run
 spin polarized calculation
 Variant of blocked Davidson
 Davidson routine will perform the subspace rotation
 perform sub-space diagonalisation
    after iterative eigenvector-optimisation
 modified Broyden-mixing scheme, WC =      100.0
 initial mixing is a Kerker type mixing with AMIX =  0.6000 and BMIX =      1.0000
 Hartree-type preconditioning will be used
 using additional bands           20
 real space projection scheme for non local part
 use partial core corrections
 calculate Harris-corrections to forces 
   (improved forces if not selfconsistent)
 use gradient corrections 
 use of overlap-Matrix (Vanderbilt PP)
 Gauss-broadening in eV      SIGMA  =   0.01


--------------------------------------------------------------------------------------------------------


  energy-cutoff  :      700.00
  volume of cell :     1366.29
      direct lattice vectors                 reciprocal lattice vectors
     9.177114487  0.000000000  0.000000000     0.108966713  0.036322239  0.000000000
    -4.588557720 13.765672684  0.000000000     0.000000000  0.072644470  0.000000000
     0.000000000  0.000000000 10.815333366     0.000000000  0.000000000  0.092461320

  length of vectors
     9.177114487 14.510293119 10.815333366     0.114861001  0.072644470  0.092461320


 
 k-points in units of 2pi/SCALE and weight: Automatic KPOINTS generated             
   0.00000000  0.00000000  0.00000000       0.042
   0.02724168  0.00908056  0.00000000       0.083
   0.05448336  0.01816112  0.00000000       0.042
   0.00000000  0.03632224  0.00000000       0.042
   0.02724168  0.04540279  0.00000000       0.083
   0.05448336  0.05448335  0.00000000       0.042
   0.00000000  0.00000000  0.03082044       0.083
   0.02724168  0.00908056  0.03082044       0.083
   0.05448336  0.01816112  0.03082044       0.083
  -0.02724168 -0.00908056  0.03082044       0.083
   0.00000000  0.03632224  0.03082044       0.083
   0.02724168  0.04540279  0.03082044       0.083
   0.05448336  0.05448335  0.03082044       0.083
  -0.02724168  0.02724168  0.03082044       0.083
 
 k-points in reciprocal lattice and weights: Automatic KPOINTS generated             
   0.00000000  0.00000000  0.00000000       0.042
   0.25000000 -0.00000000  0.00000000       0.083
   0.50000000 -0.00000000  0.00000000       0.042
   0.00000000  0.50000000  0.00000000       0.042
   0.25000000  0.50000000  0.00000000       0.083
   0.50000000  0.50000000  0.00000000       0.042
   0.00000000  0.00000000  0.33333333       0.083
   0.25000000 -0.00000000  0.33333333       0.083
   0.50000000 -0.00000000  0.33333333       0.083
  -0.25000000  0.00000000  0.33333333       0.083
   0.00000000  0.50000000  0.33333333       0.083
   0.25000000  0.50000000  0.33333333       0.083
   0.50000000  0.50000000  0.33333333       0.083
  -0.25000000  0.50000000  0.33333333       0.083
 
 position of ions in fractional coordinates (direct lattice) 
   0.00496491  0.99503511  0.00000000
   0.17163163  0.82836843  0.30000004
   0.33829829  0.66170180  0.59999996
   0.67163157  0.32836843  0.00000000
   0.83829832  0.16170172  0.30000004
   0.00496507  0.99503511  0.59999996
   0.33829826  0.66170174  0.00000000
   0.50496495  0.49503505  0.30000004
   0.67163169  0.32836843  0.59999996
   0.08829826  0.16170174  0.14999999
   0.25496495  0.99503511  0.45000002
   0.42163169  0.82836837  0.75000006
   0.75496483  0.49503508  0.14999999
   0.92163145  0.32836843  0.45000002
   0.08829832  0.16170174  0.75000006
   0.42163160  0.82836848  0.14999999
   0.58829826  0.66170180  0.45000002
   0.75496513  0.49503514  0.75000006
   0.50496489  0.99503511  0.00000000
   0.67163163  0.82836843  0.30000004
   0.83829832  0.66170174  0.59999996
   0.17163159  0.32836843  0.00000000
   0.33829832  0.16170174  0.30000004
   0.50496501  0.99503511  0.59999996
   0.83829826  0.66170174  0.00000000
   0.00496495  0.49503505  0.30000004
   0.17163157  0.32836837  0.59999996
   0.58829820  0.16170172  0.14999999
   0.75496495  0.99503505  0.45000002
   0.92163163  0.82836837  0.75000006
   0.25496486  0.49503508  0.14999999
   0.42163157  0.32836843  0.45000002
   0.58829832  0.16170171  0.75000006
   0.92163163  0.82836848  0.14999999
   0.08829832  0.66170186  0.45000002
   0.25496519  0.49503517  0.75000006
   0.98938477  0.02653812  0.75000006
   0.87827361  0.30431592  0.85000014
   0.76716250  0.58209366  0.95000017
   0.48938471  0.02653812  0.75000006
   0.37827358  0.30431592  0.85000014
   0.26716247  0.58209366  0.95000017
   0.68382913  0.91542691  0.80000013
   0.57271790  0.19320464  0.90000010
   0.46160686  0.47098267  0.00000024
   0.18382913  0.91542691  0.80000013
   0.07271802  0.19320464  0.90000010
   0.96160698  0.47098267  0.00000012
 
 position of ions in cartesian coordinates  (Angst):
  -4.52021253 13.69732766  0.00000000
  -2.22593318 11.40304860  3.24460046
   0.06834525  9.10877037  6.48919963
   4.65690239  4.52021226  0.00000000
   6.95118197  2.22593301  3.24460046
  -4.52021106 13.69732766  6.48919963
   0.06834525  9.10876955  0.00000000
   2.36262423  6.81449049  3.24460046
   4.65690348  4.52021226  6.48919963
   0.06834549  2.22593321  1.62229991
  -2.22593353 13.69732766  4.86690021
   0.06834627 11.40304779  8.11150067
   4.65690161  6.81449091  1.62229991
   6.95117991  4.52021226  4.86690021
   0.06834604  2.22593321  8.11150067
   0.06834489 11.40304943  1.62229991
   2.36262360  9.10877037  4.86690021
   4.65690408  6.81449173  8.11150067
   0.06834454 13.69732766  0.00000000
   2.36262407 11.40304860  3.24460046
   4.65690304  9.10876955  6.48919963
   0.06834528  4.52021226  0.00000000
   2.36262466  2.22593321  3.24460046
   0.06834564 13.69732766  6.48919963
   4.65690249  9.10876955  0.00000000
  -2.22593301  6.81449049  3.24460046
   0.06834541  4.52021145  6.48919963
   4.65690226  2.22593301  1.62229991
   2.36262399 13.69732683  4.86690021
   4.65690296 11.40304779  8.11150067
   0.06834464  6.81449091  1.62229991
   2.36262376  4.52021226  4.86690021
   4.65690342  2.22593280  8.11150067
   4.65690241 11.40304943  1.62229991
  -2.22593337  9.10877119  4.86690021
   0.06834724  6.81449214  8.11150067
   8.95792562  0.36531503  8.11150067
   6.66364625  4.18911342  9.19303491
   4.36936777  8.01291074 10.27456850
   4.36936784  0.36531503  8.11150067
   2.07508873  4.18911342  9.19303491
  -0.21918975  8.01291074 10.27456850
   2.07508899 12.60146721  8.65226811
   4.36936714  2.65959185  9.73380106
   2.07508783  6.48339329  0.00000257
  -2.51346825 12.60146721  8.65226811
  -0.21918902  2.65959185  9.73380106
   6.66364617  6.48339329  0.00000129
 


--------------------------------------------------------------------------------------------------------


 k-point     1 :   0.0000 0.0000 0.0000  plane waves:   57395
 k-point     2 :   0.2500-0.0000 0.0000  plane waves:   57492
 k-point     3 :   0.5000-0.0000 0.0000  plane waves:   57446
 k-point     4 :   0.0000 0.5000 0.0000  plane waves:   57520
 k-point     5 :   0.2500 0.5000 0.0000  plane waves:   57461
 k-point     6 :   0.5000 0.5000 0.0000  plane waves:   57446
 k-point     7 :   0.0000 0.0000 0.3333  plane waves:   57466
 k-point     8 :   0.2500-0.0000 0.3333  plane waves:   57433
 k-point     9 :   0.5000-0.0000 0.3333  plane waves:   57472
 k-point    10 :  -0.2500 0.0000 0.3333  plane waves:   57433
 k-point    11 :   0.0000 0.5000 0.3333  plane waves:   57416
 k-point    12 :   0.2500 0.5000 0.3333  plane waves:   57430
 k-point    13 :   0.5000 0.5000 0.3333  plane waves:   57472
 k-point    14 :  -0.2500 0.5000 0.3333  plane waves:   57430

 maximum and minimum number of plane-waves per node :      3629     3565

 maximum number of plane-waves:     57520
 maximum index in each direction: 
   IXMAX=   20   IYMAX=   31   IZMAX=   23
   IXMIN=  -20   IYMIN=  -31   IZMIN=  -23


 real space projection operators:
  total allocation   :      23004.72 KBytes
  max/ min on nodes  :       1547.00       1128.36


 parallel 3D FFT for wavefunctions:
    minimum data exchange during FFTs selected (reduces bandwidth)
 parallel 3D FFT for charge:
    minimum data exchange during FFTs selected (reduces bandwidth)


 total amount of memory used by VASP MPI-rank0    97997. kBytes
=======================================================================

   base      :      30000. kBytes
   nonlr-proj:       5886. kBytes
   fftplans  :       8593. kBytes
   grid      :       6076. kBytes
   one-center:         48. kBytes
   wavefun   :      47394. kBytes
 
     INWAV:  cpu time      0.0000: real time      0.0002
 Broyden mixing: mesh for mixing (old mesh)
   NGX = 39   NGY = 63   NGZ = 47
  (NGX  =120   NGY  =192   NGZ  =140)
  gives a total of 115479 points

 initial charge density was supplied:
 charge density of overlapping atoms calculated
 number of electron     192.0000000 magnetization       1.0000000
 keeping initial charge density in first step


--------------------------------------------------------------------------------------------------------


 Maximum index for non-local projection operator          442
 Maximum index for augmentation-charges         5106 (set IRDMAX)


--------------------------------------------------------------------------------------------------------


 First call to EWALD:  gamma=   0.160
 Maximum number of real-space cells 3x 2x 3
 Maximum number of reciprocal cells 2x 3x 3

    FEWALD:  cpu time      0.0020: real time      0.0021


--------------------------------------- Ionic step        1  -------------------------------------------




--------------------------------------- Iteration      1(   1)  ---------------------------------------


    POTLOK:  cpu time      0.1073: real time      0.1083
    SETDIJ:  cpu time      0.7431: real time      0.7468
     EDDAV:  cpu time      8.0053: real time      8.0703
       DOS:  cpu time      0.0019: real time      0.0019
    --------------------------------------------
      LOOP:  cpu time      8.8575: real time      8.9272

 eigenvalue-minimisations  :  6496
 total energy-change (2. order) : 0.1296308E+04  (-0.7876831E+04)
 number of electron     192.0000000 magnetization       1.0000000
 augmentation part      192.0000000 magnetization       1.0000000

 Free energy of the ion-electron system (eV)
  ---------------------------------------------------
  alpha Z        PSCENC =       210.94476984
  Ewald energy   TEWEN  =     -4183.11025814
  -Hartree energ DENC   =      -669.59041050
  -exchange      EXHF   =         0.00000000
  -V(xc)+E(xc)   XCENC  =     -5688.46281702
  PAW double counting   =      9091.93393999    -3146.95201293
  entropy T*S    EENTRO =        -0.00094710
  eigenvalues    EBANDS =      1165.41845110
  atomic energy  EATOM  =      4516.12718286
  Solvation  Ediel_sol  =         0.00000000
  ---------------------------------------------------
  free energy    TOTEN  =      1296.30789808 eV

  energy without entropy =     1296.30884518  energy(sigma->0) =     1296.30837163


--------------------------------------------------------------------------------------------------------




--------------------------------------- Iteration      1(   2)  ---------------------------------------


     EDDAV:  cpu time      9.0943: real time      9.1814
       DOS:  cpu time      0.0016: real time      0.0016
    --------------------------------------------
      LOOP:  cpu time      9.0958: real time      9.1829

 eigenvalue-minimisations  :  7740
 total energy-change (2. order) :-0.1104995E+04  (-0.1070742E+04)
 number of electron     192.0000000 magnetization       1.0000000
 augmentation part      192.0000000 magnetization       1.0000000

 Free energy of the ion-electron system (eV)
  ---------------------------------------------------
  alpha Z        PSCENC =       210.94476984
  Ewald energy   TEWEN  =     -4183.11025814
  -Hartree energ DENC   =      -669.59041050
  -exchange      EXHF   =         0.00000000
  -V(xc)+E(xc)   XCENC  =     -5688.46281702
  PAW double counting   =      9091.93393999    -3146.95201293
  entropy T*S    EENTRO =        -0.00179580
  eigenvalues    EBANDS =        60.42400075
  atomic energy  EATOM  =      4516.12718286
  Solvation  Ediel_sol  =         0.00000000
  ---------------------------------------------------
  free energy    TOTEN  =       191.31259904 eV

  energy without entropy =      191.31439483  energy(sigma->0) =      191.31349694


--------------------------------------------------------------------------------------------------------




--------------------------------------- Iteration      1(   3)  ---------------------------------------


     EDDAV:  cpu time      9.7007: real time      9.7825
       DOS:  cpu time      0.0015: real time      0.0015
    --------------------------------------------
      LOOP:  cpu time      9.7021: real time      9.7840

 eigenvalue-minimisations  :  8424
 total energy-change (2. order) :-0.1249679E+03  (-0.1203284E+03)
 number of electron     192.0000000 magnetization       1.0000000
 augmentation part      192.0000000 magnetization       1.0000000

 Free energy of the ion-electron system (eV)
  ---------------------------------------------------
  alpha Z        PSCENC =       210.94476984
  Ewald energy   TEWEN  =     -4183.11025814
  -Hartree energ DENC   =      -669.59041050
  -exchange      EXHF   =         0.00000000
  -V(xc)+E(xc)   XCENC  =     -5688.46281702
  PAW double counting   =      9091.93393999    -3146.95201293
  entropy T*S    EENTRO =        -0.00098260
  eigenvalues    EBANDS =       -64.54468018
  atomic energy  EATOM  =      4516.12718286
  Solvation  Ediel_sol  =         0.00000000
  ---------------------------------------------------
  free energy    TOTEN  =        66.34473130 eV

  energy without entropy =       66.34571391  energy(sigma->0) =       66.34522260


--------------------------------------------------------------------------------------------------------




--------------------------------------- Iteration      1(   4)  ---------------------------------------


     EDDAV:  cpu time      9.3705: real time      9.4495
       DOS:  cpu time      0.0015: real time      0.0015
    --------------------------------------------
      LOOP:  cpu time      9.3721: real time      9.4510

 eigenvalue-minimisations  :  8040
 total energy-change (2. order) :-0.5676739E+01  (-0.5461522E+01)
 number of electron     192.0000000 magnetization       1.0000000
 augmentation part      192.0000000 magnetization       1.0000000

 Free energy of the ion-electron system (eV)
  ---------------------------------------------------
  alpha Z        PSCENC =       210.94476984
  Ewald energy   TEWEN  =     -4183.11025814
  -Hartree energ DENC   =      -669.59041050
  -exchange      EXHF   =         0.00000000
  -V(xc)+E(xc)   XCENC  =     -5688.46281702
  PAW double counting   =      9091.93393999    -3146.95201293
  entropy T*S    EENTRO =        -0.00088102
  eigenvalues    EBANDS =       -70.22152095
  atomic energy  EATOM  =      4516.12718286
  Solvation  Ediel_sol  =         0.00000000
  ---------------------------------------------------
  free energy    TOTEN  =        60.66799212 eV

  energy without entropy =       60.66887314  energy(sigma->0) =       60.66843263


--------------------------------------------------------------------------------------------------------




--------------------------------------- Iteration      1(   5)  ---------------------------------------


     EDDAV:  cpu time      9.7781: real time      9.8612
       DOS:  cpu time      0.0015: real time      0.0015
    CHARGE:  cpu time      0.5626: real time      0.5668
    MIXING:  cpu time      0.0059: real time      0.0060
    --------------------------------------------
      LOOP:  cpu time     10.3481: real time     10.4355

 eigenvalue-minimisations  :  8504
 total energy-change (2. order) :-0.2396208E+00  (-0.2357186E+00)
 number of electron     191.9999997 magnetization       1.0000000
 augmentation part      -55.6217178 magnetization      -0.1817675

 Broyden mixing:
  rms(total) = 0.30796E+01    rms(broyden)= 0.30796E+01
  rms(prec ) = 0.32967E+01
  weight for this iteration     100.00

 Free energy of the ion-electron system (eV)
  ---------------------------------------------------
  alpha Z        PSCENC =       210.94476984
  Ewald energy   TEWEN  =     -4183.11025814
  -Hartree energ DENC   =      -669.59041050
  -exchange      EXHF   =         0.00000000
  -V(xc)+E(xc)   XCENC  =     -5688.46281702
  PAW double counting   =      9091.93393999    -3146.95201293
  entropy T*S    EENTRO =        -0.00079657
  eigenvalues    EBANDS =       -70.46122618
  atomic energy  EATOM  =      4516.12718286
  Solvation  Ediel_sol  =         0.00000000
  ---------------------------------------------------
  free energy    TOTEN  =        60.42837134 eV

  energy without entropy =       60.42916791  energy(sigma->0) =       60.42876962


--------------------------------------------------------------------------------------------------------




--------------------------------------- Iteration      1(   6)  ---------------------------------------


    POTLOK:  cpu time      0.0882: real time      0.0902
    SETDIJ:  cpu time      0.7396: real time      0.7433
     EDDAV:  cpu time      9.6798: real time      9.7581
       DOS:  cpu time      0.0016: real time      0.0017
    CHARGE:  cpu time      0.5650: real time      0.5689
    MIXING:  cpu time      0.0032: real time      0.0032
    --------------------------------------------
      LOOP:  cpu time     11.0775: real time     11.1653

 eigenvalue-minimisations  :  7984
 total energy-change (2. order) : 0.1731145E+02  (-0.2138475E+01)
 number of electron     191.9999997 magnetization       1.0000000
 augmentation part      -55.3800566 magnetization      -0.1794128

 Broyden mixing:
  rms(total) = 0.16729E+01    rms(broyden)= 0.16729E+01
  rms(prec ) = 0.17999E+01
  weight for this iteration     100.00

 eigenvalues of (default mixing * dielectric matrix)
  average eigenvalue GAMMA=   1.8906
  1.8906

 Free energy of the ion-electron system (eV)
  ---------------------------------------------------
  alpha Z        PSCENC =       210.94476984
  Ewald energy   TEWEN  =     -4183.11025814
  -Hartree energ DENC   =      -688.91113953
  -exchange      EXHF   =         0.00000000
  -V(xc)+E(xc)   XCENC  =     -5677.12790049
  PAW double counting   =     13865.45849579    -7937.42796117
  entropy T*S    EENTRO =        -0.00074031
  eigenvalues    EBANDS =       -28.21262780
  atomic energy  EATOM  =      4516.12718286
  Solvation  Ediel_sol  =         0.00000000
  ---------------------------------------------------
  free energy    TOTEN  =        77.73982105 eV

  energy without entropy =       77.74056136  energy(sigma->0) =       77.74019121


--------------------------------------------------------------------------------------------------------




--------------------------------------- Iteration      1(   7)  ---------------------------------------


    POTLOK:  cpu time      0.0904: real time      0.0928
    SETDIJ:  cpu time      0.7399: real time      0.7439
     EDDAV:  cpu time      9.3300: real time      9.4067
       DOS:  cpu time      0.0016: real time      0.0016
    CHARGE:  cpu time      0.5890: real time      0.5932
    MIXING:  cpu time      0.0042: real time      0.0043
    --------------------------------------------
      LOOP:  cpu time     10.7551: real time     10.8424

 eigenvalue-minimisations  :  8032
 total energy-change (2. order) : 0.2929358E+01  (-0.1599365E+01)
 number of electron     191.9999997 magnetization       1.0000000
 augmentation part      -55.6000579 magnetization      -0.1734807

 Broyden mixing:
  rms(total) = 0.58544E+00    rms(broyden)= 0.58544E+00
  rms(prec ) = 0.92765E+00
  weight for this iteration     100.00

 eigenvalues of (default mixing * dielectric matrix)
  average eigenvalue GAMMA=   1.3528
  0.6977  2.0080

 Free energy of the ion-electron system (eV)
  ---------------------------------------------------
  alpha Z        PSCENC =       210.94476984
  Ewald energy   TEWEN  =     -4183.11025814
  -Hartree energ DENC   =      -693.22245366
  -exchange      EXHF   =         0.00000000
  -V(xc)+E(xc)   XCENC  =     -5669.39823882
  PAW double counting   =     19120.36711766   -13205.95200334
  entropy T*S    EENTRO =        -0.00147113
  eigenvalues    EBANDS =       -15.08546580
  atomic energy  EATOM  =      4516.12718286
  Solvation  Ediel_sol  =         0.00000000
  ---------------------------------------------------
  free energy    TOTEN  =        80.66917946 eV

  energy without entropy =       80.67065059  energy(sigma->0) =       80.66991502


--------------------------------------------------------------------------------------------------------




--------------------------------------- Iteration      1(   8)  ---------------------------------------


    POTLOK:  cpu time      0.0897: real time      0.0907
    SETDIJ:  cpu time      0.7472: real time      0.7508
     EDDAV:  cpu time      9.3748: real time      9.4533
       DOS:  cpu time      0.0016: real time      0.0016
    CHARGE:  cpu time      0.5647: real time      0.5689
    MIXING:  cpu time      0.0040: real time      0.0040
    --------------------------------------------
      LOOP:  cpu time     10.7818: real time     10.8693

 eigenvalue-minimisations  :  8040
 total energy-change (2. order) : 0.1079577E+01  (-0.3482686E+00)
 number of electron     191.9999997 magnetization       1.0000000
 augmentation part      -55.5698368 magnetization      -0.1748397

 Broyden mixing:
  rms(total) = 0.15985E+00    rms(broyden)= 0.15985E+00
  rms(prec ) = 0.21637E+00
  weight for this iteration     100.00

 eigenvalues of (default mixing * dielectric matrix)
  average eigenvalue GAMMA=   1.2306
  1.9488  1.1256  0.6174

 Free energy of the ion-electron system (eV)
  ---------------------------------------------------
  alpha Z        PSCENC =       210.94476984
  Ewald energy   TEWEN  =     -4183.11025814
  -Hartree energ DENC   =      -696.81077374
  -exchange      EXHF   =         0.00000000
  -V(xc)+E(xc)   XCENC  =     -5667.03453474
  PAW double counting   =     21365.96732091   -15456.75420707
  entropy T*S    EENTRO =        -0.00208353
  eigenvalues    EBANDS =        -7.57866033
  atomic energy  EATOM  =      4516.12718286
  Solvation  Ediel_sol  =         0.00000000
  ---------------------------------------------------
  free energy    TOTEN  =        81.74875605 eV

  energy without entropy =       81.75083958  energy(sigma->0) =       81.74979782


--------------------------------------------------------------------------------------------------------




--------------------------------------- Iteration      1(   9)  ---------------------------------------


    POTLOK:  cpu time      0.0885: real time      0.0903
    SETDIJ:  cpu time      0.7399: real time      0.7436
     EDDAV:  cpu time      9.7383: real time      9.8201
       DOS:  cpu time      0.0015: real time      0.0015
    CHARGE:  cpu time      0.5659: real time      0.5698
    MIXING:  cpu time      0.0041: real time      0.0041
    --------------------------------------------
      LOOP:  cpu time     11.1382: real time     11.2295

 eigenvalue-minimisations  :  8456
 total energy-change (2. order) : 0.4180813E-02  (-0.1071143E+00)
 number of electron     191.9999997 magnetization       1.0000000
 augmentation part      -55.5824154 magnetization      -0.1738809

 Broyden mixing:
  rms(total) = 0.15085E+00    rms(broyden)= 0.15085E+00
  rms(prec ) = 0.16071E+00
  weight for this iteration     100.00

 eigenvalues of (default mixing * dielectric matrix)
  average eigenvalue GAMMA=   1.2428
  1.9960  1.8194  0.6516  0.5042

 Free energy of the ion-electron system (eV)
  ---------------------------------------------------
  alpha Z        PSCENC =       210.94476984
  Ewald energy   TEWEN  =     -4183.11025814
  -Hartree energ DENC   =      -697.42978592
  -exchange      EXHF   =         0.00000000
  -V(xc)+E(xc)   XCENC  =     -5667.41811182
  PAW double counting   =     21435.16024544   -15526.13868657
  entropy T*S    EENTRO =        -0.00155728
  eigenvalues    EBANDS =        -6.38086152
  atomic energy  EATOM  =      4516.12718286
  Solvation  Ediel_sol  =         0.00000000
  ---------------------------------------------------
  free energy    TOTEN  =        81.75293687 eV

  energy without entropy =       81.75449415  energy(sigma->0) =       81.75371551


--------------------------------------------------------------------------------------------------------




--------------------------------------- Iteration      1(  10)  ---------------------------------------


    POTLOK:  cpu time      0.0893: real time      0.0904
    SETDIJ:  cpu time      0.7412: real time      0.7451
     EDDAV:  cpu time      9.0723: real time      9.1475
       DOS:  cpu time      0.0015: real time      0.0015
    CHARGE:  cpu time      0.5656: real time      0.5697
    MIXING:  cpu time      0.0045: real time      0.0045
    --------------------------------------------
      LOOP:  cpu time     10.4744: real time     10.5586

 eigenvalue-minimisations  :  7672
 total energy-change (2. order) : 0.1460811E-01  (-0.1435101E-01)
 number of electron     191.9999997 magnetization       1.0000000
 augmentation part      -55.5748201 magnetization      -0.1745239

 Broyden mixing:
  rms(total) = 0.55888E-01    rms(broyden)= 0.55888E-01
  rms(prec ) = 0.65452E-01
  weight for this iteration     100.00

 eigenvalues of (default mixing * dielectric matrix)
  average eigenvalue GAMMA=   1.2482
  2.4178  1.8312  0.8031  0.5945  0.5945

 Free energy of the ion-electron system (eV)
  ---------------------------------------------------
  alpha Z        PSCENC =       210.94476984
  Ewald energy   TEWEN  =     -4183.11025814
  -Hartree energ DENC   =      -696.46302527
  -exchange      EXHF   =         0.00000000
  -V(xc)+E(xc)   XCENC  =     -5667.90918360
  PAW double counting   =     21470.19003865   -15561.20564269
  entropy T*S    EENTRO =        -0.00173010
  eigenvalues    EBANDS =        -6.80460655
  atomic energy  EATOM  =      4516.12718286
  Solvation  Ediel_sol  =         0.00000000
  ---------------------------------------------------
  free energy    TOTEN  =        81.76754498 eV

  energy without entropy =       81.76927508  energy(sigma->0) =       81.76841003


--------------------------------------------------------------------------------------------------------




--------------------------------------- Iteration      1(  11)  ---------------------------------------


    POTLOK:  cpu time      0.0896: real time      0.0915
    SETDIJ:  cpu time      0.7411: real time      0.7448
     EDDAV:  cpu time      9.3035: real time      9.3814
       DOS:  cpu time      0.0014: real time      0.0014
    CHARGE:  cpu time      0.5614: real time      0.5654
    MIXING:  cpu time      0.0054: real time      0.0054
    --------------------------------------------
      LOOP:  cpu time     10.7024: real time     10.7899

 eigenvalue-minimisations  :  7944
 total energy-change (2. order) : 0.3342868E-02  (-0.3033364E-02)
 number of electron     191.9999997 magnetization       1.0000000
 augmentation part      -55.5691866 magnetization      -0.1737903

 Broyden mixing:
  rms(total) = 0.24180E-01    rms(broyden)= 0.24180E-01
  rms(prec ) = 0.25225E-01
  weight for this iteration     100.00

 eigenvalues of (default mixing * dielectric matrix)
  average eigenvalue GAMMA=   1.1239
  2.2557  1.7659  0.9504  0.6230  0.6230  0.5254

 Free energy of the ion-electron system (eV)
  ---------------------------------------------------
  alpha Z        PSCENC =       210.94476984
  Ewald energy   TEWEN  =     -4183.11025814
  -Hartree energ DENC   =      -695.97207415
  -exchange      EXHF   =         0.00000000
  -V(xc)+E(xc)   XCENC  =     -5668.07366546
  PAW double counting   =     21479.53373573   -15570.50891947
  entropy T*S    EENTRO =        -0.00175130
  eigenvalues    EBANDS =        -7.16813205
  atomic energy  EATOM  =      4516.12718286
  Solvation  Ediel_sol  =         0.00000000
  ---------------------------------------------------
  free energy    TOTEN  =        81.77088785 eV

  energy without entropy =       81.77263915  energy(sigma->0) =       81.77176350


--------------------------------------------------------------------------------------------------------




--------------------------------------- Iteration      1(  12)  ---------------------------------------


    POTLOK:  cpu time      0.0890: real time      0.0905
    SETDIJ:  cpu time      0.7401: real time      0.7438
     EDDAV:  cpu time      8.9005: real time      8.9723
       DOS:  cpu time      0.0016: real time      0.0016
    CHARGE:  cpu time      0.5640: real time      0.5679
    MIXING:  cpu time      0.0044: real time      0.0046
    --------------------------------------------
      LOOP:  cpu time     10.2996: real time     10.3807

 eigenvalue-minimisations  :  7496
 total energy-change (2. order) :-0.7298090E-03  (-0.5241559E-03)
 number of electron     191.9999997 magnetization       1.0000000
 augmentation part      -55.5699716 magnetization      -0.1751171

 Broyden mixing:
  rms(total) = 0.12717E-01    rms(broyden)= 0.12717E-01
  rms(prec ) = 0.13197E-01
  weight for this iteration     100.00

 eigenvalues of (default mixing * dielectric matrix)
  average eigenvalue GAMMA=   1.0990
  2.1555  1.7168  1.2806  0.7423  0.6612  0.6612  0.4752

 Free energy of the ion-electron system (eV)
  ---------------------------------------------------
  alpha Z        PSCENC =       210.94476984
  Ewald energy   TEWEN  =     -4183.11025814
  -Hartree energ DENC   =      -696.07967974
  -exchange      EXHF   =         0.00000000
  -V(xc)+E(xc)   XCENC  =     -5668.05299377
  PAW double counting   =     21468.12955494   -15559.06588878
  entropy T*S    EENTRO =        -0.00174161
  eigenvalues    EBANDS =        -7.12078754
  atomic energy  EATOM  =      4516.12718286
  Solvation  Ediel_sol  =         0.00000000
  ---------------------------------------------------
  free energy    TOTEN  =        81.77015804 eV

  energy without entropy =       81.77189965  energy(sigma->0) =       81.77102885


--------------------------------------------------------------------------------------------------------




--------------------------------------- Iteration      1(  13)  ---------------------------------------


    POTLOK:  cpu time      0.0899: real time      0.0907
    SETDIJ:  cpu time      0.7415: real time      0.7450
     EDDAV:  cpu time      9.2535: real time      9.3299
       DOS:  cpu time      0.0015: real time      0.0015
    CHARGE:  cpu time      0.5658: real time      0.5696
    MIXING:  cpu time      0.0053: real time      0.0053
    --------------------------------------------
      LOOP:  cpu time     10.6575: real time     10.7421

 eigenvalue-minimisations  :  7952
 total energy-change (2. order) :-0.1907814E-03  (-0.6244882E-04)
 number of electron     191.9999997 magnetization       1.0000000
 augmentation part      -55.5704089 magnetization      -0.1740521

 Broyden mixing:
  rms(total) = 0.33439E-02    rms(broyden)= 0.33439E-02
  rms(prec ) = 0.39824E-02
  weight for this iteration     100.00

 eigenvalues of (default mixing * dielectric matrix)
  average eigenvalue GAMMA=   1.0569
  2.1401  1.7486  1.4042  0.6855  0.6855  0.6634  0.6634  0.4645

 Free energy of the ion-electron system (eV)
  ---------------------------------------------------
  alpha Z        PSCENC =       210.94476984
  Ewald energy   TEWEN  =     -4183.11025814
  -Hartree energ DENC   =      -696.13651466
  -exchange      EXHF   =         0.00000000
  -V(xc)+E(xc)   XCENC  =     -5668.04973752
  PAW double counting   =     21458.70434918   -15549.60880371
  entropy T*S    EENTRO =        -0.00174703
  eigenvalues    EBANDS =        -7.09927355
  atomic energy  EATOM  =      4516.12718286
  Solvation  Ediel_sol  =         0.00000000
  ---------------------------------------------------
  free energy    TOTEN  =        81.76996726 eV

  energy without entropy =       81.77171429  energy(sigma->0) =       81.77084077


--------------------------------------------------------------------------------------------------------




--------------------------------------- Iteration      1(  14)  ---------------------------------------


    POTLOK:  cpu time      0.0896: real time      0.0913
    SETDIJ:  cpu time      0.7401: real time      0.7436
     EDDAV:  cpu time      9.1293: real time      9.2077
       DOS:  cpu time      0.0015: real time      0.0015
    CHARGE:  cpu time      0.5665: real time      0.5705
    MIXING:  cpu time      0.0052: real time      0.0052
    --------------------------------------------
      LOOP:  cpu time     10.5322: real time     10.6198

 eigenvalue-minimisations  :  7728
 total energy-change (2. order) : 0.1551108E-04  (-0.1562066E-04)
 number of electron     191.9999997 magnetization       1.0000000
 augmentation part      -55.5704699 magnetization      -0.1745343

 Broyden mixing:
  rms(total) = 0.17308E-02    rms(broyden)= 0.17308E-02
  rms(prec ) = 0.18335E-02
  weight for this iteration     100.00

 eigenvalues of (default mixing * dielectric matrix)
  average eigenvalue GAMMA=   1.0530
  2.1283  1.8167  1.4442  0.8794  0.8794  0.6708  0.6708  0.5309  0.4564

 Free energy of the ion-electron system (eV)
  ---------------------------------------------------
  alpha Z        PSCENC =       210.94476984
  Ewald energy   TEWEN  =     -4183.11025814
  -Hartree energ DENC   =      -696.13496603
  -exchange      EXHF   =         0.00000000
  -V(xc)+E(xc)   XCENC  =     -5668.05162647
  PAW double counting   =     21453.43437429   -15544.32139279
  entropy T*S    EENTRO =        -0.00174322
  eigenvalues    EBANDS =        -7.11635755
  atomic energy  EATOM  =      4516.12718286
  Solvation  Ediel_sol  =         0.00000000
  ---------------------------------------------------
  free energy    TOTEN  =        81.76998277 eV

  energy without entropy =       81.77172599  energy(sigma->0) =       81.77085438


--------------------------------------------------------------------------------------------------------




--------------------------------------- Iteration      1(  15)  ---------------------------------------


    POTLOK:  cpu time      0.0884: real time      0.0905
    SETDIJ:  cpu time      0.7420: real time      0.7458
     EDDAV:  cpu time      9.3601: real time      9.4382
       DOS:  cpu time      0.0016: real time      0.0016
    CHARGE:  cpu time      0.5629: real time      0.5668
    MIXING:  cpu time      0.0041: real time      0.0042
    --------------------------------------------
      LOOP:  cpu time     10.7591: real time     10.8471

 eigenvalue-minimisations  :  8064
 total energy-change (2. order) :-0.2411027E-05  (-0.5075505E-05)
 number of electron     191.9999997 magnetization       1.0000000
 augmentation part      -55.5706453 magnetization      -0.1743902

 Broyden mixing:
  rms(total) = 0.98199E-03    rms(broyden)= 0.98199E-03
  rms(prec ) = 0.11483E-02
  weight for this iteration     100.00

 eigenvalues of (default mixing * dielectric matrix)
  average eigenvalue GAMMA=   1.0333
  2.1618  1.8597  1.4934  1.1356  0.7711  0.7711  0.5993  0.5993  0.4869  0.4551

 Free energy of the ion-electron system (eV)
  ---------------------------------------------------
  alpha Z        PSCENC =       210.94476984
  Ewald energy   TEWEN  =     -4183.11025814
  -Hartree energ DENC   =      -696.14758656
  -exchange      EXHF   =         0.00000000
  -V(xc)+E(xc)   XCENC  =     -5668.05011500
  PAW double counting   =     21450.94699016   -15541.82545489
  entropy T*S    EENTRO =        -0.00174050
  eigenvalues    EBANDS =        -7.11380740
  atomic energy  EATOM  =      4516.12718286
  Solvation  Ediel_sol  =         0.00000000
  ---------------------------------------------------
  free energy    TOTEN  =        81.76998036 eV

  energy without entropy =       81.77172085  energy(sigma->0) =       81.77085061


--------------------------------------------------------------------------------------------------------




--------------------------------------- Iteration      1(  16)  ---------------------------------------


    POTLOK:  cpu time      0.0912: real time      0.0919
    SETDIJ:  cpu time      0.7401: real time      0.7439
     EDDAV:  cpu time      9.0479: real time      9.1236
       DOS:  cpu time      0.0015: real time      0.0015
    CHARGE:  cpu time      0.5624: real time      0.5665
    MIXING:  cpu time      0.0048: real time      0.0048
    --------------------------------------------
      LOOP:  cpu time     10.4478: real time     10.5322

 eigenvalue-minimisations  :  7680
 total energy-change (2. order) : 0.1002805E-05  (-0.5710266E-06)
 number of electron     191.9999997 magnetization       1.0000000
 augmentation part      -55.5706630 magnetization      -0.1744004

 Broyden mixing:
  rms(total) = 0.43928E-03    rms(broyden)= 0.43927E-03
  rms(prec ) = 0.52327E-03
  weight for this iteration     100.00

 eigenvalues of (default mixing * dielectric matrix)
  average eigenvalue GAMMA=   1.0318
  2.2455  1.9037  1.5334  1.2599  0.8316  0.8316  0.6386  0.6386  0.5351  0.4863
  0.4459

 Free energy of the ion-electron system (eV)
  ---------------------------------------------------
  alpha Z        PSCENC =       210.94476984
  Ewald energy   TEWEN  =     -4183.11025814
  -Hartree energ DENC   =      -696.15814010
  -exchange      EXHF   =         0.00000000
  -V(xc)+E(xc)   XCENC  =     -5668.04937600
  PAW double counting   =     21450.54732871   -15541.42344575
  entropy T*S    EENTRO =        -0.00174258
  eigenvalues    EBANDS =        -7.10633746
  atomic energy  EATOM  =      4516.12718286
  Solvation  Ediel_sol  =         0.00000000
  ---------------------------------------------------
  free energy    TOTEN  =        81.76998136 eV

  energy without entropy =       81.77172394  energy(sigma->0) =       81.77085265


--------------------------------------------------------------------------------------------------------




--------------------------------------- Iteration      1(  17)  ---------------------------------------


    POTLOK:  cpu time      0.0886: real time      0.0901
    SETDIJ:  cpu time      0.7442: real time      0.7480
     EDDAV:  cpu time      9.3032: real time      9.3851
       DOS:  cpu time      0.0015: real time      0.0015
    CHARGE:  cpu time      0.5620: real time      0.5662
    MIXING:  cpu time      0.0046: real time      0.0047
    --------------------------------------------
      LOOP:  cpu time     10.7042: real time     10.7956

 eigenvalue-minimisations  :  8008
 total energy-change (2. order) : 0.1064496E-05  (-0.2492438E-06)
 number of electron     191.9999997 magnetization       1.0000000
 augmentation part      -55.5706454 magnetization      -0.1744237

 Broyden mixing:
  rms(total) = 0.18498E-03    rms(broyden)= 0.18496E-03
  rms(prec ) = 0.20382E-03
  weight for this iteration     100.00

 eigenvalues of (default mixing * dielectric matrix)
  average eigenvalue GAMMA=   1.0375
  2.2640  1.9651  1.5384  1.3582  0.8666  0.8666  0.8503  0.6393  0.6393  0.5424
  0.4785  0.4411

 Free energy of the ion-electron system (eV)
  ---------------------------------------------------
  alpha Z        PSCENC =       210.94476984
  Ewald energy   TEWEN  =     -4183.11025814
  -Hartree energ DENC   =      -696.16271100
  -exchange      EXHF   =         0.00000000
  -V(xc)+E(xc)   XCENC  =     -5668.04912436
  PAW double counting   =     21450.31000061   -15541.18465411
  entropy T*S    EENTRO =        -0.00174354
  eigenvalues    EBANDS =        -7.10347972
  atomic energy  EATOM  =      4516.12718286
  Solvation  Ediel_sol  =         0.00000000
  ---------------------------------------------------
  free energy    TOTEN  =        81.76998243 eV

  energy without entropy =       81.77172597  energy(sigma->0) =       81.77085420


--------------------------------------------------------------------------------------------------------




--------------------------------------- Iteration      1(  18)  ---------------------------------------


    POTLOK:  cpu time      0.0899: real time      0.0907
    SETDIJ:  cpu time      0.7410: real time      0.7447
     EDDAV:  cpu time      8.4191: real time      8.4882
       DOS:  cpu time      0.0016: real time      0.0016
    CHARGE:  cpu time      0.5617: real time      0.5656
    MIXING:  cpu time      0.0045: real time      0.0045
    --------------------------------------------
      LOOP:  cpu time      9.8177: real time      9.8953

 eigenvalue-minimisations  :  6944
 total energy-change (2. order) : 0.5636866E-06  (-0.4590858E-07)
 number of electron     191.9999997 magnetization       1.0000000
 augmentation part      -55.5706410 magnetization      -0.1744024

 Broyden mixing:
  rms(total) = 0.10623E-03    rms(broyden)= 0.10621E-03
  rms(prec ) = 0.11630E-03
  weight for this iteration     100.00

 eigenvalues of (default mixing * dielectric matrix)
  average eigenvalue GAMMA=   1.0192
  2.2160  2.0158  1.5800  1.4435  0.9927  0.8695  0.8695  0.6331  0.6331  0.5392
  0.5392  0.4783  0.4394

 Free energy of the ion-electron system (eV)
  ---------------------------------------------------
  alpha Z        PSCENC =       210.94476984
  Ewald energy   TEWEN  =     -4183.11025814
  -Hartree energ DENC   =      -696.16404289
  -exchange      EXHF   =         0.00000000
  -V(xc)+E(xc)   XCENC  =     -5668.04879725
  PAW double counting   =     21450.07358254   -15540.94744321
  entropy T*S    EENTRO =        -0.00174319
  eigenvalues    EBANDS =        -7.10326756
  atomic energy  EATOM  =      4516.12718286
  Solvation  Ediel_sol  =         0.00000000
  ---------------------------------------------------
  free energy    TOTEN  =        81.76998299 eV

  energy without entropy =       81.77172618  energy(sigma->0) =       81.77085458


--------------------------------------------------------------------------------------------------------




--------------------------------------- Iteration      1(  19)  ---------------------------------------


    POTLOK:  cpu time      0.0898: real time      0.0911
    SETDIJ:  cpu time      0.7412: real time      0.7448
     EDDAV:  cpu time      6.0481: real time      6.0977
       DOS:  cpu time      0.0016: real time      0.0016
    --------------------------------------------
      LOOP:  cpu time      6.8807: real time      6.9352

 eigenvalue-minimisations  :  4248
 total energy-change (2. order) : 0.9802170E-07  (-0.7148524E-08)
 number of electron     191.9999997 magnetization       1.0000000
 augmentation part      -55.5706410 magnetization      -0.1744024

 Free energy of the ion-electron system (eV)
  ---------------------------------------------------
  alpha Z        PSCENC =       210.94476984
  Ewald energy   TEWEN  =     -4183.11025814
  -Hartree energ DENC   =      -696.16535999
  -exchange      EXHF   =         0.00000000
  -V(xc)+E(xc)   XCENC  =     -5668.04856226
  PAW double counting   =     21450.00833382   -15540.88207711
  entropy T*S    EENTRO =        -0.00174330
  eigenvalues    EBANDS =        -7.10230262
  atomic energy  EATOM  =      4516.12718286
  Solvation  Ediel_sol  =         0.00000000
  ---------------------------------------------------
  free energy    TOTEN  =        81.76998309 eV

  energy without entropy =       81.77172639  energy(sigma->0) =       81.77085474


--------------------------------------------------------------------------------------------------------




 average (electrostatic) potential at core
  the test charge radii are     1.4072
  (the norm of the test charge is              1.0000)
       1 -44.2407       2 -44.0210       3 -44.0352       4 -44.8464       5 -44.2006
       6 -48.3049       7 -59.3591       8 -44.2737       9 -44.3139      10 -44.3951
      11 -44.1872      12 -44.3449      13 -44.6267      14 -44.1389      15 -49.8789
      16 -44.0495      17 -44.0416      18 -44.2482      19 -44.2407      20 -44.0210
      21 -44.0352      22 -44.8464      23 -44.2006      24 -48.3049      25 -59.3591
      26 -44.2737      27 -44.3139      28 -44.3951      29 -44.1872      30 -44.3449
      31 -44.6267      32 -44.1389      33 -49.8789      34 -44.0495      35 -44.0416
      36 -44.2482      37 -50.1341      38 -44.3546      39 -59.8011      40 -50.1341
      41 -44.3546      42 -59.8011      43 -44.3083      44 -48.7750      45 -44.4792
      46 -44.3083      47 -48.7750      48 -44.4792
 
 
 
 E-fermi :   5.3030     XC(G=0):  -9.4919     alpha+bet :-10.1315

 val. band max:        5.4199371027   @ k =   0.2500   0.5000   0.0000
 cond. band min:       5.3058458535   @ k =   0.2500  -0.0000   0.3333
 fundamental gap:     -0.1140912492
 Fermi energy:         5.4206522867

 spin component 1

 k-point     1 :       0.0000    0.0000    0.0000
  band No.  band energies     occupation 
      1      -9.0631      1.00000
      2      -8.5484      1.00000
      3      -8.0287      1.00000
      4      -7.1335      1.00000
      5      -7.1204      1.00000
      6      -6.1569      1.00000
      7      -5.7184      1.00000
      8      -5.1654      1.00000
      9      -5.0496      1.00000
     10      -4.9289      1.00000
     11      -4.9256      1.00000
     12      -4.6625      1.00000
     13      -4.3548      1.00000
     14      -4.3281      1.00000
     15      -4.2661      1.00000
     16      -4.1390      1.00000
     17      -3.9375      1.00000
     18      -3.8841      1.00000
     19      -3.7744      1.00000
     20      -3.5281      1.00000
     21      -3.3475      1.00000
     22      -3.2455      1.00000
     23      -2.8221      1.00000
     24      -2.7305      1.00000
     25      -2.6611      1.00000
     26      -2.3619      1.00000
     27      -2.3224      1.00000
     28      -2.2597      1.00000
     29      -2.1638      1.00000
     30      -2.1508      1.00000
     31      -1.9832      1.00000
     32      -1.5854      1.00000
     33      -1.4472      1.00000
     34      -1.2560      1.00000
     35      -1.1653      1.00000
     36      -1.1503      1.00000
     37      -1.0108      1.00000
     38      -0.8184      1.00000
     39      -0.8130      1.00000
     40      -0.6250      1.00000
     41      -0.4635      1.00000
     42      -0.2895      1.00000
     43      -0.2326      1.00000
     44      -0.2160      1.00000
     45       0.0776      1.00000
     46       0.1446      1.00000
     47       0.3421      1.00000
     48       0.5773      1.00000
     49       0.5980      1.00000
     50       0.7655      1.00000
     51       0.9348      1.00000
     52       0.9772      1.00000
     53       1.0487      1.00000
     54       1.0930      1.00000
     55       1.2603      1.00000
     56       1.3538      1.00000
     57       1.5588      1.00000
     58       1.6744      1.00000
     59       1.6793      1.00000
     60       1.8619      1.00000
     61       2.1029      1.00000
     62       2.1634      1.00000
     63       2.2229      1.00000
     64       2.3324      1.00000
     65       2.5034      1.00000
     66       2.5459      1.00000
     67       2.7248      1.00000
     68       2.7427      1.00000
     69       2.8098      1.00000
     70       2.8827      1.00000
     71       2.9051      1.00000
     72       3.0063      1.00000
     73       3.0688      1.00000
     74       3.0947      1.00000
     75       3.1707      1.00000
     76       3.2270      1.00000
     77       3.3131      1.00000
     78       3.3615      1.00000
     79       3.5034      1.00000
     80       3.5406      1.00000
     81       3.6517      1.00000
     82       3.6804      1.00000
     83       3.7247      1.00000
     84       3.8258      1.00000
     85       3.8492      1.00000
     86       4.0632      1.00000
     87       4.2091      1.00000
     88       4.2534      1.00000
     89       4.5122      1.00000
[...]
 total charge-density along one line
 
 pseudopotential strength for first ion, spin component:           1
 27.103 -21.619   0.039  -0.024   0.005   0.060  -0.037   0.008
-21.619  27.045  -0.014   0.009  -0.004  -0.024   0.016  -0.007
  0.039  -0.014   5.778  -0.003  -0.001   8.936  -0.004  -0.002
 -0.024   0.009  -0.003   5.778   0.000  -0.004   8.937   0.001
  0.005  -0.004  -0.001   0.000   5.756  -0.002   0.001   8.905
  0.060  -0.024   8.936  -0.004  -0.002  13.886  -0.006  -0.003
 -0.037   0.016  -0.004   8.937   0.001  -0.006  13.887   0.001
  0.008  -0.007  -0.002   0.001   8.905  -0.003   0.001  13.840
 -0.002   0.000   0.000   0.000   0.011   0.001   0.001   0.017
 -0.005  -0.001  -0.004   0.014   0.000  -0.007   0.021   0.001
  0.012  -0.000  -0.007  -0.015  -0.001  -0.010  -0.022  -0.001
  0.001   0.000   0.000   0.000  -0.007   0.001   0.000  -0.010
 -0.018   0.003  -0.014  -0.002   0.001  -0.021  -0.002   0.001
 pseudopotential strength for first ion, spin component:           2
 27.098 -21.618   0.039  -0.023   0.005   0.060  -0.035   0.009
-21.618  27.045  -0.014   0.009  -0.004  -0.024   0.015  -0.007
  0.039  -0.014   5.776  -0.003  -0.001   8.933  -0.004  -0.002
 -0.023   0.009  -0.003   5.777   0.000  -0.004   8.934   0.000
  0.005  -0.004  -0.001   0.000   5.754  -0.002   0.000   8.901
  0.060  -0.024   8.933  -0.004  -0.002  13.882  -0.006  -0.003
 -0.035   0.015  -0.004   8.934   0.000  -0.006  13.883   0.001
  0.009  -0.007  -0.002   0.000   8.901  -0.003   0.001  13.835
 -0.002   0.000   0.001   0.000   0.011   0.001   0.001   0.017
 -0.005  -0.001  -0.003   0.014   0.000  -0.006   0.021   0.001
  0.012  -0.000  -0.007  -0.015  -0.001  -0.010  -0.021  -0.001
  0.001   0.000   0.000   0.000  -0.007   0.001   0.001  -0.010
 -0.019   0.003  -0.014  -0.002   0.001  -0.021  -0.002   0.002
 total augmentation occupancy for first ion, spin component:           1
  1.894   0.029   0.002  -0.005  -0.020   0.003  -0.000   0.002  -0.006  -0.016   0.044   0.001  -0.035
  0.029   0.009   0.022  -0.018   0.003  -0.010   0.011   0.000  -0.001  -0.003   0.004  -0.000  -0.012
  0.002   0.022   2.835  -0.184  -0.074  -0.814   0.061   0.036  -0.008   0.141  -0.032   0.019  -0.091
 -0.005  -0.018  -0.184   2.909   0.014   0.061  -0.833  -0.003   0.028   0.074  -0.201  -0.009  -0.107
 -0.020   0.003  -0.074   0.014   1.736   0.035  -0.002  -0.348  -0.004   0.047  -0.019  -0.119   0.023
  0.003  -0.010  -0.814   0.061   0.035   0.258  -0.025  -0.014   0.004  -0.027   0.013  -0.007   0.036
 -0.000   0.011   0.061  -0.833  -0.002  -0.025   0.267   0.001  -0.007  -0.025   0.065   0.003   0.027
  0.002   0.000   0.036  -0.003  -0.348  -0.014   0.001   0.083   0.001  -0.011   0.003   0.028  -0.005
 -0.006  -0.001  -0.008   0.028  -0.004   0.004  -0.007   0.001   0.021   0.003   0.004   0.003   0.003
 -0.016  -0.003   0.141   0.074   0.047  -0.027  -0.025  -0.011   0.003   0.095  -0.001  -0.008   0.014
  0.044   0.004  -0.032  -0.201  -0.019   0.013   0.065   0.003   0.004  -0.001   0.069   0.005   0.021
  0.001  -0.000   0.019  -0.009  -0.119  -0.007   0.003   0.028   0.003  -0.008   0.005   0.031  -0.003
 -0.035  -0.012  -0.091  -0.107   0.023   0.036   0.027  -0.005   0.003   0.014   0.021  -0.003   0.055
 total augmentation occupancy for first ion, spin component:           2
  0.009  -0.001   0.001  -0.007  -0.003   0.000  -0.000   0.000  -0.000   0.001  -0.002  -0.000   0.002
 -0.001   0.000   0.000   0.001   0.001  -0.000  -0.000  -0.000   0.000  -0.000   0.000   0.000  -0.000
  0.001   0.000   0.010  -0.000   0.004  -0.002   0.000  -0.000  -0.000   0.000  -0.001  -0.000   0.000
 -0.007   0.001  -0.000   0.016   0.001  -0.000  -0.002  -0.000   0.000   0.002   0.004   0.000  -0.001
 -0.003   0.001   0.004   0.001   0.024  -0.000   0.000  -0.002   0.001   0.000  -0.000  -0.001  -0.001
  0.000  -0.000  -0.002  -0.000  -0.000   0.001  -0.000   0.000   0.000   0.000  -0.000  -0.000   0.000
 -0.000  -0.000   0.000  -0.002   0.000  -0.000   0.000  -0.000  -0.000  -0.000  -0.000   0.000  -0.000
  0.000  -0.000  -0.000  -0.000  -0.002   0.000  -0.000   0.000  -0.000  -0.000  -0.000   0.000   0.000
 -0.000   0.000  -0.000   0.000   0.001   0.000  -0.000  -0.000   0.000  -0.000   0.000   0.000  -0.000
  0.001  -0.000   0.000   0.002   0.000   0.000  -0.000  -0.000  -0.000   0.002   0.000  -0.000   0.001
 -0.002   0.000  -0.001   0.004  -0.000  -0.000  -0.000  -0.000   0.000   0.000   0.001   0.000  -0.000
 -0.000   0.000  -0.000   0.000  -0.001  -0.000   0.000   0.000   0.000  -0.000   0.000   0.000  -0.000
  0.002  -0.000   0.000  -0.001  -0.001   0.000  -0.000   0.000  -0.000   0.001  -0.000  -0.000   0.001


------------------------ aborting loop because EDIFF is reached ----------------------------------------


    CHARGE:  cpu time      0.5625: real time      0.5667
    FORLOC:  cpu time      0.0108: real time      0.0108
    FORNL :  cpu time      3.0826: real time      3.1084
    STRESS:  cpu time      9.4639: real time      9.5458
    FORCOR:  cpu time      0.0910: real time      0.0915
    FORHAR:  cpu time      0.0162: real time      0.0163
    MIXING:  cpu time      0.0034: real time      0.0035
    OFIELD:  cpu time      0.0001: real time      0.0001

  FORCE on cell =-STRESS in cart. coord.  units (eV):
  Direction    XX          YY          ZZ          XY          YZ          ZX
  --------------------------------------------------------------------------------------
  Alpha Z   210.94477   210.94477   210.94477
  Ewald   -1573.16391 -1041.45275 -1568.51989    84.04792   431.57266   -18.31100
  Hartree   400.04145   302.81594    -6.68897     0.62515   109.70733     1.32886
  E(xc)    -911.28115  -958.76009  -944.28437   -11.16347   -27.54332     0.61647
  Local   -1148.93608 -1194.84915  -416.30411   -13.18572  -319.13752     6.33665
  n-local  2388.05375  2512.51286  2510.89175    21.12580    53.99126   -17.15627
  augment  -624.70786  -566.92892  -553.19650     9.02178    35.87399    -6.39617
  Kinetic  1428.67840  1372.77253  1373.04963    -2.78001   -10.35927     5.82384
  Fock        0.00000     0.00000     0.00000     0.00000     0.00000     0.00000
  -------------------------------------------------------------------------------------
  Total     169.62936   637.05519   605.89231    87.69145   274.10513   -27.75762
  in kB     198.91526   747.04049   710.49745   102.83107   321.42840   -32.54988
  external pressure =      552.15 kB  Pullay stress =        0.00 kB


 VOLUME and BASIS-vectors are now :
 -----------------------------------------------------------------------------
  energy-cutoff  :      700.00
  volume of cell :     1366.29
      direct lattice vectors                 reciprocal lattice vectors
     9.177114487  0.000000000  0.000000000     0.108966713  0.036322239  0.000000000
    -4.588557720 13.765672684  0.000000000     0.000000000  0.072644470  0.000000000
     0.000000000  0.000000000 10.815333366     0.000000000  0.000000000  0.092461320

  length of vectors
     9.177114487 14.510293119 10.815333366     0.114861001  0.072644470  0.092461320


 FORCES acting on ions
    electron-ion (+dipol)            ewald-force                    non-local-force                 convergence-correction
 -----------------------------------------------------------------------------------------------
   -.756E+00 0.301E+02 -.504E+02   0.474E+00 -.309E+02 0.503E+02   0.525E+00 -.956E+00 0.135E+01   0.178E-06 -.141E-03 0.104E-03
   0.855E-02 0.223E+01 -.231E+01   -.176E-01 -.236E+01 0.213E+01   -.212E-02 0.122E+00 0.211E+00   -.135E-05 -.141E-04 -.384E-04
   0.354E-01 -.169E+00 0.190E+02   0.285E-01 0.182E+00 -.184E+02   0.427E-01 -.684E-01 -.924E+00   -.178E-05 0.503E-04 0.252E-04
   0.532E+01 -.104E+02 -.451E+02   -.604E+01 0.135E+02 0.467E+02   -.139E+00 0.740E+01 0.659E+01   -.866E-06 0.289E-04 0.107E-03
   -.415E+00 0.787E+01 -.868E+01   -.103E+00 -.786E+01 0.888E+01   0.468E+00 0.308E-01 -.771E-02   -.640E-07 -.726E-04 0.214E-04
   -.377E+01 0.185E+02 0.735E+02   0.881E+01 -.276E+02 -.105E+03   0.547E+01 -.781E+01 -.305E+02   0.105E-05 -.103E-03 -.118E-03
   -.268E+01 -.514E+02 -.887E+01   0.288E+02 0.150E+03 0.565E+02   0.650E+01 0.287E+02 0.132E+02   -.340E-05 0.117E-03 -.192E-04
   -.628E+00 -.996E+01 -.329E+02   0.500E+00 0.101E+02 0.331E+02   0.153E+00 0.587E-01 0.660E+00   -.366E-05 0.792E-04 0.431E-04
   0.940E+00 -.178E+02 0.416E+02   -.108E+01 0.181E+02 -.421E+02   0.683E-01 -.245E+00 -.346E-01   -.220E-05 0.572E-04 -.123E-03
   -.965E+00 0.175E+02 -.468E+02   0.130E+01 -.184E+02 0.482E+02   -.114E+00 0.421E+00 0.637E+00   0.742E-06 -.106E-03 0.128E-03
   0.107E+01 0.971E+01 0.306E+02   -.428E+00 -.985E+01 -.305E+02   -.801E+00 0.268E-01 -.658E+00   -.541E-05 -.454E-04 -.877E-04
   0.690E+01 0.542E+02 0.740E+01   -.815E+01 -.553E+02 -.686E+01   -.292E+01 -.542E+01 -.904E+00   -.226E-05 -.161E-03 0.353E-04
   0.378E+01 -.671E+01 -.681E+02   -.418E+01 0.668E+01 0.695E+02   -.932E+00 -.225E+01 0.614E+01   0.413E-05 0.154E-03 0.624E-04
   0.298E+00 -.752E+01 0.101E+02   0.998E-01 0.742E+01 -.978E+01   -.423E+00 0.106E+00 -.432E+00   0.929E-06 0.909E-05 -.580E-04
   -.742E+01 -.186E+02 0.512E+02   0.151E+02 0.264E+02 -.806E+02   0.802E+01 0.143E+02 -.292E+02   0.460E-06 -.562E-04 -.702E-04
   0.500E-01 -.202E+01 -.184E+02   0.856E-02 0.202E+01 0.179E+02   -.122E+00 -.435E+00 0.394E+00   0.227E-06 -.575E-04 -.328E-04
   -.139E+00 -.282E+01 0.203E+01   0.163E-01 0.296E+01 -.177E+01   0.105E+00 -.594E-01 -.256E+00   0.155E-05 0.431E-04 0.162E-04
   -.244E-02 -.184E+02 0.509E+02   -.758E-01 0.186E+02 -.514E+02   0.441E+00 -.181E+01 -.201E+01   -.181E-05 0.206E-03 -.472E-04
   -.756E+00 0.301E+02 -.504E+02   0.474E+00 -.309E+02 0.503E+02   0.525E+00 -.956E+00 0.135E+01   -.944E-06 -.142E-03 0.110E-03
   0.854E-02 0.223E+01 -.231E+01   -.176E-01 -.236E+01 0.213E+01   -.212E-02 0.122E+00 0.211E+00   0.914E-06 -.133E-04 -.372E-04
   0.354E-01 -.169E+00 0.190E+02   0.284E-01 0.182E+00 -.184E+02   0.427E-01 -.684E-01 -.924E+00   -.944E-06 0.541E-04 0.253E-04
   0.532E+01 -.104E+02 -.451E+02   -.604E+01 0.135E+02 0.467E+02   -.139E+00 0.740E+01 0.659E+01   -.351E-05 0.266E-04 0.105E-03
   -.415E+00 0.787E+01 -.868E+01   -.103E+00 -.786E+01 0.888E+01   0.468E+00 0.308E-01 -.771E-02   -.297E-05 -.719E-04 0.209E-04
   -.377E+01 0.185E+02 0.735E+02   0.881E+01 -.276E+02 -.105E+03   0.547E+01 -.781E+01 -.305E+02   0.335E-05 -.105E-03 -.128E-03
   -.268E+01 -.514E+02 -.887E+01   0.288E+02 0.150E+03 0.565E+02   0.650E+01 0.287E+02 0.132E+02   0.390E-05 0.125E-03 -.171E-04
   -.628E+00 -.996E+01 -.329E+02   0.500E+00 0.101E+02 0.331E+02   0.153E+00 0.587E-01 0.660E+00   -.161E-05 0.794E-04 0.413E-04
   0.940E+00 -.178E+02 0.416E+02   -.108E+01 0.181E+02 -.421E+02   0.683E-01 -.245E+00 -.346E-01   -.269E-05 0.531E-04 -.120E-03
   -.965E+00 0.175E+02 -.468E+02   0.130E+01 -.184E+02 0.482E+02   -.114E+00 0.421E+00 0.637E+00   -.236E-06 -.106E-03 0.130E-03
   0.107E+01 0.971E+01 0.306E+02   -.428E+00 -.985E+01 -.305E+02   -.801E+00 0.268E-01 -.658E+00   0.517E-05 -.464E-04 -.872E-04
   0.690E+01 0.542E+02 0.740E+01   -.815E+01 -.553E+02 -.686E+01   -.292E+01 -.542E+01 -.904E+00   -.662E-06 -.151E-03 0.308E-04
   0.378E+01 -.671E+01 -.681E+02   -.418E+01 0.668E+01 0.695E+02   -.932E+00 -.225E+01 0.614E+01   -.114E-05 0.157E-03 0.579E-04
   0.298E+00 -.752E+01 0.101E+02   0.998E-01 0.742E+01 -.978E+01   -.423E+00 0.106E+00 -.432E+00   -.133E-05 0.810E-05 -.580E-04
   -.742E+01 -.186E+02 0.512E+02   0.151E+02 0.264E+02 -.806E+02   0.802E+01 0.143E+02 -.292E+02   0.207E-05 -.477E-04 -.697E-04
   0.500E-01 -.202E+01 -.184E+02   0.855E-02 0.202E+01 0.179E+02   -.122E+00 -.435E+00 0.394E+00   0.339E-06 -.541E-04 -.313E-04
   -.139E+00 -.282E+01 0.203E+01   0.162E-01 0.296E+01 -.177E+01   0.105E+00 -.594E-01 -.256E+00   0.332E-07 0.415E-04 0.162E-04
   -.246E-02 -.184E+02 0.509E+02   -.758E-01 0.186E+02 -.515E+02   0.441E+00 -.181E+01 -.201E+01   -.544E-05 0.207E-03 -.431E-04
   0.130E+02 0.235E+02 0.381E+01   -.216E+02 -.303E+02 0.267E+02   -.839E+01 -.124E+02 0.257E+02   -.101E-04 -.131E-03 -.266E-05
   -.117E+02 -.120E+02 0.254E+02   0.129E+02 0.122E+02 -.279E+02   0.147E+01 0.890E+00 -.393E+00   0.145E-04 0.321E-04 -.341E-04
   0.108E+02 -.431E+02 0.185E+02   -.368E+02 -.524E+02 -.665E+02   -.814E+01 -.238E+02 -.154E+02   0.843E-05 0.252E-03 -.642E-05
   0.130E+02 0.235E+02 0.381E+01   -.216E+02 -.303E+02 0.267E+02   -.839E+01 -.124E+02 0.257E+02   -.148E-04 -.133E-03 0.334E-05
   -.117E+02 -.120E+02 0.254E+02   0.129E+02 0.122E+02 -.279E+02   0.147E+01 0.890E+00 -.393E+00   0.664E-05 0.297E-04 -.346E-04
   0.108E+02 -.431E+02 0.185E+02   -.368E+02 -.524E+02 -.665E+02   -.814E+01 -.238E+02 -.154E+02   0.385E-05 0.255E-03 -.331E-05
   -.146E+02 0.373E+02 -.191E+02   0.156E+02 -.365E+02 0.186E+02   0.400E+01 0.225E+00 0.332E+01   0.167E-04 -.174E-03 0.468E-04
   0.123E+02 0.183E+02 -.271E+02   -.189E+02 -.126E+02 0.555E+02   -.636E+01 0.103E+01 0.250E+02   -.103E-04 -.983E-04 0.673E-04
   -.129E+02 -.148E+02 -.765E+01   0.138E+02 0.157E+02 0.704E+01   0.241E+01 -.129E+01 -.114E+01   -.607E-05 0.193E-03 0.372E-04
   -.146E+02 0.373E+02 -.191E+02   0.156E+02 -.365E+02 0.186E+02   0.400E+01 0.225E+00 0.332E+01   0.402E-06 -.174E-03 0.468E-04
   0.123E+02 0.183E+02 -.271E+02   -.189E+02 -.126E+02 0.555E+02   -.636E+01 0.103E+01 0.250E+02   -.856E-05 -.102E-03 0.599E-04
   -.129E+02 -.148E+02 -.765E+01   0.138E+02 0.157E+02 0.704E+01   0.241E+01 -.129E+01 -.114E+01   0.225E-05 0.194E-03 0.367E-04
 -----------------------------------------------------------------------------------------------
   -.287E+01 0.681E+01 -.264E+01   -.711E-14 -.373E-13 0.622E-13   0.264E+01 -.644E+01 0.275E+01   -.164E-04 0.144E-03 0.109E-03
 
 
 POSITION                                       TOTAL-FORCE (eV/Angst)
 -----------------------------------------------------------------------------------
     -4.52021     13.69733      0.00000         0.248453     -1.796244      1.320683
     -2.22593     11.40305      3.24460        -0.006461     -0.019410      0.022128
      0.06835      9.10877      6.48920         0.111273     -0.063239     -0.281030
      4.65690      4.52021      0.00000        -0.859235     10.515007      8.226599
      6.95118      2.22593      3.24460        -0.045565      0.031850      0.187082
     -4.52021     13.69733      6.48920        10.516682    -17.004463    -62.312621
      0.06835      9.10877      0.00000        32.590062    127.605168     60.808293
      2.36262      6.81449      3.24460         0.029910      0.169387      0.851846
      4.65690      4.52021      6.48920        -0.067744      0.089673     -0.558403
      0.06835      2.22593      1.62230         0.221323     -0.507262      2.045142
     -2.22593     13.69733      4.86690        -0.151316     -0.122956     -0.509070
      0.06835     11.40305      8.11150        -4.158206     -6.529096     -0.374411
      4.65690      6.81449      1.62230        -1.334181     -2.286742      7.455695
      6.95118      4.52021      4.86690        -0.020322     -0.006809     -0.102073
      0.06835      2.22593      8.11150        15.733217     22.002220    -58.587310
      0.06834     11.40305      1.62230        -0.058621     -0.444333     -0.101864
      2.36262      9.10877      4.86690        -0.013334      0.067091      0.000782
      4.65690      6.81449      8.11150         0.367599     -1.619951     -2.579426
      0.06834     13.69733      0.00000         0.248453     -1.796244      1.320683
      2.36262     11.40305      3.24460        -0.006461     -0.019410      0.022128
      4.65690      9.10877      6.48920         0.111273     -0.063239     -0.281030
      0.06835      4.52021      0.00000        -0.859235     10.515007      8.226599
      2.36262      2.22593      3.24460        -0.045565      0.031850      0.187082
      0.06835     13.69733      6.48920        10.516682    -17.004463    -62.312621
      4.65690      9.10877      0.00000        32.590062    127.605168     60.808293
     -2.22593      6.81449      3.24460         0.029910      0.169387      0.851846
      0.06835      4.52021      6.48920        -0.067744      0.089673     -0.558403
      4.65690      2.22593      1.62230         0.221323     -0.507262      2.045142
      2.36262     13.69733      4.86690        -0.151316     -0.122956     -0.509070
      4.65690     11.40305      8.11150        -4.158206     -6.529096     -0.374411
      0.06834      6.81449      1.62230        -1.334181     -2.286742      7.455695
      2.36262      4.52021      4.86690        -0.020322     -0.006809     -0.102073
      4.65690      2.22593      8.11150        15.733217     22.002220    -58.587310
      4.65690     11.40305      1.62230        -0.058621     -0.444333     -0.101864
     -2.22593      9.10877      4.86690        -0.013334      0.067091      0.000782
      0.06835      6.81449      8.11150         0.367599     -1.619951     -2.579426
      8.95793      0.36532      8.11150       -16.972277    -19.193087     56.218804
      6.66365      4.18911      9.19303         2.599241      1.088482     -2.811130
      4.36937      8.01291     10.27457       -34.141074   -119.308936    -63.318302
      4.36937      0.36532      8.11150       -16.972277    -19.193087     56.218804
      2.07509      4.18911      9.19303         2.599241      1.088482     -2.811130
     -0.21919      8.01291     10.27457       -34.141074   -119.308936    -63.318302
      2.07509     12.60147      8.65227         5.021547      1.055229      2.831239
      4.36937      2.65959      9.73380       -12.918692      6.697627     53.320790
      2.07509      6.48339      0.00000         3.307721     -0.419206     -1.753444
     -2.51347     12.60147      8.65227         5.021547      1.055229      2.831239
     -0.21919      2.65959      9.73380       -12.918692      6.697627     53.320790
      6.66365      6.48339      0.00000         3.307721     -0.419206     -1.753444
 -----------------------------------------------------------------------------------
    total drift:                               -0.225703      0.367755      0.109898


--------------------------------------------------------------------------------------------------------



  FREE ENERGIE OF THE ION-ELECTRON SYSTEM (eV)
  ---------------------------------------------------
  free  energy   TOTEN  =        81.76998309 eV

  energy  without entropy=       81.77172639  energy(sigma->0) =       81.77085474
 


--------------------------------------------------------------------------------------------------------


    POTLOK:  cpu time      0.8349: real time      0.8391


--------------------------------------------------------------------------------------------------------


     LOOP+:  cpu time    213.6683: real time    215.6576
    4ORBIT:  cpu time      0.0000: real time      0.0000

 total amount of memory used by VASP MPI-rank0    97997. kBytes
=======================================================================

   base      :      30000. kBytes
   nonlr-proj:       5886. kBytes
   fftplans  :       8593. kBytes
   grid      :       6076. kBytes
   one-center:         48. kBytes
   wavefun   :      47394. kBytes
 
  
  
 General timing and accounting informations for this job:
 ========================================================
  
                  Total CPU time used (sec):      241.448
                            User time (sec):      224.892
                          System time (sec):       16.556
                         Elapsed time (sec):      244.717
  
                   Maximum memory used (kb):      365176.
                   Average memory used (kb):          N/A
  
                          Minor page faults:       204176
                          Major page faults:           32
                 Voluntary context switches:         1452
