Si and Ge interface calculation         
           1
     9.177114    0.000000    0.000000
    -4.588558   13.765673    0.000000
     0.000000    0.000000   10.815333
   Sn
    48
Direct configuration=     1
   0.00496491  0.99503511  0.00000000
   0.17163163  0.82836843  0.30000004
   0.33829829  0.66170180  0.59999996
   0.67163157  0.32836843  0.00000000
   0.83829832  0.16170172  0.30000004
   0.00496507  0.99503511  0.59999996
   0.33829826  0.66170174  0.00000000
   0.50496495  0.49503505  0.30000004
   0.67163169  0.32836843  0.59999996
   0.08829826  0.16170174  0.14999999
   0.25496495  0.99503511  0.45000002
   0.42163169  0.82836837  0.75000006
   0.75496483  0.49503508  0.14999999
   0.92163145  0.32836843  0.45000002
   0.08829832  0.16170174  0.75000006
   0.42163160  0.82836848  0.14999999
   0.58829826  0.66170180  0.45000002
   0.75496513  0.49503514  0.75000006
   0.50496489  0.99503511  0.00000000
   0.67163163  0.82836843  0.30000004
   0.83829832  0.66170174  0.59999996
   0.17163159  0.32836843  0.00000000
   0.33829832  0.16170174  0.30000004
   0.50496501  0.99503511  0.59999996
   0.83829826  0.66170174  0.00000000
   0.00496495  0.49503505  0.30000004
   0.17163157  0.32836837  0.59999996
   0.58829820  0.16170172  0.14999999
   0.75496495  0.99503505  0.45000002
   0.92163163  0.82836837  0.75000006
   0.25496486  0.49503508  0.14999999
   0.42163157  0.32836843  0.45000002
   0.58829832  0.16170171  0.75000006
   0.92163163  0.82836848  0.14999999
   0.08829832  0.66170186  0.45000002
   0.25496519  0.49503517  0.75000006
   0.98938477  0.02653812  0.75000006
   0.87827361  0.30431592  0.85000014
   0.76716250  0.58209366  0.95000017
   0.48938471  0.02653812  0.75000006
   0.37827358  0.30431592  0.85000014
   0.26716247  0.58209366  0.95000017
   0.68382913  0.91542691  0.80000013
   0.57271790  0.19320464  0.90000010
   0.46160686  0.47098267  0.00000024
   0.18382913  0.91542691  0.80000013
   0.07271802  0.19320464  0.90000010
   0.96160698  0.47098267  0.00000012
