 120 120   0   0
  0.1318225E+02  0.1330318E-08  0.1629300E-08  0.7994753E-09  0.5000000E-15
  1.000000000000000E-004
  CAR 
 Si and Ge interface calculation         
      7.74616199    -14.87469065  301      4.33470769      1.00000000
    -14.875  0.0000E+00  0.0000E+00  0.0000E+00  0.0000E+00
    -14.799  0.0000E+00  0.0000E+00  0.0000E+00  0.0000E+00
    -14.724  0.0000E+00  0.0000E+00  0.0000E+00  0.0000E+00
    -14.648  0.0000E+00  0.0000E+00  0.0000E+00  0.0000E+00
    -14.573  0.0000E+00  0.0000E+00  0.0000E+00  0.0000E+00
    -14.498  0.0000E+00  0.0000E+00  0.0000E+00  0.0000E+00
    -14.422  0.0000E+00  0.0000E+00  0.0000E+00  0.0000E+00
    -14.347  0.0000E+00  0.0000E+00  0.0000E+00  0.0000E+00
    -14.271  0.0000E+00  0.0000E+00  0.0000E+00  0.0000E+00
    -14.196  0.0000E+00  0.0000E+00  0.0000E+00  0.0000E+00
    -14.121  0.0000E+00  0.0000E+00  0.0000E+00  0.0000E+00
    -14.045  0.0000E+00  0.0000E+00  0.0000E+00  0.0000E+00
    -13.970  0.0000E+00  0.0000E+00  0.0000E+00  0.0000E+00
    -13.894  0.1480E-10  0.8589E-15  0.1116E-11  0.6476E-16
    -13.819  0.4420E+01  0.4393E+01  0.3333E+00  0.3313E+00
    -13.744  0.1246E+02  0.9779E+01  0.1273E+01  0.1071E+01
    -13.668  0.1406E+02  0.1667E+02  0.2333E+01  0.2333E+01
    -13.593  0.1405E+01  0.1036E+00  0.2439E+01  0.2341E+01
    -13.517  0.2512E+02  0.2638E+02  0.4333E+01  0.4331E+01
    -13.442  0.8837E+01  0.8619E+01  0.5000E+01  0.4983E+01
    -13.367  0.1326E+02  0.1326E+02  0.6000E+01  0.6000E+01
    -13.291  0.8917E+01  0.8841E+01  0.6672E+01  0.6667E+01
    -13.216  0.1777E+02  0.1769E+02  0.8012E+01  0.8000E+01
    -13.140  0.9396E+01  0.5412E+01  0.8721E+01  0.8408E+01
    -13.065  0.1254E+02  0.1669E+02  0.9667E+01  0.9667E+01
    -12.990  0.1428E+02  0.1020E+02  0.1074E+02  0.1044E+02
    -12.914  0.7829E+01  0.1190E+02  0.1133E+02  0.1133E+02
    -12.839  0.1964E+02  0.1137E+02  0.1281E+02  0.1219E+02
    -12.763  0.2343E+02  0.2940E+02  0.1458E+02  0.1441E+02
    -12.688  0.4730E+01  0.7714E+01  0.1500E+02  0.1499E+02
    -12.613  0.2210E+02  0.2200E+02  0.1667E+02  0.1666E+02
    -12.537  0.6990E+01  0.2308E+01  0.1719E+02  0.1684E+02
    -12.462  0.8840E+01  0.1531E+02  0.1800E+02  0.1799E+02
    -12.386  0.8847E+01  0.8841E+01  0.1867E+02  0.1867E+02
    -12.311  0.1765E+02  0.1694E+02  0.2000E+02  0.1994E+02
    -12.236  0.2237E+02  0.2101E+02  0.2169E+02  0.2158E+02
    -12.160  0.8252E+01  0.7234E+01  0.2231E+02  0.2221E+02
    -12.085  0.1029E+02  0.9808E+01  0.2311E+02  0.2295E+02
    -12.009  0.1197E+02  0.1306E+02  0.2401E+02  0.2400E+02
    -11.934  0.8640E+01  0.8461E+01  0.2467E+02  0.2464E+02
    -11.859  0.2640E+01  0.2371E+00  0.2487E+02  0.2468E+02
    -11.783  0.6201E+01  0.8604E+01  0.2533E+02  0.2533E+02
    -11.708  0.1875E+02  0.1074E+02  0.2675E+02  0.2614E+02
    -11.632  0.1518E+02  0.2463E+02  0.2800E+02  0.2800E+02
    -11.557  0.0000E+00  0.0000E+00  0.2800E+02  0.2800E+02
    -11.482  0.2773E-10  0.2147E-14  0.2800E+02  0.2800E+02
    -11.406  0.4420E+01  0.4401E+01  0.2833E+02  0.2833E+02
    -11.331  0.8841E+01  0.8807E+01  0.2900E+02  0.2900E+02
    -11.255  0.1121E-06  0.8089E-10  0.2900E+02  0.2900E+02
    -11.180  0.8841E+01  0.8841E+01  0.2967E+02  0.2967E+02
    -11.105  0.3290E+01  0.8455E+00  0.2991E+02  0.2973E+02
    -11.029  0.3906E+02  0.3854E+02  0.3295E+02  0.3264E+02
    -10.954  0.2560E+02  0.2676E+02  0.3494E+02  0.3469E+02
    -10.878  0.2532E+02  0.2378E+02  0.3685E+02  0.3650E+02
    -10.803  0.6869E+01  0.8637E+01  0.3752E+02  0.3720E+02
    -10.728  0.6414E+01  0.8476E+01  0.3815E+02  0.3784E+02
    -10.652  0.1071E+02  0.1543E+02  0.3900E+02  0.3900E+02
    -10.577  0.8926E+01  0.8843E+01  0.3967E+02  0.3967E+02
    -10.501  0.4336E+01  0.4418E+01  0.4000E+02  0.4000E+02
    -10.426  0.2042E+02  0.1709E+02  0.4154E+02  0.4129E+02
    -10.351  0.1046E+02  0.1265E+02  0.4233E+02  0.4233E+02
    -10.275  0.1097E+02  0.8518E+01  0.4316E+02  0.4298E+02
    -10.200  0.6690E+01  0.8622E+01  0.4367E+02  0.4367E+02
    -10.124  0.3034E-07  0.1847E-10  0.4367E+02  0.4367E+02
    -10.049  0.1201E+02  0.9815E+01  0.4457E+02  0.4441E+02
     -9.974  0.1912E+02  0.1484E+02  0.4601E+02  0.4553E+02
     -9.898  0.1141E+02  0.1621E+02  0.4697E+02  0.4675E+02
     -9.823  0.8694E+01  0.1219E+02  0.4768E+02  0.4767E+02
     -9.747  0.2188E+02  0.2197E+02  0.4933E+02  0.4932E+02
     -9.672  0.1428E+02  0.1171E+02  0.5041E+02  0.5022E+02
     -9.596  0.1109E+02  0.1084E+02  0.5126E+02  0.5105E+02
     -9.521  0.1438E+02  0.1666E+02  0.5242E+02  0.5231E+02
     -9.446  0.2639E+02  0.2569E+02  0.5441E+02  0.5427E+02
     -9.370  0.1222E+02  0.1356E+02  0.5533E+02  0.5533E+02
     -9.295  0.2350E+02  0.1527E+02  0.5711E+02  0.5648E+02
     -9.219  0.2439E+02  0.3226E+02  0.5900E+02  0.5900E+02
     -9.144  0.1344E+02  0.1116E+02  0.6001E+02  0.5984E+02
     -9.069  0.2749E+02  0.2819E+02  0.6210E+02  0.6199E+02
     -8.993  0.3235E+02  0.2799E+02  0.6454E+02  0.6412E+02
     -8.918  0.1100E+02  0.1014E+02  0.6541E+02  0.6490E+02
     -8.842  0.1645E+02  0.2327E+02  0.6673E+02  0.6666E+02
     -8.767  0.1647E+02  0.1305E+02  0.6797E+02  0.6765E+02
     -8.692  0.1385E+02  0.1432E+02  0.6903E+02  0.6877E+02
     -8.616  0.1447E+02  0.1354E+02  0.7019E+02  0.6981E+02
     -8.541  0.1443E+02  0.1847E+02  0.7133E+02  0.7121E+02
     -8.465  0.2657E+02  0.2756E+02  0.7334E+02  0.7330E+02
     -8.390  0.1710E+02  0.1394E+02  0.7463E+02  0.7438E+02
     -8.315  0.2660E+02  0.2247E+02  0.7667E+02  0.7608E+02
     -8.239  0.1344E+02  0.1963E+02  0.7771E+02  0.7767E+02
     -8.164  0.1685E+02  0.1383E+02  0.7898E+02  0.7871E+02
     -8.088  0.1579E+02  0.1719E+02  0.8019E+02  0.8001E+02
     -8.013  0.1512E+02  0.1679E+02  0.8133E+02  0.8128E+02
     -7.938  0.4408E+01  0.3904E+01  0.8167E+02  0.8163E+02
     -7.862  0.2686E-06  0.5288E-10  0.8167E+02  0.8167E+02
     -7.787  0.4496E+01  0.4398E+01  0.8201E+02  0.8200E+02
     -7.711  0.1315E+02  0.1265E+02  0.8300E+02  0.8295E+02
     -7.636  0.0000E+00  0.0000E+00  0.8300E+02  0.8300E+02
     -7.561  0.8308E-02  0.3981E-04  0.8300E+02  0.8300E+02
     -7.485  0.1324E+02  0.1297E+02  0.8400E+02  0.8398E+02
     -7.410  0.0000E+00  0.0000E+00  0.8400E+02  0.8400E+02
     -7.334  0.1822E+00  0.1113E-01  0.8401E+02  0.8400E+02
     -7.259  0.1548E+02  0.1164E+02  0.8518E+02  0.8488E+02
     -7.184  0.1001E+02  0.1195E+02  0.8599E+02  0.8583E+02
     -7.108  0.4464E+01  0.5010E+01  0.8634E+02  0.8633E+02
     -7.033  0.1302E+02  0.1208E+02  0.8732E+02  0.8724E+02
     -6.957  0.6227E+01  0.5630E+01  0.8780E+02  0.8769E+02
     -6.882  0.8973E+01  0.9014E+01  0.8852E+02  0.8837E+02
     -6.807  0.4102E+01  0.4714E+01  0.8885E+02  0.8873E+02
     -6.731  0.1441E+02  0.1576E+02  0.8994E+02  0.8991E+02
     -6.656  0.7842E+00  0.1051E+01  0.9000E+02  0.9000E+02
     -6.580  0.2012E+02  0.1659E+02  0.9152E+02  0.9125E+02
     -6.505  0.6128E+01  0.9755E+01  0.9206E+02  0.9199E+02
     -6.430  0.1160E+02  0.1207E+02  0.9294E+02  0.9292E+02
     -6.354  0.2683E+02  0.2049E+02  0.9496E+02  0.9446E+02
     -6.279  0.3103E+02  0.3348E+02  0.9738E+02  0.9704E+02
     -6.203  0.2617E+02  0.2861E+02  0.9942E+02  0.9925E+02
     -6.128  0.2886E+02  0.3008E+02  0.1016E+03  0.1015E+03
     -6.053  0.2953E+02  0.2633E+02  0.1038E+03  0.1035E+03
     -5.977  0.2118E+02  0.2015E+02  0.1055E+03  0.1051E+03
     -5.902  0.2926E+02  0.3055E+02  0.1077E+03  0.1074E+03
     -5.826  0.2267E+02  0.2381E+02  0.1094E+03  0.1092E+03
     -5.751  0.2597E+02  0.2671E+02  0.1114E+03  0.1112E+03
     -5.676  0.2696E+02  0.2580E+02  0.1135E+03  0.1133E+03
     -5.600  0.2601E+02  0.2676E+02  0.1155E+03  0.1153E+03
     -5.525  0.2768E+02  0.2704E+02  0.1176E+03  0.1174E+03
     -5.449  0.2548E+02  0.2556E+02  0.1195E+03  0.1193E+03
     -5.374  0.3296E+02  0.3463E+02  0.1220E+03  0.1219E+03
     -5.299  0.1496E+02  0.1298E+02  0.1232E+03  0.1230E+03
     -5.223  0.3045E+02  0.2960E+02  0.1255E+03  0.1253E+03
     -5.148  0.4278E+02  0.3934E+02  0.1287E+03  0.1283E+03
     -5.072  0.1826E+02  0.2050E+02  0.1301E+03  0.1298E+03
     -4.997  0.3783E+02  0.3880E+02  0.1330E+03  0.1328E+03
     -4.922  0.3725E+02  0.3550E+02  0.1359E+03  0.1355E+03
     -4.846  0.2216E+02  0.2561E+02  0.1376E+03  0.1374E+03
     -4.771  0.3204E+02  0.2999E+02  0.1400E+03  0.1397E+03
     -4.695  0.2487E+02  0.2228E+02  0.1419E+03  0.1415E+03
     -4.620  0.2794E+02  0.3193E+02  0.1440E+03  0.1439E+03
     -4.545  0.1950E+02  0.1904E+02  0.1455E+03  0.1454E+03
     -4.469  0.3542E+02  0.3333E+02  0.1482E+03  0.1479E+03
     -4.394  0.2708E+02  0.2595E+02  0.1503E+03  0.1499E+03
     -4.318  0.3698E+02  0.3719E+02  0.1531E+03  0.1527E+03
     -4.243  0.2345E+02  0.2587E+02  0.1549E+03  0.1547E+03
     -4.167  0.2919E+02  0.2718E+02  0.1571E+03  0.1568E+03
     -4.092  0.3321E+02  0.3145E+02  0.1596E+03  0.1592E+03
     -4.017  0.3299E+02  0.3376E+02  0.1622E+03  0.1618E+03
     -3.941  0.2697E+02  0.3119E+02  0.1643E+03  0.1642E+03
     -3.866  0.3126E+02  0.2822E+02  0.1666E+03  0.1663E+03
     -3.790  0.2063E+02  0.2150E+02  0.1682E+03  0.1680E+03
     -3.715  0.2412E+02  0.2733E+02  0.1701E+03  0.1700E+03
     -3.640  0.2986E+02  0.2757E+02  0.1724E+03  0.1721E+03
     -3.564  0.2211E+02  0.2143E+02  0.1741E+03  0.1737E+03
     -3.489  0.2793E+02  0.3119E+02  0.1762E+03  0.1761E+03
     -3.413  0.2233E+02  0.2175E+02  0.1779E+03  0.1777E+03
     -3.338  0.3279E+02  0.3112E+02  0.1804E+03  0.1801E+03
     -3.263  0.2389E+02  0.2330E+02  0.1822E+03  0.1819E+03
     -3.187  0.2183E+02  0.2065E+02  0.1839E+03  0.1836E+03
     -3.112  0.2577E+02  0.2943E+02  0.1859E+03  0.1858E+03
     -3.036  0.2653E+02  0.2491E+02  0.1879E+03  0.1877E+03
     -2.961  0.2075E+02  0.1638E+02  0.1895E+03  0.1889E+03
     -2.886  0.3418E+02  0.3998E+02  0.1922E+03  0.1920E+03
     -2.810  0.2852E+02  0.2657E+02  0.1943E+03  0.1941E+03
     -2.735  0.2620E+02  0.2733E+02  0.1964E+03  0.1961E+03
     -2.659  0.3341E+02  0.3351E+02  0.1989E+03  0.1987E+03
     -2.584  0.3257E+02  0.2995E+02  0.2013E+03  0.2010E+03
     -2.509  0.2821E+02  0.3167E+02  0.2035E+03  0.2034E+03
     -2.433  0.2384E+02  0.2260E+02  0.2053E+03  0.2051E+03
     -2.358  0.3339E+02  0.3220E+02  0.2078E+03  0.2076E+03
     -2.282  0.4260E+02  0.3827E+02  0.2110E+03  0.2105E+03
     -2.207  0.2792E+02  0.2683E+02  0.2132E+03  0.2127E+03
     -2.132  0.2830E+02  0.3164E+02  0.2154E+03  0.2151E+03
     -2.056  0.3009E+02  0.2808E+02  0.2177E+03  0.2173E+03
     -1.981  0.3962E+02  0.3843E+02  0.2207E+03  0.2202E+03
     -1.905  0.3645E+02  0.4086E+02  0.2235E+03  0.2233E+03
     -1.830  0.4503E+02  0.4261E+02  0.2270E+03  0.2266E+03
     -1.755  0.3016E+02  0.3176E+02  0.2293E+03  0.2291E+03
     -1.679  0.3283E+02  0.3315E+02  0.2318E+03  0.2316E+03
     -1.604  0.4174E+02  0.3866E+02  0.2349E+03  0.2345E+03
     -1.528  0.3172E+02  0.3325E+02  0.2374E+03  0.2371E+03
     -1.453  0.4063E+02  0.3954E+02  0.2404E+03  0.2401E+03
     -1.378  0.3071E+02  0.2845E+02  0.2428E+03  0.2424E+03
     -1.302  0.4063E+02  0.4442E+02  0.2459E+03  0.2457E+03
     -1.227  0.3960E+02  0.3841E+02  0.2489E+03  0.2487E+03
     -1.151  0.4337E+02  0.4180E+02  0.2522E+03  0.2519E+03
     -1.076  0.3701E+02  0.3538E+02  0.2550E+03  0.2546E+03
     -1.001  0.3840E+02  0.3994E+02  0.2580E+03  0.2576E+03
     -0.925  0.4181E+02  0.4129E+02  0.2612E+03  0.2608E+03
     -0.850  0.3777E+02  0.3685E+02  0.2641E+03  0.2636E+03
     -0.774  0.3151E+02  0.3415E+02  0.2666E+03  0.2662E+03
     -0.699  0.4107E+02  0.4304E+02  0.2697E+03  0.2694E+03
     -0.624  0.3179E+02  0.2770E+02  0.2722E+03  0.2716E+03
     -0.548  0.3319E+02  0.3822E+02  0.2748E+03  0.2745E+03
     -0.473  0.3898E+02  0.3962E+02  0.2778E+03  0.2775E+03
     -0.397  0.3462E+02  0.3098E+02  0.2804E+03  0.2799E+03
     -0.322  0.2881E+02  0.3302E+02  0.2827E+03  0.2824E+03
     -0.247  0.2844E+02  0.2863E+02  0.2848E+03  0.2846E+03
     -0.171  0.4031E+02  0.3659E+02  0.2879E+03  0.2873E+03
     -0.096  0.3209E+02  0.3628E+02  0.2904E+03  0.2901E+03
     -0.020  0.2267E+02  0.2303E+02  0.2921E+03  0.2919E+03
      0.055  0.4444E+02  0.4153E+02  0.2954E+03  0.2950E+03
      0.130  0.4016E+02  0.4060E+02  0.2985E+03  0.2982E+03
      0.206  0.4114E+02  0.3826E+02  0.3017E+03  0.3011E+03
      0.281  0.3503E+02  0.3638E+02  0.3044E+03  0.3038E+03
      0.357  0.4723E+02  0.4315E+02  0.3080E+03  0.3072E+03
      0.432  0.4209E+02  0.4578E+02  0.3112E+03  0.3106E+03
      0.507  0.3803E+02  0.3962E+02  0.3142E+03  0.3136E+03
      0.583  0.4387E+02  0.4169E+02  0.3175E+03  0.3168E+03
      0.658  0.2607E+02  0.2949E+02  0.3196E+03  0.3191E+03
      0.734  0.2756E+02  0.2943E+02  0.3217E+03  0.3214E+03
      0.809  0.4475E+02  0.4294E+02  0.3251E+03  0.3246E+03
      0.885  0.2679E+02  0.3048E+02  0.3272E+03  0.3270E+03
      0.960  0.3586E+02  0.3263E+02  0.3299E+03  0.3294E+03
      1.035  0.4086E+02  0.3957E+02  0.3330E+03  0.3325E+03
      1.111  0.4819E+02  0.5015E+02  0.3367E+03  0.3363E+03
      1.186  0.4401E+02  0.4115E+02  0.3401E+03  0.3395E+03
      1.262  0.3644E+02  0.3622E+02  0.3429E+03  0.3423E+03
      1.337  0.3851E+02  0.3846E+02  0.3459E+03  0.3453E+03
      1.412  0.4533E+02  0.4886E+02  0.3493E+03  0.3490E+03
      1.488  0.5058E+02  0.4484E+02  0.3531E+03  0.3524E+03
      1.563  0.4095E+02  0.3944E+02  0.3562E+03  0.3554E+03
      1.639  0.3714E+02  0.4289E+02  0.3591E+03  0.3587E+03
      1.714  0.4648E+02  0.4362E+02  0.3626E+03  0.3620E+03
      1.789  0.4774E+02  0.4862E+02  0.3663E+03  0.3657E+03
      1.865  0.4736E+02  0.4549E+02  0.3699E+03  0.3692E+03
      1.940  0.4225E+02  0.4086E+02  0.3732E+03  0.3724E+03
      2.016  0.4701E+02  0.4495E+02  0.3768E+03  0.3759E+03
      2.091  0.4771E+02  0.5470E+02  0.3805E+03  0.3801E+03
      2.166  0.4868E+02  0.4460E+02  0.3842E+03  0.3835E+03
      2.242  0.4461E+02  0.4752E+02  0.3876E+03  0.3872E+03
      2.317  0.4424E+02  0.4426E+02  0.3909E+03  0.3906E+03
      2.393  0.4313E+02  0.3956E+02  0.3943E+03  0.3936E+03
      2.468  0.4445E+02  0.4774E+02  0.3977E+03  0.3973E+03
      2.543  0.4270E+02  0.4128E+02  0.4009E+03  0.4005E+03
      2.619  0.5196E+02  0.4743E+02  0.4048E+03  0.4041E+03
      2.694  0.5326E+02  0.5493E+02  0.4089E+03  0.4083E+03
      2.770  0.4114E+02  0.3737E+02  0.4120E+03  0.4111E+03
      2.845  0.3573E+02  0.3884E+02  0.4148E+03  0.4141E+03
      2.920  0.4052E+02  0.4025E+02  0.4179E+03  0.4172E+03
      2.996  0.4513E+02  0.4447E+02  0.4214E+03  0.4206E+03
      3.071  0.4699E+02  0.4704E+02  0.4250E+03  0.4242E+03
      3.147  0.3450E+02  0.3735E+02  0.4276E+03  0.4270E+03
      3.222  0.5325E+02  0.4796E+02  0.4317E+03  0.4307E+03
      3.297  0.4842E+02  0.5645E+02  0.4355E+03  0.4349E+03
      3.373  0.4226E+02  0.4098E+02  0.4387E+03  0.4381E+03
      3.448  0.3758E+02  0.3748E+02  0.4416E+03  0.4409E+03
      3.524  0.4242E+02  0.3957E+02  0.4449E+03  0.4439E+03
      3.599  0.5114E+02  0.5838E+02  0.4488E+03  0.4484E+03
      3.674  0.3506E+02  0.3226E+02  0.4515E+03  0.4509E+03
      3.750  0.4621E+02  0.4378E+02  0.4550E+03  0.4543E+03
      3.825  0.4570E+02  0.3995E+02  0.4584E+03  0.4574E+03
      3.901  0.4593E+02  0.4769E+02  0.4619E+03  0.4610E+03
      3.976  0.3797E+02  0.3589E+02  0.4648E+03  0.4638E+03
      4.051  0.4306E+02  0.4460E+02  0.4681E+03  0.4671E+03
      4.127  0.3587E+02  0.3749E+02  0.4709E+03  0.4700E+03
      4.202  0.3805E+02  0.4063E+02  0.4738E+03  0.4731E+03
      4.278  0.5161E+02  0.4534E+02  0.4778E+03  0.4765E+03
      4.353  0.4752E+02  0.4609E+02  0.4814E+03  0.4800E+03
      4.428  0.4506E+02  0.5257E+02  0.4848E+03  0.4840E+03
      4.504  0.4619E+02  0.3944E+02  0.4883E+03  0.4871E+03
      4.579  0.3895E+02  0.4357E+02  0.4913E+03  0.4904E+03
      4.655  0.5141E+02  0.5126E+02  0.4953E+03  0.4943E+03
      4.730  0.4760E+02  0.4547E+02  0.4989E+03  0.4978E+03
      4.805  0.4133E+02  0.4667E+02  0.5021E+03  0.5014E+03
      4.881  0.4938E+02  0.4800E+02  0.5059E+03  0.5050E+03
      4.956  0.4117E+02  0.3196E+02  0.5090E+03  0.5075E+03
      5.032  0.4195E+02  0.4657E+02  0.5123E+03  0.5110E+03
      5.107  0.4355E+02  0.4562E+02  0.5157E+03  0.5145E+03
      5.182  0.3817E+02  0.4821E+02  0.5187E+03  0.5182E+03
      5.258  0.4452E+02  0.3565E+02  0.5220E+03  0.5209E+03
      5.333  0.3612E+02  0.4155E+02  0.5249E+03  0.5240E+03
      5.409  0.3832E+02  0.4294E+02  0.5278E+03  0.5273E+03
      5.484  0.4530E+02  0.4142E+02  0.5313E+03  0.5305E+03
      5.559  0.3800E+02  0.4341E+02  0.5342E+03  0.5338E+03
      5.635  0.3787E+02  0.3246E+02  0.5371E+03  0.5363E+03
      5.710  0.3764E+02  0.4038E+02  0.5399E+03  0.5394E+03
      5.786  0.4380E+02  0.3512E+02  0.5433E+03  0.5421E+03
      5.861  0.4395E+02  0.4869E+02  0.5466E+03  0.5458E+03
      5.936  0.2500E+02  0.2886E+02  0.5485E+03  0.5480E+03
      6.012  0.4232E+02  0.3952E+02  0.5517E+03  0.5510E+03
      6.087  0.4462E+02  0.4603E+02  0.5551E+03  0.5545E+03
      6.163  0.3895E+02  0.4058E+02  0.5581E+03  0.5577E+03
      6.238  0.3726E+02  0.3752E+02  0.5609E+03  0.5605E+03
      6.314  0.4527E+02  0.4315E+02  0.5644E+03  0.5638E+03
      6.389  0.4596E+02  0.4123E+02  0.5679E+03  0.5671E+03
      6.464  0.2531E+02  0.3229E+02  0.5698E+03  0.5695E+03
      6.540  0.3024E+02  0.2730E+02  0.5721E+03  0.5716E+03
      6.615  0.3838E+02  0.3724E+02  0.5750E+03  0.5745E+03
      6.691  0.8852E+01  0.1615E+02  0.5757E+03  0.5757E+03
      6.766  0.3516E+01  0.4160E+01  0.5760E+03  0.5760E+03
      6.841  0.0000E+00  0.0000E+00  0.5760E+03  0.5760E+03
      6.917  0.0000E+00  0.0000E+00  0.5760E+03  0.5760E+03
      6.992  0.0000E+00  0.0000E+00  0.5760E+03  0.5760E+03
      7.068  0.0000E+00  0.0000E+00  0.5760E+03  0.5760E+03
      7.143  0.0000E+00  0.0000E+00  0.5760E+03  0.5760E+03
      7.218  0.0000E+00  0.0000E+00  0.5760E+03  0.5760E+03
      7.294  0.0000E+00  0.0000E+00  0.5760E+03  0.5760E+03
      7.369  0.0000E+00  0.0000E+00  0.5760E+03  0.5760E+03
      7.445  0.0000E+00  0.0000E+00  0.5760E+03  0.5760E+03
      7.520  0.0000E+00  0.0000E+00  0.5760E+03  0.5760E+03
      7.595  0.0000E+00  0.0000E+00  0.5760E+03  0.5760E+03
      7.671  0.0000E+00  0.0000E+00  0.5760E+03  0.5760E+03
      7.746  0.0000E+00  0.0000E+00  0.5760E+03  0.5760E+03
