 264 264   0   0
  0.2770664E+02  0.1946760E-08  0.1946760E-08  0.1930025E-08  0.5000000E-15
  1.000000000000000E-004
  CAR 
 Si and Ge interface calculation         
      6.66689086     -8.90895784  301      4.05365763      1.00000000
     -8.909  0.0000E+00  0.0000E+00  0.0000E+00  0.0000E+00
     -8.857  0.0000E+00  0.0000E+00  0.0000E+00  0.0000E+00
     -8.805  0.0000E+00  0.0000E+00  0.0000E+00  0.0000E+00
     -8.753  0.0000E+00  0.0000E+00  0.0000E+00  0.0000E+00
     -8.701  0.0000E+00  0.0000E+00  0.0000E+00  0.0000E+00
     -8.649  0.0000E+00  0.0000E+00  0.0000E+00  0.0000E+00
     -8.597  0.0000E+00  0.0000E+00  0.0000E+00  0.0000E+00
     -8.546  0.0000E+00  0.0000E+00  0.0000E+00  0.0000E+00
     -8.494  0.0000E+00  0.0000E+00  0.0000E+00  0.0000E+00
     -8.442  0.0000E+00  0.0000E+00  0.0000E+00  0.0000E+00
     -8.390  0.0000E+00  0.0000E+00  0.0000E+00  0.0000E+00
     -8.338  0.0000E+00  0.0000E+00  0.0000E+00  0.0000E+00
     -8.286  0.0000E+00  0.0000E+00  0.0000E+00  0.0000E+00
     -8.234  0.1409E-04  0.3577E-05  0.7315E-06  0.1857E-06
     -8.182  0.9716E+01  0.9608E+01  0.5045E+00  0.4989E+00
     -8.130  0.1895E+02  0.1876E+02  0.1488E+01  0.1473E+01
     -8.078  0.1938E+02  0.1959E+02  0.2495E+01  0.2490E+01
     -8.026  0.1583E+02  0.1491E+02  0.3317E+01  0.3264E+01
     -7.974  0.4469E+01  0.5112E+01  0.3549E+01  0.3530E+01
     -7.922  0.1483E+02  0.1404E+02  0.4319E+01  0.4259E+01
     -7.871  0.3147E+02  0.3211E+02  0.5953E+01  0.5926E+01
     -7.819  0.2248E+02  0.2217E+02  0.7120E+01  0.7077E+01
     -7.767  0.2193E+02  0.2181E+02  0.8258E+01  0.8209E+01
     -7.715  0.1436E+02  0.1525E+02  0.9004E+01  0.9001E+01
     -7.663  0.1941E+02  0.1936E+02  0.1001E+02  0.1001E+02
     -7.611  0.9401E+01  0.9512E+01  0.1050E+02  0.1050E+02
     -7.559  0.1365E+01  0.8717E+00  0.1057E+02  0.1055E+02
     -7.507  0.3015E+02  0.2938E+02  0.1214E+02  0.1207E+02
     -7.455  0.2917E+02  0.2949E+02  0.1365E+02  0.1360E+02
     -7.403  0.2599E+02  0.2692E+02  0.1500E+02  0.1500E+02
     -7.351  0.9644E+01  0.9532E+01  0.1550E+02  0.1549E+02
     -7.299  0.3373E+02  0.3172E+02  0.1725E+02  0.1714E+02
     -7.248  0.2984E+02  0.3065E+02  0.1880E+02  0.1873E+02
     -7.196  0.3203E+02  0.3286E+02  0.2046E+02  0.2044E+02
     -7.144  0.1205E+02  0.1170E+02  0.2109E+02  0.2105E+02
     -7.092  0.4076E+02  0.3950E+02  0.2321E+02  0.2310E+02
     -7.040  0.5247E+02  0.5381E+02  0.2593E+02  0.2589E+02
     -6.988  0.3672E+02  0.3571E+02  0.2784E+02  0.2774E+02
     -6.936  0.2348E+02  0.2394E+02  0.2906E+02  0.2899E+02
     -6.884  0.3954E+02  0.4004E+02  0.3111E+02  0.3107E+02
     -6.832  0.4038E+02  0.3894E+02  0.3320E+02  0.3309E+02
     -6.780  0.5451E+02  0.5646E+02  0.3603E+02  0.3602E+02
     -6.728  0.4450E+02  0.4341E+02  0.3835E+02  0.3827E+02
     -6.676  0.4017E+02  0.3999E+02  0.4043E+02  0.4035E+02
     -6.625  0.4936E+02  0.4884E+02  0.4299E+02  0.4288E+02
     -6.573  0.4539E+02  0.4410E+02  0.4535E+02  0.4517E+02
     -6.521  0.4366E+02  0.4455E+02  0.4762E+02  0.4749E+02
     -6.469  0.4109E+02  0.4199E+02  0.4975E+02  0.4967E+02
     -6.417  0.4295E+02  0.4102E+02  0.5198E+02  0.5180E+02
     -6.365  0.3896E+02  0.4245E+02  0.5400E+02  0.5400E+02
     -6.313  0.5738E+02  0.5703E+02  0.5698E+02  0.5696E+02
     -6.261  0.3001E+02  0.2888E+02  0.5854E+02  0.5846E+02
     -6.209  0.5914E+02  0.5805E+02  0.6161E+02  0.6148E+02
     -6.157  0.7435E+02  0.7347E+02  0.6547E+02  0.6529E+02
     -6.105  0.6856E+02  0.6942E+02  0.6903E+02  0.6889E+02
     -6.053  0.7058E+02  0.7047E+02  0.7269E+02  0.7255E+02
     -6.001  0.7873E+02  0.7942E+02  0.7678E+02  0.7668E+02
     -5.950  0.4670E+02  0.4631E+02  0.7921E+02  0.7908E+02
     -5.898  0.5766E+02  0.5849E+02  0.8220E+02  0.8212E+02
     -5.846  0.6000E+02  0.5843E+02  0.8532E+02  0.8515E+02
     -5.794  0.9540E+02  0.9443E+02  0.9027E+02  0.9005E+02
     -5.742  0.8396E+02  0.8558E+02  0.9463E+02  0.9450E+02
     -5.690  0.5727E+02  0.5640E+02  0.9760E+02  0.9742E+02
     -5.638  0.8505E+02  0.8495E+02  0.1020E+03  0.1018E+03
     -5.586  0.7462E+02  0.7377E+02  0.1059E+03  0.1057E+03
     -5.534  0.8031E+02  0.8023E+02  0.1101E+03  0.1098E+03
     -5.482  0.6795E+02  0.7022E+02  0.1136E+03  0.1135E+03
     -5.430  0.7337E+02  0.7399E+02  0.1174E+03  0.1173E+03
     -5.378  0.6575E+02  0.6391E+02  0.1208E+03  0.1206E+03
     -5.327  0.6471E+02  0.6389E+02  0.1242E+03  0.1240E+03
     -5.275  0.1044E+03  0.1045E+03  0.1296E+03  0.1294E+03
     -5.223  0.5535E+02  0.5591E+02  0.1325E+03  0.1323E+03
     -5.171  0.6663E+02  0.6684E+02  0.1359E+03  0.1358E+03
     -5.119  0.6193E+02  0.6152E+02  0.1391E+03  0.1389E+03
     -5.067  0.6015E+02  0.6047E+02  0.1423E+03  0.1421E+03
     -5.015  0.8298E+02  0.8301E+02  0.1466E+03  0.1464E+03
     -4.963  0.7328E+02  0.7246E+02  0.1504E+03  0.1502E+03
     -4.911  0.7494E+02  0.7577E+02  0.1543E+03  0.1541E+03
     -4.859  0.7312E+02  0.7252E+02  0.1581E+03  0.1579E+03
     -4.807  0.1135E+03  0.1114E+03  0.1640E+03  0.1636E+03
     -4.755  0.1077E+03  0.1089E+03  0.1695E+03  0.1693E+03
     -4.703  0.9876E+02  0.9783E+02  0.1747E+03  0.1744E+03
     -4.652  0.1178E+03  0.1169E+03  0.1808E+03  0.1804E+03
     -4.600  0.9422E+02  0.9397E+02  0.1857E+03  0.1853E+03
     -4.548  0.1108E+03  0.1117E+03  0.1914E+03  0.1911E+03
     -4.496  0.1202E+03  0.1191E+03  0.1977E+03  0.1973E+03
     -4.444  0.9598E+02  0.9670E+02  0.2027E+03  0.2023E+03
     -4.392  0.8830E+02  0.9088E+02  0.2072E+03  0.2070E+03
     -4.340  0.9003E+02  0.8720E+02  0.2119E+03  0.2116E+03
     -4.288  0.6660E+02  0.6989E+02  0.2154E+03  0.2152E+03
     -4.236  0.5662E+02  0.5615E+02  0.2183E+03  0.2181E+03
     -4.184  0.8737E+02  0.8390E+02  0.2228E+03  0.2225E+03
     -4.132  0.8375E+02  0.8834E+02  0.2272E+03  0.2271E+03
     -4.080  0.4301E+02  0.4241E+02  0.2294E+03  0.2293E+03
     -4.029  0.6943E+02  0.6806E+02  0.2330E+03  0.2328E+03
     -3.977  0.6991E+02  0.6947E+02  0.2367E+03  0.2364E+03
     -3.925  0.5932E+02  0.5982E+02  0.2397E+03  0.2395E+03
     -3.873  0.7780E+02  0.7809E+02  0.2438E+03  0.2436E+03
     -3.821  0.7706E+02  0.7584E+02  0.2478E+03  0.2475E+03
     -3.769  0.6196E+02  0.6416E+02  0.2510E+03  0.2508E+03
     -3.717  0.6736E+02  0.6552E+02  0.2545E+03  0.2542E+03
     -3.665  0.6495E+02  0.6622E+02  0.2579E+03  0.2577E+03
     -3.613  0.8280E+02  0.7978E+02  0.2622E+03  0.2618E+03
     -3.561  0.5367E+02  0.5899E+02  0.2650E+03  0.2649E+03
     -3.509  0.3731E+02  0.3220E+02  0.2669E+03  0.2665E+03
     -3.457  0.8912E+02  0.9173E+02  0.2715E+03  0.2713E+03
     -3.405  0.6585E+02  0.6186E+02  0.2749E+03  0.2745E+03
     -3.354  0.8567E+02  0.8853E+02  0.2794E+03  0.2791E+03
     -3.302  0.5731E+02  0.5655E+02  0.2824E+03  0.2821E+03
     -3.250  0.1021E+03  0.1006E+03  0.2877E+03  0.2873E+03
     -3.198  0.5926E+02  0.6249E+02  0.2907E+03  0.2905E+03
     -3.146  0.9699E+02  0.9550E+02  0.2958E+03  0.2955E+03
     -3.094  0.8185E+02  0.8271E+02  0.3000E+03  0.2998E+03
     -3.042  0.7559E+02  0.7672E+02  0.3039E+03  0.3038E+03
     -2.990  0.4952E+02  0.4600E+02  0.3065E+03  0.3061E+03
     -2.938  0.9027E+02  0.8851E+02  0.3112E+03  0.3107E+03
     -2.886  0.9244E+02  0.9577E+02  0.3160E+03  0.3157E+03
     -2.834  0.9604E+02  0.9796E+02  0.3210E+03  0.3208E+03
     -2.782  0.6052E+02  0.6024E+02  0.3241E+03  0.3239E+03
     -2.731  0.1103E+03  0.1084E+03  0.3299E+03  0.3295E+03
     -2.679  0.1052E+03  0.1059E+03  0.3353E+03  0.3350E+03
     -2.627  0.8434E+02  0.8440E+02  0.3397E+03  0.3394E+03
     -2.575  0.1244E+03  0.1222E+03  0.3462E+03  0.3458E+03
     -2.523  0.1154E+03  0.1178E+03  0.3522E+03  0.3519E+03
     -2.471  0.1165E+03  0.1165E+03  0.3582E+03  0.3579E+03
     -2.419  0.8605E+02  0.8619E+02  0.3627E+03  0.3624E+03
     -2.367  0.9782E+02  0.9527E+02  0.3677E+03  0.3674E+03
     -2.315  0.9302E+02  0.9569E+02  0.3726E+03  0.3723E+03
     -2.263  0.1049E+03  0.1031E+03  0.3780E+03  0.3777E+03
     -2.211  0.6464E+02  0.6825E+02  0.3814E+03  0.3812E+03
     -2.159  0.5550E+02  0.5359E+02  0.3843E+03  0.3840E+03
     -2.108  0.5381E+02  0.5565E+02  0.3871E+03  0.3869E+03
     -2.056  0.5953E+02  0.5557E+02  0.3901E+03  0.3898E+03
     -2.004  0.8289E+02  0.8371E+02  0.3944E+03  0.3941E+03
     -1.952  0.8317E+02  0.8407E+02  0.3988E+03  0.3985E+03
     -1.900  0.9639E+02  0.9756E+02  0.4038E+03  0.4036E+03
     -1.848  0.8900E+02  0.8939E+02  0.4084E+03  0.4082E+03
     -1.796  0.8487E+02  0.8428E+02  0.4128E+03  0.4126E+03
     -1.744  0.9347E+02  0.9427E+02  0.4176E+03  0.4175E+03
     -1.692  0.7889E+02  0.7564E+02  0.4217E+03  0.4214E+03
     -1.640  0.8632E+02  0.8863E+02  0.4262E+03  0.4260E+03
     -1.588  0.7568E+02  0.7352E+02  0.4302E+03  0.4298E+03
     -1.536  0.8820E+02  0.9135E+02  0.4347E+03  0.4346E+03
     -1.484  0.7687E+02  0.7754E+02  0.4387E+03  0.4386E+03
     -1.433  0.5117E+02  0.5070E+02  0.4414E+03  0.4412E+03
     -1.381  0.3935E+02  0.3757E+02  0.4434E+03  0.4432E+03
     -1.329  0.7742E+02  0.7943E+02  0.4474E+03  0.4473E+03
     -1.277  0.5389E+02  0.5349E+02  0.4502E+03  0.4501E+03
     -1.225  0.4820E+02  0.4759E+02  0.4527E+03  0.4525E+03
     -1.173  0.5411E+02  0.5315E+02  0.4556E+03  0.4553E+03
     -1.121  0.6597E+02  0.6684E+02  0.4590E+03  0.4588E+03
     -1.069  0.4502E+02  0.4602E+02  0.4613E+03  0.4612E+03
     -1.017  0.6432E+02  0.6390E+02  0.4647E+03  0.4645E+03
     -0.965  0.3830E+02  0.3935E+02  0.4666E+03  0.4665E+03
     -0.913  0.4858E+02  0.4844E+02  0.4692E+03  0.4690E+03
     -0.861  0.5354E+02  0.5333E+02  0.4719E+03  0.4718E+03
     -0.810  0.6094E+02  0.6045E+02  0.4751E+03  0.4749E+03
     -0.758  0.6193E+02  0.6280E+02  0.4783E+03  0.4782E+03
     -0.706  0.5721E+02  0.5477E+02  0.4813E+03  0.4810E+03
     -0.654  0.6851E+02  0.6962E+02  0.4849E+03  0.4847E+03
     -0.602  0.3256E+02  0.3555E+02  0.4865E+03  0.4865E+03
     -0.550  0.3669E+02  0.3563E+02  0.4885E+03  0.4884E+03
     -0.498  0.1681E+02  0.1808E+02  0.4893E+03  0.4893E+03
     -0.446  0.4000E+02  0.3864E+02  0.4914E+03  0.4913E+03
     -0.394  0.4916E+02  0.4680E+02  0.4940E+03  0.4937E+03
     -0.342  0.5470E+02  0.5534E+02  0.4968E+03  0.4966E+03
     -0.290  0.8238E+02  0.8320E+02  0.5011E+03  0.5009E+03
     -0.238  0.7128E+02  0.7085E+02  0.5048E+03  0.5046E+03
     -0.186  0.7453E+02  0.7390E+02  0.5086E+03  0.5084E+03
     -0.135  0.1210E+03  0.1178E+03  0.5149E+03  0.5146E+03
     -0.083  0.1067E+03  0.1077E+03  0.5205E+03  0.5201E+03
     -0.031  0.1371E+03  0.1359E+03  0.5276E+03  0.5272E+03
      0.021  0.8705E+02  0.8945E+02  0.5321E+03  0.5318E+03
      0.073  0.1549E+03  0.1521E+03  0.5401E+03  0.5397E+03
      0.125  0.1394E+03  0.1436E+03  0.5474E+03  0.5472E+03
      0.177  0.7663E+02  0.7671E+02  0.5514E+03  0.5512E+03
      0.229  0.7752E+02  0.7442E+02  0.5554E+03  0.5550E+03
      0.281  0.1115E+03  0.1124E+03  0.5612E+03  0.5609E+03
      0.333  0.6462E+02  0.6591E+02  0.5645E+03  0.5643E+03
      0.385  0.8480E+02  0.8222E+02  0.5689E+03  0.5686E+03
      0.437  0.1126E+03  0.1166E+03  0.5748E+03  0.5746E+03
      0.488  0.6585E+02  0.6673E+02  0.5782E+03  0.5781E+03
      0.540  0.1196E+03  0.1165E+03  0.5844E+03  0.5841E+03
      0.592  0.1451E+03  0.1429E+03  0.5919E+03  0.5915E+03
      0.644  0.1378E+03  0.1372E+03  0.5991E+03  0.5987E+03
      0.696  0.1279E+03  0.1321E+03  0.6057E+03  0.6055E+03
      0.748  0.1224E+03  0.1221E+03  0.6121E+03  0.6119E+03
      0.800  0.1337E+03  0.1336E+03  0.6190E+03  0.6188E+03
      0.852  0.1036E+03  0.1024E+03  0.6244E+03  0.6241E+03
      0.904  0.8459E+02  0.8653E+02  0.6288E+03  0.6286E+03
      0.956  0.1102E+03  0.1089E+03  0.6345E+03  0.6343E+03
      1.008  0.1069E+03  0.1045E+03  0.6401E+03  0.6397E+03
      1.060  0.1786E+03  0.1752E+03  0.6494E+03  0.6488E+03
      1.112  0.1095E+03  0.1157E+03  0.6550E+03  0.6548E+03
      1.163  0.1335E+03  0.1275E+03  0.6620E+03  0.6614E+03
      1.215  0.1915E+03  0.1905E+03  0.6719E+03  0.6713E+03
      1.267  0.1572E+03  0.1607E+03  0.6801E+03  0.6797E+03
      1.319  0.1774E+03  0.1734E+03  0.6893E+03  0.6887E+03
      1.371  0.1954E+03  0.1980E+03  0.6994E+03  0.6989E+03
      1.423  0.1723E+03  0.1744E+03  0.7084E+03  0.7080E+03
      1.475  0.1404E+03  0.1415E+03  0.7157E+03  0.7153E+03
      1.527  0.2041E+03  0.1987E+03  0.7263E+03  0.7257E+03
      1.579  0.2026E+03  0.2013E+03  0.7368E+03  0.7361E+03
      1.631  0.1951E+03  0.1990E+03  0.7469E+03  0.7465E+03
      1.683  0.1641E+03  0.1619E+03  0.7554E+03  0.7549E+03
      1.735  0.2051E+03  0.2037E+03  0.7661E+03  0.7654E+03
      1.786  0.1599E+03  0.1657E+03  0.7744E+03  0.7740E+03
      1.838  0.1826E+03  0.1769E+03  0.7839E+03  0.7832E+03
      1.890  0.1640E+03  0.1673E+03  0.7924E+03  0.7919E+03
      1.942  0.1941E+03  0.1913E+03  0.8025E+03  0.8018E+03
      1.994  0.2002E+03  0.2026E+03  0.8128E+03  0.8124E+03
      2.046  0.1594E+03  0.1602E+03  0.8211E+03  0.8207E+03
      2.098  0.1852E+03  0.1860E+03  0.8307E+03  0.8303E+03
      2.150  0.1782E+03  0.1747E+03  0.8400E+03  0.8394E+03
      2.202  0.1998E+03  0.2005E+03  0.8504E+03  0.8498E+03
      2.254  0.1454E+03  0.1443E+03  0.8579E+03  0.8573E+03
      2.306  0.1779E+03  0.1806E+03  0.8672E+03  0.8667E+03
      2.358  0.1568E+03  0.1516E+03  0.8753E+03  0.8746E+03
      2.409  0.1980E+03  0.2036E+03  0.8856E+03  0.8851E+03
      2.461  0.1527E+03  0.1534E+03  0.8935E+03  0.8931E+03
      2.513  0.1545E+03  0.1476E+03  0.9015E+03  0.9008E+03
      2.565  0.1811E+03  0.1871E+03  0.9109E+03  0.9105E+03
      2.617  0.1327E+03  0.1342E+03  0.9178E+03  0.9174E+03
      2.669  0.1041E+03  0.1036E+03  0.9232E+03  0.9228E+03
      2.721  0.1564E+03  0.1506E+03  0.9313E+03  0.9306E+03
      2.773  0.1295E+03  0.1344E+03  0.9381E+03  0.9376E+03
      2.825  0.1559E+03  0.1536E+03  0.9462E+03  0.9456E+03
      2.877  0.1324E+03  0.1310E+03  0.9530E+03  0.9524E+03
      2.929  0.1270E+03  0.1329E+03  0.9596E+03  0.9593E+03
      2.981  0.1058E+03  0.1009E+03  0.9651E+03  0.9645E+03
      3.033  0.1419E+03  0.1423E+03  0.9725E+03  0.9719E+03
      3.084  0.1274E+03  0.1298E+03  0.9791E+03  0.9787E+03
      3.136  0.1197E+03  0.1202E+03  0.9853E+03  0.9849E+03
      3.188  0.1098E+03  0.1064E+03  0.9910E+03  0.9904E+03
      3.240  0.1123E+03  0.1163E+03  0.9968E+03  0.9965E+03
      3.292  0.1218E+03  0.1149E+03  0.1003E+04  0.1002E+04
      3.344  0.8809E+02  0.9797E+02  0.1008E+04  0.1008E+04
      3.396  0.5701E+02  0.5513E+02  0.1011E+04  0.1010E+04
      3.448  0.9448E+02  0.9359E+02  0.1016E+04  0.1015E+04
      3.500  0.8713E+02  0.8657E+02  0.1020E+04  0.1020E+04
      3.552  0.8767E+02  0.8636E+02  0.1025E+04  0.1024E+04
      3.604  0.8480E+02  0.8123E+02  0.1029E+04  0.1028E+04
      3.656  0.6640E+02  0.7141E+02  0.1033E+04  0.1032E+04
      3.707  0.5179E+02  0.4947E+02  0.1035E+04  0.1035E+04
      3.759  0.5831E+02  0.6284E+02  0.1038E+04  0.1038E+04
      3.811  0.6113E+02  0.5414E+02  0.1041E+04  0.1041E+04
      3.863  0.3051E+02  0.3836E+02  0.1043E+04  0.1043E+04
      3.915  0.3988E+02  0.3848E+02  0.1045E+04  0.1045E+04
      3.967  0.8548E+02  0.7915E+02  0.1050E+04  0.1049E+04
      4.019  0.5019E+02  0.5069E+02  0.1052E+04  0.1052E+04
      4.071  0.1095E+03  0.1111E+03  0.1058E+04  0.1057E+04
      4.123  0.9794E+02  0.8771E+02  0.1063E+04  0.1062E+04
      4.175  0.9751E+02  0.9948E+02  0.1068E+04  0.1067E+04
      4.227  0.7617E+02  0.8388E+02  0.1072E+04  0.1071E+04
      4.279  0.9599E+02  0.8921E+02  0.1077E+04  0.1076E+04
      4.331  0.8373E+02  0.9388E+02  0.1081E+04  0.1081E+04
      4.382  0.1473E+03  0.1357E+03  0.1089E+04  0.1088E+04
      4.434  0.1192E+03  0.1225E+03  0.1095E+04  0.1094E+04
      4.486  0.1058E+03  0.1105E+03  0.1101E+04  0.1100E+04
      4.538  0.1085E+03  0.1039E+03  0.1106E+04  0.1105E+04
      4.590  0.8993E+02  0.9296E+02  0.1111E+04  0.1110E+04
      4.642  0.1101E+03  0.1054E+03  0.1117E+04  0.1116E+04
      4.694  0.1135E+03  0.1187E+03  0.1122E+04  0.1122E+04
      4.746  0.1311E+03  0.1297E+03  0.1129E+04  0.1129E+04
      4.798  0.1175E+03  0.1162E+03  0.1135E+04  0.1135E+04
      4.850  0.1325E+03  0.1343E+03  0.1142E+04  0.1142E+04
      4.902  0.1065E+03  0.1060E+03  0.1148E+04  0.1147E+04
      4.954  0.1228E+03  0.1190E+03  0.1154E+04  0.1153E+04
      5.005  0.1276E+03  0.1362E+03  0.1161E+04  0.1160E+04
      5.057  0.1059E+03  0.1052E+03  0.1166E+04  0.1166E+04
      5.109  0.1291E+03  0.1238E+03  0.1173E+04  0.1172E+04
      5.161  0.9961E+02  0.1055E+03  0.1178E+04  0.1178E+04
      5.213  0.8692E+02  0.8730E+02  0.1183E+04  0.1182E+04
      5.265  0.9843E+02  0.9848E+02  0.1188E+04  0.1187E+04
      5.317  0.1291E+03  0.1254E+03  0.1194E+04  0.1194E+04
      5.369  0.1235E+03  0.1275E+03  0.1201E+04  0.1200E+04
      5.421  0.1407E+03  0.1385E+03  0.1208E+04  0.1208E+04
      5.473  0.1480E+03  0.1476E+03  0.1216E+04  0.1215E+04
      5.525  0.1183E+03  0.1182E+03  0.1222E+04  0.1221E+04
      5.577  0.1418E+03  0.1437E+03  0.1229E+04  0.1229E+04
      5.629  0.1320E+03  0.1329E+03  0.1236E+04  0.1236E+04
      5.680  0.1319E+03  0.1313E+03  0.1243E+04  0.1243E+04
      5.732  0.1444E+03  0.1413E+03  0.1251E+04  0.1250E+04
      5.784  0.1059E+03  0.1086E+03  0.1256E+04  0.1256E+04
      5.836  0.1411E+03  0.1429E+03  0.1263E+04  0.1263E+04
      5.888  0.1249E+03  0.1208E+03  0.1270E+04  0.1269E+04
      5.940  0.3161E+02  0.4257E+02  0.1272E+04  0.1272E+04
      5.992  0.8665E+01  0.8837E+01  0.1272E+04  0.1272E+04
      6.044  0.0000E+00  0.0000E+00  0.1272E+04  0.1272E+04
      6.096  0.0000E+00  0.0000E+00  0.1272E+04  0.1272E+04
      6.148  0.0000E+00  0.0000E+00  0.1272E+04  0.1272E+04
      6.200  0.0000E+00  0.0000E+00  0.1272E+04  0.1272E+04
      6.252  0.0000E+00  0.0000E+00  0.1272E+04  0.1272E+04
      6.303  0.0000E+00  0.0000E+00  0.1272E+04  0.1272E+04
      6.355  0.0000E+00  0.0000E+00  0.1272E+04  0.1272E+04
      6.407  0.0000E+00  0.0000E+00  0.1272E+04  0.1272E+04
      6.459  0.0000E+00  0.0000E+00  0.1272E+04  0.1272E+04
      6.511  0.0000E+00  0.0000E+00  0.1272E+04  0.1272E+04
      6.563  0.0000E+00  0.0000E+00  0.1272E+04  0.1272E+04
      6.615  0.0000E+00  0.0000E+00  0.1272E+04  0.1272E+04
      6.667  0.0000E+00  0.0000E+00  0.1272E+04  0.1272E+04
