 120 120   0   0
  0.1318225E+02  0.1330318E-08  0.1629300E-08  0.7994750E-09  0.5000000E-15
  1.000000000000000E-004
  CAR 
 Si and Ge interface calculation         
      7.66969738    -14.83821897  301      4.35400095      1.00000000
    -14.838  0.0000E+00  0.0000E+00  0.0000E+00  0.0000E+00
    -14.763  0.0000E+00  0.0000E+00  0.0000E+00  0.0000E+00
    -14.688  0.0000E+00  0.0000E+00  0.0000E+00  0.0000E+00
    -14.613  0.0000E+00  0.0000E+00  0.0000E+00  0.0000E+00
    -14.538  0.0000E+00  0.0000E+00  0.0000E+00  0.0000E+00
    -14.463  0.0000E+00  0.0000E+00  0.0000E+00  0.0000E+00
    -14.388  0.0000E+00  0.0000E+00  0.0000E+00  0.0000E+00
    -14.313  0.0000E+00  0.0000E+00  0.0000E+00  0.0000E+00
    -14.238  0.0000E+00  0.0000E+00  0.0000E+00  0.0000E+00
    -14.163  0.0000E+00  0.0000E+00  0.0000E+00  0.0000E+00
    -14.088  0.0000E+00  0.0000E+00  0.0000E+00  0.0000E+00
    -14.013  0.0000E+00  0.0000E+00  0.0000E+00  0.0000E+00
    -13.938  0.0000E+00  0.0000E+00  0.0000E+00  0.0000E+00
    -13.863  0.1931E-10  0.2035E-14  0.1449E-11  0.1527E-15
    -13.788  0.4443E+01  0.4419E+01  0.3333E+00  0.3315E+00
    -13.713  0.1070E+02  0.8880E+01  0.1136E+01  0.9995E+00
    -13.638  0.1595E+02  0.1752E+02  0.2333E+01  0.2333E+01
    -13.563  0.5025E-01  0.7983E-03  0.2337E+01  0.2333E+01
    -13.488  0.2604E+02  0.2328E+02  0.4291E+01  0.4080E+01
    -13.413  0.8868E+01  0.1184E+02  0.4999E+01  0.4968E+01
    -13.338  0.1731E+02  0.1439E+02  0.6298E+01  0.6080E+01
    -13.263  0.5887E-01  0.2857E+01  0.6338E+01  0.6333E+01
    -13.188  0.1762E+02  0.1676E+02  0.7660E+01  0.7591E+01
    -13.113  0.1795E+02  0.1510E+02  0.9013E+01  0.8779E+01
    -13.038  0.8708E+01  0.1183E+02  0.9667E+01  0.9666E+01
    -12.963  0.5248E+01  0.8309E+00  0.1006E+02  0.9729E+01
    -12.888  0.1253E+02  0.1694E+02  0.1100E+02  0.1100E+02
    -12.813  0.2216E+02  0.2050E+02  0.1266E+02  0.1254E+02
    -12.737  0.2181E+02  0.1964E+02  0.1431E+02  0.1414E+02
    -12.662  0.8863E+01  0.1146E+02  0.1500E+02  0.1500E+02
    -12.587  0.1858E+02  0.1467E+02  0.1639E+02  0.1610E+02
    -12.512  0.4126E+01  0.7537E+01  0.1670E+02  0.1667E+02
    -12.437  0.1728E+02  0.1775E+02  0.1800E+02  0.1800E+02
    -12.362  0.7372E+01  0.3748E+01  0.1855E+02  0.1828E+02
    -12.287  0.1498E+02  0.1874E+02  0.1979E+02  0.1969E+02
    -12.212  0.2903E+01  0.4133E+01  0.2001E+02  0.2000E+02
    -12.137  0.3168E+02  0.3021E+02  0.2239E+02  0.2227E+02
    -12.062  0.1237E+02  0.1135E+02  0.2332E+02  0.2319E+02
    -11.987  0.8853E+01  0.8885E+01  0.2400E+02  0.2400E+02
    -11.912  0.2771E+01  0.9281E+00  0.2421E+02  0.2407E+02
    -11.837  0.8945E+01  0.7138E+01  0.2488E+02  0.2461E+02
    -11.762  0.1381E-07  0.5262E+01  0.2500E+02  0.2500E+02
    -11.687  0.1193E+02  0.1046E+02  0.2590E+02  0.2578E+02
    -11.612  0.2350E+02  0.2438E+02  0.2766E+02  0.2761E+02
    -11.537  0.4443E+01  0.4443E+01  0.2800E+02  0.2800E+02
    -11.462  0.6054E-06  0.1552E-08  0.2800E+02  0.2800E+02
    -11.387  0.4443E+01  0.4443E+01  0.2833E+02  0.2833E+02
    -11.312  0.8886E+01  0.8879E+01  0.2900E+02  0.2900E+02
    -11.237  0.0000E+00  0.0000E+00  0.2900E+02  0.2900E+02
    -11.162  0.1564E-03  0.1582E-05  0.2900E+02  0.2900E+02
    -11.087  0.1776E+02  0.1734E+02  0.3033E+02  0.3030E+02
    -11.012  0.3463E+02  0.3109E+02  0.3294E+02  0.3267E+02
    -10.937  0.2591E+02  0.2737E+02  0.3495E+02  0.3472E+02
    -10.862  0.6126E+01  0.4199E+01  0.3546E+02  0.3514E+02
    -10.787  0.1607E+02  0.1998E+02  0.3667E+02  0.3664E+02
    -10.712  0.4442E+01  0.4435E+01  0.3700E+02  0.3700E+02
    -10.637  0.8500E+01  0.6662E+01  0.3764E+02  0.3750E+02
    -10.562  0.1236E+02  0.9851E+01  0.3859E+02  0.3828E+02
    -10.487  0.9729E+01  0.1226E+02  0.3933E+02  0.3929E+02
    -10.412  0.1347E+02  0.1333E+02  0.4034E+02  0.4033E+02
    -10.337  0.1838E+02  0.1782E+02  0.4172E+02  0.4167E+02
    -10.262  0.1701E+02  0.1752E+02  0.4300E+02  0.4298E+02
    -10.187  0.6520E+01  0.4292E+01  0.4349E+02  0.4332E+02
    -10.112  0.1109E+02  0.1274E+02  0.4433E+02  0.4433E+02
    -10.037  0.5728E+01  0.1729E+01  0.4476E+02  0.4446E+02
     -9.962  0.3208E+01  0.7158E+01  0.4500E+02  0.4500E+02
     -9.886  0.8835E+01  0.8885E+01  0.4567E+02  0.4567E+02
     -9.811  0.1922E-10  0.1233E-14  0.4567E+02  0.4567E+02
     -9.736  0.8704E+01  0.7104E+01  0.4632E+02  0.4620E+02
     -9.661  0.1013E+02  0.7512E+01  0.4709E+02  0.4677E+02
     -9.586  0.2541E+02  0.2977E+02  0.4900E+02  0.4900E+02
     -9.511  0.2394E+01  0.1833E+00  0.4918E+02  0.4901E+02
     -9.436  0.4505E+02  0.4112E+02  0.5256E+02  0.5210E+02
     -9.361  0.1777E+02  0.2476E+02  0.5400E+02  0.5400E+02
     -9.286  0.1776E+02  0.1730E+02  0.5533E+02  0.5530E+02
     -9.211  0.1376E+02  0.1167E+02  0.5637E+02  0.5621E+02
     -9.136  0.2589E+02  0.2197E+02  0.5833E+02  0.5786E+02
     -9.061  0.2593E+02  0.2932E+02  0.6032E+02  0.6011E+02
     -8.986  0.1257E+02  0.1174E+02  0.6128E+02  0.6102E+02
     -8.911  0.3205E+02  0.3167E+02  0.6369E+02  0.6340E+02
     -8.836  0.2188E+02  0.2508E+02  0.6533E+02  0.6530E+02
     -8.761  0.1341E+02  0.1212E+02  0.6634E+02  0.6624E+02
     -8.686  0.3075E+02  0.3195E+02  0.6867E+02  0.6866E+02
     -8.611  0.1294E+02  0.7671E+01  0.6964E+02  0.6924E+02
     -8.536  0.1757E+02  0.2312E+02  0.7100E+02  0.7100E+02
     -8.461  0.7688E+01  0.4416E+01  0.7158E+02  0.7133E+02
     -8.386  0.2240E+02  0.1847E+02  0.7328E+02  0.7273E+02
     -8.311  0.2709E+02  0.3185E+02  0.7538E+02  0.7518E+02
     -8.236  0.1908E+02  0.1944E+02  0.7681E+02  0.7666E+02
     -8.161  0.2026E+02  0.2184E+02  0.7833E+02  0.7833E+02
     -8.086  0.2179E+02  0.1888E+02  0.7997E+02  0.7975E+02
     -8.011  0.2751E+00  0.2439E+01  0.8002E+02  0.8000E+02
     -7.936  0.2638E+02  0.2643E+02  0.8200E+02  0.8198E+02
     -7.861  0.4440E+01  0.4209E+01  0.8233E+02  0.8232E+02
     -7.786  0.0000E+00  0.0000E+00  0.8233E+02  0.8233E+02
     -7.711  0.9480E-02  0.4805E-04  0.8233E+02  0.8233E+02
     -7.636  0.8876E+01  0.8886E+01  0.8300E+02  0.8300E+02
     -7.561  0.0000E+00  0.0000E+00  0.8300E+02  0.8300E+02
     -7.486  0.2598E+01  0.6826E+00  0.8319E+02  0.8305E+02
     -7.411  0.8862E+01  0.7635E+01  0.8387E+02  0.8362E+02
     -7.336  0.1471E-01  0.5011E+01  0.8400E+02  0.8400E+02
     -7.261  0.5851E+01  0.4953E+01  0.8444E+02  0.8437E+02
     -7.186  0.5904E+01  0.5135E+01  0.8488E+02  0.8476E+02
     -7.111  0.1507E+01  0.3241E+01  0.8500E+02  0.8500E+02
     -7.035  0.1918E+02  0.1569E+02  0.8644E+02  0.8618E+02
     -6.960  0.1128E+02  0.1507E+02  0.8733E+02  0.8733E+02
     -6.885  0.3331E+01  0.3210E+01  0.8758E+02  0.8757E+02
     -6.810  0.1041E+02  0.1005E+02  0.8836E+02  0.8834E+02
     -6.735  0.4029E+01  0.4392E+01  0.8867E+02  0.8867E+02
     -6.660  0.1072E-05  0.5247E-09  0.8867E+02  0.8867E+02
     -6.585  0.7492E+01  0.6024E+01  0.8923E+02  0.8912E+02
     -6.510  0.1487E+02  0.1540E+02  0.9035E+02  0.9027E+02
     -6.435  0.1736E+02  0.1455E+02  0.9165E+02  0.9137E+02
     -6.360  0.2642E+02  0.2547E+02  0.9366E+02  0.9331E+02
     -6.285  0.2005E+02  0.2149E+02  0.9517E+02  0.9494E+02
     -6.210  0.2900E+02  0.2933E+02  0.9738E+02  0.9718E+02
     -6.135  0.2855E+02  0.2125E+02  0.9954E+02  0.9887E+02
     -6.060  0.2464E+02  0.3208E+02  0.1015E+03  0.1014E+03
     -5.985  0.2941E+02  0.2748E+02  0.1037E+03  0.1034E+03
     -5.910  0.2593E+02  0.2555E+02  0.1057E+03  0.1054E+03
     -5.835  0.2493E+02  0.2568E+02  0.1075E+03  0.1073E+03
     -5.760  0.2740E+02  0.2571E+02  0.1096E+03  0.1092E+03
     -5.685  0.2413E+02  0.2642E+02  0.1115E+03  0.1113E+03
     -5.610  0.2147E+02  0.2229E+02  0.1131E+03  0.1130E+03
     -5.535  0.1894E+02  0.1849E+02  0.1145E+03  0.1144E+03
     -5.460  0.2813E+02  0.2516E+02  0.1166E+03  0.1163E+03
     -5.385  0.3247E+02  0.3470E+02  0.1191E+03  0.1189E+03
     -5.310  0.3288E+02  0.3140E+02  0.1216E+03  0.1213E+03
     -5.235  0.2490E+02  0.2782E+02  0.1235E+03  0.1234E+03
     -5.160  0.2745E+02  0.2636E+02  0.1256E+03  0.1254E+03
     -5.085  0.3590E+02  0.3415E+02  0.1282E+03  0.1280E+03
     -5.010  0.3001E+02  0.2990E+02  0.1305E+03  0.1303E+03
     -4.935  0.3371E+02  0.3300E+02  0.1331E+03  0.1328E+03
     -4.860  0.2122E+02  0.2210E+02  0.1347E+03  0.1344E+03
     -4.785  0.3166E+02  0.3102E+02  0.1370E+03  0.1368E+03
     -4.710  0.3242E+02  0.3072E+02  0.1395E+03  0.1391E+03
     -4.635  0.3252E+02  0.3356E+02  0.1420E+03  0.1416E+03
     -4.560  0.2439E+02  0.2608E+02  0.1438E+03  0.1436E+03
     -4.485  0.2379E+02  0.2298E+02  0.1456E+03  0.1454E+03
     -4.410  0.2262E+02  0.2102E+02  0.1474E+03  0.1470E+03
     -4.335  0.3113E+02  0.3226E+02  0.1497E+03  0.1494E+03
     -4.259  0.4112E+02  0.3973E+02  0.1528E+03  0.1524E+03
     -4.184  0.2553E+02  0.2714E+02  0.1548E+03  0.1545E+03
     -4.109  0.3469E+02  0.3667E+02  0.1575E+03  0.1572E+03
     -4.034  0.3864E+02  0.3711E+02  0.1604E+03  0.1601E+03
     -3.959  0.2825E+02  0.3209E+02  0.1626E+03  0.1625E+03
     -3.884  0.2514E+02  0.1925E+02  0.1645E+03  0.1640E+03
     -3.809  0.2589E+02  0.2860E+02  0.1665E+03  0.1662E+03
     -3.734  0.3726E+02  0.3567E+02  0.1693E+03  0.1689E+03
     -3.659  0.2140E+02  0.2390E+02  0.1709E+03  0.1707E+03
     -3.584  0.2567E+02  0.2394E+02  0.1729E+03  0.1726E+03
     -3.509  0.2007E+02  0.2283E+02  0.1744E+03  0.1743E+03
     -3.434  0.2250E+02  0.2236E+02  0.1761E+03  0.1760E+03
     -3.359  0.1295E+02  0.1254E+02  0.1771E+03  0.1769E+03
     -3.284  0.2556E+02  0.2617E+02  0.1790E+03  0.1789E+03
     -3.209  0.2876E+02  0.2555E+02  0.1812E+03  0.1809E+03
     -3.134  0.4067E+02  0.3871E+02  0.1843E+03  0.1838E+03
     -3.059  0.3149E+02  0.3586E+02  0.1867E+03  0.1866E+03
     -2.984  0.2711E+02  0.2576E+02  0.1888E+03  0.1885E+03
     -2.909  0.1992E+02  0.1886E+02  0.1903E+03  0.1900E+03
     -2.834  0.3015E+02  0.2882E+02  0.1926E+03  0.1922E+03
     -2.759  0.3289E+02  0.3159E+02  0.1951E+03  0.1946E+03
     -2.684  0.2673E+02  0.3254E+02  0.1972E+03  0.1970E+03
     -2.609  0.2467E+02  0.2473E+02  0.1990E+03  0.1989E+03
     -2.534  0.3224E+02  0.3038E+02  0.2015E+03  0.2012E+03
     -2.459  0.3527E+02  0.3298E+02  0.2042E+03  0.2037E+03
     -2.384  0.3494E+02  0.3528E+02  0.2068E+03  0.2064E+03
     -2.309  0.2885E+02  0.3111E+02  0.2091E+03  0.2088E+03
     -2.234  0.3593E+02  0.3644E+02  0.2118E+03  0.2116E+03
     -2.159  0.2848E+02  0.2768E+02  0.2140E+03  0.2137E+03
     -2.084  0.2893E+02  0.2394E+02  0.2162E+03  0.2155E+03
     -2.009  0.3485E+02  0.3835E+02  0.2188E+03  0.2185E+03
     -1.934  0.3714E+02  0.3683E+02  0.2217E+03  0.2213E+03
     -1.859  0.3466E+02  0.3334E+02  0.2243E+03  0.2238E+03
     -1.784  0.3248E+02  0.3637E+02  0.2268E+03  0.2265E+03
     -1.709  0.3966E+02  0.3555E+02  0.2298E+03  0.2292E+03
     -1.634  0.3180E+02  0.3361E+02  0.2322E+03  0.2319E+03
     -1.559  0.3857E+02  0.3977E+02  0.2352E+03  0.2348E+03
     -1.484  0.2266E+02  0.2310E+02  0.2369E+03  0.2366E+03
     -1.408  0.2776E+02  0.2771E+02  0.2390E+03  0.2387E+03
     -1.333  0.3609E+02  0.3739E+02  0.2418E+03  0.2416E+03
     -1.258  0.4260E+02  0.3943E+02  0.2450E+03  0.2445E+03
     -1.183  0.5072E+02  0.4754E+02  0.2488E+03  0.2482E+03
     -1.108  0.5207E+02  0.5248E+02  0.2527E+03  0.2521E+03
     -1.033  0.3252E+02  0.3464E+02  0.2553E+03  0.2548E+03
     -0.958  0.3559E+02  0.3976E+02  0.2580E+03  0.2578E+03
     -0.883  0.3438E+02  0.3415E+02  0.2606E+03  0.2603E+03
     -0.808  0.4617E+02  0.4144E+02  0.2641E+03  0.2635E+03
     -0.733  0.4154E+02  0.4424E+02  0.2673E+03  0.2668E+03
     -0.658  0.4418E+02  0.4496E+02  0.2707E+03  0.2703E+03
     -0.583  0.3442E+02  0.3366E+02  0.2733E+03  0.2729E+03
     -0.508  0.5314E+02  0.5335E+02  0.2774E+03  0.2769E+03
     -0.433  0.3662E+02  0.3962E+02  0.2802E+03  0.2800E+03
     -0.358  0.3150E+02  0.3103E+02  0.2826E+03  0.2823E+03
     -0.283  0.3375E+02  0.3221E+02  0.2851E+03  0.2848E+03
     -0.208  0.3303E+02  0.3254E+02  0.2876E+03  0.2873E+03
     -0.133  0.2445E+02  0.2492E+02  0.2895E+03  0.2892E+03
     -0.058  0.2830E+02  0.2583E+02  0.2916E+03  0.2912E+03
      0.017  0.2931E+02  0.2861E+02  0.2939E+03  0.2934E+03
      0.092  0.2436E+02  0.2642E+02  0.2958E+03  0.2955E+03
      0.167  0.2945E+02  0.2833E+02  0.2980E+03  0.2976E+03
      0.242  0.4265E+02  0.4358E+02  0.3013E+03  0.3009E+03
      0.317  0.4991E+02  0.4897E+02  0.3050E+03  0.3046E+03
      0.392  0.3491E+02  0.3309E+02  0.3077E+03  0.3072E+03
      0.467  0.2827E+02  0.3087E+02  0.3099E+03  0.3096E+03
      0.542  0.2941E+02  0.3066E+02  0.3121E+03  0.3119E+03
      0.617  0.4138E+02  0.3271E+02  0.3152E+03  0.3144E+03
      0.692  0.4285E+02  0.5052E+02  0.3185E+03  0.3182E+03
      0.767  0.2287E+02  0.1943E+02  0.3202E+03  0.3197E+03
      0.842  0.3946E+02  0.4037E+02  0.3232E+03  0.3228E+03
      0.917  0.4367E+02  0.4059E+02  0.3265E+03  0.3259E+03
      0.992  0.3138E+02  0.3623E+02  0.3289E+03  0.3287E+03
      1.067  0.4257E+02  0.3521E+02  0.3321E+03  0.3314E+03
      1.142  0.5024E+02  0.5402E+02  0.3359E+03  0.3354E+03
      1.217  0.3367E+02  0.3070E+02  0.3385E+03  0.3377E+03
      1.292  0.4062E+02  0.4443E+02  0.3416E+03  0.3411E+03
      1.367  0.4378E+02  0.4235E+02  0.3449E+03  0.3443E+03
      1.443  0.4986E+02  0.5146E+02  0.3488E+03  0.3481E+03
      1.518  0.4352E+02  0.4326E+02  0.3521E+03  0.3514E+03
      1.593  0.3451E+02  0.3984E+02  0.3549E+03  0.3545E+03
      1.668  0.3923E+02  0.3650E+02  0.3578E+03  0.3572E+03
      1.743  0.3740E+02  0.3942E+02  0.3606E+03  0.3602E+03
      1.818  0.3531E+02  0.3628E+02  0.3633E+03  0.3629E+03
      1.893  0.6011E+02  0.5477E+02  0.3678E+03  0.3671E+03
      1.968  0.4632E+02  0.4760E+02  0.3714E+03  0.3707E+03
      2.043  0.5147E+02  0.4945E+02  0.3753E+03  0.3745E+03
      2.118  0.4457E+02  0.4831E+02  0.3787E+03  0.3781E+03
      2.193  0.5122E+02  0.5257E+02  0.3826E+03  0.3821E+03
      2.268  0.4908E+02  0.4549E+02  0.3864E+03  0.3856E+03
      2.343  0.3897E+02  0.4247E+02  0.3894E+03  0.3888E+03
      2.418  0.4687E+02  0.5220E+02  0.3930E+03  0.3928E+03
      2.493  0.4311E+02  0.4114E+02  0.3962E+03  0.3959E+03
      2.568  0.3934E+02  0.3606E+02  0.3992E+03  0.3987E+03
      2.643  0.4824E+02  0.4642E+02  0.4029E+03  0.4022E+03
      2.718  0.4137E+02  0.4438E+02  0.4060E+03  0.4056E+03
      2.793  0.3834E+02  0.3397E+02  0.4089E+03  0.4082E+03
      2.868  0.5673E+02  0.5121E+02  0.4132E+03  0.4121E+03
      2.943  0.4655E+02  0.5346E+02  0.4168E+03  0.4162E+03
      3.018  0.5173E+02  0.4715E+02  0.4207E+03  0.4198E+03
      3.093  0.5279E+02  0.5824E+02  0.4247E+03  0.4243E+03
      3.168  0.5323E+02  0.4693E+02  0.4287E+03  0.4278E+03
      3.243  0.3697E+02  0.3856E+02  0.4315E+03  0.4308E+03
      3.318  0.3909E+02  0.3850E+02  0.4345E+03  0.4337E+03
      3.393  0.3551E+02  0.3937E+02  0.4372E+03  0.4367E+03
      3.468  0.4745E+02  0.4475E+02  0.4408E+03  0.4401E+03
      3.543  0.5316E+02  0.5312E+02  0.4448E+03  0.4441E+03
      3.618  0.2643E+02  0.2664E+02  0.4468E+03  0.4461E+03
      3.693  0.4523E+02  0.4268E+02  0.4502E+03  0.4494E+03
      3.768  0.4643E+02  0.4175E+02  0.4538E+03  0.4526E+03
      3.843  0.3761E+02  0.4728E+02  0.4567E+03  0.4561E+03
      3.918  0.4268E+02  0.3890E+02  0.4599E+03  0.4591E+03
      3.993  0.4105E+02  0.4076E+02  0.4631E+03  0.4622E+03
      4.068  0.4374E+02  0.4678E+02  0.4664E+03  0.4657E+03
      4.143  0.5038E+02  0.4192E+02  0.4702E+03  0.4689E+03
      4.218  0.3949E+02  0.4017E+02  0.4732E+03  0.4720E+03
      4.294  0.5382E+02  0.5211E+02  0.4773E+03  0.4760E+03
      4.369  0.4652E+02  0.5009E+02  0.4809E+03  0.4798E+03
      4.444  0.5079E+02  0.4825E+02  0.4847E+03  0.4835E+03
      4.519  0.4818E+02  0.5389E+02  0.4884E+03  0.4876E+03
      4.594  0.5043E+02  0.4961E+02  0.4922E+03  0.4914E+03
      4.669  0.5349E+02  0.4598E+02  0.4962E+03  0.4949E+03
      4.744  0.4984E+02  0.4907E+02  0.5000E+03  0.4987E+03
      4.819  0.3196E+02  0.3310E+02  0.5024E+03  0.5012E+03
      4.894  0.4394E+02  0.5272E+02  0.5058E+03  0.5052E+03
      4.969  0.4554E+02  0.4030E+02  0.5092E+03  0.5082E+03
      5.044  0.4006E+02  0.4236E+02  0.5123E+03  0.5114E+03
      5.119  0.3897E+02  0.4195E+02  0.5152E+03  0.5146E+03
      5.194  0.3997E+02  0.4206E+02  0.5183E+03  0.5178E+03
      5.269  0.5199E+02  0.4309E+02  0.5222E+03  0.5211E+03
      5.344  0.4383E+02  0.4790E+02  0.5256E+03  0.5247E+03
      5.419  0.4636E+02  0.4476E+02  0.5291E+03  0.5282E+03
      5.494  0.5098E+02  0.5253E+02  0.5330E+03  0.5321E+03
      5.569  0.3733E+02  0.4265E+02  0.5358E+03  0.5354E+03
      5.644  0.3161E+02  0.3036E+02  0.5382E+03  0.5377E+03
      5.719  0.4353E+02  0.4173E+02  0.5415E+03  0.5409E+03
      5.794  0.3849E+02  0.3492E+02  0.5444E+03  0.5436E+03
      5.869  0.3988E+02  0.3877E+02  0.5474E+03  0.5465E+03
      5.944  0.4218E+02  0.4419E+02  0.5507E+03  0.5499E+03
      6.019  0.4363E+02  0.4283E+02  0.5540E+03  0.5531E+03
      6.094  0.4843E+02  0.4626E+02  0.5576E+03  0.5566E+03
      6.169  0.3854E+02  0.4337E+02  0.5606E+03  0.5599E+03
      6.244  0.4524E+02  0.4337E+02  0.5640E+03  0.5632E+03
      6.319  0.4422E+02  0.4161E+02  0.5673E+03  0.5664E+03
      6.394  0.2663E+02  0.3280E+02  0.5694E+03  0.5689E+03
      6.469  0.3764E+02  0.3909E+02  0.5723E+03  0.5719E+03
      6.544  0.3492E+02  0.3643E+02  0.5749E+03  0.5746E+03
      6.619  0.1121E+02  0.1367E+02  0.5758E+03  0.5757E+03
      6.694  0.2453E+01  0.3326E+01  0.5760E+03  0.5760E+03
      6.769  0.0000E+00  0.0000E+00  0.5760E+03  0.5760E+03
      6.844  0.0000E+00  0.0000E+00  0.5760E+03  0.5760E+03
      6.919  0.0000E+00  0.0000E+00  0.5760E+03  0.5760E+03
      6.994  0.0000E+00  0.0000E+00  0.5760E+03  0.5760E+03
      7.069  0.0000E+00  0.0000E+00  0.5760E+03  0.5760E+03
      7.145  0.0000E+00  0.0000E+00  0.5760E+03  0.5760E+03
      7.220  0.0000E+00  0.0000E+00  0.5760E+03  0.5760E+03
      7.295  0.0000E+00  0.0000E+00  0.5760E+03  0.5760E+03
      7.370  0.0000E+00  0.0000E+00  0.5760E+03  0.5760E+03
      7.445  0.0000E+00  0.0000E+00  0.5760E+03  0.5760E+03
      7.520  0.0000E+00  0.0000E+00  0.5760E+03  0.5760E+03
      7.595  0.0000E+00  0.0000E+00  0.5760E+03  0.5760E+03
      7.670  0.0000E+00  0.0000E+00  0.5760E+03  0.5760E+03
