 120 120   0   0
  0.2190039E+02  0.7680595E-09  0.1629300E-08  0.2100086E-08  0.5000000E-15
  1.000000000000000E-004
  CAR 
 Si and Ge interface calculation         
      7.80527213     -8.57648568  301      4.75660796      1.00000000
     -8.576  0.0000E+00  0.0000E+00  0.0000E+00  0.0000E+00
     -8.522  0.0000E+00  0.0000E+00  0.0000E+00  0.0000E+00
     -8.467  0.0000E+00  0.0000E+00  0.0000E+00  0.0000E+00
     -8.413  0.0000E+00  0.0000E+00  0.0000E+00  0.0000E+00
     -8.358  0.0000E+00  0.0000E+00  0.0000E+00  0.0000E+00
     -8.303  0.0000E+00  0.0000E+00  0.0000E+00  0.0000E+00
     -8.249  0.0000E+00  0.0000E+00  0.0000E+00  0.0000E+00
     -8.194  0.0000E+00  0.0000E+00  0.0000E+00  0.0000E+00
     -8.140  0.0000E+00  0.0000E+00  0.0000E+00  0.0000E+00
     -8.085  0.0000E+00  0.0000E+00  0.0000E+00  0.0000E+00
     -8.030  0.0000E+00  0.0000E+00  0.0000E+00  0.0000E+00
     -7.976  0.0000E+00  0.0000E+00  0.0000E+00  0.0000E+00
     -7.921  0.0000E+00  0.0000E+00  0.0000E+00  0.0000E+00
     -7.867  0.2040E-05  0.1424E-07  0.1114E-06  0.7778E-09
     -7.812  0.4567E+01  0.4450E+01  0.2494E+00  0.2430E+00
     -7.757  0.1141E-01  0.1280E+00  0.2500E+00  0.2500E+00
     -7.703  0.1011E+02  0.9046E+01  0.8021E+00  0.7439E+00
     -7.648  0.8203E+01  0.9267E+01  0.1250E+01  0.1250E+01
     -7.594  0.6431E+01  0.4820E+01  0.1601E+01  0.1513E+01
     -7.539  0.1646E+02  0.1807E+02  0.2500E+01  0.2500E+01
     -7.484  0.1203E+02  0.1054E+02  0.3157E+01  0.3076E+01
     -7.430  0.9177E+01  0.8740E+01  0.3658E+01  0.3553E+01
     -7.375  0.1017E+02  0.1006E+02  0.4213E+01  0.4102E+01
     -7.321  0.1504E+02  0.1656E+02  0.5034E+01  0.5007E+01
     -7.266  0.2177E+02  0.2040E+02  0.6223E+01  0.6121E+01
     -7.211  0.1321E+02  0.1354E+02  0.6944E+01  0.6860E+01
     -7.157  0.2805E+02  0.2466E+02  0.8476E+01  0.8207E+01
     -7.102  0.1424E+02  0.1913E+02  0.9254E+01  0.9251E+01
     -7.048  0.1318E+02  0.1024E+02  0.9973E+01  0.9810E+01
     -6.993  0.3254E+02  0.3550E+02  0.1175E+02  0.1175E+02
     -6.938  0.2172E+02  0.1777E+02  0.1294E+02  0.1272E+02
     -6.884  0.1062E+02  0.1433E+02  0.1352E+02  0.1350E+02
     -6.829  0.3142E+02  0.2909E+02  0.1523E+02  0.1509E+02
     -6.774  0.2322E+02  0.2582E+02  0.1650E+02  0.1650E+02
     -6.720  0.1064E+02  0.9461E+01  0.1708E+02  0.1702E+02
     -6.665  0.1080E+02  0.9815E+01  0.1767E+02  0.1755E+02
     -6.611  0.2900E+02  0.2966E+02  0.1925E+02  0.1917E+02
     -6.556  0.2026E+02  0.1733E+02  0.2036E+02  0.2012E+02
     -6.501  0.6001E+02  0.6124E+02  0.2364E+02  0.2346E+02
     -6.447  0.2595E+02  0.2516E+02  0.2506E+02  0.2484E+02
     -6.392  0.3108E+02  0.3503E+02  0.2675E+02  0.2675E+02
     -6.338  0.4621E+02  0.4205E+02  0.2928E+02  0.2905E+02
     -6.283  0.4207E+02  0.4214E+02  0.3157E+02  0.3135E+02
     -6.228  0.2452E+02  0.2370E+02  0.3291E+02  0.3264E+02
     -6.174  0.4521E+02  0.4624E+02  0.3538E+02  0.3517E+02
     -6.119  0.2624E+02  0.2882E+02  0.3681E+02  0.3674E+02
     -6.065  0.2505E+02  0.2328E+02  0.3818E+02  0.3801E+02
     -6.010  0.3501E+02  0.3344E+02  0.4009E+02  0.3984E+02
     -5.955  0.3220E+02  0.3137E+02  0.4185E+02  0.4155E+02
     -5.901  0.3761E+02  0.3901E+02  0.4391E+02  0.4368E+02
     -5.846  0.4040E+02  0.4028E+02  0.4611E+02  0.4588E+02
     -5.792  0.4497E+02  0.4193E+02  0.4857E+02  0.4817E+02
     -5.737  0.3395E+02  0.3747E+02  0.5042E+02  0.5021E+02
     -5.682  0.4269E+02  0.4630E+02  0.5275E+02  0.5274E+02
     -5.628  0.4835E+02  0.4508E+02  0.5539E+02  0.5520E+02
     -5.573  0.2008E+02  0.2287E+02  0.5649E+02  0.5645E+02
     -5.519  0.3040E+02  0.2790E+02  0.5815E+02  0.5798E+02
     -5.464  0.5434E+02  0.5276E+02  0.6112E+02  0.6086E+02
     -5.409  0.3229E+02  0.3344E+02  0.6288E+02  0.6268E+02
     -5.355  0.4199E+02  0.3688E+02  0.6517E+02  0.6470E+02
     -5.300  0.3516E+02  0.4073E+02  0.6709E+02  0.6692E+02
     -5.246  0.5708E+02  0.5677E+02  0.7021E+02  0.7002E+02
     -5.191  0.2396E+02  0.2401E+02  0.7152E+02  0.7133E+02
     -5.136  0.5706E+02  0.5343E+02  0.7463E+02  0.7425E+02
     -5.082  0.5924E+02  0.6172E+02  0.7787E+02  0.7762E+02
     -5.027  0.2394E+02  0.2596E+02  0.7918E+02  0.7904E+02
     -4.972  0.4026E+02  0.3555E+02  0.8137E+02  0.8098E+02
     -4.918  0.4370E+02  0.4581E+02  0.8376E+02  0.8348E+02
     -4.863  0.3593E+02  0.3526E+02  0.8572E+02  0.8541E+02
     -4.809  0.1661E+02  0.2048E+02  0.8663E+02  0.8653E+02
     -4.754  0.5677E+02  0.5314E+02  0.8973E+02  0.8943E+02
     -4.699  0.4058E+02  0.3980E+02  0.9194E+02  0.9160E+02
     -4.645  0.4020E+02  0.3689E+02  0.9414E+02  0.9361E+02
     -4.590  0.4030E+02  0.4536E+02  0.9634E+02  0.9609E+02
     -4.536  0.3459E+02  0.3811E+02  0.9823E+02  0.9817E+02
     -4.481  0.2731E+02  0.2620E+02  0.9972E+02  0.9960E+02
     -4.426  0.2045E+02  0.1750E+02  0.1008E+03  0.1006E+03
     -4.372  0.4443E+02  0.4561E+02  0.1033E+03  0.1030E+03
     -4.317  0.3721E+02  0.4001E+02  0.1053E+03  0.1052E+03
     -4.263  0.2029E+02  0.1796E+02  0.1064E+03  0.1062E+03
     -4.208  0.2486E+02  0.2773E+02  0.1078E+03  0.1077E+03
     -4.153  0.2262E+02  0.2049E+02  0.1090E+03  0.1088E+03
     -4.099  0.1021E+02  0.1203E+02  0.1096E+03  0.1095E+03
     -4.044  0.1193E+02  0.9192E+01  0.1102E+03  0.1100E+03
     -3.990  0.2374E+02  0.2651E+02  0.1115E+03  0.1115E+03
     -3.935  0.3163E+02  0.2977E+02  0.1132E+03  0.1131E+03
     -3.880  0.1800E+02  0.1857E+02  0.1142E+03  0.1141E+03
     -3.826  0.1366E+02  0.1224E+02  0.1150E+03  0.1148E+03
     -3.771  0.2414E+02  0.2575E+02  0.1163E+03  0.1162E+03
     -3.717  0.2188E+02  0.2248E+02  0.1175E+03  0.1174E+03
     -3.662  0.3175E+01  0.3201E+01  0.1176E+03  0.1176E+03
     -3.607  0.2482E+02  0.2569E+02  0.1190E+03  0.1190E+03
     -3.553  0.1680E+02  0.1303E+02  0.1199E+03  0.1197E+03
     -3.498  0.1950E+02  0.1872E+02  0.1210E+03  0.1207E+03
     -3.444  0.1230E+02  0.1461E+02  0.1217E+03  0.1215E+03
     -3.389  0.3190E+02  0.2632E+02  0.1234E+03  0.1229E+03
     -3.334  0.1278E+02  0.1904E+02  0.1241E+03  0.1240E+03
     -3.280  0.1462E+02  0.1105E+02  0.1249E+03  0.1246E+03
     -3.225  0.1104E+02  0.1565E+02  0.1255E+03  0.1254E+03
     -3.171  0.4260E+02  0.3891E+02  0.1278E+03  0.1276E+03
     -3.116  0.1979E+02  0.2154E+02  0.1289E+03  0.1287E+03
     -3.061  0.1830E+02  0.1739E+02  0.1299E+03  0.1297E+03
     -3.007  0.1480E+02  0.1607E+02  0.1307E+03  0.1306E+03
     -2.952  0.1014E+02  0.6240E+01  0.1313E+03  0.1309E+03
     -2.897  0.3845E+02  0.3355E+02  0.1334E+03  0.1327E+03
     -2.843  0.3719E+02  0.4083E+02  0.1354E+03  0.1350E+03
     -2.788  0.3647E+02  0.3254E+02  0.1374E+03  0.1367E+03
     -2.734  0.3408E+02  0.4354E+02  0.1392E+03  0.1391E+03
     -2.679  0.4526E+02  0.4408E+02  0.1417E+03  0.1415E+03
     -2.624  0.4853E+02  0.4768E+02  0.1444E+03  0.1441E+03
     -2.570  0.4244E+02  0.4084E+02  0.1467E+03  0.1464E+03
     -2.515  0.8097E+02  0.8056E+02  0.1511E+03  0.1508E+03
     -2.461  0.5905E+02  0.5985E+02  0.1543E+03  0.1540E+03
     -2.406  0.5903E+02  0.5675E+02  0.1576E+03  0.1571E+03
     -2.351  0.7148E+02  0.7284E+02  0.1615E+03  0.1611E+03
     -2.297  0.3993E+02  0.4070E+02  0.1636E+03  0.1633E+03
     -2.242  0.4592E+02  0.4644E+02  0.1661E+03  0.1659E+03
     -2.188  0.4088E+02  0.3789E+02  0.1684E+03  0.1679E+03
     -2.133  0.5219E+02  0.5073E+02  0.1712E+03  0.1707E+03
     -2.078  0.5431E+02  0.5677E+02  0.1742E+03  0.1738E+03
     -2.024  0.4652E+02  0.5178E+02  0.1767E+03  0.1766E+03
     -1.969  0.2150E+02  0.1870E+02  0.1779E+03  0.1777E+03
     -1.915  0.2944E+02  0.3378E+02  0.1795E+03  0.1795E+03
     -1.860  0.1979E+02  0.1853E+02  0.1806E+03  0.1805E+03
     -1.805  0.1734E+02  0.1796E+02  0.1815E+03  0.1815E+03
     -1.751  0.3284E+02  0.2721E+02  0.1833E+03  0.1830E+03
     -1.696  0.4644E+02  0.4865E+02  0.1859E+03  0.1856E+03
     -1.642  0.6117E+02  0.5630E+02  0.1892E+03  0.1887E+03
     -1.587  0.4270E+02  0.5003E+02  0.1915E+03  0.1914E+03
     -1.532  0.1327E+02  0.1480E+02  0.1923E+03  0.1923E+03
     -1.478  0.2284E+02  0.1942E+02  0.1935E+03  0.1933E+03
     -1.423  0.2031E+02  0.1615E+02  0.1946E+03  0.1942E+03
     -1.369  0.4492E+02  0.4745E+02  0.1971E+03  0.1968E+03
     -1.314  0.2642E+02  0.3020E+02  0.1985E+03  0.1984E+03
     -1.259  0.2042E+02  0.1996E+02  0.1996E+03  0.1995E+03
     -1.205  0.2091E+01  0.4152E+01  0.1998E+03  0.1998E+03
     -1.150  0.9247E+01  0.7356E+01  0.2003E+03  0.2002E+03
     -1.095  0.2458E+02  0.2223E+02  0.2016E+03  0.2014E+03
     -1.041  0.1660E+02  0.2041E+02  0.2025E+03  0.2025E+03
     -0.986  0.4514E+02  0.4219E+02  0.2050E+03  0.2048E+03
     -0.932  0.6520E+01  0.9193E+01  0.2053E+03  0.2053E+03
     -0.877  0.6082E+01  0.4220E+01  0.2057E+03  0.2055E+03
     -0.822  0.1850E+02  0.1674E+02  0.2067E+03  0.2064E+03
     -0.768  0.1214E+02  0.1411E+02  0.2073E+03  0.2072E+03
     -0.713  0.2142E+02  0.2343E+02  0.2085E+03  0.2085E+03
     -0.659  0.3028E+02  0.2718E+02  0.2102E+03  0.2100E+03
     -0.604  0.4231E+02  0.3631E+02  0.2125E+03  0.2119E+03
     -0.549  0.3538E+02  0.3942E+02  0.2144E+03  0.2141E+03
     -0.495  0.4904E+02  0.5071E+02  0.2171E+03  0.2169E+03
     -0.440  0.7670E+01  0.1066E+02  0.2175E+03  0.2175E+03
     -0.386  0.2745E+02  0.2485E+02  0.2190E+03  0.2188E+03
     -0.331  0.1595E+02  0.1563E+02  0.2199E+03  0.2197E+03
     -0.276  0.5943E+01  0.6946E+01  0.2202E+03  0.2200E+03
     -0.222  0.1814E+02  0.1798E+02  0.2212E+03  0.2210E+03
     -0.167  0.2806E+02  0.2895E+02  0.2227E+03  0.2226E+03
     -0.113  0.8306E+01  0.8997E+01  0.2232E+03  0.2231E+03
     -0.058  0.1493E+02  0.1564E+02  0.2240E+03  0.2239E+03
     -0.003  0.2402E+02  0.1982E+02  0.2253E+03  0.2250E+03
      0.051  0.3853E+01  0.8596E+01  0.2255E+03  0.2255E+03
      0.106  0.4568E+01  0.4578E+01  0.2258E+03  0.2257E+03
      0.160  0.2810E+02  0.2715E+02  0.2273E+03  0.2272E+03
      0.215  0.5863E+02  0.4880E+02  0.2305E+03  0.2299E+03
      0.270  0.7846E+02  0.8185E+02  0.2348E+03  0.2344E+03
      0.324  0.2926E+02  0.3199E+02  0.2364E+03  0.2361E+03
      0.379  0.4681E+02  0.4826E+02  0.2389E+03  0.2387E+03
      0.433  0.4038E+02  0.3660E+02  0.2411E+03  0.2407E+03
      0.488  0.3495E+02  0.3889E+02  0.2430E+03  0.2429E+03
      0.543  0.5026E+02  0.4956E+02  0.2458E+03  0.2456E+03
      0.597  0.4944E+02  0.4486E+02  0.2485E+03  0.2480E+03
      0.652  0.6484E+02  0.6367E+02  0.2520E+03  0.2515E+03
      0.707  0.3840E+02  0.3525E+02  0.2541E+03  0.2534E+03
      0.761  0.1110E+03  0.1113E+03  0.2602E+03  0.2595E+03
      0.816  0.8119E+02  0.8868E+02  0.2646E+03  0.2643E+03
      0.870  0.5401E+02  0.5582E+02  0.2676E+03  0.2674E+03
      0.925  0.5822E+02  0.5439E+02  0.2707E+03  0.2704E+03
      0.980  0.5470E+02  0.5707E+02  0.2737E+03  0.2735E+03
      1.034  0.3892E+02  0.3701E+02  0.2759E+03  0.2755E+03
      1.089  0.9900E+02  0.9624E+02  0.2813E+03  0.2808E+03
      1.143  0.5389E+02  0.5679E+02  0.2842E+03  0.2839E+03
      1.198  0.8854E+02  0.8066E+02  0.2890E+03  0.2883E+03
      1.253  0.6659E+02  0.7119E+02  0.2927E+03  0.2922E+03
      1.307  0.7041E+02  0.7054E+02  0.2965E+03  0.2960E+03
      1.362  0.8634E+02  0.8636E+02  0.3012E+03  0.3007E+03
      1.416  0.7752E+02  0.7516E+02  0.3055E+03  0.3048E+03
      1.471  0.8368E+02  0.8664E+02  0.3100E+03  0.3096E+03
      1.526  0.3694E+02  0.3840E+02  0.3121E+03  0.3117E+03
      1.580  0.6257E+02  0.6188E+02  0.3155E+03  0.3150E+03
      1.635  0.8713E+02  0.8484E+02  0.3202E+03  0.3197E+03
      1.689  0.7598E+02  0.7680E+02  0.3244E+03  0.3239E+03
      1.744  0.7479E+02  0.7927E+02  0.3285E+03  0.3282E+03
      1.799  0.1020E+03  0.9319E+02  0.3340E+03  0.3333E+03
      1.853  0.9677E+02  0.9676E+02  0.3393E+03  0.3386E+03
      1.908  0.7952E+02  0.8460E+02  0.3437E+03  0.3432E+03
      1.962  0.7507E+02  0.7726E+02  0.3478E+03  0.3474E+03
      2.017  0.4552E+02  0.4802E+02  0.3502E+03  0.3500E+03
      2.072  0.6000E+02  0.6014E+02  0.3535E+03  0.3533E+03
      2.126  0.7499E+02  0.6928E+02  0.3576E+03  0.3571E+03
      2.181  0.4597E+02  0.4682E+02  0.3601E+03  0.3596E+03
      2.235  0.8996E+02  0.9081E+02  0.3650E+03  0.3646E+03
      2.290  0.7040E+02  0.6664E+02  0.3689E+03  0.3682E+03
      2.345  0.8557E+02  0.9073E+02  0.3736E+03  0.3732E+03
      2.399  0.5831E+02  0.5407E+02  0.3767E+03  0.3761E+03
      2.454  0.8024E+02  0.7909E+02  0.3811E+03  0.3805E+03
      2.509  0.6712E+02  0.6798E+02  0.3848E+03  0.3842E+03
      2.563  0.6513E+02  0.7337E+02  0.3883E+03  0.3882E+03
      2.618  0.7100E+02  0.6950E+02  0.3922E+03  0.3920E+03
      2.672  0.5824E+02  0.5231E+02  0.3954E+03  0.3948E+03
      2.727  0.6977E+02  0.7722E+02  0.3992E+03  0.3991E+03
      2.782  0.6993E+02  0.6400E+02  0.4030E+03  0.4025E+03
      2.836  0.3412E+02  0.4022E+02  0.4049E+03  0.4047E+03
      2.891  0.6508E+02  0.5631E+02  0.4084E+03  0.4078E+03
      2.945  0.7846E+02  0.7887E+02  0.4127E+03  0.4121E+03
      3.000  0.4904E+02  0.5220E+02  0.4154E+03  0.4150E+03
      3.055  0.6573E+02  0.5998E+02  0.4190E+03  0.4183E+03
      3.109  0.7372E+02  0.8182E+02  0.4230E+03  0.4227E+03
      3.164  0.6147E+02  0.5499E+02  0.4264E+03  0.4257E+03
      3.218  0.7077E+02  0.6731E+02  0.4302E+03  0.4294E+03
      3.273  0.8815E+02  0.8901E+02  0.4351E+03  0.4343E+03
      3.328  0.5811E+02  0.6232E+02  0.4382E+03  0.4377E+03
      3.382  0.6702E+02  0.6763E+02  0.4419E+03  0.4414E+03
      3.437  0.5967E+02  0.6220E+02  0.4451E+03  0.4448E+03
      3.491  0.5212E+02  0.5519E+02  0.4480E+03  0.4478E+03
      3.546  0.3228E+02  0.2242E+02  0.4498E+03  0.4490E+03
      3.601  0.5514E+02  0.6419E+02  0.4528E+03  0.4525E+03
      3.655  0.2090E+02  0.2268E+02  0.4539E+03  0.4537E+03
      3.710  0.3542E+02  0.3070E+02  0.4558E+03  0.4554E+03
      3.764  0.3537E+02  0.3744E+02  0.4578E+03  0.4575E+03
      3.819  0.3172E+02  0.3260E+02  0.4595E+03  0.4592E+03
      3.874  0.1549E+02  0.1898E+02  0.4604E+03  0.4603E+03
      3.928  0.4147E+02  0.3872E+02  0.4626E+03  0.4624E+03
      3.983  0.3485E+02  0.3283E+02  0.4645E+03  0.4642E+03
      4.037  0.2637E+02  0.2854E+02  0.4660E+03  0.4657E+03
      4.092  0.2384E+02  0.2366E+02  0.4673E+03  0.4670E+03
      4.147  0.2358E+02  0.1792E+02  0.4686E+03  0.4680E+03
      4.201  0.2579E+02  0.3181E+02  0.4700E+03  0.4697E+03
      4.256  0.2005E+02  0.1022E+02  0.4711E+03  0.4703E+03
      4.310  0.1808E+02  0.2765E+02  0.4720E+03  0.4718E+03
      4.365  0.8415E+01  0.1262E+02  0.4725E+03  0.4725E+03
      4.420  0.1548E+02  0.5642E+01  0.4733E+03  0.4728E+03
      4.474  0.2658E+02  0.1297E+02  0.4748E+03  0.4735E+03
      4.529  0.1937E+02  0.3217E+02  0.4759E+03  0.4753E+03
      4.584  0.1640E+02  0.1685E+02  0.4767E+03  0.4762E+03
      4.638  0.3034E+00  0.9820E+01  0.4768E+03  0.4767E+03
      4.693  0.2270E+02  0.7008E+01  0.4780E+03  0.4771E+03
      4.747  0.4394E+02  0.2854E+02  0.4804E+03  0.4787E+03
      4.802  0.3562E+02  0.3751E+02  0.4824E+03  0.4807E+03
      4.857  0.1771E+02  0.4102E+02  0.4833E+03  0.4830E+03
      4.911  0.3091E+02  0.2063E+02  0.4850E+03  0.4841E+03
      4.966  0.2288E+02  0.2990E+02  0.4863E+03  0.4857E+03
      5.020  0.3519E+02  0.1011E+02  0.4882E+03  0.4863E+03
      5.075  0.3931E+02  0.5234E+02  0.4903E+03  0.4891E+03
      5.130  0.2784E+02  0.3571E+02  0.4918E+03  0.4911E+03
      5.184  0.3130E+02  0.2842E+02  0.4936E+03  0.4926E+03
      5.239  0.2882E+02  0.2982E+02  0.4951E+03  0.4943E+03
      5.293  0.4809E+02  0.4914E+02  0.4978E+03  0.4969E+03
      5.348  0.3083E+02  0.3900E+02  0.4994E+03  0.4991E+03
      5.403  0.3753E+02  0.3626E+02  0.5015E+03  0.5011E+03
      5.457  0.4717E+02  0.4037E+02  0.5041E+03  0.5033E+03
      5.512  0.2051E+02  0.3044E+02  0.5052E+03  0.5049E+03
      5.566  0.5039E+02  0.3780E+02  0.5079E+03  0.5070E+03
      5.621  0.3929E+02  0.5075E+02  0.5101E+03  0.5098E+03
      5.676  0.6930E+02  0.6227E+02  0.5139E+03  0.5132E+03
      5.730  0.4408E+02  0.4382E+02  0.5163E+03  0.5155E+03
      5.785  0.4690E+02  0.4995E+02  0.5188E+03  0.5183E+03
      5.839  0.5302E+02  0.5564E+02  0.5217E+03  0.5213E+03
      5.894  0.7128E+02  0.5872E+02  0.5256E+03  0.5245E+03
      5.949  0.5700E+02  0.5141E+02  0.5287E+03  0.5273E+03
      6.003  0.3608E+02  0.4710E+02  0.5307E+03  0.5299E+03
      6.058  0.3665E+02  0.4749E+02  0.5327E+03  0.5325E+03
      6.112  0.4537E+02  0.4208E+02  0.5352E+03  0.5348E+03
      6.167  0.6695E+02  0.5698E+02  0.5388E+03  0.5379E+03
      6.222  0.6283E+02  0.7348E+02  0.5423E+03  0.5419E+03
      6.276  0.4191E+02  0.3613E+02  0.5446E+03  0.5439E+03
      6.331  0.3432E+02  0.4191E+02  0.5464E+03  0.5462E+03
      6.386  0.5217E+02  0.4422E+02  0.5493E+03  0.5486E+03
      6.440  0.6108E+02  0.6261E+02  0.5526E+03  0.5520E+03
      6.495  0.5314E+02  0.5596E+02  0.5555E+03  0.5551E+03
      6.549  0.8119E+02  0.8390E+02  0.5599E+03  0.5596E+03
      6.604  0.2997E+02  0.2996E+02  0.5616E+03  0.5613E+03
      6.659  0.4735E+02  0.4237E+02  0.5642E+03  0.5636E+03
      6.713  0.3203E+02  0.3959E+02  0.5659E+03  0.5658E+03
      6.768  0.4628E+02  0.4031E+02  0.5684E+03  0.5680E+03
      6.822  0.6299E+02  0.6422E+02  0.5719E+03  0.5715E+03
      6.877  0.3121E+02  0.3831E+02  0.5736E+03  0.5736E+03
      6.932  0.1664E+02  0.1722E+02  0.5745E+03  0.5745E+03
      6.986  0.8746E+01  0.6088E+01  0.5750E+03  0.5748E+03
      7.041  0.1433E+02  0.1687E+02  0.5758E+03  0.5758E+03
      7.095  0.4399E+01  0.4576E+01  0.5760E+03  0.5760E+03
      7.150  0.0000E+00  0.0000E+00  0.5760E+03  0.5760E+03
      7.205  0.0000E+00  0.0000E+00  0.5760E+03  0.5760E+03
      7.259  0.0000E+00  0.0000E+00  0.5760E+03  0.5760E+03
      7.314  0.0000E+00  0.0000E+00  0.5760E+03  0.5760E+03
      7.368  0.0000E+00  0.0000E+00  0.5760E+03  0.5760E+03
      7.423  0.0000E+00  0.0000E+00  0.5760E+03  0.5760E+03
      7.478  0.0000E+00  0.0000E+00  0.5760E+03  0.5760E+03
      7.532  0.0000E+00  0.0000E+00  0.5760E+03  0.5760E+03
      7.587  0.0000E+00  0.0000E+00  0.5760E+03  0.5760E+03
      7.641  0.0000E+00  0.0000E+00  0.5760E+03  0.5760E+03
      7.696  0.0000E+00  0.0000E+00  0.5760E+03  0.5760E+03
      7.751  0.0000E+00  0.0000E+00  0.5760E+03  0.5760E+03
      7.805  0.0000E+00  0.0000E+00  0.5760E+03  0.5760E+03
