Si and Ge interface calculation         
           1
     8.001338    0.000000    0.000000
     4.000669   12.002007    0.000000
     0.000000    0.000000   11.611744
   Ge
    48
Direct configuration=     1
   0.66097212  0.66097212  0.00000000
   0.49430537  0.49430546  0.24362403
   0.32763863  0.32763877  0.48724809
   0.32763880  0.32763880  0.00000000
   0.16097209  0.16097215  0.24362403
   0.99430531  0.99430549  0.48724809
   0.99430549  0.99430549  0.00000000
   0.82763880  0.82763886  0.24362403
   0.66097200  0.66097218  0.48724809
   0.41097209  0.66097206  0.12181202
   0.24430537  0.49430540  0.36543608
   0.07763863  0.32763872  0.60906017
   0.74430549  0.99430549  0.12181202
   0.57763869  0.82763886  0.36543608
   0.41097194  0.66097212  0.60906017
   0.07763884  0.32763884  0.12181202
   0.91097212  0.16097215  0.36543608
   0.74430537  0.99430543  0.60906017
   0.82763875  0.32763884  0.00000000
   0.66097206  0.16097218  0.24362403
   0.49430531  0.99430549  0.48724809
   0.16097221  0.66097212  0.00000000
   0.99430549  0.49430549  0.24362403
   0.82763875  0.32763877  0.48724809
   0.49430543  0.99430549  0.00000000
   0.32763872  0.82763886  0.24362403
   0.16097200  0.66097212  0.48724809
   0.91097230  0.66097206  0.12181202
   0.74430549  0.49430540  0.36543608
   0.57763875  0.32763872  0.60906017
   0.57763880  0.32763884  0.12181202
   0.41097203  0.16097215  0.36543608
   0.24430528  0.99430543  0.60906017
   0.24430548  0.99430549  0.12181202
   0.07763872  0.82763886  0.36543608
   0.91097200  0.66097212  0.60906017
   0.17925823  0.71155715  0.70301998
   0.06814706  0.43377924  0.78422803
   0.95703584  0.15600145  0.86543608
   0.67925817  0.71155715  0.70301998
   0.56814700  0.43377924  0.78422803
   0.45703584  0.15600145  0.86543608
   0.87370253  0.82266819  0.74362403
   0.76259136  0.54489040  0.82483208
   0.65148020  0.26711249  0.90604013
   0.37370259  0.82266819  0.74362403
   0.26259142  0.54489040  0.82483208
   0.15148032  0.26711249  0.90604013
