 120 120   0   0
  0.2190039E+02  0.7680595E-09  0.1629300E-08  0.2100086E-08  0.5000000E-15
  1.000000000000000E-004
  CAR 
 Si and Ge interface calculation         
      7.80847922     -8.57606560  301      4.75078698      1.00000000
     -8.576  0.0000E+00  0.0000E+00  0.0000E+00  0.0000E+00
     -8.521  0.0000E+00  0.0000E+00  0.0000E+00  0.0000E+00
     -8.467  0.0000E+00  0.0000E+00  0.0000E+00  0.0000E+00
     -8.412  0.0000E+00  0.0000E+00  0.0000E+00  0.0000E+00
     -8.358  0.0000E+00  0.0000E+00  0.0000E+00  0.0000E+00
     -8.303  0.0000E+00  0.0000E+00  0.0000E+00  0.0000E+00
     -8.248  0.0000E+00  0.0000E+00  0.0000E+00  0.0000E+00
     -8.194  0.0000E+00  0.0000E+00  0.0000E+00  0.0000E+00
     -8.139  0.0000E+00  0.0000E+00  0.0000E+00  0.0000E+00
     -8.085  0.0000E+00  0.0000E+00  0.0000E+00  0.0000E+00
     -8.030  0.0000E+00  0.0000E+00  0.0000E+00  0.0000E+00
     -7.975  0.0000E+00  0.0000E+00  0.0000E+00  0.0000E+00
     -7.921  0.0000E+00  0.0000E+00  0.0000E+00  0.0000E+00
     -7.866  0.2031E-05  0.1368E-07  0.1109E-06  0.7474E-09
     -7.811  0.4566E+01  0.4448E+01  0.2494E+00  0.2429E+00
     -7.757  0.1139E-01  0.1295E+00  0.2500E+00  0.2500E+00
     -7.702  0.1037E+02  0.9147E+01  0.8161E+00  0.7496E+00
     -7.648  0.7944E+01  0.9163E+01  0.1250E+01  0.1250E+01
     -7.593  0.2963E+01  0.5424E+00  0.1412E+01  0.1280E+01
     -7.538  0.1992E+02  0.2235E+02  0.2500E+01  0.2500E+01
     -7.484  0.1668E-01  0.3438E-02  0.2501E+01  0.2500E+01
     -7.429  0.2255E+02  0.2219E+02  0.3733E+01  0.3712E+01
     -7.375  0.4307E+00  0.7063E+00  0.3756E+01  0.3751E+01
     -7.320  0.3146E+02  0.2527E+02  0.5474E+01  0.5131E+01
     -7.265  0.1394E+02  0.1941E+02  0.6236E+01  0.6191E+01
     -7.211  0.2470E+02  0.2325E+02  0.7585E+01  0.7461E+01
     -7.156  0.1784E+02  0.1934E+02  0.8559E+01  0.8517E+01
     -7.101  0.2064E+02  0.1443E+02  0.9687E+01  0.9305E+01
     -7.047  0.1961E+02  0.2398E+02  0.1076E+02  0.1061E+02
     -6.992  0.2148E+02  0.2333E+02  0.1193E+02  0.1189E+02
     -6.938  0.2832E+02  0.2004E+02  0.1348E+02  0.1298E+02
     -6.883  0.2114E+02  0.2861E+02  0.1463E+02  0.1455E+02
     -6.828  0.1598E+02  0.1271E+02  0.1550E+02  0.1524E+02
     -6.774  0.2745E+02  0.3176E+02  0.1700E+02  0.1698E+02
     -6.719  0.1363E+02  0.1368E+02  0.1775E+02  0.1772E+02
     -6.665  0.1344E+02  0.1294E+02  0.1848E+02  0.1843E+02
     -6.610  0.2123E+02  0.2073E+02  0.1964E+02  0.1956E+02
     -6.555  0.3086E+02  0.3087E+02  0.2133E+02  0.2125E+02
     -6.501  0.3757E+02  0.3536E+02  0.2338E+02  0.2318E+02
     -6.446  0.4472E+02  0.4300E+02  0.2582E+02  0.2553E+02
     -6.391  0.2654E+02  0.3155E+02  0.2727E+02  0.2725E+02
     -6.337  0.4825E+02  0.4107E+02  0.2991E+02  0.2949E+02
     -6.282  0.1991E+02  0.2668E+02  0.3099E+02  0.3095E+02
     -6.228  0.3619E+02  0.2999E+02  0.3297E+02  0.3259E+02
     -6.173  0.2370E+02  0.3043E+02  0.3426E+02  0.3425E+02
     -6.118  0.5016E+02  0.4425E+02  0.3700E+02  0.3667E+02
     -6.064  0.1808E+02  0.2352E+02  0.3799E+02  0.3795E+02
     -6.009  0.2269E+02  0.1921E+02  0.3923E+02  0.3900E+02
     -5.955  0.2977E+02  0.3119E+02  0.4086E+02  0.4070E+02
     -5.900  0.5087E+02  0.5061E+02  0.4363E+02  0.4347E+02
     -5.845  0.2654E+02  0.2793E+02  0.4508E+02  0.4499E+02
     -5.791  0.3799E+02  0.3527E+02  0.4716E+02  0.4692E+02
     -5.736  0.5161E+02  0.5072E+02  0.4998E+02  0.4969E+02
     -5.681  0.3221E+02  0.3159E+02  0.5174E+02  0.5141E+02
     -5.627  0.4658E+02  0.4647E+02  0.5428E+02  0.5395E+02
     -5.572  0.2536E+02  0.2853E+02  0.5567E+02  0.5551E+02
     -5.518  0.4052E+02  0.3872E+02  0.5788E+02  0.5763E+02
     -5.463  0.5147E+02  0.5207E+02  0.6069E+02  0.6047E+02
     -5.408  0.3148E+02  0.3284E+02  0.6241E+02  0.6226E+02
     -5.354  0.4145E+02  0.4188E+02  0.6467E+02  0.6455E+02
     -5.299  0.5004E+02  0.4659E+02  0.6741E+02  0.6710E+02
     -5.245  0.4757E+02  0.4800E+02  0.7000E+02  0.6972E+02
     -5.190  0.4646E+02  0.4734E+02  0.7254E+02  0.7230E+02
     -5.135  0.4951E+02  0.4536E+02  0.7525E+02  0.7478E+02
     -5.081  0.3661E+02  0.3966E+02  0.7724E+02  0.7695E+02
     -5.026  0.3505E+02  0.3588E+02  0.7916E+02  0.7891E+02
     -4.971  0.4740E+02  0.4697E+02  0.8175E+02  0.8147E+02
     -4.917  0.2631E+02  0.2947E+02  0.8318E+02  0.8308E+02
     -4.862  0.5192E+02  0.5055E+02  0.8602E+02  0.8584E+02
     -4.808  0.2083E+02  0.2307E+02  0.8716E+02  0.8710E+02
     -4.753  0.3609E+02  0.3296E+02  0.8913E+02  0.8890E+02
     -4.698  0.3832E+02  0.3797E+02  0.9122E+02  0.9098E+02
     -4.644  0.4099E+02  0.4060E+02  0.9346E+02  0.9319E+02
     -4.589  0.2590E+02  0.2728E+02  0.9487E+02  0.9468E+02
     -4.535  0.2644E+02  0.2710E+02  0.9632E+02  0.9616E+02
     -4.480  0.4978E+02  0.5126E+02  0.9904E+02  0.9896E+02
     -4.425  0.3003E+02  0.2942E+02  0.1007E+03  0.1006E+03
     -4.371  0.5820E+02  0.5073E+02  0.1039E+03  0.1033E+03
     -4.316  0.2646E+02  0.3300E+02  0.1053E+03  0.1051E+03
     -4.261  0.2637E+02  0.2583E+02  0.1067E+03  0.1066E+03
     -4.207  0.2402E+02  0.2395E+02  0.1081E+03  0.1079E+03
     -4.152  0.1944E+02  0.2066E+02  0.1091E+03  0.1090E+03
     -4.098  0.7141E+01  0.9351E+01  0.1095E+03  0.1095E+03
     -4.043  0.1683E+02  0.1546E+02  0.1104E+03  0.1103E+03
     -3.988  0.1300E+02  0.1230E+02  0.1111E+03  0.1110E+03
     -3.934  0.3751E+02  0.3477E+02  0.1132E+03  0.1129E+03
     -3.879  0.1048E+02  0.1529E+02  0.1138E+03  0.1138E+03
     -3.825  0.1505E+02  0.1289E+02  0.1146E+03  0.1145E+03
     -3.770  0.2307E+02  0.1955E+02  0.1158E+03  0.1155E+03
     -3.715  0.2465E+02  0.2722E+02  0.1172E+03  0.1170E+03
     -3.661  0.5894E+01  0.8997E+01  0.1175E+03  0.1175E+03
     -3.606  0.2151E+02  0.1668E+02  0.1187E+03  0.1184E+03
     -3.551  0.2457E+02  0.2887E+02  0.1200E+03  0.1200E+03
     -3.497  0.1788E+02  0.1625E+02  0.1210E+03  0.1209E+03
     -3.442  0.1228E+02  0.1313E+02  0.1217E+03  0.1216E+03
     -3.388  0.2451E+02  0.2260E+02  0.1230E+03  0.1228E+03
     -3.333  0.1844E+02  0.2150E+02  0.1240E+03  0.1240E+03
     -3.278  0.2224E+02  0.2165E+02  0.1252E+03  0.1252E+03
     -3.224  0.1041E+02  0.7749E+01  0.1258E+03  0.1256E+03
     -3.169  0.4699E+02  0.4206E+02  0.1284E+03  0.1279E+03
     -3.115  0.1877E+02  0.2577E+02  0.1294E+03  0.1293E+03
     -3.060  0.1385E+02  0.9531E+01  0.1301E+03  0.1298E+03
     -3.005  0.1464E+02  0.1666E+02  0.1309E+03  0.1307E+03
     -2.951  0.3577E+02  0.3212E+02  0.1329E+03  0.1325E+03
     -2.896  0.9630E+01  0.1500E+02  0.1334E+03  0.1333E+03
     -2.841  0.4640E+02  0.3729E+02  0.1360E+03  0.1354E+03
     -2.787  0.3798E+02  0.4452E+02  0.1380E+03  0.1378E+03
     -2.732  0.2202E+02  0.1839E+02  0.1392E+03  0.1388E+03
     -2.678  0.5472E+02  0.5368E+02  0.1422E+03  0.1417E+03
     -2.623  0.5408E+02  0.5167E+02  0.1452E+03  0.1445E+03
     -2.568  0.5163E+02  0.5589E+02  0.1480E+03  0.1476E+03
     -2.514  0.5364E+02  0.5351E+02  0.1509E+03  0.1505E+03
     -2.459  0.6563E+02  0.6773E+02  0.1545E+03  0.1542E+03
     -2.405  0.6407E+02  0.6647E+02  0.1580E+03  0.1578E+03
     -2.350  0.5647E+02  0.5439E+02  0.1611E+03  0.1608E+03
     -2.295  0.4368E+02  0.4175E+02  0.1635E+03  0.1631E+03
     -2.241  0.5421E+02  0.5370E+02  0.1664E+03  0.1660E+03
     -2.186  0.4961E+02  0.4723E+02  0.1692E+03  0.1686E+03
     -2.131  0.4690E+02  0.4840E+02  0.1717E+03  0.1713E+03
     -2.077  0.4345E+02  0.4506E+02  0.1741E+03  0.1737E+03
     -2.022  0.3472E+02  0.3664E+02  0.1760E+03  0.1757E+03
     -1.968  0.4927E+02  0.4375E+02  0.1787E+03  0.1781E+03
     -1.913  0.2190E+02  0.3038E+02  0.1799E+03  0.1798E+03
     -1.858  0.2161E+02  0.2254E+02  0.1810E+03  0.1810E+03
     -1.804  0.2450E+02  0.1764E+02  0.1824E+03  0.1820E+03
     -1.749  0.3115E+02  0.3438E+02  0.1841E+03  0.1838E+03
     -1.695  0.4625E+02  0.4478E+02  0.1866E+03  0.1863E+03
     -1.640  0.5189E+02  0.4842E+02  0.1894E+03  0.1889E+03
     -1.585  0.4373E+02  0.4468E+02  0.1918E+03  0.1914E+03
     -1.531  0.1172E+02  0.1667E+02  0.1925E+03  0.1923E+03
     -1.476  0.2399E+02  0.2419E+02  0.1938E+03  0.1936E+03
     -1.421  0.2881E+02  0.2753E+02  0.1954E+03  0.1951E+03
     -1.367  0.3163E+02  0.3178E+02  0.1971E+03  0.1968E+03
     -1.312  0.1710E+02  0.2135E+02  0.1980E+03  0.1980E+03
     -1.258  0.1977E+02  0.1841E+02  0.1991E+03  0.1990E+03
     -1.203  0.1370E+02  0.1368E+02  0.1998E+03  0.1998E+03
     -1.148  0.7918E+01  0.9140E+01  0.2003E+03  0.2003E+03
     -1.094  0.2164E+02  0.1852E+02  0.2015E+03  0.2013E+03
     -1.039  0.2163E+02  0.2324E+02  0.2026E+03  0.2025E+03
     -0.985  0.3728E+02  0.3623E+02  0.2047E+03  0.2045E+03
     -0.930  0.1489E+02  0.1759E+02  0.2055E+03  0.2055E+03
     -0.875  0.9113E+01  0.8247E+01  0.2060E+03  0.2059E+03
     -0.821  0.1461E+02  0.9196E+01  0.2068E+03  0.2064E+03
     -0.766  0.1298E+02  0.1923E+02  0.2075E+03  0.2075E+03
     -0.711  0.1478E+02  0.8050E+01  0.2083E+03  0.2079E+03
     -0.657  0.3514E+02  0.3383E+02  0.2102E+03  0.2098E+03
     -0.602  0.4176E+02  0.4669E+02  0.2125E+03  0.2123E+03
     -0.548  0.2766E+02  0.2614E+02  0.2140E+03  0.2137E+03
     -0.493  0.5685E+02  0.5641E+02  0.2171E+03  0.2168E+03
     -0.438  0.1425E+02  0.1467E+02  0.2179E+03  0.2176E+03
     -0.384  0.2686E+02  0.2690E+02  0.2194E+03  0.2191E+03
     -0.329  0.1161E+02  0.1629E+02  0.2200E+03  0.2200E+03
     -0.275  0.9158E+01  0.9247E+01  0.2205E+03  0.2205E+03
     -0.220  0.1237E+02  0.1077E+02  0.2212E+03  0.2211E+03
     -0.165  0.3135E+02  0.3084E+02  0.2229E+03  0.2228E+03
     -0.111  0.6640E+01  0.8949E+01  0.2232E+03  0.2232E+03
     -0.056  0.1117E+02  0.8425E+01  0.2239E+03  0.2237E+03
     -0.001  0.2198E+02  0.2263E+02  0.2251E+03  0.2249E+03
      0.053  0.8046E+01  0.1016E+02  0.2255E+03  0.2255E+03
      0.108  0.4618E+01  0.4561E+01  0.2258E+03  0.2257E+03
      0.162  0.3127E+02  0.2689E+02  0.2275E+03  0.2272E+03
      0.217  0.5373E+02  0.5065E+02  0.2304E+03  0.2300E+03
      0.272  0.7907E+02  0.7941E+02  0.2347E+03  0.2343E+03
      0.326  0.3550E+02  0.3566E+02  0.2367E+03  0.2363E+03
      0.381  0.3538E+02  0.3921E+02  0.2386E+03  0.2384E+03
      0.435  0.4793E+02  0.4597E+02  0.2412E+03  0.2409E+03
      0.490  0.3686E+02  0.3918E+02  0.2432E+03  0.2431E+03
      0.545  0.4906E+02  0.4861E+02  0.2459E+03  0.2457E+03
      0.599  0.4891E+02  0.4334E+02  0.2486E+03  0.2481E+03
      0.654  0.6379E+02  0.6642E+02  0.2520E+03  0.2517E+03
      0.709  0.3456E+02  0.3310E+02  0.2539E+03  0.2535E+03
      0.763  0.1199E+03  0.1157E+03  0.2605E+03  0.2598E+03
      0.818  0.7688E+02  0.8271E+02  0.2647E+03  0.2644E+03
      0.872  0.5575E+02  0.5643E+02  0.2677E+03  0.2674E+03
      0.927  0.6176E+02  0.5945E+02  0.2711E+03  0.2707E+03
      0.982  0.5006E+02  0.5180E+02  0.2738E+03  0.2735E+03
      1.036  0.3952E+02  0.3954E+02  0.2760E+03  0.2757E+03
      1.091  0.1002E+03  0.9979E+02  0.2815E+03  0.2811E+03
      1.145  0.5234E+02  0.5164E+02  0.2843E+03  0.2839E+03
      1.200  0.9467E+02  0.8416E+02  0.2895E+03  0.2885E+03
      1.255  0.5747E+02  0.6561E+02  0.2926E+03  0.2921E+03
      1.309  0.7463E+02  0.7397E+02  0.2967E+03  0.2962E+03
      1.364  0.8955E+02  0.9212E+02  0.3016E+03  0.3012E+03
      1.419  0.7341E+02  0.6765E+02  0.3056E+03  0.3049E+03
      1.473  0.7841E+02  0.8391E+02  0.3099E+03  0.3095E+03
      1.528  0.4474E+02  0.4617E+02  0.3123E+03  0.3120E+03
      1.582  0.5951E+02  0.5754E+02  0.3156E+03  0.3151E+03
      1.637  0.8942E+02  0.8749E+02  0.3205E+03  0.3199E+03
      1.692  0.7609E+02  0.7642E+02  0.3246E+03  0.3241E+03
      1.746  0.7505E+02  0.7615E+02  0.3287E+03  0.3282E+03
      1.801  0.1022E+03  0.1007E+03  0.3343E+03  0.3337E+03
      1.855  0.9873E+02  0.9423E+02  0.3397E+03  0.3389E+03
      1.910  0.7392E+02  0.8197E+02  0.3437E+03  0.3434E+03
      1.965  0.7625E+02  0.7693E+02  0.3479E+03  0.3476E+03
      2.019  0.4470E+02  0.4734E+02  0.3503E+03  0.3502E+03
      2.074  0.5877E+02  0.5987E+02  0.3536E+03  0.3534E+03
      2.129  0.7999E+02  0.7413E+02  0.3579E+03  0.3575E+03
      2.183  0.5051E+02  0.4659E+02  0.3607E+03  0.3600E+03
      2.238  0.9032E+02  0.9383E+02  0.3656E+03  0.3651E+03
      2.292  0.6487E+02  0.6268E+02  0.3692E+03  0.3686E+03
      2.347  0.8337E+02  0.8957E+02  0.3737E+03  0.3735E+03
      2.402  0.6032E+02  0.5805E+02  0.3770E+03  0.3766E+03
      2.456  0.8143E+02  0.7577E+02  0.3815E+03  0.3808E+03
      2.511  0.6739E+02  0.7097E+02  0.3851E+03  0.3846E+03
      2.565  0.6254E+02  0.6758E+02  0.3885E+03  0.3883E+03
      2.620  0.7071E+02  0.7072E+02  0.3924E+03  0.3922E+03
      2.675  0.6081E+02  0.5408E+02  0.3957E+03  0.3951E+03
      2.729  0.6527E+02  0.7437E+02  0.3993E+03  0.3992E+03
      2.784  0.6985E+02  0.6351E+02  0.4031E+03  0.4027E+03
      2.839  0.4213E+02  0.4237E+02  0.4054E+03  0.4050E+03
      2.893  0.6690E+02  0.6137E+02  0.4091E+03  0.4083E+03
      2.948  0.7796E+02  0.8067E+02  0.4133E+03  0.4128E+03
      3.002  0.3974E+02  0.4636E+02  0.4155E+03  0.4153E+03
      3.057  0.7128E+02  0.6092E+02  0.4194E+03  0.4186E+03
      3.112  0.7100E+02  0.7943E+02  0.4233E+03  0.4229E+03
      3.166  0.5948E+02  0.4965E+02  0.4265E+03  0.4257E+03
      3.221  0.7682E+02  0.7528E+02  0.4307E+03  0.4298E+03
      3.275  0.7319E+02  0.8458E+02  0.4347E+03  0.4344E+03
      3.330  0.7035E+02  0.6755E+02  0.4385E+03  0.4381E+03
      3.385  0.6460E+02  0.6408E+02  0.4421E+03  0.4416E+03
      3.439  0.5001E+02  0.4918E+02  0.4448E+03  0.4443E+03
      3.494  0.5541E+02  0.6272E+02  0.4478E+03  0.4477E+03
      3.548  0.3427E+02  0.2103E+02  0.4497E+03  0.4488E+03
      3.603  0.5443E+02  0.6324E+02  0.4527E+03  0.4523E+03
      3.658  0.2286E+02  0.2616E+02  0.4539E+03  0.4537E+03
      3.712  0.3865E+02  0.3490E+02  0.4560E+03  0.4556E+03
      3.767  0.3323E+02  0.3510E+02  0.4579E+03  0.4575E+03
      3.822  0.2635E+02  0.3013E+02  0.4593E+03  0.4592E+03
      3.876  0.2147E+02  0.2058E+02  0.4605E+03  0.4603E+03
      3.931  0.3919E+02  0.3607E+02  0.4626E+03  0.4623E+03
      3.985  0.3340E+02  0.3130E+02  0.4644E+03  0.4640E+03
      4.040  0.2595E+02  0.2976E+02  0.4658E+03  0.4656E+03
      4.095  0.2733E+02  0.2620E+02  0.4673E+03  0.4671E+03
      4.149  0.2136E+02  0.1737E+02  0.4685E+03  0.4680E+03
      4.204  0.2402E+02  0.2682E+02  0.4698E+03  0.4695E+03
      4.258  0.2127E+02  0.1424E+02  0.4710E+03  0.4702E+03
      4.313  0.2362E+02  0.3155E+02  0.4723E+03  0.4720E+03
      4.368  0.4231E+01  0.9793E+01  0.4725E+03  0.4725E+03
      4.422  0.1834E+02  0.7882E+01  0.4735E+03  0.4729E+03
      4.477  0.2566E+02  0.1226E+02  0.4749E+03  0.4736E+03
      4.532  0.1983E+02  0.3399E+02  0.4760E+03  0.4755E+03
      4.586  0.1399E+02  0.1217E+02  0.4767E+03  0.4761E+03
      4.641  0.5635E+00  0.1127E+02  0.4768E+03  0.4767E+03
      4.695  0.2697E+02  0.2614E+01  0.4783E+03  0.4769E+03
      4.750  0.4560E+02  0.3798E+02  0.4807E+03  0.4790E+03
      4.805  0.3243E+02  0.3306E+02  0.4825E+03  0.4808E+03
      4.859  0.3064E+02  0.3974E+02  0.4842E+03  0.4829E+03
      4.914  0.1712E+02  0.2888E+02  0.4851E+03  0.4845E+03
      4.968  0.2080E+02  0.2383E+02  0.4863E+03  0.4858E+03
      5.023  0.4321E+02  0.1470E+02  0.4886E+03  0.4866E+03
      5.078  0.3538E+02  0.4943E+02  0.4906E+03  0.4893E+03
      5.132  0.2641E+02  0.3270E+02  0.4920E+03  0.4911E+03
      5.187  0.3213E+02  0.3122E+02  0.4937E+03  0.4928E+03
      5.242  0.3213E+02  0.2792E+02  0.4955E+03  0.4943E+03
      5.296  0.4544E+02  0.5256E+02  0.4980E+03  0.4972E+03
      5.351  0.3175E+02  0.4109E+02  0.4997E+03  0.4994E+03
      5.405  0.4256E+02  0.3768E+02  0.5020E+03  0.5015E+03
      5.460  0.4121E+02  0.4614E+02  0.5043E+03  0.5040E+03
      5.515  0.3474E+02  0.2687E+02  0.5062E+03  0.5055E+03
      5.569  0.4558E+02  0.4806E+02  0.5087E+03  0.5081E+03
      5.624  0.3816E+02  0.3483E+02  0.5108E+03  0.5100E+03
      5.678  0.6066E+02  0.5958E+02  0.5141E+03  0.5133E+03
      5.733  0.5571E+02  0.5192E+02  0.5171E+03  0.5161E+03
      5.788  0.4025E+02  0.5176E+02  0.5193E+03  0.5189E+03
      5.842  0.5015E+02  0.4481E+02  0.5221E+03  0.5214E+03
      5.897  0.6380E+02  0.6710E+02  0.5255E+03  0.5250E+03
      5.952  0.5683E+02  0.4078E+02  0.5286E+03  0.5273E+03
      6.006  0.3922E+02  0.5642E+02  0.5308E+03  0.5304E+03
      6.061  0.4331E+02  0.4183E+02  0.5332E+03  0.5326E+03
      6.115  0.5792E+02  0.5693E+02  0.5363E+03  0.5357E+03
      6.170  0.6165E+02  0.6207E+02  0.5397E+03  0.5391E+03
      6.225  0.4862E+02  0.4997E+02  0.5423E+03  0.5419E+03
      6.279  0.4467E+02  0.4636E+02  0.5448E+03  0.5444E+03
      6.334  0.2618E+02  0.2602E+02  0.5462E+03  0.5458E+03
      6.388  0.6730E+02  0.6392E+02  0.5499E+03  0.5493E+03
      6.443  0.5451E+02  0.5329E+02  0.5529E+03  0.5522E+03
      6.498  0.7101E+02  0.7203E+02  0.5567E+03  0.5562E+03
      6.552  0.5590E+02  0.6095E+02  0.5598E+03  0.5595E+03
      6.607  0.3117E+02  0.2798E+02  0.5615E+03  0.5610E+03
      6.662  0.4765E+02  0.4876E+02  0.5641E+03  0.5637E+03
      6.716  0.4554E+02  0.4707E+02  0.5666E+03  0.5662E+03
      6.771  0.3601E+02  0.3492E+02  0.5686E+03  0.5682E+03
      6.825  0.6297E+02  0.5745E+02  0.5720E+03  0.5713E+03
      6.880  0.3431E+02  0.4449E+02  0.5739E+03  0.5737E+03
      6.935  0.1165E+02  0.1431E+02  0.5745E+03  0.5745E+03
      6.989  0.8737E+01  0.6632E+01  0.5750E+03  0.5749E+03
      7.044  0.1357E+02  0.1606E+02  0.5757E+03  0.5757E+03
      7.098  0.5161E+01  0.4775E+01  0.5760E+03  0.5760E+03
      7.153  0.0000E+00  0.0000E+00  0.5760E+03  0.5760E+03
      7.208  0.0000E+00  0.0000E+00  0.5760E+03  0.5760E+03
      7.262  0.0000E+00  0.0000E+00  0.5760E+03  0.5760E+03
      7.317  0.0000E+00  0.0000E+00  0.5760E+03  0.5760E+03
      7.372  0.0000E+00  0.0000E+00  0.5760E+03  0.5760E+03
      7.426  0.0000E+00  0.0000E+00  0.5760E+03  0.5760E+03
      7.481  0.0000E+00  0.0000E+00  0.5760E+03  0.5760E+03
      7.535  0.0000E+00  0.0000E+00  0.5760E+03  0.5760E+03
      7.590  0.0000E+00  0.0000E+00  0.5760E+03  0.5760E+03
      7.645  0.0000E+00  0.0000E+00  0.5760E+03  0.5760E+03
      7.699  0.0000E+00  0.0000E+00  0.5760E+03  0.5760E+03
      7.754  0.0000E+00  0.0000E+00  0.5760E+03  0.5760E+03
      7.808  0.0000E+00  0.0000E+00  0.5760E+03  0.5760E+03
