Si and Ge interface calculation         
           1
    13.303180    0.000000    0.000000
    -6.651589   14.873406    0.000000
     0.000000    0.000000    7.204130
   Si   C 
    36    84
Direct configuration=     1
   0.99715096  0.98005658  0.00000000
   0.96381754  0.74672317  0.16857126
   0.93048412  0.51338983  0.33714253
   0.33048421  0.31338987  0.00000000
   0.29715079  0.08005647  0.16857126
   0.26381737  0.84672308  0.33714253
   0.66381747  0.64672315  0.00000000
   0.63048405  0.41338971  0.16857126
   0.59715062  0.18005633  0.33714253
   0.31381753  0.94672334  0.08428546
   0.28048411  0.71338999  0.25285673
   0.24715069  0.48005658  0.42142788
   0.64715082  0.28005657  0.08428546
   0.61381739  0.04672319  0.25285667
   0.58048397  0.81338978  0.42142793
   0.98048443  0.61338985  0.08428548
   0.94715101  0.38005647  0.25285667
   0.91381758  0.14672309  0.42142788
   0.16381757  0.64672309  0.00000000
   0.13048416  0.41338971  0.16857126
   0.09715075  0.18005632  0.33714253
   0.49715090  0.98005664  0.00000001
   0.46381742  0.74672317  0.16857119
   0.43048406  0.51338983  0.33714244
   0.83048415  0.31338987  0.00000001
   0.79715073  0.08005653  0.16857119
   0.76381731  0.84672308  0.33714244
   0.14715090  0.28005657  0.08428547
   0.11381748  0.04672317  0.25285673
   0.08048407  0.81338978  0.42142793
   0.48048422  0.61338991  0.08428547
   0.44715083  0.38005653  0.25285667
   0.41381741  0.14672317  0.42142793
   0.81381750  0.94672328  0.08428546
   0.78048414  0.71338987  0.25285667
   0.74715072  0.48005646  0.42142793
   0.93232983  0.96291405  0.79374552
   0.30375826  0.99148560  0.57232785
   0.61804408  0.97719991  0.68303675
   0.07518697  0.82005686  0.79374564
   0.44661537  0.84862846  0.57232785
   0.76090115  0.83434266  0.68303675
   0.21804404  0.67719978  0.79374552
   0.58947253  0.70577133  0.57232785
   0.90375835  0.69148558  0.68303675
   0.36090124  0.53434265  0.79374552
   0.73232973  0.56291419  0.57232785
   0.04661560  0.54862839  0.68303675
   0.50375831  0.39148551  0.79374552
   0.87518686  0.42005706  0.57232785
   0.18947267  0.40577132  0.68303675
   0.64661550  0.24862835  0.79374552
   0.01804399  0.27719992  0.57232785
   0.33232975  0.26291415  0.68303675
   0.78947270  0.10577118  0.79374558
   0.16090113  0.13434279  0.57232785
   0.47518691  0.12005699  0.68303675
   0.48232973  0.06291413  0.84909982
   0.85375810  0.09148562  0.62768215
   0.16804397  0.07719994  0.73839104
   0.62518680  0.92005688  0.84909982
   0.99661517  0.94862843  0.62768215
   0.31090093  0.93434262  0.73839104
   0.76804411  0.77719981  0.84909982
   0.13947248  0.80577129  0.62768215
   0.45375836  0.79148561  0.73839104
   0.91090119  0.63434273  0.84909982
   0.28232956  0.66291422  0.62768215
   0.59661543  0.64862847  0.73839104
   0.05375814  0.49148554  0.84909987
   0.42518666  0.52005708  0.62768221
   0.73947245  0.50577134  0.73839104
   0.19661546  0.34862834  0.84909987
   0.56804395  0.37719995  0.62768215
   0.88232970  0.36291414  0.73839104
   0.33947265  0.20577127  0.84909987
   0.71090102  0.23434280  0.62768215
   0.02518678  0.22005704  0.73839104
   0.43232989  0.96291405  0.79374564
   0.80375832  0.99148572  0.57232785
   0.11804414  0.97719985  0.68303675
   0.57518709  0.82005686  0.79374564
   0.94661558  0.84862852  0.57232785
   0.26090121  0.83434266  0.68303675
   0.71804428  0.67719972  0.79374564
   0.08947265  0.70577139  0.57232785
   0.40375841  0.69148558  0.68303675
   0.86090130  0.53434271  0.79374564
   0.23232973  0.56291425  0.57232785
   0.54661554  0.54862845  0.68303675
   0.00375843  0.39148545  0.79374552
   0.37518686  0.42005706  0.57232785
   0.68947267  0.40577125  0.68303675
   0.14661550  0.24862835  0.79374552
   0.51804399  0.27719992  0.57232785
   0.83232981  0.26291412  0.68303675
   0.28947270  0.10577118  0.79374552
   0.66090113  0.13434279  0.57232785
   0.97518694  0.12005699  0.68303675
   0.98232967  0.06291413  0.84909982
   0.35375816  0.09148562  0.62768221
   0.66804391  0.07719982  0.73839104
   0.12518668  0.92005700  0.84909982
   0.49661526  0.94862854  0.62768221
   0.81090099  0.93434274  0.73839104
   0.26804399  0.77719981  0.84909982
   0.63947248  0.80577129  0.62768221
   0.95375830  0.79148555  0.73839104
   0.41090119  0.63434261  0.84909982
   0.78232962  0.66291416  0.62768221
   0.09661531  0.64862835  0.73839104
   0.55375826  0.49148554  0.84909982
   0.92518663  0.52005702  0.62768221
   0.23947251  0.50577128  0.73839104
   0.69661558  0.34862837  0.84910005
   0.06804395  0.37719995  0.62768215
   0.38232970  0.36291418  0.73839104
   0.83947265  0.20577128  0.84909982
   0.21090102  0.23434278  0.62768221
   0.52518690  0.22005707  0.73839104
