       N       E                     dE             d eps       ncg     rms          rms(c)
DAV:   1     0.981347139617E+03    0.98135E+03   -0.75037E+04  4640   0.160E+03
DAV:   2    -0.324223693739E+02   -0.10138E+04   -0.98445E+03  5488   0.182E+02
DAV:   3    -0.148995203289E+03   -0.11657E+03   -0.11206E+03  5800   0.627E+01
DAV:   4    -0.154500410588E+03   -0.55052E+01   -0.52867E+01  5792   0.132E+01
DAV:   5    -0.154759608740E+03   -0.25920E+00   -0.25568E+00  6240   0.252E+00    0.138E+01
DAV:   6    -0.151460238618E+03    0.32994E+01   -0.93703E+00  6040   0.641E+00    0.651E+00
DAV:   7    -0.151165700560E+03    0.29454E+00   -0.38952E+00  5928   0.479E+00    0.285E+00
DAV:   8    -0.151025138071E+03    0.14056E+00   -0.78881E-01  5744   0.237E+00    0.898E-01
DAV:   9    -0.151017101692E+03    0.80364E-02   -0.18144E-01  5608   0.107E+00    0.441E-01
DAV:  10    -0.151016375003E+03    0.72669E-03   -0.43309E-02  5552   0.479E-01    0.207E-01
DAV:  11    -0.151016953489E+03   -0.57849E-03   -0.10274E-02  5416   0.227E-01    0.936E-02
DAV:  12    -0.151017115892E+03   -0.16240E-03   -0.18092E-03  5360   0.102E-01    0.453E-02
DAV:  13    -0.151017195089E+03   -0.79197E-04   -0.53312E-04  5472   0.479E-02    0.266E-02
DAV:  14    -0.151017231036E+03   -0.35947E-04   -0.94572E-05  5392   0.257E-02    0.144E-02
DAV:  15    -0.151017243158E+03   -0.12122E-04   -0.24531E-05  5520   0.127E-02    0.575E-03
DAV:  16    -0.151017247523E+03   -0.43654E-05   -0.63790E-06  5208   0.609E-03    0.286E-03
DAV:  17    -0.151017249155E+03   -0.16313E-05   -0.21754E-06  5192   0.390E-03    0.183E-03
DAV:  18    -0.151017249532E+03   -0.37773E-06   -0.63466E-07  4512   0.232E-03    0.974E-04
DAV:  19    -0.151017249489E+03    0.43741E-07   -0.13751E-07  3320   0.102E-03
   1 F= -.15101725E+03 E0= -.15101656E+03  d E =-.137077E-02  mag=     1.0000
