<?xml version="1.0" encoding="ISO-8859-1"?>
<modeling>
 <generator>
  <i name="program" type="string">vasp </i>
  <i name="version" type="string">6.4.3  </i>
  <i name="subversion" type="string">19Mar24 (build Oct 22 2024 11:23:12) complex                          parallel </i>
  <i name="platform" type="string">LinuxIFC </i>
  <i name="date" type="string">2025 06 04 </i>
  <i name="time" type="string">00:41:43 </i>
 </generator>
 <incar>
  <i type="string" name="SYSTEM">Si and Ge interface calculation</i>
  <i type="int" name="ISTART">     0</i>
  <i type="logical" name="ADDGRID"> T  </i>
  <i type="int" name="ISPIN">     2</i>
  <i name="AMIX">      0.60000000</i>
  <i type="int" name="ICHARG">     2</i>
  <i type="int" name="NELM">   100</i>
  <i name="EDIFF">      0.00000010</i>
  <i name="ENCUT">    700.00000000</i>
  <i name="ENAUG">    900.00000000</i>
  <i type="int" name="NBANDS">   116</i>
  <i name="NUPDOWN">      1.00000000</i>
  <i name="NELECT">    192.00000000</i>
  <i type="string" name="LREAL">AUTO</i>
  <i type="int" name="ISMEAR">     0</i>
  <i name="SIGMA">      0.01000000</i>
  <i type="int" name="LMAXMIX">     6</i>
  <i type="logical" name="LWAVE"> F  </i>
  <i type="logical" name="LVTOT"> F  </i>
  <i type="logical" name="LVHAR"> T  </i>
  <i type="logical" name="LASPH"> T  </i>
  <i type="logical" name="LMIXTAU"> T  </i>
 </incar>
 <primitive_cell>
  <structure name="primitive_cell" >
   <crystal>
    <varray name="basis" >
     <v>      12.97840023       0.00000000       0.00000000 </v>
     <v>     -12.97840023      14.51029301       0.00000000 </v>
     <v>       0.00000000       0.00000000       8.99171734 </v>
    </varray>
    <i name="volume">   1693.32371694 </i>
    <varray name="rec_basis" >
     <v>       0.07705110       0.06891660       0.00000000 </v>
     <v>       0.00000000       0.06891660       0.00000000 </v>
     <v>       0.00000000       0.00000000       0.11121346 </v>
    </varray>
   </crystal>
   <varray name="positions" >
    <v>       0.47435850       0.97435850       0.00000000 </v>
    <v>       0.17435835       0.67435843       0.16137400 </v>
    <v>       0.87435830       0.37435836       0.32274803 </v>
    <v>       0.97435850       0.97435850       0.00000000 </v>
    <v>       0.67435837       0.67435843       0.16137400 </v>
    <v>       0.37435830       0.37435836       0.32274803 </v>
    <v>       0.69935846       0.32435849       0.08068685 </v>
    <v>       0.39935836       0.02435845       0.24206085 </v>
    <v>       0.09935832       0.72435844       0.40343484 </v>
    <v>       0.19935848       0.32435849       0.08068685 </v>
    <v>       0.89935839       0.02435845       0.24206085 </v>
    <v>       0.59935832       0.72435844       0.40343484 </v>
    <v>       0.72435844       0.47435850       0.00000002 </v>
    <v>       0.42435834       0.17435840       0.16137402 </v>
    <v>       0.12435819       0.87435830       0.32274803 </v>
    <v>       0.22435847       0.47435850       0.00000002 </v>
    <v>       0.92435837       0.17435840       0.16137402 </v>
    <v>       0.62435824       0.87435830       0.32274803 </v>
    <v>       0.94935858       0.82435858       0.08068686 </v>
    <v>       0.64935851       0.52435857       0.24206083 </v>
    <v>       0.34935838       0.22435850       0.40343484 </v>
    <v>       0.44935879       0.82435858       0.08068686 </v>
    <v>       0.14935864       0.52435857       0.24206083 </v>
    <v>       0.84935856       0.22435850       0.40343484 </v>
    <v>       0.32959640       0.35205102       0.55811709 </v>
    <v>       0.21292973       0.93538433       0.61555719 </v>
    <v>       0.09626293       0.51871759       0.67299735 </v>
    <v>       0.97959608       0.10205078       0.73043764 </v>
    <v>       0.86292940       0.68538421       0.78787762 </v>
    <v>       0.74626255       0.26871729       0.84531784 </v>
    <v>       0.82959640       0.60205102       0.55811709 </v>
    <v>       0.71292961       0.18538427       0.61555719 </v>
    <v>       0.59626287       0.76871759       0.67299741 </v>
    <v>       0.47959608       0.35205078       0.73043740 </v>
    <v>       0.36292934       0.93538410       0.78787756 </v>
    <v>       0.24626267       0.51871723       0.84531772 </v>
    <v>       0.82959640       0.85205102       0.55811715 </v>
    <v>       0.71292961       0.43538427       0.61555719 </v>
    <v>       0.59626281       0.01871753       0.67299741 </v>
    <v>       0.47959611       0.60205078       0.73043752 </v>
    <v>       0.36292940       0.18538403       0.78787756 </v>
    <v>       0.24626255       0.76871711       0.84531778 </v>
    <v>       0.32959628       0.10205102       0.55811715 </v>
    <v>       0.21292961       0.68538427       0.61555725 </v>
    <v>       0.09626293       0.26871753       0.67299741 </v>
    <v>       0.97959608       0.85205078       0.73043752 </v>
    <v>       0.86292934       0.43538403       0.78787762 </v>
    <v>       0.74626255       0.01871705       0.84531784 </v>
   </varray>
  </structure>
  <varray name="primitive_index" >
   <v type="int" >        1 </v>
   <v type="int" >        2 </v>
   <v type="int" >        3 </v>
   <v type="int" >        4 </v>
   <v type="int" >        5 </v>
   <v type="int" >        6 </v>
   <v type="int" >        7 </v>
   <v type="int" >        8 </v>
   <v type="int" >        9 </v>
   <v type="int" >       10 </v>
   <v type="int" >       11 </v>
   <v type="int" >       12 </v>
   <v type="int" >       13 </v>
   <v type="int" >       14 </v>
   <v type="int" >       15 </v>
   <v type="int" >       16 </v>
   <v type="int" >       17 </v>
   <v type="int" >       18 </v>
   <v type="int" >       19 </v>
   <v type="int" >       20 </v>
   <v type="int" >       21 </v>
   <v type="int" >       22 </v>
   <v type="int" >       23 </v>
   <v type="int" >       24 </v>
   <v type="int" >       25 </v>
   <v type="int" >       26 </v>
   <v type="int" >       27 </v>
   <v type="int" >       28 </v>
   <v type="int" >       29 </v>
   <v type="int" >       30 </v>
   <v type="int" >       31 </v>
   <v type="int" >       32 </v>
   <v type="int" >       33 </v>
   <v type="int" >       34 </v>
   <v type="int" >       35 </v>
   <v type="int" >       36 </v>
   <v type="int" >       37 </v>
   <v type="int" >       38 </v>
   <v type="int" >       39 </v>
   <v type="int" >       40 </v>
   <v type="int" >       41 </v>
   <v type="int" >       42 </v>
   <v type="int" >       43 </v>
   <v type="int" >       44 </v>
   <v type="int" >       45 </v>
   <v type="int" >       46 </v>
   <v type="int" >       47 </v>
   <v type="int" >       48 </v>
  </varray>
 </primitive_cell>
 <kpoints>
  <generation param="Gamma">
   <v type="int" name="divisions">       3        2        3 </v>
   <v name="usershift">      0.00000000       0.00000000       0.00000000 </v>
   <v name="genvec1">      0.33333333      -0.00000000       0.00000000 </v>
   <v name="genvec2">      0.00000000       0.50000000       0.00000000 </v>
   <v name="genvec3">      0.00000000       0.00000000       0.33333333 </v>
   <v name="shift">      0.00000000       0.00000000       0.00000000 </v>
  </generation>
  <varray name="kpointlist" >
   <v>       0.00000000       0.00000000       0.00000000 </v>
   <v>       0.33333333      -0.00000000       0.00000000 </v>
   <v>       0.00000000       0.50000000       0.00000000 </v>
   <v>       0.33333333       0.50000000       0.00000000 </v>
   <v>       0.00000000       0.00000000       0.33333333 </v>
   <v>       0.33333333      -0.00000000       0.33333333 </v>
   <v>      -0.33333333       0.00000000       0.33333333 </v>
   <v>       0.00000000       0.50000000       0.33333333 </v>
   <v>       0.33333333       0.50000000       0.33333333 </v>
   <v>      -0.33333333       0.50000000       0.33333333 </v>
  </varray>
  <varray name="weights" >
   <v>       0.05555556 </v>
   <v>       0.11111111 </v>
   <v>       0.05555556 </v>
   <v>       0.11111111 </v>
   <v>       0.11111111 </v>
   <v>       0.11111111 </v>
   <v>       0.11111111 </v>
   <v>       0.11111111 </v>
   <v>       0.11111111 </v>
   <v>       0.11111111 </v>
  </varray>
 </kpoints>
 <parameters>
  <separator name="general" >
   <i type="string" name="SYSTEM">Si and Ge interface calculation</i>
   <i type="logical" name="LCOMPAT"> F  </i>
  </separator>
  <separator name="electronic" >
   <i type="string" name="PREC">normal</i>
   <i name="ENMAX">    700.00000000</i>
   <i name="ENAUG">    900.00000000</i>
   <i name="EDIFF">      0.00000010</i>
   <i type="int" name="IALGO">    38</i>
   <i type="int" name="IWAVPR">    10</i>
   <i type="int" name="NBANDS">   116</i>
   <i type="int" name="NBANDSLOW">    -1</i>
   <i type="int" name="NBANDSHIGH">    -1</i>
   <i name="NELECT">    192.00000000</i>
   <i type="int" name="TURBO">     0</i>
   <i type="int" name="IRESTART">     0</i>
   <i type="int" name="NREBOOT">     0</i>
   <i type="int" name="NMIN">     0</i>
   <i name="EREF">      0.00000000</i>
   <separator name="electronic smearing" >
    <i type="int" name="ISMEAR">     0</i>
    <i name="SIGMA">      0.01000000</i>
    <i name="KSPACING">      0.50000000</i>
    <i type="logical" name="KGAMMA"> T  </i>
    <i type="logical" name="KBLOWUP"> F  </i>
   </separator>
   <separator name="electronic projectors" >
    <i type="logical" name="LREAL"> T  </i>
    <v name="ROPT">     -0.00050000     -0.00050000</v>
    <i type="int" name="LMAXPAW">  -100</i>
    <i type="int" name="LMAXMIX">     6</i>
    <i type="logical" name="NLSPLINE"> F  </i>
   </separator>
   <separator name="electronic startup" >
    <i type="int" name="ISTART">     0</i>
    <i type="int" name="ICHARG">     2</i>
    <i type="int" name="INIWAV">     1</i>
   </separator>
   <separator name="electronic spin" >
    <i type="int" name="ISPIN">     2</i>
    <i type="logical" name="LNONCOLLINEAR"> F  </i>
    <v name="MAGMOM">      0.02083333      0.02083333      0.02083333      0.02083333      0.02083333      0.02083333      0.02083333      0.02083333      0.02083333      0.02083333      0.02083333      0.02083333      0.02083333      0.02083333      0.02083333      0.02083333      0.02083333      0.02083333      0.02083333      0.02083333
      0.02083333      0.02083333      0.02083333      0.02083333      0.02083333      0.02083333      0.02083333      0.02083333      0.02083333      0.02083333      0.02083333      0.02083333      0.02083333      0.02083333      0.02083333      0.02083333      0.02083333      0.02083333      0.02083333      0.02083333
      0.02083333      0.02083333      0.02083333      0.02083333      0.02083333      0.02083333      0.02083333      0.02083333</v>
    <i name="NUPDOWN">      1.00000000</i>
    <i type="logical" name="LSORBIT"> F  </i>
    <v name="SAXIS">      0.00000000      0.00000000      1.00000000</v>
    <i type="logical" name="LSPIRAL"> F  </i>
    <v name="QSPIRAL">      0.00000000      0.00000000      0.00000000</v>
    <i type="logical" name="LZEROZ"> F  </i>
   </separator>
   <separator name="electronic exchange-correlation" >
    <i type="logical" name="LASPH"> T  </i>
   </separator>
   <separator name="electronic convergence" >
    <i type="int" name="NELM">   100</i>
    <i type="int" name="NELMDL">    -5</i>
    <i type="int" name="NELMIN">     2</i>
    <i name="ENINI">    700.00000000</i>
    <separator name="electronic convergence detail" >
     <i type="logical" name="LDIAG"> T  </i>
     <i type="logical" name="LSUBROT"> F  </i>
     <i name="WEIMIN">      0.00000000</i>
     <i name="EBREAK">      0.00000000</i>
     <i name="DEPER">      0.30000000</i>
     <i type="int" name="NRMM">     4</i>
     <i name="TIME">      0.40000000</i>
    </separator>
   </separator>
   <separator name="electronic mixer" >
    <i name="AMIX">      0.60000000</i>
    <i name="BMIX">      1.00000000</i>
    <i name="AMIN">      0.10000000</i>
    <i name="AMIX_MAG">      2.40000000</i>
    <i name="BMIX_MAG">      1.00000000</i>
    <separator name="electronic mixer details" >
     <i type="int" name="IMIX">     4</i>
     <i type="logical" name="MIXFIRST"> F  </i>
     <i type="int" name="MAXMIX">   -45</i>
     <i name="WC">    100.00000000</i>
     <i type="int" name="INIMIX">     1</i>
     <i type="int" name="MIXPRE">     1</i>
     <i type="int" name="MREMOVE">     5</i>
    </separator>
   </separator>
   <separator name="electronic dipolcorrection" >
    <i type="logical" name="LDIPOL"> F  </i>
    <i type="logical" name="LMONO"> F  </i>
    <i type="int" name="IDIPOL">     0</i>
    <i name="EPSILON">      1.00000000</i>
    <v name="DIPOL">   -100.00000000   -100.00000000   -100.00000000</v>
    <i name="EFIELD">      0.00000000</i>
    <i type="logical" name="LVACPOTAV"> F  </i>
   </separator>
  </separator>
  <separator name="grids" >
   <i type="int" name="NGX">    84</i>
   <i type="int" name="NGY">   126</i>
   <i type="int" name="NGZ">    60</i>
   <i type="int" name="NGXF">   168</i>
   <i type="int" name="NGYF">   252</i>
   <i type="int" name="NGZF">   120</i>
   <i type="logical" name="ADDGRID"> T  </i>
  </separator>
  <separator name="ionic" >
   <i type="int" name="NSW">     0</i>
   <i type="int" name="IBRION">    -1</i>
   <i type="int" name="MDALGO">     0</i>
   <i type="int" name="ISIF">     2</i>
   <i name="PSTRESS">      0.00000000</i>
   <i name="EDIFFG">      0.00000100</i>
   <i type="int" name="NFREE">     0</i>
   <i name="POTIM">      0.50000000</i>
   <i name="SMASS">     -3.00000000</i>
   <i name="SCALEE">      1.00000000</i>
  </separator>
  <separator name="ionic md" >
   <i name="TEBEG">      0.00010000</i>
   <i name="TEEND">      0.00010000</i>
   <i type="int" name="NBLOCK">     1</i>
   <i type="int" name="KBLOCK">     1</i>
   <i type="int" name="NPACO">   256</i>
   <i name="APACO">     10.00000000</i>
  </separator>
  <separator name="symmetry" >
   <i type="int" name="ISYM">     2</i>
   <i name="SYMPREC">      0.00001000</i>
  </separator>
  <separator name="dos" >
   <i type="int" name="LORBIT">     0</i>
   <v name="RWIGS">     -1.00000000     -1.00000000</v>
   <i type="int" name="NEDOS">   301</i>
   <i name="EMIN">     10.00000000</i>
   <i name="EMAX">    -10.00000000</i>
   <i name="EFERMI">      0.00000000</i>
  </separator>
  <separator name="writing" >
   <i type="int" name="NWRITE">     2</i>
   <i type="logical" name="LWAVE"> F  </i>
   <i type="logical" name="LDOWNSAMPLE"> F  </i>
   <i type="logical" name="LCHARG"> T  </i>
   <i type="logical" name="LPARD"> F  </i>
   <i type="logical" name="LVTOT"> F  </i>
   <i type="logical" name="LVHAR"> T  </i>
   <i type="logical" name="LELF"> F  </i>
   <i type="logical" name="LOPTICS"> F  </i>
   <v name="STM">      0.00000000      0.00000000      0.00000000      0.00000000      0.00000000      0.00000000      0.00000000</v>
  </separator>
  <separator name="performance" >
   <i type="int" name="NPAR">     4</i>
   <i type="int" name="NSIM">     4</i>
   <i type="int" name="NBLK">    -1</i>
   <i type="logical" name="LPLANE"> T  </i>
   <i type="logical" name="LSCALAPACK"> T  </i>
   <i type="logical" name="LSCAAWARE"> F  </i>
   <i type="logical" name="LSCALU"> F  </i>
   <i type="logical" name="LASYNC"> F  </i>
   <i type="logical" name="LORBITALREAL"> F  </i>
  </separator>
  <separator name="miscellaneous" >
   <i type="int" name="IDIOT">     3</i>
   <i type="int" name="PHON_NSTRUCT">    -1</i>
   <i type="logical" name="LMUSIC"> F  </i>
   <v name="POMASS">    118.71000000     72.61000000</v>
   <v name="DARWINR">      0.00000000      0.00000000</v>
   <v name="DARWINV">      1.00000000      1.00000000</v>
   <i type="logical" name="LCORR"> T  </i>
  </separator>
  <i type="logical" name="GGA_COMPAT"> T  </i>
  <i type="logical" name="LBERRY"> F  </i>
  <i type="int" name="ICORELEVEL">     0</i>
  <i type="logical" name="LDAU"> F  </i>
  <i type="int" name="I_CONSTRAINED_M">     0</i>
  <separator name="electronic exchange-correlation" >
   <i type="string" name="GGA    ">PE</i>
   <i type="string" name="XC_C">1</i>
   <i type="int" name="VOSKOWN">     0</i>
   <i type="logical" name="LHFCALC"> F  </i>
   <i type="string" name="PRECFOCK"></i>
   <i type="logical" name="LSYMGRAD"> F  </i>
   <i type="logical" name="LHFONE"> F  </i>
   <i type="logical" name="LRHFCALC"> F  </i>
   <i type="logical" name="LTHOMAS"> F  </i>
   <i type="logical" name="LMODELHF"> F  </i>
   <i type="logical" name="LFOCKACE"> F  </i>
   <i name="ENCUT4O">     -1.00000000</i>
   <i type="int" name="EXXOEP">     0</i>
   <i type="int" name="FOURORBIT">     0</i>
   <i name="AEXX">      0.00000000</i>
   <i name="HFALPHA">      0.00000000</i>
   <i name="MCALPHA">      0.00000000</i>
   <i name="ALDAX">      1.00000000</i>
   <i name="AGGAX">      1.00000000</i>
   <i name="AMGGAX">      1.00000000</i>
   <i name="ALDAC">      1.00000000</i>
   <i name="AGGAC">      1.00000000</i>
   <i name="AMGGAC">      1.00000000</i>
   <i type="int" name="NKREDX">     1</i>
   <i type="int" name="NKREDY">     1</i>
   <i type="int" name="NKREDZ">     1</i>
   <i type="logical" name="SHIFTRED"> F  </i>
   <i type="logical" name="ODDONLY"> F  </i>
   <i type="logical" name="EVENONLY"> F  </i>
   <i type="int" name="LMAXFOCK">     0</i>
   <i type="int" name="NMAXFOCKAE">     0</i>
   <i type="logical" name="LFOCKAEDFT"> F  </i>
   <i name="HFSCREEN">      0.00000000</i>
   <i name="HFSCREENC">      0.00000000</i>
   <i type="int" name="NBANDSGWLOW">     0</i>
  </separator>
  <separator name="vdW DFT" >
   <i type="logical" name="LUSE_VDW"> F  </i>
   <i type="int" name="IVDW_NL">    -1</i>
   <i type="logical" name="LSPIN_VDW"> F  </i>
   <i name="ZAB_VDW">     -0.84910000</i>
   <i name="GAMMA_VDW">      1.39626340</i>
   <i name="ALPHA_VDW">      0.00000000</i>
   <i name="PARAM1">      0.12340000</i>
   <i name="PARAM2">      1.00000000</i>
   <i name="BPARAM">      6.30000000</i>
   <i name="CPARAM">      0.00930000</i>
  </separator>
  <separator name="model GW" >
   <i type="int" name="MODEL_GW">     0</i>
   <i name="MODEL_EPS0">     21.16654646</i>
   <i name="MODEL_ALPHA">      1.00000000</i>
  </separator>
  <separator name="linear response parameters" >
   <i type="logical" name="LEPSILON"> F  </i>
   <i type="logical" name="LRPA"> F  </i>
   <i type="logical" name="LNABLA"> F  </i>
   <i type="logical" name="LVEL"> F  </i>
   <i name="CSHIFT">      0.10000000</i>
   <i name="OMEGAMAX">     -1.00000000</i>
   <i name="DEG_THRESHOLD">      0.00200000</i>
   <i name="RTIME">     -0.10000000</i>
   <i name="WPLASMAI">      0.00000000</i>
   <v name="DFIELD">      0.00000000      0.00000000      0.00000000</v>
   <v name="WPLASMA">      0.00000000      0.00000000      0.00000000      0.00000000      0.00000000      0.00000000      0.00000000      0.00000000      0.00000000</v>
  </separator>
  <separator name="orbital magnetization" >
   <i type="logical" name="NUCIND"> F  </i>
   <v name="MAGPOS">      0.00000000      0.00000000      0.00000000</v>
   <i type="logical" name="LNICSALL"> T  </i>
   <i type="logical" name="ORBITALMAG"> F  </i>
   <i type="logical" name="LMAGBLOCH"> F  </i>
   <i type="logical" name="LCHIMAG"> F  </i>
   <i type="logical" name="LGAUGE"> T  </i>
   <i type="int" name="MAGATOM">     0</i>
   <v name="MAGDIPOL">      0.00000000      0.00000000      0.00000000</v>
   <v name="AVECCONST">      0.00000000      0.00000000      0.00000000</v>
  </separator>
  <separator name="response functions" >
   <i type="logical" name="LALL_IN_ONE"> F  </i>
   <i type="int" name="IALL_IN_ONE">    -1</i>
   <i type="int" name="NBANDS_WAVE">    -1</i>
   <i type="logical" name="LFINITE_TEMPERATURE"> F  </i>
   <i type="logical" name="LADDER"> F  </i>
   <i type="logical" name="LRPAFORCE"> F  </i>
   <i type="logical" name="LFXC"> F  </i>
   <i type="logical" name="LHARTREE"> T  </i>
   <i type="int" name="IBSE">     0</i>
   <v type="int" name="KPOINT">    -1     0     0     0</v>
   <i type="logical" name="LTCTC"> F  </i>
   <i type="logical" name="LTCTE"> F  </i>
   <i type="logical" name="LTETE"> F  </i>
   <i type="logical" name="LTRIPLET"> F  </i>
   <i type="logical" name="LFXCEPS"> F  </i>
   <i type="logical" name="LFXHEG"> F  </i>
   <i type="int" name="NATURALO">     2</i>
   <i type="logical" name="LHOLEGF"> F  </i>
   <i type="logical" name="L2ORDER"> F  </i>
   <i type="logical" name="LDMP1"> F  </i>
   <i type="logical" name="LMP2LT"> F  </i>
   <i type="logical" name="LSMP2LT"> F  </i>
   <i type="logical" name="LGWLF"> F  </i>
   <i name="ENCUTGW">     -1.60000002</i>
   <i name="ENCUTGWSOFT">     -1.60000002</i>
   <i name="ENCUTLF">     -1.00000000</i>
   <i type="logical" name="ESF_SPLINES"> F  </i>
   <i name="ESF_CONV">      0.01000000</i>
   <i type="int" name="ESF_NINTER">    15</i>
   <i type="int" name="LMAXMP2">    -1</i>
   <i name="SCISSOR">      0.00000000</i>
   <i type="int" name="NOMEGA">     0</i>
   <i type="int" name="NOMEGAR">     0</i>
   <i type="int" name="NBANDSGW">    -1</i>
   <i type="int" name="NBANDSO">    -1</i>
   <i type="int" name="NBANDSV">    -1</i>
   <i type="int" name="NELMGW">     1</i>
   <i type="int" name="NELMHF">     1</i>
   <i type="int" name="DIM">     3</i>
   <i type="int" name="IESPILON">     4</i>
   <i type="int" name="ANTIRES">     0</i>
   <i name="OMEGAMAX">    -30.00000000</i>
   <i name="OMEGAMIN">    -30.00000000</i>
   <i name="OMEGATL">   -200.00000000</i>
   <i type="int" name="OMEGAGRID">     0</i>
   <i name="CSHIFT">     -0.10000000</i>
   <i type="logical" name="LSELFENERGY"> F  </i>
   <i type="logical" name="LSPECTRAL"> F  </i>
   <i type="logical" name="LSPECTRALGW"> F  </i>
   <i type="logical" name="LSINGLES"> F  </i>
   <i type="logical" name="LFERMIGW"> F  </i>
   <i type="logical" name="ODDONLYGW"> F  </i>
   <i type="logical" name="EVENONLYGW"> F  </i>
   <i type="int" name="NKREDLFX">     1</i>
   <i type="int" name="NKREDLFY">     1</i>
   <i type="int" name="NKREDLFZ">     1</i>
   <i type="int" name="MAXMEM">  2800</i>
   <i type="int" name="TELESCOPE">     0</i>
   <i type="int" name="NTAUPAR">    -1</i>
   <i type="int" name="NOMEGAPAR">    -1</i>
   <i name="DAMP_NEWTON">      0.80000001</i>
   <i name="LAMBDA">      1.00000000</i>
  </separator>
  <separator name="External order field" >
   <i name="OFIELD_KAPPA">      0.00000000</i>
   <v name="OFIELD_K">      0.00000000      0.00000000      0.00000000</v>
   <i name="OFIELD_Q6_NEAR">      0.00000000</i>
   <i name="OFIELD_Q6_FAR">      0.00000000</i>
   <i name="OFIELD_A">      0.00000000</i>
  </separator>
  <separator name="optional k-points parameters" >
   <i type="int" name="KPOINTS_OPT_MODE">     1</i>
   <i type="logical" name="LKPOINTS_OPT"> F  </i>
  </separator>
 </parameters>
 <atominfo>
  <atoms>      48 </atoms>
  <types>       2 </types>
  <array name="atoms" >
   <dimension dim="1">ion</dimension>
   <field type="string">element</field>
   <field type="int">atomtype</field>
   <set>
    <rc><c>Sn</c><c>   1</c></rc>
    <rc><c>Sn</c><c>   1</c></rc>
    <rc><c>Sn</c><c>   1</c></rc>
    <rc><c>Sn</c><c>   1</c></rc>
    <rc><c>Sn</c><c>   1</c></rc>
    <rc><c>Sn</c><c>   1</c></rc>
    <rc><c>Sn</c><c>   1</c></rc>
    <rc><c>Sn</c><c>   1</c></rc>
    <rc><c>Sn</c><c>   1</c></rc>
    <rc><c>Sn</c><c>   1</c></rc>
    <rc><c>Sn</c><c>   1</c></rc>
    <rc><c>Sn</c><c>   1</c></rc>
    <rc><c>Sn</c><c>   1</c></rc>
    <rc><c>Sn</c><c>   1</c></rc>
    <rc><c>Sn</c><c>   1</c></rc>
    <rc><c>Sn</c><c>   1</c></rc>
    <rc><c>Sn</c><c>   1</c></rc>
    <rc><c>Sn</c><c>   1</c></rc>
    <rc><c>Sn</c><c>   1</c></rc>
    <rc><c>Sn</c><c>   1</c></rc>
    <rc><c>Sn</c><c>   1</c></rc>
    <rc><c>Sn</c><c>   1</c></rc>
    <rc><c>Sn</c><c>   1</c></rc>
    <rc><c>Sn</c><c>   1</c></rc>
    <rc><c>Ge</c><c>   2</c></rc>
    <rc><c>Ge</c><c>   2</c></rc>
    <rc><c>Ge</c><c>   2</c></rc>
    <rc><c>Ge</c><c>   2</c></rc>
    <rc><c>Ge</c><c>   2</c></rc>
    <rc><c>Ge</c><c>   2</c></rc>
    <rc><c>Ge</c><c>   2</c></rc>
    <rc><c>Ge</c><c>   2</c></rc>
    <rc><c>Ge</c><c>   2</c></rc>
    <rc><c>Ge</c><c>   2</c></rc>
    <rc><c>Ge</c><c>   2</c></rc>
    <rc><c>Ge</c><c>   2</c></rc>
    <rc><c>Ge</c><c>   2</c></rc>
    <rc><c>Ge</c><c>   2</c></rc>
    <rc><c>Ge</c><c>   2</c></rc>
    <rc><c>Ge</c><c>   2</c></rc>
    <rc><c>Ge</c><c>   2</c></rc>
    <rc><c>Ge</c><c>   2</c></rc>
    <rc><c>Ge</c><c>   2</c></rc>
    <rc><c>Ge</c><c>   2</c></rc>
    <rc><c>Ge</c><c>   2</c></rc>
    <rc><c>Ge</c><c>   2</c></rc>
    <rc><c>Ge</c><c>   2</c></rc>
    <rc><c>Ge</c><c>   2</c></rc>
   </set>
  </array>
  <array name="atomtypes" >
   <dimension dim="1">type</dimension>
   <field type="int">atomspertype</field>
   <field type="string">element</field>
   <field>mass</field>
   <field>valence</field>
   <field type="string">pseudopotential</field>
   <set>
    <rc><c>  24</c><c>Sn</c><c>    118.71000000</c><c>      4.00000000</c><c>  PAW_PBE Sn 08Apr2002                  </c></rc>
    <rc><c>  24</c><c>Ge</c><c>     72.61000000</c><c>      4.00000000</c><c>  PAW_PBE Ge 05Jan2001                  </c></rc>
   </set>
  </array>
 </atominfo>
 <structure name="initialpos" >
  <crystal>
   <varray name="basis" >
    <v>      12.97840023       0.00000000       0.00000000 </v>
    <v>     -12.97840023      14.51029301       0.00000000 </v>
    <v>       0.00000000       0.00000000       8.99171734 </v>
   </varray>
   <i name="volume">   1693.32371694 </i>
   <varray name="rec_basis" >
    <v>       0.07705110       0.06891660       0.00000000 </v>
    <v>       0.00000000       0.06891660       0.00000000 </v>
    <v>       0.00000000       0.00000000       0.11121346 </v>
   </varray>
  </crystal>
  <varray name="positions" >
   <v>       0.47435850       0.97435850       0.00000000 </v>
   <v>       0.17435835       0.67435843       0.16137400 </v>
   <v>       0.87435830       0.37435836       0.32274803 </v>
   <v>       0.97435850       0.97435850       0.00000000 </v>
   <v>       0.67435837       0.67435843       0.16137400 </v>
   <v>       0.37435830       0.37435836       0.32274803 </v>
   <v>       0.69935846       0.32435849       0.08068685 </v>
   <v>       0.39935836       0.02435845       0.24206085 </v>
   <v>       0.09935832       0.72435844       0.40343484 </v>
   <v>       0.19935848       0.32435849       0.08068685 </v>
   <v>       0.89935839       0.02435845       0.24206085 </v>
   <v>       0.59935832       0.72435844       0.40343484 </v>
   <v>       0.72435844       0.47435850       0.00000002 </v>
   <v>       0.42435834       0.17435840       0.16137402 </v>
   <v>       0.12435819       0.87435830       0.32274803 </v>
   <v>       0.22435847       0.47435850       0.00000002 </v>
   <v>       0.92435837       0.17435840       0.16137402 </v>
   <v>       0.62435824       0.87435830       0.32274803 </v>
   <v>       0.94935858       0.82435858       0.08068686 </v>
   <v>       0.64935851       0.52435857       0.24206083 </v>
   <v>       0.34935838       0.22435850       0.40343484 </v>
   <v>       0.44935879       0.82435858       0.08068686 </v>
   <v>       0.14935864       0.52435857       0.24206083 </v>
   <v>       0.84935856       0.22435850       0.40343484 </v>
   <v>       0.32959640       0.35205102       0.55811709 </v>
   <v>       0.21292973       0.93538433       0.61555719 </v>
   <v>       0.09626293       0.51871759       0.67299735 </v>
   <v>       0.97959608       0.10205078       0.73043764 </v>
   <v>       0.86292940       0.68538421       0.78787762 </v>
   <v>       0.74626255       0.26871729       0.84531784 </v>
   <v>       0.82959640       0.60205102       0.55811709 </v>
   <v>       0.71292961       0.18538427       0.61555719 </v>
   <v>       0.59626287       0.76871759       0.67299741 </v>
   <v>       0.47959608       0.35205078       0.73043740 </v>
   <v>       0.36292934       0.93538410       0.78787756 </v>
   <v>       0.24626267       0.51871723       0.84531772 </v>
   <v>       0.82959640       0.85205102       0.55811715 </v>
   <v>       0.71292961       0.43538427       0.61555719 </v>
   <v>       0.59626281       0.01871753       0.67299741 </v>
   <v>       0.47959611       0.60205078       0.73043752 </v>
   <v>       0.36292940       0.18538403       0.78787756 </v>
   <v>       0.24626255       0.76871711       0.84531778 </v>
   <v>       0.32959628       0.10205102       0.55811715 </v>
   <v>       0.21292961       0.68538427       0.61555725 </v>
   <v>       0.09626293       0.26871753       0.67299741 </v>
   <v>       0.97959608       0.85205078       0.73043752 </v>
   <v>       0.86292934       0.43538403       0.78787762 </v>
   <v>       0.74626255       0.01871705       0.84531784 </v>
  </varray>
 </structure>
 <calculation>
  <scstep>
   <time name="dav">    7.90    7.97</time>
   <time name="total">    8.97    9.05</time>
   <energy>
    <i name="alphaZ">    215.13340381 </i>
    <i name="ewald">  -4225.75236441 </i>
    <i name="hartreedc">   -627.47270596 </i>
    <i name="XCdc">  -3033.33478489 </i>
    <i name="pawpsdc">   6661.45080298 </i>
    <i name="pawaedc">  -3341.25796729 </i>
    <i name="eentropy">     -0.00069522 </i>
    <i name="bandstr">    554.61602254 </i>
    <i name="atom">   4777.96542805 </i>
    <i name="e_fr_energy">    981.34713962 </i>
    <i name="e_wo_entrp">    981.34783484 </i>
    <i name="e_0_energy">    981.34748723 </i>
   </energy>
  </scstep>
  <scstep>
   <time name="dav">    8.88    8.96</time>
   <time name="total">    8.88    8.97</time>
   <energy>
    <i name="e_fr_energy">    -32.42236937 </i>
    <i name="e_wo_entrp">    -32.42088836 </i>
    <i name="e_0_energy">    -32.42162887 </i>
   </energy>
  </scstep>
  <scstep>
   <time name="dav">    9.29    9.37</time>
   <time name="total">    9.29    9.37</time>
   <energy>
    <i name="e_fr_energy">   -148.99520329 </i>
    <i name="e_wo_entrp">   -148.99401677 </i>
    <i name="e_0_energy">   -148.99461003 </i>
   </energy>
  </scstep>
  <scstep>
   <time name="dav">    9.25    9.33</time>
   <time name="total">    9.25    9.34</time>
   <energy>
    <i name="e_fr_energy">   -154.50041059 </i>
    <i name="e_wo_entrp">   -154.49950103 </i>
    <i name="e_0_energy">   -154.49995581 </i>
   </energy>
  </scstep>
  <scstep>
   <time name="dav">    9.77    9.86</time>
   <time name="total">   10.49   10.59</time>
   <energy>
    <i name="e_fr_energy">   -154.75960874 </i>
    <i name="e_wo_entrp">   -154.75883229 </i>
    <i name="e_0_energy">   -154.75922052 </i>
   </energy>
  </scstep>
  <scstep>
   <time name="dav">    9.63    9.72</time>
   <time name="total">   12.69   12.80</time>
   <energy>
    <i name="e_fr_energy">   -151.46023862 </i>
    <i name="e_wo_entrp">   -151.45865611 </i>
    <i name="e_0_energy">   -151.45944736 </i>
   </energy>
  </scstep>
  <scstep>
   <time name="dav">    9.48    9.57</time>
   <time name="total">   11.24   11.34</time>
   <energy>
    <i name="e_fr_energy">   -151.16570056 </i>
    <i name="e_wo_entrp">   -151.16444845 </i>
    <i name="e_0_energy">   -151.16507451 </i>
   </energy>
  </scstep>
  <scstep>
   <time name="dav">    9.29    9.37</time>
   <time name="total">   11.06   11.16</time>
   <energy>
    <i name="e_fr_energy">   -151.02513807 </i>
    <i name="e_wo_entrp">   -151.02353547 </i>
    <i name="e_0_energy">   -151.02433677 </i>
   </energy>
  </scstep>
  <scstep>
   <time name="dav">    9.11    9.19</time>
   <time name="total">   10.88   10.97</time>
   <energy>
    <i name="e_fr_energy">   -151.01710169 </i>
    <i name="e_wo_entrp">   -151.01581837 </i>
    <i name="e_0_energy">   -151.01646003 </i>
   </energy>
  </scstep>
  <scstep>
   <time name="dav">    9.02    9.10</time>
   <time name="total">   12.53   12.63</time>
   <energy>
    <i name="e_fr_energy">   -151.01637500 </i>
    <i name="e_wo_entrp">   -151.01498536 </i>
    <i name="e_0_energy">   -151.01568018 </i>
   </energy>
  </scstep>
  <scstep>
   <time name="dav">    8.84    8.92</time>
   <time name="total">   10.62   10.71</time>
   <energy>
    <i name="e_fr_energy">   -151.01695349 </i>
    <i name="e_wo_entrp">   -151.01557713 </i>
    <i name="e_0_energy">   -151.01626531 </i>
   </energy>
  </scstep>
  <scstep>
   <time name="dav">    8.80    8.88</time>
   <time name="total">   10.57   10.66</time>
   <energy>
    <i name="e_fr_energy">   -151.01711589 </i>
    <i name="e_wo_entrp">   -151.01574575 </i>
    <i name="e_0_energy">   -151.01643082 </i>
   </energy>
  </scstep>
  <scstep>
   <time name="dav">    8.92    9.00</time>
   <time name="total">   10.69   10.78</time>
   <energy>
    <i name="e_fr_energy">   -151.01719509 </i>
    <i name="e_wo_entrp">   -151.01582433 </i>
    <i name="e_0_energy">   -151.01650971 </i>
   </energy>
  </scstep>
  <scstep>
   <time name="dav">    8.82    8.90</time>
   <time name="total">   10.59   10.68</time>
   <energy>
    <i name="e_fr_energy">   -151.01723104 </i>
    <i name="e_wo_entrp">   -151.01586197 </i>
    <i name="e_0_energy">   -151.01654650 </i>
   </energy>
  </scstep>
  <scstep>
   <time name="dav">    8.98    9.07</time>
   <time name="total">   10.76   10.85</time>
   <energy>
    <i name="e_fr_energy">   -151.01724316 </i>
    <i name="e_wo_entrp">   -151.01587259 </i>
    <i name="e_0_energy">   -151.01655788 </i>
   </energy>
  </scstep>
  <scstep>
   <time name="dav">    8.62    8.70</time>
   <time name="total">   11.41   11.51</time>
   <energy>
    <i name="e_fr_energy">   -151.01724752 </i>
    <i name="e_wo_entrp">   -151.01587672 </i>
    <i name="e_0_energy">   -151.01656212 </i>
   </energy>
  </scstep>
  <scstep>
   <time name="dav">    8.58    8.66</time>
   <time name="total">   10.34   10.43</time>
   <energy>
    <i name="e_fr_energy">   -151.01724915 </i>
    <i name="e_wo_entrp">   -151.01587868 </i>
    <i name="e_0_energy">   -151.01656392 </i>
   </energy>
  </scstep>
  <scstep>
   <time name="dav">    7.80    7.87</time>
   <time name="total">   11.53   11.62</time>
   <energy>
    <i name="e_fr_energy">   -151.01724953 </i>
    <i name="e_wo_entrp">   -151.01587888 </i>
    <i name="e_0_energy">   -151.01656420 </i>
   </energy>
  </scstep>
  <scstep>
   <time name="dav">    6.34    6.40</time>
   <time name="total">    7.39    7.45</time>
   <energy>
    <i name="alphaZ">    215.13340381 </i>
    <i name="ewald">  -4225.75236441 </i>
    <i name="hartreedc">   -678.73231847 </i>
    <i name="XCdc">  -3022.39159767 </i>
    <i name="pawpsdc">  11214.43294683 </i>
    <i name="pawaedc">  -7904.63744598 </i>
    <i name="eentropy">     -0.00137077 </i>
    <i name="bandstr">   -527.03393088 </i>
    <i name="atom">   4777.96542805 </i>
    <i name="e_fr_energy">   -151.01724949 </i>
    <i name="e_wo_entrp">   -151.01587872 </i>
    <i name="e_0_energy">   -151.01656410 </i>
   </energy>
  </scstep>
  <structure>
   <crystal>
    <varray name="basis" >
     <v>      12.97840023       0.00000000       0.00000000 </v>
     <v>     -12.97840023      14.51029301       0.00000000 </v>
     <v>       0.00000000       0.00000000       8.99171734 </v>
    </varray>
    <i name="volume">   1693.32371694 </i>
    <varray name="rec_basis" >
     <v>       0.07705110       0.06891660       0.00000000 </v>
     <v>       0.00000000       0.06891660       0.00000000 </v>
     <v>       0.00000000       0.00000000       0.11121346 </v>
    </varray>
   </crystal>
   <varray name="positions" >
    <v>       0.47435850       0.97435850       0.00000000 </v>
    <v>       0.17435835       0.67435843       0.16137400 </v>
    <v>       0.87435830       0.37435836       0.32274803 </v>
    <v>       0.97435850       0.97435850       0.00000000 </v>
    <v>       0.67435837       0.67435843       0.16137400 </v>
    <v>       0.37435830       0.37435836       0.32274803 </v>
    <v>       0.69935846       0.32435849       0.08068685 </v>
    <v>       0.39935836       0.02435845       0.24206085 </v>
    <v>       0.09935832       0.72435844       0.40343484 </v>
    <v>       0.19935848       0.32435849       0.08068685 </v>
    <v>       0.89935839       0.02435845       0.24206085 </v>
    <v>       0.59935832       0.72435844       0.40343484 </v>
    <v>       0.72435844       0.47435850       0.00000002 </v>
    <v>       0.42435834       0.17435840       0.16137402 </v>
    <v>       0.12435819       0.87435830       0.32274803 </v>
    <v>       0.22435847       0.47435850       0.00000002 </v>
    <v>       0.92435837       0.17435840       0.16137402 </v>
    <v>       0.62435824       0.87435830       0.32274803 </v>
    <v>       0.94935858       0.82435858       0.08068686 </v>
    <v>       0.64935851       0.52435857       0.24206083 </v>
    <v>       0.34935838       0.22435850       0.40343484 </v>
    <v>       0.44935879       0.82435858       0.08068686 </v>
    <v>       0.14935864       0.52435857       0.24206083 </v>
    <v>       0.84935856       0.22435850       0.40343484 </v>
    <v>       0.32959640       0.35205102       0.55811709 </v>
    <v>       0.21292973       0.93538433       0.61555719 </v>
    <v>       0.09626293       0.51871759       0.67299735 </v>
    <v>       0.97959608       0.10205078       0.73043764 </v>
    <v>       0.86292940       0.68538421       0.78787762 </v>
    <v>       0.74626255       0.26871729       0.84531784 </v>
    <v>       0.82959640       0.60205102       0.55811709 </v>
    <v>       0.71292961       0.18538427       0.61555719 </v>
    <v>       0.59626287       0.76871759       0.67299741 </v>
    <v>       0.47959608       0.35205078       0.73043740 </v>
    <v>       0.36292934       0.93538410       0.78787756 </v>
    <v>       0.24626267       0.51871723       0.84531772 </v>
    <v>       0.82959640       0.85205102       0.55811715 </v>
    <v>       0.71292961       0.43538427       0.61555719 </v>
    <v>       0.59626281       0.01871753       0.67299741 </v>
    <v>       0.47959611       0.60205078       0.73043752 </v>
    <v>       0.36292940       0.18538403       0.78787756 </v>
    <v>       0.24626255       0.76871711       0.84531778 </v>
    <v>       0.32959628       0.10205102       0.55811715 </v>
    <v>       0.21292961       0.68538427       0.61555725 </v>
    <v>       0.09626293       0.26871753       0.67299741 </v>
    <v>       0.97959608       0.85205078       0.73043752 </v>
    <v>       0.86292934       0.43538403       0.78787762 </v>
    <v>       0.74626255       0.01871705       0.84531784 </v>
   </varray>
  </structure>
  <varray name="forces" >
   <v>       2.72511782       2.33195533       5.32408045 </v>
   <v>      -0.40949833      -0.17898532      -0.71068196 </v>
   <v>      -0.32110844       0.33933116       0.62078415 </v>
   <v>      -0.21678758       0.57645989      -0.91881161 </v>
   <v>      -0.49829004      -0.47597381      -0.62719628 </v>
   <v>       0.56465589       1.74923058      -7.26397851 </v>
   <v>      -0.14230471      -0.30372703       0.35887551 </v>
   <v>       0.34811695       0.49964957       0.71762693 </v>
   <v>      -0.15838898      -0.79331305       0.87600331 </v>
   <v>       0.27622534      -0.20982863      -0.72024917 </v>
   <v>       0.33025179       0.26704959       0.47302830 </v>
   <v>       0.10989890      -1.28481554      -0.95894558 </v>
   <v>      -0.06692067       0.30647871      -1.30476723 </v>
   <v>      -0.48311642      -0.32139863      -1.02917203 </v>
   <v>       0.00997792       0.13200340       0.62422837 </v>
   <v>      12.87232343     -28.22183161      60.57121238 </v>
   <v>      -0.33662572      -0.48527733      -0.47128346 </v>
   <v>      -0.25996829       0.27819296       0.38413501 </v>
   <v>       0.26458705      -0.31365852      -0.72066975 </v>
   <v>       0.50927901       0.56027007       0.94692018 </v>
   <v>      -0.01042258      -0.55594839       0.34040284 </v>
   <v>       0.44953246      -0.17400104      -0.59556340 </v>
   <v>       0.19454627       0.26764036       0.87446224 </v>
   <v>       1.80736168       0.81316407      -1.73429002 </v>
   <v>      -1.37778514      -1.28855814       7.70534508 </v>
   <v>      -0.49201887      -0.07709459      -0.17621676 </v>
   <v>      -0.06595761       0.32091107      -0.76027215 </v>
   <v>       0.34683441       0.04754738       0.09979510 </v>
   <v>      -0.25903295       0.12206566       0.41605119 </v>
   <v>       0.39334154       0.07507288      -0.40120789 </v>
   <v>       0.32893036      -0.13817725      -1.07985705 </v>
   <v>      -1.74466602      -1.39746681       2.50718419 </v>
   <v>      -0.66280308      -0.04989528       1.50382483 </v>
   <v>       0.45400705       0.23720981       0.44409215 </v>
   <v>      -2.79247788      -2.01699483      -5.67566733 </v>
   <v>     -13.11852730      28.27160992     -61.07435144 </v>
   <v>       0.30572474       0.96105233       0.02488259 </v>
   <v>      -0.02034749       0.31091537      -0.33586548 </v>
   <v>       0.02759280       0.13325134      -0.25190307 </v>
   <v>       0.52711853       0.52316477      -0.43788846 </v>
   <v>       0.12546782      -0.11919761       0.65873130 </v>
   <v>      -0.05431465      -0.31176705       0.20955248 </v>
   <v>       0.41806120       0.13500984       0.41554424 </v>
   <v>      -0.00096817       0.05498765      -0.16681977 </v>
   <v>      -0.21666207      -0.29225767       0.14404333 </v>
   <v>       0.05906017      -0.17254102       0.54769862 </v>
   <v>       0.12753666      -0.06801592       0.09246871 </v>
   <v>       0.13344324      -0.06349863       0.53468490 </v>
  </varray>
  <varray name="stress" >
   <v>      12.60703026      -9.31338729      12.84610424 </v>
   <v>      -9.31338693      26.21118461     -38.36981409 </v>
   <v>      12.84610186     -38.36982163     109.79058224 </v>
  </varray>
  <energy>
   <i name="e_fr_energy">   -151.01724949 </i>
   <i name="e_wo_entrp">   -151.01587872 </i>
   <i name="e_0_energy">   -151.01656410 </i>
  </energy>
  <time name="totalsc">  236.35  238.55</time>
  <eigenvalues>
   <array>
    <dimension dim="1">band</dimension>
    <dimension dim="2">kpoint</dimension>
    <dimension dim="3">spin</dimension>
    <field>eigene</field>
    <field>occ</field>
    <set>
     <set comment="spin 1">
      <set comment="kpoint 1">
       <r>   -9.5365    1.0000 </r>
       <r>   -9.4083    1.0000 </r>
       <r>   -9.2875    1.0000 </r>
       <r>   -8.7652    1.0000 </r>
       <r>   -8.6690    1.0000 </r>
       <r>   -8.3832    1.0000 </r>
       <r>   -8.1787    1.0000 </r>
       <r>   -7.8652    1.0000 </r>
       <r>   -7.7053    1.0000 </r>
       <r>   -7.5730    1.0000 </r>
       <r>   -7.4125    1.0000 </r>
       <r>   -7.3558    1.0000 </r>
       <r>   -7.0128    1.0000 </r>
       <r>   -6.9290    1.0000 </r>
       <r>   -6.8871    1.0000 </r>
       <r>   -6.7752    1.0000 </r>
       <r>   -6.6760    1.0000 </r>
       <r>   -6.6208    1.0000 </r>
       <r>   -6.5331    1.0000 </r>
       <r>   -6.3799    1.0000 </r>
       <r>   -6.2321    1.0000 </r>
       <r>   -6.1244    1.0000 </r>
       <r>   -6.0773    1.0000 </r>
       <r>   -5.9802    1.0000 </r>
       <r>   -5.6157    1.0000 </r>
       <r>   -5.5168    1.0000 </r>
       <r>   -5.3702    1.0000 </r>
       <r>   -5.2711    1.0000 </r>
       <r>   -5.0988    1.0000 </r>
       <r>   -5.0956    1.0000 </r>
       <r>   -4.9411    1.0000 </r>
       <r>   -4.7812    1.0000 </r>
       <r>   -4.6749    1.0000 </r>
       <r>   -4.3278    1.0000 </r>
       <r>   -4.2003    1.0000 </r>
       <r>   -4.0224    1.0000 </r>
       <r>   -3.8834    1.0000 </r>
       <r>   -3.8195    1.0000 </r>
       <r>   -3.8072    1.0000 </r>
       <r>   -3.5929    1.0000 </r>
       <r>   -3.3581    1.0000 </r>
       <r>   -3.2897    1.0000 </r>
       <r>   -2.9197    1.0000 </r>
       <r>   -2.8878    1.0000 </r>
       <r>   -2.6468    1.0000 </r>
       <r>   -2.4557    1.0000 </r>
       <r>   -2.3810    1.0000 </r>
       <r>   -1.9600    1.0000 </r>
       <r>   -1.6253    1.0000 </r>
       <r>   -1.5144    1.0000 </r>
       <r>   -1.4293    1.0000 </r>
       <r>   -1.1417    1.0000 </r>
       <r>   -1.1028    1.0000 </r>
       <r>   -1.0608    1.0000 </r>
       <r>   -0.9857    1.0000 </r>
       <r>   -0.8712    1.0000 </r>
       <r>   -0.7878    1.0000 </r>
       <r>   -0.7257    1.0000 </r>
       <r>   -0.6981    1.0000 </r>
       <r>   -0.6200    1.0000 </r>
       <r>   -0.5911    1.0000 </r>
       <r>   -0.4663    1.0000 </r>
       <r>   -0.3300    1.0000 </r>
       <r>   -0.3131    1.0000 </r>
       <r>   -0.2682    1.0000 </r>
       <r>   -0.2373    1.0000 </r>
       <r>   -0.0595    1.0000 </r>
       <r>   -0.0401    1.0000 </r>
       <r>    0.0295    1.0000 </r>
       <r>    0.1059    1.0000 </r>
       <r>    0.1754    1.0000 </r>
       <r>    0.2324    1.0000 </r>
       <r>    0.3216    1.0000 </r>
       <r>    0.4113    1.0000 </r>
       <r>    0.4765    1.0000 </r>
       <r>    0.5165    1.0000 </r>
       <r>    0.5590    1.0000 </r>
       <r>    0.7004    1.0000 </r>
       <r>    0.7373    1.0000 </r>
       <r>    0.8034    1.0000 </r>
       <r>    0.8533    1.0000 </r>
       <r>    0.8983    1.0000 </r>
       <r>    0.9008    1.0000 </r>
       <r>    1.0311    1.0000 </r>
       <r>    1.1042    1.0000 </r>
       <r>    1.2022    1.0000 </r>
       <r>    1.2610    1.0000 </r>
       <r>    1.2839    1.0000 </r>
       <r>    1.3089    1.0000 </r>
       <r>    1.4291    1.0000 </r>
       <r>    1.4380    1.0000 </r>
       <r>    1.5174    1.0000 </r>
       <r>    1.6236    1.0000 </r>
       <r>    1.6283    1.0000 </r>
       <r>    1.7115    1.0000 </r>
       <r>    1.7631    1.0000 </r>
       <r>    1.8220    1.0000 </r>
       <r>    1.8767    0.0818 </r>
       <r>    1.9533    0.0000 </r>
       <r>    2.0200    0.0000 </r>
       <r>    2.1793    0.0000 </r>
       <r>    2.2376    0.0000 </r>
       <r>    2.2816    0.0000 </r>
       <r>    2.3148    0.0000 </r>
       <r>    2.4251    0.0000 </r>
       <r>    2.4743    0.0000 </r>
       <r>    2.5125    0.0000 </r>
       <r>    2.5745    0.0000 </r>
       <r>    2.6969    0.0000 </r>
       <r>    2.7159    0.0000 </r>
       <r>    2.7511    0.0000 </r>
       <r>    2.8164    0.0000 </r>
       <r>    2.9038    0.0000 </r>
       <r>    2.9436    0.0000 </r>
       <r>    3.1136    0.0000 </r>
       <r>    3.1770    0.0000 </r>
      </set>
      <set comment="kpoint 2">
       <r>   -9.5058    1.0000 </r>
       <r>   -9.4201    1.0000 </r>
       <r>   -9.3162    1.0000 </r>
       <r>   -8.8018    1.0000 </r>
       <r>   -8.6693    1.0000 </r>
       <r>   -8.3168    1.0000 </r>
       <r>   -8.1495    1.0000 </r>
       <r>   -7.8859    1.0000 </r>
       <r>   -7.6910    1.0000 </r>
       <r>   -7.5763    1.0000 </r>
       <r>   -7.4232    1.0000 </r>
       <r>   -7.2261    1.0000 </r>
       <r>   -7.1558    1.0000 </r>
       <r>   -7.0219    1.0000 </r>
       <r>   -6.9348    1.0000 </r>
       <r>   -6.8329    1.0000 </r>
       <r>   -6.6719    1.0000 </r>
       <r>   -6.5765    1.0000 </r>
       <r>   -6.4656    1.0000 </r>
       <r>   -6.3426    1.0000 </r>
       <r>   -6.2740    1.0000 </r>
       <r>   -6.1342    1.0000 </r>
       <r>   -5.9370    1.0000 </r>
       <r>   -5.8642    1.0000 </r>
       <r>   -5.7046    1.0000 </r>
       <r>   -5.6305    1.0000 </r>
       <r>   -5.4648    1.0000 </r>
       <r>   -5.2718    1.0000 </r>
       <r>   -5.0830    1.0000 </r>
       <r>   -4.9853    1.0000 </r>
       <r>   -4.8711    1.0000 </r>
       <r>   -4.6996    1.0000 </r>
       <r>   -4.6343    1.0000 </r>
       <r>   -4.3547    1.0000 </r>
       <r>   -4.2589    1.0000 </r>
       <r>   -4.1709    1.0000 </r>
       <r>   -3.9582    1.0000 </r>
       <r>   -3.8896    1.0000 </r>
       <r>   -3.7431    1.0000 </r>
       <r>   -3.5886    1.0000 </r>
       <r>   -3.4308    1.0000 </r>
       <r>   -3.1066    1.0000 </r>
       <r>   -2.9759    1.0000 </r>
       <r>   -2.8234    1.0000 </r>
       <r>   -2.6455    1.0000 </r>
       <r>   -2.4560    1.0000 </r>
       <r>   -2.3096    1.0000 </r>
       <r>   -2.1001    1.0000 </r>
       <r>   -1.6119    1.0000 </r>
       <r>   -1.4913    1.0000 </r>
       <r>   -1.3066    1.0000 </r>
       <r>   -1.2230    1.0000 </r>
       <r>   -1.1079    1.0000 </r>
       <r>   -1.0703    1.0000 </r>
       <r>   -0.9440    1.0000 </r>
       <r>   -0.8510    1.0000 </r>
       <r>   -0.7733    1.0000 </r>
       <r>   -0.6998    1.0000 </r>
       <r>   -0.6565    1.0000 </r>
       <r>   -0.6123    1.0000 </r>
       <r>   -0.4851    1.0000 </r>
       <r>   -0.4612    1.0000 </r>
       <r>   -0.4172    1.0000 </r>
       <r>   -0.3311    1.0000 </r>
       <r>   -0.2537    1.0000 </r>
       <r>   -0.2135    1.0000 </r>
       <r>   -0.1402    1.0000 </r>
       <r>   -0.0720    1.0000 </r>
       <r>    0.0116    1.0000 </r>
       <r>    0.1193    1.0000 </r>
       <r>    0.1802    1.0000 </r>
       <r>    0.2347    1.0000 </r>
       <r>    0.2614    1.0000 </r>
       <r>    0.4016    1.0000 </r>
       <r>    0.4719    1.0000 </r>
       <r>    0.5039    1.0000 </r>
       <r>    0.5570    1.0000 </r>
       <r>    0.6234    1.0000 </r>
       <r>    0.6811    1.0000 </r>
       <r>    0.7491    1.0000 </r>
       <r>    0.8076    1.0000 </r>
       <r>    0.8614    1.0000 </r>
       <r>    0.9432    1.0000 </r>
       <r>    1.0222    1.0000 </r>
       <r>    1.1334    1.0000 </r>
       <r>    1.1733    1.0000 </r>
       <r>    1.2462    1.0000 </r>
       <r>    1.3149    1.0000 </r>
       <r>    1.3369    1.0000 </r>
       <r>    1.4216    1.0000 </r>
       <r>    1.4858    1.0000 </r>
       <r>    1.5276    1.0000 </r>
       <r>    1.5798    1.0000 </r>
       <r>    1.6800    1.0000 </r>
       <r>    1.7249    1.0000 </r>
       <r>    1.7880    1.0000 </r>
       <r>    1.8221    1.0000 </r>
       <r>    1.8803    0.0284 </r>
       <r>    1.9700    0.0000 </r>
       <r>    2.0257    0.0000 </r>
       <r>    2.1358    0.0000 </r>
       <r>    2.1653    0.0000 </r>
       <r>    2.2243    0.0000 </r>
       <r>    2.3275    0.0000 </r>
       <r>    2.4034    0.0000 </r>
       <r>    2.4734    0.0000 </r>
       <r>    2.5681    0.0000 </r>
       <r>    2.6333    0.0000 </r>
       <r>    2.6764    0.0000 </r>
       <r>    2.7523    0.0000 </r>
       <r>    2.8113    0.0000 </r>
       <r>    2.8762    0.0000 </r>
       <r>    2.9243    0.0000 </r>
       <r>    3.0738    0.0000 </r>
       <r>    3.1382    0.0000 </r>
       <r>    3.1961    0.0000 </r>
      </set>
      <set comment="kpoint 3">
       <r>   -9.5053    1.0000 </r>
       <r>   -9.4505    1.0000 </r>
       <r>   -9.2787    1.0000 </r>
       <r>   -8.7602    1.0000 </r>
       <r>   -8.7046    1.0000 </r>
       <r>   -8.3469    1.0000 </r>
       <r>   -8.1719    1.0000 </r>
       <r>   -7.8255    1.0000 </r>
       <r>   -7.7360    1.0000 </r>
       <r>   -7.5560    1.0000 </r>
       <r>   -7.3865    1.0000 </r>
       <r>   -7.2577    1.0000 </r>
       <r>   -7.1838    1.0000 </r>
       <r>   -7.0155    1.0000 </r>
       <r>   -6.8767    1.0000 </r>
       <r>   -6.8478    1.0000 </r>
       <r>   -6.6822    1.0000 </r>
       <r>   -6.6366    1.0000 </r>
       <r>   -6.4782    1.0000 </r>
       <r>   -6.2838    1.0000 </r>
       <r>   -6.1907    1.0000 </r>
       <r>   -6.1076    1.0000 </r>
       <r>   -6.0085    1.0000 </r>
       <r>   -5.8881    1.0000 </r>
       <r>   -5.8240    1.0000 </r>
       <r>   -5.5377    1.0000 </r>
       <r>   -5.3978    1.0000 </r>
       <r>   -5.2799    1.0000 </r>
       <r>   -5.1104    1.0000 </r>
       <r>   -5.0925    1.0000 </r>
       <r>   -4.9261    1.0000 </r>
       <r>   -4.6051    1.0000 </r>
       <r>   -4.5528    1.0000 </r>
       <r>   -4.3065    1.0000 </r>
       <r>   -4.2958    1.0000 </r>
       <r>   -4.0776    1.0000 </r>
       <r>   -3.9971    1.0000 </r>
       <r>   -3.9267    1.0000 </r>
       <r>   -3.7312    1.0000 </r>
       <r>   -3.6010    1.0000 </r>
       <r>   -3.3148    1.0000 </r>
       <r>   -3.2947    1.0000 </r>
       <r>   -3.1478    1.0000 </r>
       <r>   -2.8390    1.0000 </r>
       <r>   -2.6074    1.0000 </r>
       <r>   -2.3695    1.0000 </r>
       <r>   -2.2324    1.0000 </r>
       <r>   -1.9943    1.0000 </r>
       <r>   -1.6602    1.0000 </r>
       <r>   -1.5400    1.0000 </r>
       <r>   -1.2800    1.0000 </r>
       <r>   -1.2622    1.0000 </r>
       <r>   -1.1368    1.0000 </r>
       <r>   -1.0653    1.0000 </r>
       <r>   -0.9073    1.0000 </r>
       <r>   -0.8741    1.0000 </r>
       <r>   -0.7698    1.0000 </r>
       <r>   -0.7115    1.0000 </r>
       <r>   -0.6248    1.0000 </r>
       <r>   -0.6091    1.0000 </r>
       <r>   -0.5711    1.0000 </r>
       <r>   -0.4086    1.0000 </r>
       <r>   -0.3800    1.0000 </r>
       <r>   -0.2943    1.0000 </r>
       <r>   -0.2482    1.0000 </r>
       <r>   -0.2134    1.0000 </r>
       <r>   -0.1696    1.0000 </r>
       <r>    0.0214    1.0000 </r>
       <r>    0.0607    1.0000 </r>
       <r>    0.1286    1.0000 </r>
       <r>    0.1612    1.0000 </r>
       <r>    0.1771    1.0000 </r>
       <r>    0.2769    1.0000 </r>
       <r>    0.3034    1.0000 </r>
       <r>    0.4091    1.0000 </r>
       <r>    0.4938    1.0000 </r>
       <r>    0.5221    1.0000 </r>
       <r>    0.5729    1.0000 </r>
       <r>    0.6837    1.0000 </r>
       <r>    0.7991    1.0000 </r>
       <r>    0.8083    1.0000 </r>
       <r>    0.8885    1.0000 </r>
       <r>    0.9781    1.0000 </r>
       <r>    1.0165    1.0000 </r>
       <r>    1.0403    1.0000 </r>
       <r>    1.1290    1.0000 </r>
       <r>    1.2647    1.0000 </r>
       <r>    1.2912    1.0000 </r>
       <r>    1.3168    1.0000 </r>
       <r>    1.3562    1.0000 </r>
       <r>    1.4430    1.0000 </r>
       <r>    1.4857    1.0000 </r>
       <r>    1.6319    1.0000 </r>
       <r>    1.6897    1.0000 </r>
       <r>    1.8238    1.0000 </r>
       <r>    1.8538    0.9682 </r>
       <r>    1.8867    0.0025 </r>
       <r>    1.9591    0.0000 </r>
       <r>    2.0086    0.0000 </r>
       <r>    2.0330    0.0000 </r>
       <r>    2.1457    0.0000 </r>
       <r>    2.2242    0.0000 </r>
       <r>    2.2815    0.0000 </r>
       <r>    2.3420    0.0000 </r>
       <r>    2.4063    0.0000 </r>
       <r>    2.4238    0.0000 </r>
       <r>    2.5982    0.0000 </r>
       <r>    2.6106    0.0000 </r>
       <r>    2.6812    0.0000 </r>
       <r>    2.7034    0.0000 </r>
       <r>    2.8241    0.0000 </r>
       <r>    2.9271    0.0000 </r>
       <r>    2.9765    0.0000 </r>
       <r>    3.0324    0.0000 </r>
       <r>    3.0618    0.0000 </r>
       <r>    3.1524    0.0000 </r>
      </set>
      <set comment="kpoint 4">
       <r>   -9.5131    1.0000 </r>
       <r>   -9.4199    1.0000 </r>
       <r>   -9.3059    1.0000 </r>
       <r>   -8.8032    1.0000 </r>
       <r>   -8.6551    1.0000 </r>
       <r>   -8.3292    1.0000 </r>
       <r>   -8.1756    1.0000 </r>
       <r>   -7.8567    1.0000 </r>
       <r>   -7.6978    1.0000 </r>
       <r>   -7.6108    1.0000 </r>
       <r>   -7.4096    1.0000 </r>
       <r>   -7.3034    1.0000 </r>
       <r>   -7.1140    1.0000 </r>
       <r>   -6.9865    1.0000 </r>
       <r>   -6.8280    1.0000 </r>
       <r>   -6.7699    1.0000 </r>
       <r>   -6.6960    1.0000 </r>
       <r>   -6.5845    1.0000 </r>
       <r>   -6.4834    1.0000 </r>
       <r>   -6.3853    1.0000 </r>
       <r>   -6.3445    1.0000 </r>
       <r>   -6.1353    1.0000 </r>
       <r>   -6.0529    1.0000 </r>
       <r>   -5.8418    1.0000 </r>
       <r>   -5.6657    1.0000 </r>
       <r>   -5.6001    1.0000 </r>
       <r>   -5.3652    1.0000 </r>
       <r>   -5.2528    1.0000 </r>
       <r>   -5.0371    1.0000 </r>
       <r>   -4.9889    1.0000 </r>
       <r>   -4.9207    1.0000 </r>
       <r>   -4.7475    1.0000 </r>
       <r>   -4.6865    1.0000 </r>
       <r>   -4.4330    1.0000 </r>
       <r>   -4.3265    1.0000 </r>
       <r>   -4.1858    1.0000 </r>
       <r>   -3.9664    1.0000 </r>
       <r>   -3.7567    1.0000 </r>
       <r>   -3.6609    1.0000 </r>
       <r>   -3.4925    1.0000 </r>
       <r>   -3.3388    1.0000 </r>
       <r>   -3.1936    1.0000 </r>
       <r>   -3.0375    1.0000 </r>
       <r>   -2.7915    1.0000 </r>
       <r>   -2.7009    1.0000 </r>
       <r>   -2.4336    1.0000 </r>
       <r>   -2.3764    1.0000 </r>
       <r>   -2.1150    1.0000 </r>
       <r>   -1.6053    1.0000 </r>
       <r>   -1.4841    1.0000 </r>
       <r>   -1.3941    1.0000 </r>
       <r>   -1.1488    1.0000 </r>
       <r>   -1.1363    1.0000 </r>
       <r>   -1.0259    1.0000 </r>
       <r>   -0.9625    1.0000 </r>
       <r>   -0.8848    1.0000 </r>
       <r>   -0.7782    1.0000 </r>
       <r>   -0.7162    1.0000 </r>
       <r>   -0.6596    1.0000 </r>
       <r>   -0.6015    1.0000 </r>
       <r>   -0.5298    1.0000 </r>
       <r>   -0.4829    1.0000 </r>
       <r>   -0.4406    1.0000 </r>
       <r>   -0.3154    1.0000 </r>
       <r>   -0.1981    1.0000 </r>
       <r>   -0.1522    1.0000 </r>
       <r>   -0.0932    1.0000 </r>
       <r>   -0.0303    1.0000 </r>
       <r>    0.0216    1.0000 </r>
       <r>    0.0503    1.0000 </r>
       <r>    0.1679    1.0000 </r>
       <r>    0.2208    1.0000 </r>
       <r>    0.3262    1.0000 </r>
       <r>    0.3586    1.0000 </r>
       <r>    0.4096    1.0000 </r>
       <r>    0.5413    1.0000 </r>
       <r>    0.6184    1.0000 </r>
       <r>    0.6632    1.0000 </r>
       <r>    0.7097    1.0000 </r>
       <r>    0.7755    1.0000 </r>
       <r>    0.8463    1.0000 </r>
       <r>    0.8608    1.0000 </r>
       <r>    0.9669    1.0000 </r>
       <r>    0.9987    1.0000 </r>
       <r>    1.1364    1.0000 </r>
       <r>    1.1798    1.0000 </r>
       <r>    1.2244    1.0000 </r>
       <r>    1.3004    1.0000 </r>
       <r>    1.3475    1.0000 </r>
       <r>    1.4221    1.0000 </r>
       <r>    1.4798    1.0000 </r>
       <r>    1.5246    1.0000 </r>
       <r>    1.5870    1.0000 </r>
       <r>    1.6442    1.0000 </r>
       <r>    1.6866    1.0000 </r>
       <r>    1.7627    1.0000 </r>
       <r>    1.8144    1.0000 </r>
       <r>    1.8812    0.0215 </r>
       <r>    1.9857    0.0000 </r>
       <r>    2.0158    0.0000 </r>
       <r>    2.1306    0.0000 </r>
       <r>    2.1917    0.0000 </r>
       <r>    2.2582    0.0000 </r>
       <r>    2.3002    0.0000 </r>
       <r>    2.3748    0.0000 </r>
       <r>    2.4059    0.0000 </r>
       <r>    2.5408    0.0000 </r>
       <r>    2.6494    0.0000 </r>
       <r>    2.6915    0.0000 </r>
       <r>    2.7604    0.0000 </r>
       <r>    2.8260    0.0000 </r>
       <r>    2.8577    0.0000 </r>
       <r>    2.9373    0.0000 </r>
       <r>    2.9604    0.0000 </r>
       <r>    3.0944    0.0000 </r>
       <r>    3.2290    0.0000 </r>
      </set>
      <set comment="kpoint 5">
       <r>   -9.5047    1.0000 </r>
       <r>   -9.3912    1.0000 </r>
       <r>   -9.2950    1.0000 </r>
       <r>   -8.7528    1.0000 </r>
       <r>   -8.6537    1.0000 </r>
       <r>   -8.3697    1.0000 </r>
       <r>   -8.1814    1.0000 </r>
       <r>   -7.8451    1.0000 </r>
       <r>   -7.8168    1.0000 </r>
       <r>   -7.6188    1.0000 </r>
       <r>   -7.5179    1.0000 </r>
       <r>   -7.3663    1.0000 </r>
       <r>   -7.0961    1.0000 </r>
       <r>   -7.0072    1.0000 </r>
       <r>   -6.8637    1.0000 </r>
       <r>   -6.8386    1.0000 </r>
       <r>   -6.7291    1.0000 </r>
       <r>   -6.6350    1.0000 </r>
       <r>   -6.5122    1.0000 </r>
       <r>   -6.3306    1.0000 </r>
       <r>   -6.2640    1.0000 </r>
       <r>   -6.0236    1.0000 </r>
       <r>   -5.8507    1.0000 </r>
       <r>   -5.8068    1.0000 </r>
       <r>   -5.6323    1.0000 </r>
       <r>   -5.5248    1.0000 </r>
       <r>   -5.3635    1.0000 </r>
       <r>   -5.2757    1.0000 </r>
       <r>   -5.1004    1.0000 </r>
       <r>   -4.9832    1.0000 </r>
       <r>   -4.9017    1.0000 </r>
       <r>   -4.6330    1.0000 </r>
       <r>   -4.4999    1.0000 </r>
       <r>   -4.4591    1.0000 </r>
       <r>   -4.2951    1.0000 </r>
       <r>   -4.1697    1.0000 </r>
       <r>   -4.0351    1.0000 </r>
       <r>   -3.8241    1.0000 </r>
       <r>   -3.7196    1.0000 </r>
       <r>   -3.4895    1.0000 </r>
       <r>   -3.4335    1.0000 </r>
       <r>   -3.1150    1.0000 </r>
       <r>   -3.0275    1.0000 </r>
       <r>   -2.8280    1.0000 </r>
       <r>   -2.6995    1.0000 </r>
       <r>   -2.5420    1.0000 </r>
       <r>   -2.2434    1.0000 </r>
       <r>   -1.6962    1.0000 </r>
       <r>   -1.5063    1.0000 </r>
       <r>   -1.4160    1.0000 </r>
       <r>   -1.4022    1.0000 </r>
       <r>   -1.2921    1.0000 </r>
       <r>   -1.1982    1.0000 </r>
       <r>   -1.0889    1.0000 </r>
       <r>   -1.0409    1.0000 </r>
       <r>   -0.9231    1.0000 </r>
       <r>   -0.8622    1.0000 </r>
       <r>   -0.7294    1.0000 </r>
       <r>   -0.6948    1.0000 </r>
       <r>   -0.6174    1.0000 </r>
       <r>   -0.5476    1.0000 </r>
       <r>   -0.4579    1.0000 </r>
       <r>   -0.4261    1.0000 </r>
       <r>   -0.3458    1.0000 </r>
       <r>   -0.2977    1.0000 </r>
       <r>   -0.2347    1.0000 </r>
       <r>   -0.1627    1.0000 </r>
       <r>   -0.0881    1.0000 </r>
       <r>   -0.0521    1.0000 </r>
       <r>    0.0694    1.0000 </r>
       <r>    0.0859    1.0000 </r>
       <r>    0.1742    1.0000 </r>
       <r>    0.2383    1.0000 </r>
       <r>    0.3035    1.0000 </r>
       <r>    0.3892    1.0000 </r>
       <r>    0.4588    1.0000 </r>
       <r>    0.4857    1.0000 </r>
       <r>    0.5583    1.0000 </r>
       <r>    0.6430    1.0000 </r>
       <r>    0.7177    1.0000 </r>
       <r>    0.8025    1.0000 </r>
       <r>    0.8177    1.0000 </r>
       <r>    0.8621    1.0000 </r>
       <r>    0.9261    1.0000 </r>
       <r>    0.9610    1.0000 </r>
       <r>    1.0652    1.0000 </r>
       <r>    1.0905    1.0000 </r>
       <r>    1.1785    1.0000 </r>
       <r>    1.2881    1.0000 </r>
       <r>    1.3443    1.0000 </r>
       <r>    1.4106    1.0000 </r>
       <r>    1.4721    1.0000 </r>
       <r>    1.5638    1.0000 </r>
       <r>    1.6936    1.0000 </r>
       <r>    1.7140    1.0000 </r>
       <r>    1.8076    1.0000 </r>
       <r>    1.9026    0.0000 </r>
       <r>    1.9287    0.0000 </r>
       <r>    1.9878    0.0000 </r>
       <r>    2.1797    0.0000 </r>
       <r>    2.2095    0.0000 </r>
       <r>    2.2369    0.0000 </r>
       <r>    2.2889    0.0000 </r>
       <r>    2.3134    0.0000 </r>
       <r>    2.4593    0.0000 </r>
       <r>    2.5428    0.0000 </r>
       <r>    2.5885    0.0000 </r>
       <r>    2.6775    0.0000 </r>
       <r>    2.7279    0.0000 </r>
       <r>    2.8149    0.0000 </r>
       <r>    2.8761    0.0000 </r>
       <r>    2.9647    0.0000 </r>
       <r>    3.0595    0.0000 </r>
       <r>    3.1157    0.0000 </r>
       <r>    3.1549    0.0000 </r>
       <r>    3.2342    0.0000 </r>
      </set>
      <set comment="kpoint 6">
       <r>   -9.4830    1.0000 </r>
       <r>   -9.3989    1.0000 </r>
       <r>   -9.3125    1.0000 </r>
       <r>   -8.7777    1.0000 </r>
       <r>   -8.6614    1.0000 </r>
       <r>   -8.3262    1.0000 </r>
       <r>   -8.1667    1.0000 </r>
       <r>   -7.9092    1.0000 </r>
       <r>   -7.7187    1.0000 </r>
       <r>   -7.6261    1.0000 </r>
       <r>   -7.4909    1.0000 </r>
       <r>   -7.3733    1.0000 </r>
       <r>   -7.2113    1.0000 </r>
       <r>   -7.0554    1.0000 </r>
       <r>   -6.9419    1.0000 </r>
       <r>   -6.8230    1.0000 </r>
       <r>   -6.6556    1.0000 </r>
       <r>   -6.5735    1.0000 </r>
       <r>   -6.3937    1.0000 </r>
       <r>   -6.3306    1.0000 </r>
       <r>   -6.1482    1.0000 </r>
       <r>   -6.0278    1.0000 </r>
       <r>   -5.9423    1.0000 </r>
       <r>   -5.8483    1.0000 </r>
       <r>   -5.7127    1.0000 </r>
       <r>   -5.6493    1.0000 </r>
       <r>   -5.4451    1.0000 </r>
       <r>   -5.2991    1.0000 </r>
       <r>   -5.1495    1.0000 </r>
       <r>   -4.9155    1.0000 </r>
       <r>   -4.7428    1.0000 </r>
       <r>   -4.5328    1.0000 </r>
       <r>   -4.4717    1.0000 </r>
       <r>   -4.4008    1.0000 </r>
       <r>   -4.2874    1.0000 </r>
       <r>   -4.1867    1.0000 </r>
       <r>   -3.9125    1.0000 </r>
       <r>   -3.8488    1.0000 </r>
       <r>   -3.7001    1.0000 </r>
       <r>   -3.6850    1.0000 </r>
       <r>   -3.4304    1.0000 </r>
       <r>   -3.2558    1.0000 </r>
       <r>   -3.0831    1.0000 </r>
       <r>   -2.8090    1.0000 </r>
       <r>   -2.5643    1.0000 </r>
       <r>   -2.4776    1.0000 </r>
       <r>   -2.2185    1.0000 </r>
       <r>   -1.8572    1.0000 </r>
       <r>   -1.5452    1.0000 </r>
       <r>   -1.4619    1.0000 </r>
       <r>   -1.3494    1.0000 </r>
       <r>   -1.2864    1.0000 </r>
       <r>   -1.1513    1.0000 </r>
       <r>   -1.0806    1.0000 </r>
       <r>   -0.9912    1.0000 </r>
       <r>   -0.8894    1.0000 </r>
       <r>   -0.8136    1.0000 </r>
       <r>   -0.7707    1.0000 </r>
       <r>   -0.6970    1.0000 </r>
       <r>   -0.6617    1.0000 </r>
       <r>   -0.6032    1.0000 </r>
       <r>   -0.4738    1.0000 </r>
       <r>   -0.4381    1.0000 </r>
       <r>   -0.3624    1.0000 </r>
       <r>   -0.2990    1.0000 </r>
       <r>   -0.2360    1.0000 </r>
       <r>   -0.1877    1.0000 </r>
       <r>   -0.1210    1.0000 </r>
       <r>   -0.0441    1.0000 </r>
       <r>    0.0218    1.0000 </r>
       <r>    0.1355    1.0000 </r>
       <r>    0.1597    1.0000 </r>
       <r>    0.2581    1.0000 </r>
       <r>    0.3605    1.0000 </r>
       <r>    0.3732    1.0000 </r>
       <r>    0.4479    1.0000 </r>
       <r>    0.5018    1.0000 </r>
       <r>    0.6149    1.0000 </r>
       <r>    0.6749    1.0000 </r>
       <r>    0.7146    1.0000 </r>
       <r>    0.7964    1.0000 </r>
       <r>    0.8438    1.0000 </r>
       <r>    0.8821    1.0000 </r>
       <r>    0.9508    1.0000 </r>
       <r>    1.0180    1.0000 </r>
       <r>    1.0753    1.0000 </r>
       <r>    1.1541    1.0000 </r>
       <r>    1.2336    1.0000 </r>
       <r>    1.3332    1.0000 </r>
       <r>    1.3535    1.0000 </r>
       <r>    1.4248    1.0000 </r>
       <r>    1.4945    1.0000 </r>
       <r>    1.5510    1.0000 </r>
       <r>    1.5936    1.0000 </r>
       <r>    1.6694    1.0000 </r>
       <r>    1.7638    1.0000 </r>
       <r>    1.8655    0.5756 </r>
       <r>    1.9039    0.0000 </r>
       <r>    2.0340    0.0000 </r>
       <r>    2.0858    0.0000 </r>
       <r>    2.1740    0.0000 </r>
       <r>    2.2370    0.0000 </r>
       <r>    2.2895    0.0000 </r>
       <r>    2.4054    0.0000 </r>
       <r>    2.4963    0.0000 </r>
       <r>    2.5331    0.0000 </r>
       <r>    2.6071    0.0000 </r>
       <r>    2.7078    0.0000 </r>
       <r>    2.7431    0.0000 </r>
       <r>    2.7889    0.0000 </r>
       <r>    2.8242    0.0000 </r>
       <r>    2.9037    0.0000 </r>
       <r>    2.9985    0.0000 </r>
       <r>    3.0147    0.0000 </r>
       <r>    3.1189    0.0000 </r>
       <r>    3.2484    0.0000 </r>
      </set>
      <set comment="kpoint 7">
       <r>   -9.4823    1.0000 </r>
       <r>   -9.4078    1.0000 </r>
       <r>   -9.3018    1.0000 </r>
       <r>   -8.7763    1.0000 </r>
       <r>   -8.6633    1.0000 </r>
       <r>   -8.3364    1.0000 </r>
       <r>   -8.1732    1.0000 </r>
       <r>   -7.8768    1.0000 </r>
       <r>   -7.7519    1.0000 </r>
       <r>   -7.6076    1.0000 </r>
       <r>   -7.4708    1.0000 </r>
       <r>   -7.3666    1.0000 </r>
       <r>   -7.2409    1.0000 </r>
       <r>   -7.1110    1.0000 </r>
       <r>   -6.9510    1.0000 </r>
       <r>   -6.7581    1.0000 </r>
       <r>   -6.6192    1.0000 </r>
       <r>   -6.5370    1.0000 </r>
       <r>   -6.4417    1.0000 </r>
       <r>   -6.2375    1.0000 </r>
       <r>   -6.1482    1.0000 </r>
       <r>   -6.0674    1.0000 </r>
       <r>   -6.0172    1.0000 </r>
       <r>   -5.9282    1.0000 </r>
       <r>   -5.7566    1.0000 </r>
       <r>   -5.6678    1.0000 </r>
       <r>   -5.4234    1.0000 </r>
       <r>   -5.3137    1.0000 </r>
       <r>   -4.9569    1.0000 </r>
       <r>   -4.8296    1.0000 </r>
       <r>   -4.7096    1.0000 </r>
       <r>   -4.6080    1.0000 </r>
       <r>   -4.4659    1.0000 </r>
       <r>   -4.3628    1.0000 </r>
       <r>   -4.2553    1.0000 </r>
       <r>   -4.1961    1.0000 </r>
       <r>   -4.1387    1.0000 </r>
       <r>   -3.9152    1.0000 </r>
       <r>   -3.8289    1.0000 </r>
       <r>   -3.5897    1.0000 </r>
       <r>   -3.3854    1.0000 </r>
       <r>   -3.1797    1.0000 </r>
       <r>   -3.0395    1.0000 </r>
       <r>   -2.8275    1.0000 </r>
       <r>   -2.5564    1.0000 </r>
       <r>   -2.3687    1.0000 </r>
       <r>   -2.2568    1.0000 </r>
       <r>   -1.9362    1.0000 </r>
       <r>   -1.5697    1.0000 </r>
       <r>   -1.4723    1.0000 </r>
       <r>   -1.3677    1.0000 </r>
       <r>   -1.2423    1.0000 </r>
       <r>   -1.1558    1.0000 </r>
       <r>   -1.0550    1.0000 </r>
       <r>   -1.0249    1.0000 </r>
       <r>   -0.9133    1.0000 </r>
       <r>   -0.8249    1.0000 </r>
       <r>   -0.7443    1.0000 </r>
       <r>   -0.6539    1.0000 </r>
       <r>   -0.6089    1.0000 </r>
       <r>   -0.5102    1.0000 </r>
       <r>   -0.4524    1.0000 </r>
       <r>   -0.4215    1.0000 </r>
       <r>   -0.3668    1.0000 </r>
       <r>   -0.2889    1.0000 </r>
       <r>   -0.2269    1.0000 </r>
       <r>   -0.1981    1.0000 </r>
       <r>   -0.0982    1.0000 </r>
       <r>   -0.0575    1.0000 </r>
       <r>    0.0508    1.0000 </r>
       <r>    0.0891    1.0000 </r>
       <r>    0.1226    1.0000 </r>
       <r>    0.2375    1.0000 </r>
       <r>    0.2888    1.0000 </r>
       <r>    0.3263    1.0000 </r>
       <r>    0.3981    1.0000 </r>
       <r>    0.4666    1.0000 </r>
       <r>    0.5582    1.0000 </r>
       <r>    0.6127    1.0000 </r>
       <r>    0.6439    1.0000 </r>
       <r>    0.7525    1.0000 </r>
       <r>    0.8075    1.0000 </r>
       <r>    0.9007    1.0000 </r>
       <r>    0.9535    1.0000 </r>
       <r>    1.0281    1.0000 </r>
       <r>    1.0955    1.0000 </r>
       <r>    1.1863    1.0000 </r>
       <r>    1.2863    1.0000 </r>
       <r>    1.3315    1.0000 </r>
       <r>    1.3979    1.0000 </r>
       <r>    1.4289    1.0000 </r>
       <r>    1.4915    1.0000 </r>
       <r>    1.5816    1.0000 </r>
       <r>    1.6754    1.0000 </r>
       <r>    1.7280    1.0000 </r>
       <r>    1.7763    1.0000 </r>
       <r>    1.8743    0.1480 </r>
       <r>    1.9001    0.0000 </r>
       <r>    2.0348    0.0000 </r>
       <r>    2.0723    0.0000 </r>
       <r>    2.1709    0.0000 </r>
       <r>    2.2798    0.0000 </r>
       <r>    2.3148    0.0000 </r>
       <r>    2.3421    0.0000 </r>
       <r>    2.4701    0.0000 </r>
       <r>    2.5302    0.0000 </r>
       <r>    2.6047    0.0000 </r>
       <r>    2.6517    0.0000 </r>
       <r>    2.7527    0.0000 </r>
       <r>    2.8055    0.0000 </r>
       <r>    2.9150    0.0000 </r>
       <r>    2.9666    0.0000 </r>
       <r>    3.0232    0.0000 </r>
       <r>    3.0840    0.0000 </r>
       <r>    3.1449    0.0000 </r>
       <r>    3.2056    0.0000 </r>
      </set>
      <set comment="kpoint 8">
       <r>   -9.4843    1.0000 </r>
       <r>   -9.4166    1.0000 </r>
       <r>   -9.2912    1.0000 </r>
       <r>   -8.7530    1.0000 </r>
       <r>   -8.6852    1.0000 </r>
       <r>   -8.3253    1.0000 </r>
       <r>   -8.1836    1.0000 </r>
       <r>   -7.8553    1.0000 </r>
       <r>   -7.7613    1.0000 </r>
       <r>   -7.6460    1.0000 </r>
       <r>   -7.4585    1.0000 </r>
       <r>   -7.3810    1.0000 </r>
       <r>   -7.1897    1.0000 </r>
       <r>   -7.0845    1.0000 </r>
       <r>   -6.9491    1.0000 </r>
       <r>   -6.8300    1.0000 </r>
       <r>   -6.7046    1.0000 </r>
       <r>   -6.5014    1.0000 </r>
       <r>   -6.3785    1.0000 </r>
       <r>   -6.3460    1.0000 </r>
       <r>   -6.1879    1.0000 </r>
       <r>   -6.0817    1.0000 </r>
       <r>   -5.9492    1.0000 </r>
       <r>   -5.8220    1.0000 </r>
       <r>   -5.7185    1.0000 </r>
       <r>   -5.5519    1.0000 </r>
       <r>   -5.3938    1.0000 </r>
       <r>   -5.2033    1.0000 </r>
       <r>   -5.0801    1.0000 </r>
       <r>   -4.9219    1.0000 </r>
       <r>   -4.8601    1.0000 </r>
       <r>   -4.7441    1.0000 </r>
       <r>   -4.6105    1.0000 </r>
       <r>   -4.3539    1.0000 </r>
       <r>   -4.2581    1.0000 </r>
       <r>   -4.0560    1.0000 </r>
       <r>   -4.0088    1.0000 </r>
       <r>   -3.7807    1.0000 </r>
       <r>   -3.6691    1.0000 </r>
       <r>   -3.5129    1.0000 </r>
       <r>   -3.3933    1.0000 </r>
       <r>   -3.2995    1.0000 </r>
       <r>   -3.1557    1.0000 </r>
       <r>   -2.8631    1.0000 </r>
       <r>   -2.7568    1.0000 </r>
       <r>   -2.5068    1.0000 </r>
       <r>   -2.0347    1.0000 </r>
       <r>   -1.7743    1.0000 </r>
       <r>   -1.5761    1.0000 </r>
       <r>   -1.4068    1.0000 </r>
       <r>   -1.3816    1.0000 </r>
       <r>   -1.2814    1.0000 </r>
       <r>   -1.1586    1.0000 </r>
       <r>   -1.0833    1.0000 </r>
       <r>   -0.9836    1.0000 </r>
       <r>   -0.8963    1.0000 </r>
       <r>   -0.8385    1.0000 </r>
       <r>   -0.8004    1.0000 </r>
       <r>   -0.7144    1.0000 </r>
       <r>   -0.6287    1.0000 </r>
       <r>   -0.5488    1.0000 </r>
       <r>   -0.4745    1.0000 </r>
       <r>   -0.3888    1.0000 </r>
       <r>   -0.3572    1.0000 </r>
       <r>   -0.3141    1.0000 </r>
       <r>   -0.2275    1.0000 </r>
       <r>   -0.1789    1.0000 </r>
       <r>   -0.0915    1.0000 </r>
       <r>   -0.0558    1.0000 </r>
       <r>    0.0097    1.0000 </r>
       <r>    0.1218    1.0000 </r>
       <r>    0.1647    1.0000 </r>
       <r>    0.2325    1.0000 </r>
       <r>    0.2810    1.0000 </r>
       <r>    0.3331    1.0000 </r>
       <r>    0.4297    1.0000 </r>
       <r>    0.4887    1.0000 </r>
       <r>    0.5636    1.0000 </r>
       <r>    0.6035    1.0000 </r>
       <r>    0.6764    1.0000 </r>
       <r>    0.7371    1.0000 </r>
       <r>    0.7536    1.0000 </r>
       <r>    0.8748    1.0000 </r>
       <r>    0.9644    1.0000 </r>
       <r>    1.0351    1.0000 </r>
       <r>    1.1072    1.0000 </r>
       <r>    1.1751    1.0000 </r>
       <r>    1.2861    1.0000 </r>
       <r>    1.3439    1.0000 </r>
       <r>    1.3857    1.0000 </r>
       <r>    1.4698    1.0000 </r>
       <r>    1.5139    1.0000 </r>
       <r>    1.6179    1.0000 </r>
       <r>    1.7027    1.0000 </r>
       <r>    1.7623    1.0000 </r>
       <r>    1.8381    1.0000 </r>
       <r>    1.8728    0.1994 </r>
       <r>    1.9363    0.0000 </r>
       <r>    1.9914    0.0000 </r>
       <r>    2.1486    0.0000 </r>
       <r>    2.1646    0.0000 </r>
       <r>    2.2553    0.0000 </r>
       <r>    2.3333    0.0000 </r>
       <r>    2.3990    0.0000 </r>
       <r>    2.4674    0.0000 </r>
       <r>    2.5433    0.0000 </r>
       <r>    2.5684    0.0000 </r>
       <r>    2.6154    0.0000 </r>
       <r>    2.6748    0.0000 </r>
       <r>    2.7795    0.0000 </r>
       <r>    2.8247    0.0000 </r>
       <r>    2.9011    0.0000 </r>
       <r>    3.0190    0.0000 </r>
       <r>    3.0757    0.0000 </r>
       <r>    3.1040    0.0000 </r>
       <r>    3.2329    0.0000 </r>
      </set>
      <set comment="kpoint 9">
       <r>   -9.4883    1.0000 </r>
       <r>   -9.3968    1.0000 </r>
       <r>   -9.3083    1.0000 </r>
       <r>   -8.7772    1.0000 </r>
       <r>   -8.6508    1.0000 </r>
       <r>   -8.3368    1.0000 </r>
       <r>   -8.1820    1.0000 </r>
       <r>   -7.8656    1.0000 </r>
       <r>   -7.7486    1.0000 </r>
       <r>   -7.6831    1.0000 </r>
       <r>   -7.4907    1.0000 </r>
       <r>   -7.3343    1.0000 </r>
       <r>   -7.1760    1.0000 </r>
       <r>   -7.0431    1.0000 </r>
       <r>   -6.8857    1.0000 </r>
       <r>   -6.7916    1.0000 </r>
       <r>   -6.7136    1.0000 </r>
       <r>   -6.5338    1.0000 </r>
       <r>   -6.5000    1.0000 </r>
       <r>   -6.3802    1.0000 </r>
       <r>   -6.2776    1.0000 </r>
       <r>   -5.9905    1.0000 </r>
       <r>   -5.9206    1.0000 </r>
       <r>   -5.7657    1.0000 </r>
       <r>   -5.6899    1.0000 </r>
       <r>   -5.5812    1.0000 </r>
       <r>   -5.4800    1.0000 </r>
       <r>   -5.2075    1.0000 </r>
       <r>   -5.0299    1.0000 </r>
       <r>   -4.8936    1.0000 </r>
       <r>   -4.8426    1.0000 </r>
       <r>   -4.6543    1.0000 </r>
       <r>   -4.5024    1.0000 </r>
       <r>   -4.4649    1.0000 </r>
       <r>   -4.2615    1.0000 </r>
       <r>   -4.1727    1.0000 </r>
       <r>   -4.0609    1.0000 </r>
       <r>   -3.8785    1.0000 </r>
       <r>   -3.6915    1.0000 </r>
       <r>   -3.5900    1.0000 </r>
       <r>   -3.4210    1.0000 </r>
       <r>   -3.2125    1.0000 </r>
       <r>   -3.0117    1.0000 </r>
       <r>   -2.7446    1.0000 </r>
       <r>   -2.6990    1.0000 </r>
       <r>   -2.4045    1.0000 </r>
       <r>   -2.1487    1.0000 </r>
       <r>   -1.9157    1.0000 </r>
       <r>   -1.5359    1.0000 </r>
       <r>   -1.4720    1.0000 </r>
       <r>   -1.3430    1.0000 </r>
       <r>   -1.2840    1.0000 </r>
       <r>   -1.1810    1.0000 </r>
       <r>   -1.0520    1.0000 </r>
       <r>   -0.9868    1.0000 </r>
       <r>   -0.9177    1.0000 </r>
       <r>   -0.8170    1.0000 </r>
       <r>   -0.7626    1.0000 </r>
       <r>   -0.6749    1.0000 </r>
       <r>   -0.6255    1.0000 </r>
       <r>   -0.5627    1.0000 </r>
       <r>   -0.5100    1.0000 </r>
       <r>   -0.3820    1.0000 </r>
       <r>   -0.3386    1.0000 </r>
       <r>   -0.2889    1.0000 </r>
       <r>   -0.2464    1.0000 </r>
       <r>   -0.1778    1.0000 </r>
       <r>   -0.1158    1.0000 </r>
       <r>   -0.0378    1.0000 </r>
       <r>   -0.0106    1.0000 </r>
       <r>    0.0708    1.0000 </r>
       <r>    0.1565    1.0000 </r>
       <r>    0.2273    1.0000 </r>
       <r>    0.3138    1.0000 </r>
       <r>    0.3398    1.0000 </r>
       <r>    0.4346    1.0000 </r>
       <r>    0.4998    1.0000 </r>
       <r>    0.5791    1.0000 </r>
       <r>    0.6309    1.0000 </r>
       <r>    0.7104    1.0000 </r>
       <r>    0.7519    1.0000 </r>
       <r>    0.8159    1.0000 </r>
       <r>    0.8430    1.0000 </r>
       <r>    0.9444    1.0000 </r>
       <r>    1.0177    1.0000 </r>
       <r>    1.0660    1.0000 </r>
       <r>    1.1471    1.0000 </r>
       <r>    1.2521    1.0000 </r>
       <r>    1.3253    1.0000 </r>
       <r>    1.4181    1.0000 </r>
       <r>    1.4663    1.0000 </r>
       <r>    1.5357    1.0000 </r>
       <r>    1.5852    1.0000 </r>
       <r>    1.6106    1.0000 </r>
       <r>    1.7119    1.0000 </r>
       <r>    1.8155    1.0000 </r>
       <r>    1.8339    1.0000 </r>
       <r>    1.9309    0.0000 </r>
       <r>    1.9837    0.0000 </r>
       <r>    2.1097    0.0000 </r>
       <r>    2.1798    0.0000 </r>
       <r>    2.2136    0.0000 </r>
[...]
       <r>     2.5680    34.6829   212.6282 </r>
       <r>     2.6151    34.5992   214.2555 </r>
       <r>     2.6621    25.3129   215.4460 </r>
       <r>     2.7091    30.8422   216.8966 </r>
       <r>     2.7562    32.7400   218.4364 </r>
       <r>     2.8032    19.4261   219.3501 </r>
       <r>     2.8502    40.4844   221.2542 </r>
       <r>     2.8973    25.5880   222.4577 </r>
       <r>     2.9443    26.2590   223.6927 </r>
       <r>     2.9913    30.5723   225.1306 </r>
       <r>     3.0384    25.0348   226.3081 </r>
       <r>     3.0854    22.7699   227.3790 </r>
       <r>     3.1324    33.6108   228.9598 </r>
       <r>     3.1794    25.9546   230.1805 </r>
       <r>     3.2265    17.4721   231.0023 </r>
       <r>     3.2735    16.8830   231.7963 </r>
       <r>     3.3205     4.3307   232.0000 </r>
       <r>     3.3676     0.0000   232.0000 </r>
       <r>     3.4146     0.0000   232.0000 </r>
       <r>     3.4616     0.0000   232.0000 </r>
       <r>     3.5087     0.0000   232.0000 </r>
       <r>     3.5557     0.0000   232.0000 </r>
       <r>     3.6027     0.0000   232.0000 </r>
       <r>     3.6498     0.0000   232.0000 </r>
       <r>     3.6968     0.0000   232.0000 </r>
       <r>     3.7438     0.0000   232.0000 </r>
       <r>     3.7909     0.0000   232.0000 </r>
       <r>     3.8379     0.0000   232.0000 </r>
       <r>     3.8849     0.0000   232.0000 </r>
       <r>     3.9320     0.0000   232.0000 </r>
      </set>
      <set comment="spin 2">
       <r>   -10.1778     0.0000     0.0000 </r>
       <r>   -10.1308     0.0000     0.0000 </r>
       <r>   -10.0838     0.0000     0.0000 </r>
       <r>   -10.0367     0.0000     0.0000 </r>
       <r>    -9.9897     0.0000     0.0000 </r>
       <r>    -9.9427     0.0000     0.0000 </r>
       <r>    -9.8956     0.0000     0.0000 </r>
       <r>    -9.8486     0.0000     0.0000 </r>
       <r>    -9.8016     0.0000     0.0000 </r>
       <r>    -9.7545     0.0000     0.0000 </r>
       <r>    -9.7075     0.0000     0.0000 </r>
       <r>    -9.6605     0.0000     0.0000 </r>
       <r>    -9.6134     0.0000     0.0000 </r>
       <r>    -9.5664     0.0000     0.0000 </r>
       <r>    -9.5194     1.8374     0.0864 </r>
       <r>    -9.4723    30.7508     1.5327 </r>
       <r>    -9.4253    12.4311     2.1174 </r>
       <r>    -9.3783    37.4154     3.8771 </r>
       <r>    -9.3313     2.6134     4.0000 </r>
       <r>    -9.2842    30.8351     5.4503 </r>
       <r>    -9.2372    11.6875     6.0000 </r>
       <r>    -9.1902     0.0000     6.0000 </r>
       <r>    -9.1431     0.0000     6.0000 </r>
       <r>    -9.0961     0.0000     6.0000 </r>
       <r>    -9.0491     0.0000     6.0000 </r>
       <r>    -9.0020     0.0000     6.0000 </r>
       <r>    -8.9550     0.0000     6.0000 </r>
       <r>    -8.9080     0.0000     6.0000 </r>
       <r>    -8.8609     0.0000     6.0000 </r>
       <r>    -8.8139     0.0024     6.0001 </r>
       <r>    -8.7669    15.0287     6.7070 </r>
       <r>    -8.7198    27.4747     7.9992 </r>
       <r>    -8.6728     4.7006     8.2202 </r>
       <r>    -8.6258    37.4454     9.9814 </r>
       <r>    -8.5787     0.3954    10.0000 </r>
       <r>    -8.5317     0.0000    10.0000 </r>
       <r>    -8.4847     0.0000    10.0000 </r>
       <r>    -8.4376     0.0000    10.0000 </r>
       <r>    -8.3906     0.0022    10.0001 </r>
       <r>    -8.3436     7.2116    10.3393 </r>
       <r>    -8.2965    34.4730    11.9606 </r>
       <r>    -8.2495     0.8369    12.0000 </r>
       <r>    -8.2025     0.0064    12.0003 </r>
       <r>    -8.1554    30.7447    13.4463 </r>
       <r>    -8.1084    11.7722    14.0000 </r>
       <r>    -8.0614     0.0003    14.0000 </r>
       <r>    -8.0143     0.0000    14.0000 </r>
       <r>    -7.9673     0.0000    14.0000 </r>
       <r>    -7.9203     0.0001    14.0000 </r>
       <r>    -7.8732     5.8661    14.2759 </r>
       <r>    -7.8262    32.2959    15.7949 </r>
       <r>    -7.7792     9.0570    16.2208 </r>
       <r>    -7.7321     9.7683    16.6803 </r>
       <r>    -7.6851    18.5921    17.5547 </r>
       <r>    -7.6381    17.7787    18.3909 </r>
       <r>    -7.5910    17.4164    19.2100 </r>
       <r>    -7.5440    13.7450    19.8565 </r>
       <r>    -7.4970     7.0352    20.1874 </r>
       <r>    -7.4499    19.9174    21.1241 </r>
       <r>    -7.4029     7.7252    21.4875 </r>
       <r>    -7.3559    19.8990    22.4234 </r>
       <r>    -7.3088    21.1245    23.4169 </r>
       <r>    -7.2618     5.3147    23.6669 </r>
       <r>    -7.2148     8.0572    24.0458 </r>
       <r>    -7.1677    14.3973    24.7230 </r>
       <r>    -7.1207    15.3042    25.4428 </r>
       <r>    -7.0737    14.9153    26.1443 </r>
       <r>    -7.0266    13.0292    26.7571 </r>
       <r>    -6.9796    19.7315    27.6851 </r>
       <r>    -6.9326    11.4278    28.2226 </r>
       <r>    -6.8855    17.4607    29.0438 </r>
       <r>    -6.8385    15.5549    29.7754 </r>
       <r>    -6.7915    25.9627    30.9965 </r>
       <r>    -6.7445    13.4759    31.6303 </r>
       <r>    -6.6974    15.4942    32.3591 </r>
       <r>    -6.6504    24.4411    33.5086 </r>
       <r>    -6.6034    16.8338    34.3003 </r>
       <r>    -6.5563    18.5315    35.1719 </r>
       <r>    -6.5093    14.3650    35.8475 </r>
       <r>    -6.4623    24.8063    37.0142 </r>
       <r>    -6.4152    11.2738    37.5445 </r>
       <r>    -6.3682    10.7466    38.0499 </r>
       <r>    -6.3212    24.8368    39.2181 </r>
       <r>    -6.2741    10.1580    39.6958 </r>
       <r>    -6.2271    21.4815    40.7062 </r>
       <r>    -6.1801    10.7389    41.2112 </r>
       <r>    -6.1330    12.2688    41.7883 </r>
       <r>    -6.0860    22.3091    42.8375 </r>
       <r>    -6.0390    14.8877    43.5377 </r>
       <r>    -5.9919    17.9236    44.3807 </r>
       <r>    -5.9449    13.1118    44.9974 </r>
       <r>    -5.8979    22.6229    46.0614 </r>
       <r>    -5.8508     5.2069    46.3063 </r>
       <r>    -5.8038    22.4802    47.3636 </r>
       <r>    -5.7568    16.4530    48.1375 </r>
       <r>    -5.7097     9.8663    48.6015 </r>
       <r>    -5.6627    18.2759    49.4611 </r>
       <r>    -5.6157    18.4088    50.3269 </r>
       <r>    -5.5686    13.9160    50.9814 </r>
       <r>    -5.5216     8.8735    51.3987 </r>
       <r>    -5.4746    13.2674    52.0227 </r>
       <r>    -5.4275    12.0847    52.5911 </r>
       <r>    -5.3805    12.9317    53.1993 </r>
       <r>    -5.3335    16.8437    53.9915 </r>
       <r>    -5.2864     6.0968    54.2783 </r>
       <r>    -5.2394    19.9178    55.2151 </r>
       <r>    -5.1924    10.5372    55.7107 </r>
       <r>    -5.1453     6.4020    56.0118 </r>
       <r>    -5.0983     5.9107    56.2898 </r>
       <r>    -5.0513    26.6473    57.5431 </r>
       <r>    -5.0042     9.2945    57.9802 </r>
       <r>    -4.9572    13.9666    58.6371 </r>
       <r>    -4.9102    11.7546    59.1900 </r>
       <r>    -4.8631    27.2218    60.4703 </r>
       <r>    -4.8161    20.2144    61.4210 </r>
       <r>    -4.7691     3.7363    61.5967 </r>
       <r>    -4.7220    13.3241    62.2234 </r>
       <r>    -4.6750    15.1306    62.9350 </r>
       <r>    -4.6280    13.5593    63.5728 </r>
       <r>    -4.5809    20.0532    64.5159 </r>
       <r>    -4.5339     2.4606    64.6317 </r>
       <r>    -4.4869     8.6505    65.0385 </r>
       <r>    -4.4398    27.4439    66.3293 </r>
       <r>    -4.3928    12.9097    66.9364 </r>
       <r>    -4.3458     8.1033    67.3176 </r>
       <r>    -4.2988    17.2715    68.1299 </r>
       <r>    -4.2517    20.0443    69.0726 </r>
       <r>    -4.2047    17.3633    69.8893 </r>
       <r>    -4.1577    20.6622    70.8611 </r>
       <r>    -4.1106    14.6064    71.5481 </r>
       <r>    -4.0636     0.7679    71.5842 </r>
       <r>    -4.0166    15.8027    72.3274 </r>
       <r>    -3.9695    14.1060    72.9909 </r>
       <r>    -3.9225    12.2391    73.5665 </r>
       <r>    -3.8755    16.2789    74.3321 </r>
       <r>    -3.8284    14.5718    75.0175 </r>
       <r>    -3.7814    18.1309    75.8702 </r>
       <r>    -3.7344     8.8318    76.2856 </r>
       <r>    -3.6873    18.8289    77.1712 </r>
       <r>    -3.6403    20.6771    78.1437 </r>
       <r>    -3.5933     1.8991    78.2330 </r>
       <r>    -3.5462    21.9029    79.2632 </r>
       <r>    -3.4992     3.2745    79.4172 </r>
       <r>    -3.4522    12.3855    79.9997 </r>
       <r>    -3.4051    17.4119    80.8186 </r>
       <r>    -3.3581    15.0846    81.5281 </r>
       <r>    -3.3111     7.7012    81.8903 </r>
       <r>    -3.2640    14.1398    82.5553 </r>
       <r>    -3.2170     7.1066    82.8896 </r>
       <r>    -3.1700     9.7955    83.3503 </r>
       <r>    -3.1229    11.3128    83.8824 </r>
       <r>    -3.0759    10.1580    84.3601 </r>
       <r>    -3.0289    11.2336    84.8885 </r>
       <r>    -2.9818    16.4986    85.6644 </r>
       <r>    -2.9348     4.7720    85.8889 </r>
       <r>    -2.8878     2.4251    86.0029 </r>
       <r>    -2.8407     6.3678    86.3024 </r>
       <r>    -2.7937    23.7095    87.4175 </r>
       <r>    -2.7467     9.0993    87.8455 </r>
       <r>    -2.6996     8.2533    88.2337 </r>
       <r>    -2.6526    18.6389    89.1103 </r>
       <r>    -2.6056     7.1718    89.4476 </r>
       <r>    -2.5585     2.8844    89.5833 </r>
       <r>    -2.5115    13.5589    90.2210 </r>
       <r>    -2.4645     7.0842    90.5542 </r>
       <r>    -2.4174    14.6477    91.2431 </r>
       <r>    -2.3704    10.4824    91.7361 </r>
       <r>    -2.3234    12.6978    92.3333 </r>
       <r>    -2.2763     4.7067    92.5547 </r>
       <r>    -2.2293    11.8558    93.1123 </r>
       <r>    -2.1823     9.4175    93.5553 </r>
       <r>    -2.1352     2.2356    93.6604 </r>
       <r>    -2.0882     9.1167    94.0892 </r>
       <r>    -2.0412     2.8348    94.2225 </r>
       <r>    -1.9941     4.7866    94.4476 </r>
       <r>    -1.9471     3.2353    94.5998 </r>
       <r>    -1.9001     8.5002    94.9996 </r>
       <r>    -1.8530     2.6279    95.1232 </r>
       <r>    -1.8060     5.4268    95.3784 </r>
       <r>    -1.7590     5.9950    95.6604 </r>
       <r>    -1.7120     2.4960    95.7778 </r>
       <r>    -1.6649     4.6786    95.9978 </r>
       <r>    -1.6179     2.9294    96.1356 </r>
       <r>    -1.5709    12.0392    96.7018 </r>
       <r>    -1.5238    20.7507    97.6778 </r>
       <r>    -1.4768    15.1481    98.3903 </r>
       <r>    -1.4298    23.8542    99.5122 </r>
       <r>    -1.3827    18.0773   100.3624 </r>
       <r>    -1.3357    21.0865   101.3542 </r>
       <r>    -1.2887    10.5728   101.8514 </r>
       <r>    -1.2416    29.0262   103.2166 </r>
       <r>    -1.1946    14.4891   103.8981 </r>
       <r>    -1.1476    12.1439   104.4692 </r>
       <r>    -1.1005    26.1581   105.6995 </r>
       <r>    -1.0535    28.1895   107.0253 </r>
       <r>    -1.0065    26.9112   108.2911 </r>
       <r>    -0.9594    24.0973   109.4244 </r>
       <r>    -0.9124    11.7791   109.9784 </r>
       <r>    -0.8654    32.2453   111.4950 </r>
       <r>    -0.8183    19.5963   112.4167 </r>
       <r>    -0.7713    25.4192   113.6122 </r>
       <r>    -0.7243    26.6748   114.8668 </r>
       <r>    -0.6772    36.7336   116.5945 </r>
       <r>    -0.6302    32.6895   118.1319 </r>
       <r>    -0.5832    40.9975   120.0602 </r>
       <r>    -0.5361    15.0175   120.7665 </r>
       <r>    -0.4891    23.8778   121.8895 </r>
       <r>    -0.4421    32.3034   123.4088 </r>
       <r>    -0.3950    36.0610   125.1049 </r>
       <r>    -0.3480    21.8138   126.1308 </r>
       <r>    -0.3010    33.4475   127.7040 </r>
       <r>    -0.2539    35.6071   129.3787 </r>
       <r>    -0.2069    36.6010   131.1001 </r>
       <r>    -0.1599    34.6923   132.7318 </r>
       <r>    -0.1128    20.4223   133.6923 </r>
       <r>    -0.0658    26.6447   134.9455 </r>
       <r>    -0.0188    36.8750   136.6798 </r>
       <r>     0.0283    22.6579   137.7455 </r>
       <r>     0.0753    31.7856   139.2404 </r>
       <r>     0.1223    26.6744   140.4950 </r>
       <r>     0.1694    25.4018   141.6897 </r>
       <r>     0.2164    37.3047   143.4443 </r>
       <r>     0.2634    33.9911   145.0429 </r>
       <r>     0.3105    24.9221   146.2151 </r>
       <r>     0.3575    33.2688   147.7798 </r>
       <r>     0.4045    23.1115   148.8668 </r>
       <r>     0.4516    27.3409   150.1527 </r>
       <r>     0.4986    29.9067   151.5593 </r>
       <r>     0.5456    34.6209   153.1876 </r>
       <r>     0.5927    33.5369   154.7650 </r>
       <r>     0.6397    24.5236   155.9184 </r>
       <r>     0.6867    28.2302   157.2461 </r>
       <r>     0.7337    30.5323   158.6821 </r>
       <r>     0.7808    40.4048   160.5825 </r>
       <r>     0.8278    27.1161   161.8578 </r>
       <r>     0.8748    39.1245   163.6980 </r>
       <r>     0.9219    37.4277   165.4583 </r>
       <r>     0.9689    20.4350   166.4194 </r>
       <r>     1.0159    27.4177   167.7089 </r>
       <r>     1.0630    35.3453   169.3713 </r>
       <r>     1.1100    23.8017   170.4908 </r>
       <r>     1.1570    21.1645   171.4862 </r>
       <r>     1.2041    34.9436   173.1297 </r>
       <r>     1.2511    18.6305   174.0059 </r>
       <r>     1.2981    19.9349   174.9435 </r>
       <r>     1.3452    36.5133   176.6609 </r>
       <r>     1.3922    40.2979   178.5562 </r>
       <r>     1.4392    21.2916   179.5576 </r>
       <r>     1.4863    35.0162   181.2045 </r>
       <r>     1.5333    39.4204   183.0585 </r>
       <r>     1.5803    24.6856   184.2196 </r>
       <r>     1.6274    32.1818   185.7332 </r>
       <r>     1.6744    21.8052   186.7587 </r>
       <r>     1.7214    30.3469   188.1860 </r>
       <r>     1.7685    30.0750   189.6005 </r>
       <r>     1.8155    26.4557   190.8448 </r>
       <r>     1.8625    33.7292   192.4312 </r>
       <r>     1.9096    31.8192   193.9277 </r>
       <r>     1.9566    34.3397   195.5428 </r>
       <r>     2.0036    20.6054   196.5119 </r>
       <r>     2.0507    32.5629   198.0435 </r>
       <r>     2.0977    20.7200   199.0180 </r>
       <r>     2.1447    12.3114   199.5970 </r>
       <r>     2.1918    24.2826   200.7391 </r>
       <r>     2.2388    38.5311   202.5513 </r>
       <r>     2.2858    37.6994   204.3244 </r>
       <r>     2.3329    28.4229   205.6612 </r>
       <r>     2.3799    33.1384   207.2198 </r>
       <r>     2.4269    23.6005   208.3298 </r>
       <r>     2.4740    24.5906   209.4864 </r>
       <r>     2.5210    23.4872   210.5910 </r>
       <r>     2.5680    33.0559   212.1457 </r>
       <r>     2.6151    29.6990   213.5426 </r>
       <r>     2.6621    28.7374   214.8942 </r>
       <r>     2.7091    31.4503   216.3734 </r>
       <r>     2.7562    22.3382   217.4240 </r>
       <r>     2.8032    32.7795   218.9657 </r>
       <r>     2.8502    42.3779   220.9588 </r>
       <r>     2.8973    19.5172   221.8768 </r>
       <r>     2.9443    28.8952   223.2358 </r>
       <r>     2.9913    27.9355   224.5497 </r>
       <r>     3.0384    25.3844   225.7436 </r>
       <r>     3.0854    21.4027   226.7502 </r>
       <r>     3.1324    36.9180   228.4866 </r>
       <r>     3.1794    30.1518   229.9047 </r>
       <r>     3.2265    19.2453   230.8098 </r>
       <r>     3.2735    19.7783   231.7401 </r>
       <r>     3.3205     5.5265   232.0000 </r>
       <r>     3.3676     0.0001   232.0000 </r>
       <r>     3.4146     0.0000   232.0000 </r>
       <r>     3.4616     0.0000   232.0000 </r>
       <r>     3.5087     0.0000   232.0000 </r>
       <r>     3.5557     0.0000   232.0000 </r>
       <r>     3.6027     0.0000   232.0000 </r>
       <r>     3.6498     0.0000   232.0000 </r>
       <r>     3.6968     0.0000   232.0000 </r>
       <r>     3.7438     0.0000   232.0000 </r>
       <r>     3.7909     0.0000   232.0000 </r>
       <r>     3.8379     0.0000   232.0000 </r>
       <r>     3.8849     0.0000   232.0000 </r>
       <r>     3.9320     0.0000   232.0000 </r>
      </set>
     </set>
    </array>
   </total>
  </dos>
 </calculation>
 <structure name="finalpos" >
  <crystal>
   <varray name="basis" >
    <v>      12.97840023       0.00000000       0.00000000 </v>
    <v>     -12.97840023      14.51029301       0.00000000 </v>
    <v>       0.00000000       0.00000000       8.99171734 </v>
   </varray>
   <i name="volume">   1693.32371694 </i>
   <varray name="rec_basis" >
    <v>       0.07705110       0.06891660       0.00000000 </v>
    <v>       0.00000000       0.06891660       0.00000000 </v>
    <v>       0.00000000       0.00000000       0.11121346 </v>
   </varray>
  </crystal>
  <varray name="positions" >
   <v>       0.47435850       0.97435850       0.00000000 </v>
   <v>       0.17435835       0.67435843       0.16137400 </v>
   <v>       0.87435830       0.37435836       0.32274803 </v>
   <v>       0.97435850       0.97435850       0.00000000 </v>
   <v>       0.67435837       0.67435843       0.16137400 </v>
   <v>       0.37435830       0.37435836       0.32274803 </v>
   <v>       0.69935846       0.32435849       0.08068685 </v>
   <v>       0.39935836       0.02435845       0.24206085 </v>
   <v>       0.09935832       0.72435844       0.40343484 </v>
   <v>       0.19935848       0.32435849       0.08068685 </v>
   <v>       0.89935839       0.02435845       0.24206085 </v>
   <v>       0.59935832       0.72435844       0.40343484 </v>
   <v>       0.72435844       0.47435850       0.00000002 </v>
   <v>       0.42435834       0.17435840       0.16137402 </v>
   <v>       0.12435819       0.87435830       0.32274803 </v>
   <v>       0.22435847       0.47435850       0.00000002 </v>
   <v>       0.92435837       0.17435840       0.16137402 </v>
   <v>       0.62435824       0.87435830       0.32274803 </v>
   <v>       0.94935858       0.82435858       0.08068686 </v>
   <v>       0.64935851       0.52435857       0.24206083 </v>
   <v>       0.34935838       0.22435850       0.40343484 </v>
   <v>       0.44935879       0.82435858       0.08068686 </v>
   <v>       0.14935864       0.52435857       0.24206083 </v>
   <v>       0.84935856       0.22435850       0.40343484 </v>
   <v>       0.32959640       0.35205102       0.55811709 </v>
   <v>       0.21292973       0.93538433       0.61555719 </v>
   <v>       0.09626293       0.51871759       0.67299735 </v>
   <v>       0.97959608       0.10205078       0.73043764 </v>
   <v>       0.86292940       0.68538421       0.78787762 </v>
   <v>       0.74626255       0.26871729       0.84531784 </v>
   <v>       0.82959640       0.60205102       0.55811709 </v>
   <v>       0.71292961       0.18538427       0.61555719 </v>
   <v>       0.59626287       0.76871759       0.67299741 </v>
   <v>       0.47959608       0.35205078       0.73043740 </v>
   <v>       0.36292934       0.93538410       0.78787756 </v>
   <v>       0.24626267       0.51871723       0.84531772 </v>
   <v>       0.82959640       0.85205102       0.55811715 </v>
   <v>       0.71292961       0.43538427       0.61555719 </v>
   <v>       0.59626281       0.01871753       0.67299741 </v>
   <v>       0.47959611       0.60205078       0.73043752 </v>
   <v>       0.36292940       0.18538403       0.78787756 </v>
   <v>       0.24626255       0.76871711       0.84531778 </v>
   <v>       0.32959628       0.10205102       0.55811715 </v>
   <v>       0.21292961       0.68538427       0.61555725 </v>
   <v>       0.09626293       0.26871753       0.67299741 </v>
   <v>       0.97959608       0.85205078       0.73043752 </v>
   <v>       0.86292934       0.43538403       0.78787762 </v>
   <v>       0.74626255       0.01871705       0.84531784 </v>
  </varray>
 </structure>
</modeling>
