 180 180   0   0
  0.2656311E+02  0.1385872E-08  0.1959920E-08  0.1760313E-08  0.5000000E-15
  1.000000000000000E-004
  CAR 
 Si and Ge interface calculation         
      5.90286259    -10.23471646  301      2.95684341      1.00000000
    -10.235  0.0000E+00  0.0000E+00  0.0000E+00  0.0000E+00
    -10.181  0.0000E+00  0.0000E+00  0.0000E+00  0.0000E+00
    -10.127  0.0000E+00  0.0000E+00  0.0000E+00  0.0000E+00
    -10.073  0.0000E+00  0.0000E+00  0.0000E+00  0.0000E+00
    -10.020  0.0000E+00  0.0000E+00  0.0000E+00  0.0000E+00
     -9.966  0.0000E+00  0.0000E+00  0.0000E+00  0.0000E+00
     -9.912  0.0000E+00  0.0000E+00  0.0000E+00  0.0000E+00
     -9.858  0.0000E+00  0.0000E+00  0.0000E+00  0.0000E+00
     -9.804  0.0000E+00  0.0000E+00  0.0000E+00  0.0000E+00
     -9.751  0.0000E+00  0.0000E+00  0.0000E+00  0.0000E+00
     -9.697  0.0000E+00  0.0000E+00  0.0000E+00  0.0000E+00
     -9.643  0.0000E+00  0.0000E+00  0.0000E+00  0.0000E+00
     -9.589  0.0000E+00  0.0000E+00  0.0000E+00  0.0000E+00
     -9.535  0.3650E-05  0.3618E-06  0.1963E-06  0.1946E-07
     -9.482  0.9251E+01  0.9152E+01  0.4976E+00  0.4923E+00
     -9.428  0.1467E+01  0.7275E+00  0.5765E+00  0.5314E+00
     -9.374  0.1717E+02  0.1801E+02  0.1500E+01  0.1500E+01
     -9.320  0.1844E+02  0.1815E+02  0.2492E+01  0.2477E+01
     -9.266  0.1304E+02  0.1152E+02  0.3194E+01  0.3096E+01
     -9.213  0.2482E+02  0.2623E+02  0.4529E+01  0.4507E+01
     -9.159  0.9119E+01  0.9294E+01  0.5019E+01  0.5007E+01
     -9.105  0.8933E+01  0.9161E+01  0.5500E+01  0.5500E+01
     -9.051  0.1824E+02  0.1411E+02  0.6481E+01  0.6259E+01
     -8.998  0.2659E+02  0.2802E+02  0.7912E+01  0.7766E+01
     -8.944  0.2494E+02  0.2605E+02  0.9253E+01  0.9168E+01
     -8.890  0.4157E+02  0.4285E+02  0.1149E+02  0.1147E+02
     -8.836  0.1253E+02  0.1121E+02  0.1216E+02  0.1208E+02
     -8.782  0.4920E+02  0.4577E+02  0.1481E+02  0.1454E+02
     -8.729  0.5124E+02  0.5229E+02  0.1757E+02  0.1735E+02
     -8.675  0.8559E+01  0.1223E+02  0.1803E+02  0.1801E+02
     -8.621  0.2751E+02  0.2683E+02  0.1951E+02  0.1945E+02
     -8.567  0.5560E+02  0.5650E+02  0.2250E+02  0.2249E+02
     -8.513  0.9059E+01  0.4864E+01  0.2298E+02  0.2275E+02
     -8.460  0.6184E+02  0.6312E+02  0.2631E+02  0.2615E+02
     -8.406  0.3813E+02  0.3746E+02  0.2836E+02  0.2816E+02
     -8.352  0.6960E+01  0.1025E+02  0.2874E+02  0.2871E+02
     -8.298  0.3315E+02  0.2771E+02  0.3052E+02  0.3020E+02
     -8.244  0.5698E+02  0.6106E+02  0.3358E+02  0.3349E+02
     -8.191  0.2012E+02  0.2041E+02  0.3467E+02  0.3459E+02
     -8.137  0.2254E+02  0.2157E+02  0.3588E+02  0.3575E+02
     -8.083  0.6824E+02  0.6486E+02  0.3955E+02  0.3924E+02
     -8.029  0.7108E+02  0.7470E+02  0.4337E+02  0.4325E+02
     -7.975  0.4677E+02  0.4676E+02  0.4589E+02  0.4577E+02
     -7.922  0.6357E+02  0.6142E+02  0.4931E+02  0.4907E+02
     -7.868  0.3582E+02  0.3739E+02  0.5124E+02  0.5108E+02
     -7.814  0.2169E+02  0.2273E+02  0.5240E+02  0.5231E+02
     -7.760  0.4120E+02  0.4140E+02  0.5462E+02  0.5453E+02
     -7.706  0.6261E+02  0.5918E+02  0.5799E+02  0.5772E+02
     -7.653  0.5639E+02  0.6051E+02  0.6102E+02  0.6097E+02
     -7.599  0.4909E+02  0.4575E+02  0.6366E+02  0.6343E+02
     -7.545  0.6415E+02  0.6432E+02  0.6711E+02  0.6689E+02
     -7.491  0.7137E+02  0.6979E+02  0.7095E+02  0.7065E+02
     -7.438  0.1076E+03  0.1028E+03  0.7674E+02  0.7618E+02
     -7.384  0.3255E+02  0.4030E+02  0.7849E+02  0.7835E+02
     -7.330  0.6467E+02  0.6285E+02  0.8197E+02  0.8173E+02
     -7.276  0.4783E+02  0.4780E+02  0.8454E+02  0.8430E+02
     -7.222  0.8032E+02  0.8047E+02  0.8886E+02  0.8863E+02
     -7.169  0.6616E+02  0.6247E+02  0.9242E+02  0.9199E+02
     -7.115  0.4746E+02  0.5297E+02  0.9497E+02  0.9484E+02
     -7.061  0.3320E+02  0.3360E+02  0.9676E+02  0.9664E+02
     -7.007  0.6318E+02  0.5971E+02  0.1002E+03  0.9986E+02
     -6.953  0.5356E+02  0.5494E+02  0.1030E+03  0.1028E+03
     -6.900  0.3962E+02  0.3910E+02  0.1052E+03  0.1049E+03
     -6.846  0.3996E+02  0.4227E+02  0.1073E+03  0.1072E+03
     -6.792  0.7003E+02  0.6772E+02  0.1111E+03  0.1108E+03
     -6.738  0.4300E+02  0.4658E+02  0.1134E+03  0.1133E+03
     -6.684  0.5634E+02  0.5549E+02  0.1164E+03  0.1163E+03
     -6.631  0.5546E+02  0.5541E+02  0.1194E+03  0.1193E+03
     -6.577  0.5565E+02  0.5312E+02  0.1224E+03  0.1222E+03
     -6.523  0.5114E+02  0.5408E+02  0.1252E+03  0.1251E+03
     -6.469  0.5151E+02  0.5029E+02  0.1279E+03  0.1278E+03
     -6.415  0.3560E+02  0.3484E+02  0.1298E+03  0.1296E+03
     -6.362  0.3139E+02  0.3385E+02  0.1315E+03  0.1315E+03
     -6.308  0.2883E+02  0.2787E+02  0.1331E+03  0.1330E+03
     -6.254  0.4480E+02  0.4173E+02  0.1355E+03  0.1352E+03
     -6.200  0.6559E+02  0.6201E+02  0.1390E+03  0.1385E+03
     -6.147  0.4145E+02  0.4699E+02  0.1413E+03  0.1411E+03
     -6.093  0.6536E+02  0.6350E+02  0.1448E+03  0.1445E+03
     -6.039  0.4050E+02  0.3989E+02  0.1469E+03  0.1466E+03
     -5.985  0.5982E+02  0.6340E+02  0.1502E+03  0.1500E+03
     -5.931  0.2911E+02  0.2824E+02  0.1517E+03  0.1516E+03
     -5.878  0.2499E+02  0.2679E+02  0.1531E+03  0.1530E+03
     -5.824  0.1421E+02  0.1411E+02  0.1538E+03  0.1538E+03
     -5.770  0.5448E+02  0.5224E+02  0.1568E+03  0.1566E+03
     -5.716  0.4294E+02  0.4202E+02  0.1591E+03  0.1588E+03
     -5.662  0.1693E+02  0.2067E+02  0.1600E+03  0.1599E+03
     -5.609  0.4333E+02  0.4080E+02  0.1623E+03  0.1621E+03
     -5.555  0.2348E+02  0.1780E+02  0.1636E+03  0.1631E+03
     -5.501  0.5136E+02  0.5899E+02  0.1663E+03  0.1663E+03
     -5.447  0.1161E+02  0.1189E+02  0.1670E+03  0.1669E+03
     -5.393  0.2393E+02  0.2328E+02  0.1683E+03  0.1682E+03
     -5.340  0.4457E+02  0.4335E+02  0.1707E+03  0.1705E+03
     -5.286  0.4660E+02  0.4801E+02  0.1732E+03  0.1731E+03
     -5.232  0.5138E+02  0.4680E+02  0.1759E+03  0.1756E+03
     -5.178  0.7076E+02  0.6900E+02  0.1797E+03  0.1793E+03
     -5.124  0.4339E+02  0.4730E+02  0.1821E+03  0.1819E+03
     -5.071  0.3745E+02  0.3942E+02  0.1841E+03  0.1840E+03
     -5.017  0.1897E+02  0.1965E+02  0.1851E+03  0.1850E+03
     -4.963  0.3603E+02  0.3670E+02  0.1870E+03  0.1870E+03
     -4.909  0.4433E+02  0.4058E+02  0.1894E+03  0.1892E+03
     -4.856  0.5783E+02  0.6153E+02  0.1925E+03  0.1925E+03
     -4.802  0.5479E+02  0.5121E+02  0.1955E+03  0.1953E+03
     -4.748  0.5759E+02  0.5832E+02  0.1986E+03  0.1984E+03
     -4.694  0.4006E+02  0.3928E+02  0.2007E+03  0.2005E+03
     -4.640  0.4677E+02  0.4607E+02  0.2033E+03  0.2030E+03
     -4.587  0.6317E+02  0.6497E+02  0.2066E+03  0.2065E+03
     -4.533  0.7783E+02  0.7573E+02  0.2108E+03  0.2106E+03
     -4.479  0.6926E+02  0.6826E+02  0.2146E+03  0.2142E+03
     -4.425  0.9018E+02  0.8898E+02  0.2194E+03  0.2190E+03
     -4.371  0.6900E+02  0.7009E+02  0.2231E+03  0.2228E+03
     -4.318  0.7286E+02  0.7549E+02  0.2270E+03  0.2268E+03
     -4.264  0.6778E+02  0.6748E+02  0.2307E+03  0.2305E+03
     -4.210  0.5257E+02  0.5160E+02  0.2335E+03  0.2332E+03
     -4.156  0.8283E+02  0.8104E+02  0.2380E+03  0.2376E+03
     -4.102  0.7808E+02  0.7745E+02  0.2422E+03  0.2418E+03
     -4.049  0.9472E+02  0.9590E+02  0.2473E+03  0.2469E+03
     -3.995  0.9622E+02  0.9614E+02  0.2524E+03  0.2521E+03
     -3.941  0.6852E+02  0.7250E+02  0.2561E+03  0.2560E+03
     -3.887  0.4720E+02  0.4505E+02  0.2587E+03  0.2584E+03
     -3.833  0.3729E+02  0.3973E+02  0.2607E+03  0.2606E+03
     -3.780  0.5505E+02  0.5326E+02  0.2636E+03  0.2634E+03
     -3.726  0.3406E+02  0.3576E+02  0.2655E+03  0.2653E+03
     -3.672  0.4008E+02  0.3664E+02  0.2676E+03  0.2673E+03
     -3.618  0.3051E+02  0.3592E+02  0.2693E+03  0.2693E+03
     -3.565  0.3985E+02  0.3694E+02  0.2714E+03  0.2712E+03
     -3.511  0.3899E+02  0.4139E+02  0.2735E+03  0.2735E+03
     -3.457  0.3519E+02  0.3409E+02  0.2754E+03  0.2753E+03
     -3.403  0.5590E+02  0.5206E+02  0.2784E+03  0.2781E+03
     -3.349  0.3453E+02  0.3693E+02  0.2803E+03  0.2801E+03
     -3.296  0.4640E+02  0.4391E+02  0.2828E+03  0.2824E+03
     -3.242  0.5467E+02  0.5700E+02  0.2857E+03  0.2855E+03
     -3.188  0.4057E+02  0.3832E+02  0.2879E+03  0.2876E+03
     -3.134  0.3946E+02  0.4322E+02  0.2900E+03  0.2899E+03
     -3.080  0.5119E+02  0.4650E+02  0.2928E+03  0.2924E+03
     -3.027  0.5172E+02  0.5490E+02  0.2955E+03  0.2954E+03
     -2.973  0.5855E+02  0.5961E+02  0.2987E+03  0.2986E+03
     -2.919  0.2024E+02  0.1953E+02  0.2998E+03  0.2996E+03
     -2.865  0.3346E+02  0.3201E+02  0.3016E+03  0.3013E+03
     -2.811  0.2105E+02  0.2109E+02  0.3027E+03  0.3025E+03
     -2.758  0.2409E+02  0.2660E+02  0.3040E+03  0.3039E+03
     -2.704  0.3701E+02  0.3834E+02  0.3060E+03  0.3060E+03
     -2.650  0.3780E+02  0.3344E+02  0.3080E+03  0.3078E+03
     -2.596  0.4578E+02  0.4423E+02  0.3105E+03  0.3101E+03
     -2.542  0.2991E+02  0.3369E+02  0.3121E+03  0.3120E+03
     -2.489  0.2426E+02  0.2241E+02  0.3134E+03  0.3132E+03
     -2.435  0.2644E+02  0.2770E+02  0.3148E+03  0.3146E+03
     -2.381  0.2850E+02  0.3036E+02  0.3164E+03  0.3163E+03
     -2.327  0.4133E+02  0.3550E+02  0.3186E+03  0.3182E+03
     -2.274  0.3495E+02  0.3977E+02  0.3205E+03  0.3203E+03
     -2.220  0.3630E+02  0.3720E+02  0.3224E+03  0.3223E+03
     -2.166  0.1900E+02  0.1824E+02  0.3234E+03  0.3233E+03
     -2.112  0.1577E+02  0.1725E+02  0.3243E+03  0.3242E+03
     -2.058  0.4126E+02  0.4083E+02  0.3265E+03  0.3264E+03
     -2.005  0.1381E+02  0.1499E+02  0.3273E+03  0.3272E+03
     -1.951  0.1313E+02  0.1014E+02  0.3280E+03  0.3278E+03
     -1.897  0.1439E+02  0.1552E+02  0.3287E+03  0.3286E+03
     -1.843  0.4632E+02  0.4762E+02  0.3312E+03  0.3312E+03
     -1.789  0.1625E+02  0.1596E+02  0.3321E+03  0.3320E+03
     -1.736  0.3125E+02  0.2901E+02  0.3338E+03  0.3336E+03
     -1.682  0.5281E+02  0.5237E+02  0.3366E+03  0.3364E+03
     -1.628  0.2391E+02  0.2473E+02  0.3379E+03  0.3378E+03
     -1.574  0.3308E+02  0.3374E+02  0.3397E+03  0.3396E+03
     -1.520  0.2487E+02  0.2587E+02  0.3410E+03  0.3410E+03
     -1.467  0.1359E+02  0.1468E+02  0.3418E+03  0.3417E+03
     -1.413  0.1369E+02  0.1276E+02  0.3425E+03  0.3424E+03
     -1.359  0.2404E+02  0.2414E+02  0.3438E+03  0.3437E+03
     -1.305  0.2660E+02  0.2502E+02  0.3452E+03  0.3451E+03
     -1.251  0.2747E+02  0.2755E+02  0.3467E+03  0.3466E+03
     -1.198  0.1456E+02  0.1598E+02  0.3475E+03  0.3474E+03
     -1.144  0.1314E+02  0.8209E+01  0.3482E+03  0.3479E+03
     -1.090  0.4331E+02  0.4767E+02  0.3505E+03  0.3504E+03
     -1.036  0.6642E+02  0.5990E+02  0.3541E+03  0.3536E+03
     -0.983  0.8520E+02  0.8904E+02  0.3587E+03  0.3584E+03
     -0.929  0.9778E+02  0.9521E+02  0.3639E+03  0.3636E+03
     -0.875  0.7278E+02  0.7410E+02  0.3678E+03  0.3675E+03
     -0.821  0.8510E+02  0.8383E+02  0.3724E+03  0.3721E+03
     -0.767  0.1048E+03  0.1053E+03  0.3781E+03  0.3777E+03
     -0.714  0.6340E+02  0.6443E+02  0.3815E+03  0.3812E+03
     -0.660  0.9883E+02  0.9684E+02  0.3868E+03  0.3864E+03
     -0.606  0.1098E+03  0.1079E+03  0.3927E+03  0.3922E+03
     -0.552  0.1199E+03  0.1199E+03  0.3991E+03  0.3987E+03
     -0.498  0.8333E+02  0.8356E+02  0.4036E+03  0.4031E+03
     -0.445  0.1078E+03  0.1085E+03  0.4094E+03  0.4090E+03
     -0.391  0.7622E+02  0.7786E+02  0.4135E+03  0.4132E+03
     -0.337  0.7619E+02  0.7703E+02  0.4176E+03  0.4173E+03
     -0.283  0.9059E+02  0.9042E+02  0.4225E+03  0.4222E+03
     -0.229  0.6090E+02  0.6200E+02  0.4258E+03  0.4255E+03
     -0.176  0.7381E+02  0.7123E+02  0.4297E+03  0.4293E+03
     -0.122  0.7708E+02  0.7665E+02  0.4339E+03  0.4335E+03
     -0.068  0.1156E+03  0.1139E+03  0.4401E+03  0.4396E+03
     -0.014  0.1250E+03  0.1264E+03  0.4468E+03  0.4464E+03
      0.040  0.1320E+03  0.1299E+03  0.4539E+03  0.4534E+03
      0.093  0.1145E+03  0.1132E+03  0.4601E+03  0.4595E+03
      0.147  0.1109E+03  0.1133E+03  0.4661E+03  0.4656E+03
      0.201  0.1283E+03  0.1286E+03  0.4730E+03  0.4725E+03
      0.255  0.1017E+03  0.1054E+03  0.4784E+03  0.4781E+03
      0.309  0.1399E+03  0.1300E+03  0.4860E+03  0.4851E+03
      0.362  0.1200E+03  0.1227E+03  0.4924E+03  0.4917E+03
      0.416  0.1083E+03  0.1097E+03  0.4982E+03  0.4976E+03
      0.470  0.1111E+03  0.1142E+03  0.5042E+03  0.5038E+03
      0.524  0.1186E+03  0.1159E+03  0.5106E+03  0.5100E+03
      0.577  0.1371E+03  0.1342E+03  0.5180E+03  0.5172E+03
      0.631  0.1131E+03  0.1153E+03  0.5240E+03  0.5234E+03
      0.685  0.9538E+02  0.9949E+02  0.5292E+03  0.5288E+03
      0.739  0.1114E+03  0.1107E+03  0.5352E+03  0.5347E+03
      0.793  0.1128E+03  0.1120E+03  0.5412E+03  0.5408E+03
      0.846  0.1092E+03  0.1093E+03  0.5471E+03  0.5467E+03
      0.900  0.1077E+03  0.1062E+03  0.5529E+03  0.5524E+03
      0.954  0.1019E+03  0.1028E+03  0.5584E+03  0.5579E+03
      1.008  0.1204E+03  0.1225E+03  0.5649E+03  0.5645E+03
      1.062  0.1168E+03  0.1129E+03  0.5712E+03  0.5706E+03
      1.115  0.8608E+02  0.9275E+02  0.5758E+03  0.5755E+03
      1.169  0.1215E+03  0.1150E+03  0.5823E+03  0.5817E+03
      1.223  0.8421E+02  0.8633E+02  0.5868E+03  0.5864E+03
      1.277  0.1016E+03  0.1036E+03  0.5923E+03  0.5919E+03
      1.331  0.9006E+02  0.8637E+02  0.5972E+03  0.5966E+03
      1.384  0.9237E+02  0.9799E+02  0.6021E+03  0.6019E+03
      1.438  0.8796E+02  0.8702E+02  0.6069E+03  0.6065E+03
      1.492  0.1071E+03  0.1068E+03  0.6126E+03  0.6123E+03
      1.546  0.9733E+02  0.9492E+02  0.6179E+03  0.6174E+03
      1.600  0.7293E+02  0.7811E+02  0.6218E+03  0.6216E+03
      1.653  0.7439E+02  0.6933E+02  0.6258E+03  0.6253E+03
      1.707  0.1042E+03  0.1006E+03  0.6314E+03  0.6307E+03
      1.761  0.8907E+02  0.8917E+02  0.6362E+03  0.6355E+03
      1.815  0.6346E+02  0.6908E+02  0.6396E+03  0.6392E+03
      1.868  0.8174E+02  0.8417E+02  0.6440E+03  0.6438E+03
      1.922  0.6894E+02  0.6595E+02  0.6477E+03  0.6473E+03
      1.976  0.9294E+02  0.8724E+02  0.6527E+03  0.6520E+03
      2.030  0.5926E+02  0.6099E+02  0.6559E+03  0.6553E+03
      2.084  0.8005E+02  0.8358E+02  0.6602E+03  0.6598E+03
      2.137  0.6152E+02  0.6216E+02  0.6635E+03  0.6631E+03
      2.191  0.9445E+02  0.9065E+02  0.6686E+03  0.6680E+03
      2.245  0.7135E+02  0.6629E+02  0.6724E+03  0.6716E+03
      2.299  0.5770E+02  0.6751E+02  0.6755E+03  0.6752E+03
      2.353  0.7761E+02  0.7313E+02  0.6797E+03  0.6791E+03
      2.406  0.7723E+02  0.7346E+02  0.6839E+03  0.6831E+03
      2.460  0.3903E+02  0.4240E+02  0.6859E+03  0.6854E+03
      2.514  0.7224E+02  0.7191E+02  0.6898E+03  0.6892E+03
      2.568  0.7641E+02  0.8075E+02  0.6939E+03  0.6936E+03
      2.622  0.6084E+02  0.6214E+02  0.6972E+03  0.6969E+03
      2.675  0.5810E+02  0.5374E+02  0.7003E+03  0.6998E+03
      2.729  0.7369E+02  0.6586E+02  0.7043E+03  0.7034E+03
      2.783  0.7171E+02  0.7616E+02  0.7082E+03  0.7075E+03
      2.837  0.7334E+02  0.6870E+02  0.7121E+03  0.7112E+03
      2.891  0.6959E+02  0.7907E+02  0.7159E+03  0.7154E+03
      2.944  0.6152E+02  0.5421E+02  0.7192E+03  0.7183E+03
      2.998  0.5798E+02  0.6523E+02  0.7223E+03  0.7218E+03
      3.052  0.5395E+02  0.5263E+02  0.7252E+03  0.7247E+03
      3.106  0.4614E+02  0.3991E+02  0.7277E+03  0.7268E+03
      3.159  0.5956E+02  0.5887E+02  0.7309E+03  0.7300E+03
      3.213  0.6167E+02  0.7018E+02  0.7342E+03  0.7338E+03
      3.267  0.6706E+02  0.6280E+02  0.7378E+03  0.7371E+03
      3.321  0.5511E+02  0.4099E+02  0.7408E+03  0.7393E+03
      3.375  0.4582E+02  0.5679E+02  0.7432E+03  0.7424E+03
      3.428  0.7249E+02  0.8026E+02  0.7471E+03  0.7467E+03
      3.482  0.4680E+02  0.3456E+02  0.7496E+03  0.7486E+03
      3.536  0.4644E+02  0.6353E+02  0.7521E+03  0.7520E+03
      3.590  0.6035E+02  0.5315E+02  0.7554E+03  0.7548E+03
      3.644  0.4287E+02  0.4625E+02  0.7577E+03  0.7573E+03
      3.697  0.4784E+02  0.5192E+02  0.7603E+03  0.7601E+03
      3.751  0.4364E+02  0.3922E+02  0.7626E+03  0.7622E+03
      3.805  0.5205E+02  0.5202E+02  0.7654E+03  0.7650E+03
      3.859  0.6007E+02  0.6079E+02  0.7686E+03  0.7683E+03
      3.913  0.5297E+02  0.5448E+02  0.7715E+03  0.7712E+03
      3.966  0.3607E+02  0.3212E+02  0.7734E+03  0.7730E+03
      4.020  0.5306E+02  0.5552E+02  0.7763E+03  0.7760E+03
      4.074  0.4173E+02  0.4643E+02  0.7785E+03  0.7784E+03
      4.128  0.5484E+02  0.5429E+02  0.7815E+03  0.7814E+03
      4.182  0.3483E+02  0.3549E+02  0.7834E+03  0.7833E+03
      4.235  0.5208E+02  0.4513E+02  0.7862E+03  0.7857E+03
      4.289  0.8070E+02  0.7780E+02  0.7905E+03  0.7899E+03
      4.343  0.7855E+02  0.8634E+02  0.7947E+03  0.7945E+03
      4.397  0.6458E+02  0.5873E+02  0.7982E+03  0.7977E+03
      4.450  0.5194E+02  0.5824E+02  0.8010E+03  0.8008E+03
      4.504  0.7478E+02  0.7278E+02  0.8050E+03  0.8047E+03
      4.558  0.8654E+02  0.8104E+02  0.8097E+03  0.8091E+03
      4.612  0.1051E+03  0.1104E+03  0.8153E+03  0.8150E+03
      4.666  0.1023E+03  0.9896E+02  0.8208E+03  0.8204E+03
      4.719  0.9393E+02  0.9633E+02  0.8259E+03  0.8255E+03
      4.773  0.6396E+02  0.6432E+02  0.8293E+03  0.8290E+03
      4.827  0.8152E+02  0.8317E+02  0.8337E+03  0.8335E+03
      4.881  0.8099E+02  0.7747E+02  0.8381E+03  0.8376E+03
      4.935  0.8827E+02  0.8467E+02  0.8428E+03  0.8422E+03
      4.988  0.1284E+03  0.1323E+03  0.8497E+03  0.8493E+03
      5.042  0.1297E+03  0.1271E+03  0.8567E+03  0.8562E+03
      5.096  0.8139E+02  0.8566E+02  0.8611E+03  0.8608E+03
      5.150  0.4890E+02  0.4714E+02  0.8637E+03  0.8633E+03
      5.204  0.5567E+01  0.1303E+02  0.8640E+03  0.8640E+03
      5.257  0.0000E+00  0.0000E+00  0.8640E+03  0.8640E+03
      5.311  0.0000E+00  0.0000E+00  0.8640E+03  0.8640E+03
      5.365  0.0000E+00  0.0000E+00  0.8640E+03  0.8640E+03
      5.419  0.0000E+00  0.0000E+00  0.8640E+03  0.8640E+03
      5.473  0.0000E+00  0.0000E+00  0.8640E+03  0.8640E+03
      5.526  0.0000E+00  0.0000E+00  0.8640E+03  0.8640E+03
      5.580  0.0000E+00  0.0000E+00  0.8640E+03  0.8640E+03
      5.634  0.0000E+00  0.0000E+00  0.8640E+03  0.8640E+03
      5.688  0.0000E+00  0.0000E+00  0.8640E+03  0.8640E+03
      5.741  0.0000E+00  0.0000E+00  0.8640E+03  0.8640E+03
      5.795  0.0000E+00  0.0000E+00  0.8640E+03  0.8640E+03
      5.849  0.0000E+00  0.0000E+00  0.8640E+03  0.8640E+03
      5.903  0.0000E+00  0.0000E+00  0.8640E+03  0.8640E+03
