 264 264   0   0
  0.2774202E+02  0.1958175E-08  0.1958175E-08  0.1910025E-08  0.5000000E-15
  1.000000000000000E-004
  CAR 
 Si and Ge interface calculation         
      6.63281403     -9.16057262  301      4.03473069      1.00000000
     -9.161  0.0000E+00  0.0000E+00  0.0000E+00  0.0000E+00
     -9.108  0.0000E+00  0.0000E+00  0.0000E+00  0.0000E+00
     -9.055  0.0000E+00  0.0000E+00  0.0000E+00  0.0000E+00
     -9.003  0.0000E+00  0.0000E+00  0.0000E+00  0.0000E+00
     -8.950  0.0000E+00  0.0000E+00  0.0000E+00  0.0000E+00
     -8.897  0.0000E+00  0.0000E+00  0.0000E+00  0.0000E+00
     -8.845  0.0000E+00  0.0000E+00  0.0000E+00  0.0000E+00
     -8.792  0.0000E+00  0.0000E+00  0.0000E+00  0.0000E+00
     -8.739  0.0000E+00  0.0000E+00  0.0000E+00  0.0000E+00
     -8.687  0.0000E+00  0.0000E+00  0.0000E+00  0.0000E+00
     -8.634  0.0000E+00  0.0000E+00  0.0000E+00  0.0000E+00
     -8.581  0.0000E+00  0.0000E+00  0.0000E+00  0.0000E+00
     -8.529  0.0000E+00  0.0000E+00  0.0000E+00  0.0000E+00
     -8.476  0.1017E-04  0.2847E-05  0.5354E-06  0.1499E-06
     -8.424  0.1821E+02  0.1653E+02  0.9584E+00  0.8702E+00
     -8.371  0.1979E+02  0.2146E+02  0.2000E+01  0.2000E+01
     -8.318  0.0000E+00  0.0000E+00  0.2000E+01  0.2000E+01
     -8.266  0.1518E-02  0.6196E-03  0.2000E+01  0.2000E+01
     -8.213  0.1980E+02  0.1947E+02  0.3043E+01  0.3025E+01
     -8.160  0.9045E+01  0.9213E+01  0.3519E+01  0.3510E+01
     -8.108  0.1864E+02  0.1880E+02  0.4500E+01  0.4500E+01
     -8.055  0.1004E+02  0.9828E+01  0.5029E+01  0.5017E+01
     -8.002  0.1849E+02  0.1869E+02  0.6002E+01  0.6001E+01
     -7.950  0.2591E+02  0.2456E+02  0.7366E+01  0.7294E+01
     -7.897  0.2154E+02  0.2291E+02  0.8500E+01  0.8500E+01
     -7.844  0.8103E+01  0.7678E+01  0.8927E+01  0.8904E+01
     -7.792  0.2043E+02  0.1956E+02  0.1000E+02  0.9934E+01
     -7.739  0.9460E+01  0.1076E+02  0.1050E+02  0.1050E+02
     -7.687  0.2501E+02  0.2435E+02  0.1182E+02  0.1178E+02
     -7.634  0.3196E+02  0.3262E+02  0.1350E+02  0.1350E+02
     -7.581  0.1174E+02  0.1099E+02  0.1412E+02  0.1408E+02
     -7.529  0.2626E+02  0.2702E+02  0.1550E+02  0.1550E+02
     -7.476  0.1787E+02  0.1706E+02  0.1644E+02  0.1640E+02
     -7.423  0.1073E+02  0.1149E+02  0.1701E+02  0.1700E+02
     -7.371  0.9394E+01  0.9443E+01  0.1750E+02  0.1750E+02
     -7.318  0.2939E+02  0.2765E+02  0.1905E+02  0.1896E+02
     -7.265  0.3261E+02  0.3356E+02  0.2076E+02  0.2072E+02
     -7.213  0.2347E+02  0.2426E+02  0.2200E+02  0.2200E+02
     -7.160  0.3361E+02  0.3150E+02  0.2377E+02  0.2366E+02
     -7.107  0.2483E+02  0.2576E+02  0.2508E+02  0.2501E+02
     -7.055  0.2531E+02  0.2524E+02  0.2641E+02  0.2634E+02
     -7.002  0.4816E+02  0.4881E+02  0.2894E+02  0.2891E+02
     -6.949  0.1964E+02  0.1775E+02  0.2998E+02  0.2985E+02
     -6.897  0.3774E+02  0.3968E+02  0.3196E+02  0.3194E+02
     -6.844  0.4356E+02  0.4297E+02  0.3426E+02  0.3420E+02
     -6.792  0.4966E+02  0.4965E+02  0.3687E+02  0.3681E+02
     -6.739  0.3691E+02  0.3656E+02  0.3882E+02  0.3874E+02
     -6.686  0.3503E+02  0.3522E+02  0.4066E+02  0.4059E+02
     -6.634  0.6147E+02  0.6118E+02  0.4390E+02  0.4381E+02
     -6.581  0.3118E+02  0.3056E+02  0.4554E+02  0.4542E+02
     -6.528  0.3655E+02  0.3826E+02  0.4746E+02  0.4743E+02
     -6.476  0.4791E+02  0.4805E+02  0.4998E+02  0.4996E+02
     -6.423  0.1957E+02  0.1977E+02  0.5101E+02  0.5100E+02
     -6.370  0.6609E+02  0.6459E+02  0.5449E+02  0.5440E+02
     -6.318  0.5537E+02  0.5372E+02  0.5741E+02  0.5723E+02
     -6.265  0.5438E+02  0.5607E+02  0.6027E+02  0.6018E+02
     -6.212  0.4637E+02  0.4656E+02  0.6271E+02  0.6264E+02
     -6.160  0.6063E+02  0.6041E+02  0.6590E+02  0.6582E+02
     -6.107  0.7441E+02  0.7389E+02  0.6982E+02  0.6971E+02
     -6.055  0.7204E+02  0.7073E+02  0.7361E+02  0.7343E+02
     -6.002  0.8843E+02  0.8933E+02  0.7827E+02  0.7813E+02
     -5.949  0.4541E+02  0.4623E+02  0.8066E+02  0.8057E+02
     -5.897  0.6216E+02  0.6191E+02  0.8393E+02  0.8382E+02
     -5.844  0.6484E+02  0.6385E+02  0.8735E+02  0.8719E+02
     -5.791  0.8395E+02  0.8294E+02  0.9176E+02  0.9155E+02
     -5.739  0.8098E+02  0.8175E+02  0.9603E+02  0.9586E+02
     -5.686  0.1003E+03  0.9933E+02  0.1013E+03  0.1011E+03
     -5.633  0.8155E+02  0.8306E+02  0.1056E+03  0.1055E+03
     -5.581  0.7145E+02  0.7266E+02  0.1094E+03  0.1093E+03
     -5.528  0.6469E+02  0.6297E+02  0.1128E+03  0.1126E+03
     -5.475  0.6897E+02  0.6783E+02  0.1164E+03  0.1162E+03
     -5.423  0.7895E+02  0.7956E+02  0.1206E+03  0.1204E+03
     -5.370  0.7599E+02  0.7613E+02  0.1246E+03  0.1244E+03
     -5.318  0.8637E+02  0.8543E+02  0.1291E+03  0.1289E+03
     -5.265  0.6971E+02  0.7105E+02  0.1328E+03  0.1326E+03
     -5.212  0.6525E+02  0.6502E+02  0.1362E+03  0.1360E+03
     -5.160  0.5658E+02  0.5681E+02  0.1392E+03  0.1390E+03
     -5.107  0.7530E+02  0.7600E+02  0.1432E+03  0.1430E+03
     -5.054  0.7921E+02  0.7874E+02  0.1473E+03  0.1472E+03
     -5.002  0.6371E+02  0.6385E+02  0.1507E+03  0.1505E+03
     -4.949  0.6868E+02  0.6782E+02  0.1543E+03  0.1541E+03
     -4.896  0.5754E+02  0.5994E+02  0.1573E+03  0.1573E+03
     -4.844  0.7905E+02  0.7573E+02  0.1615E+03  0.1612E+03
     -4.791  0.1037E+03  0.1037E+03  0.1669E+03  0.1667E+03
     -4.738  0.1180E+03  0.1152E+03  0.1732E+03  0.1728E+03
     -4.686  0.1255E+03  0.1267E+03  0.1798E+03  0.1794E+03
     -4.633  0.9280E+02  0.9488E+02  0.1846E+03  0.1844E+03
     -4.580  0.9296E+02  0.8931E+02  0.1895E+03  0.1891E+03
     -4.528  0.1061E+03  0.1079E+03  0.1951E+03  0.1948E+03
     -4.475  0.1136E+03  0.1151E+03  0.2011E+03  0.2009E+03
     -4.423  0.8253E+02  0.8139E+02  0.2055E+03  0.2052E+03
     -4.370  0.9307E+02  0.9270E+02  0.2104E+03  0.2100E+03
     -4.317  0.6454E+02  0.6537E+02  0.2137E+03  0.2135E+03
     -4.265  0.8400E+02  0.8372E+02  0.2182E+03  0.2179E+03
     -4.212  0.8774E+02  0.8697E+02  0.2228E+03  0.2225E+03
     -4.159  0.9860E+02  0.9847E+02  0.2280E+03  0.2276E+03
     -4.107  0.7045E+02  0.7289E+02  0.2317E+03  0.2315E+03
     -4.054  0.6898E+02  0.6586E+02  0.2353E+03  0.2350E+03
     -4.001  0.6889E+02  0.7295E+02  0.2389E+03  0.2388E+03
     -3.949  0.4939E+02  0.5113E+02  0.2415E+03  0.2415E+03
     -3.896  0.3728E+02  0.3237E+02  0.2435E+03  0.2432E+03
     -3.843  0.6486E+02  0.6490E+02  0.2469E+03  0.2466E+03
     -3.791  0.5405E+02  0.5622E+02  0.2498E+03  0.2496E+03
     -3.738  0.5598E+02  0.5493E+02  0.2527E+03  0.2525E+03
     -3.686  0.7281E+02  0.6963E+02  0.2565E+03  0.2561E+03
     -3.633  0.8182E+02  0.8576E+02  0.2609E+03  0.2606E+03
     -3.580  0.5874E+02  0.6007E+02  0.2639E+03  0.2638E+03
     -3.528  0.6342E+02  0.5996E+02  0.2673E+03  0.2670E+03
     -3.475  0.8439E+02  0.8248E+02  0.2717E+03  0.2713E+03
     -3.422  0.7270E+02  0.7540E+02  0.2756E+03  0.2753E+03
     -3.370  0.6310E+02  0.6161E+02  0.2789E+03  0.2785E+03
     -3.317  0.8697E+02  0.8867E+02  0.2835E+03  0.2832E+03
     -3.264  0.8492E+02  0.8483E+02  0.2879E+03  0.2876E+03
     -3.212  0.6304E+02  0.6265E+02  0.2912E+03  0.2909E+03
     -3.159  0.6737E+02  0.6806E+02  0.2948E+03  0.2945E+03
     -3.106  0.7305E+02  0.7415E+02  0.2986E+03  0.2984E+03
     -3.054  0.8079E+02  0.7832E+02  0.3029E+03  0.3026E+03
     -3.001  0.6810E+02  0.7156E+02  0.3065E+03  0.3063E+03
     -2.949  0.7887E+02  0.7393E+02  0.3106E+03  0.3102E+03
     -2.896  0.1112E+03  0.1139E+03  0.3165E+03  0.3162E+03
     -2.843  0.7776E+02  0.7579E+02  0.3206E+03  0.3202E+03
     -2.791  0.1034E+03  0.1033E+03  0.3260E+03  0.3256E+03
     -2.738  0.1108E+03  0.1113E+03  0.3319E+03  0.3315E+03
     -2.685  0.8990E+02  0.9053E+02  0.3366E+03  0.3363E+03
     -2.633  0.1018E+03  0.1027E+03  0.3419E+03  0.3417E+03
     -2.580  0.1217E+03  0.1191E+03  0.3484E+03  0.3479E+03
     -2.527  0.9352E+02  0.9301E+02  0.3533E+03  0.3528E+03
     -2.475  0.1184E+03  0.1211E+03  0.3595E+03  0.3592E+03
     -2.422  0.8881E+02  0.8954E+02  0.3642E+03  0.3639E+03
     -2.369  0.1033E+03  0.1020E+03  0.3696E+03  0.3693E+03
     -2.317  0.9596E+02  0.9771E+02  0.3747E+03  0.3744E+03
     -2.264  0.1061E+03  0.1030E+03  0.3803E+03  0.3799E+03
     -2.211  0.6889E+02  0.7462E+02  0.3839E+03  0.3838E+03
     -2.159  0.1622E+02  0.1733E+02  0.3847E+03  0.3847E+03
     -2.106  0.6730E+02  0.6035E+02  0.3883E+03  0.3879E+03
     -2.054  0.7283E+02  0.7681E+02  0.3921E+03  0.3919E+03
     -2.001  0.7981E+02  0.7851E+02  0.3963E+03  0.3961E+03
     -1.948  0.8949E+02  0.9102E+02  0.4010E+03  0.4008E+03
     -1.896  0.1040E+03  0.1019E+03  0.4065E+03  0.4062E+03
     -1.843  0.6581E+02  0.6710E+02  0.4100E+03  0.4097E+03
     -1.790  0.8015E+02  0.7891E+02  0.4142E+03  0.4139E+03
     -1.738  0.1059E+03  0.1019E+03  0.4198E+03  0.4193E+03
     -1.685  0.9250E+02  0.9731E+02  0.4246E+03  0.4244E+03
     -1.632  0.8931E+02  0.9000E+02  0.4293E+03  0.4291E+03
     -1.580  0.9373E+02  0.8994E+02  0.4343E+03  0.4339E+03
     -1.527  0.5955E+02  0.6550E+02  0.4374E+03  0.4373E+03
     -1.474  0.6037E+02  0.5977E+02  0.4406E+03  0.4405E+03
     -1.422  0.4931E+02  0.4652E+02  0.4432E+03  0.4429E+03
     -1.369  0.6678E+02  0.6920E+02  0.4467E+03  0.4465E+03
     -1.317  0.6424E+02  0.6480E+02  0.4501E+03  0.4500E+03
     -1.264  0.4152E+02  0.4059E+02  0.4523E+03  0.4521E+03
     -1.211  0.6517E+02  0.6504E+02  0.4557E+03  0.4555E+03
     -1.159  0.5066E+02  0.4858E+02  0.4584E+03  0.4581E+03
     -1.106  0.6093E+02  0.6434E+02  0.4616E+03  0.4615E+03
     -1.053  0.4629E+02  0.4681E+02  0.4640E+03  0.4639E+03
     -1.001  0.5139E+02  0.5236E+02  0.4667E+03  0.4667E+03
     -0.948  0.2631E+02  0.2539E+02  0.4681E+03  0.4680E+03
     -0.895  0.5160E+02  0.4911E+02  0.4708E+03  0.4706E+03
     -0.843  0.8199E+02  0.8100E+02  0.4751E+03  0.4749E+03
     -0.790  0.4923E+02  0.5100E+02  0.4777E+03  0.4776E+03
     -0.737  0.3876E+02  0.3892E+02  0.4798E+03  0.4796E+03
     -0.685  0.8461E+02  0.8293E+02  0.4842E+03  0.4840E+03
     -0.632  0.5737E+02  0.6015E+02  0.4872E+03  0.4871E+03
     -0.579  0.3345E+02  0.3398E+02  0.4890E+03  0.4889E+03
     -0.527  0.1887E+02  0.1855E+02  0.4900E+03  0.4899E+03
     -0.474  0.2436E+02  0.2529E+02  0.4913E+03  0.4912E+03
     -0.422  0.2909E+02  0.2841E+02  0.4928E+03  0.4927E+03
     -0.369  0.4964E+02  0.4842E+02  0.4954E+03  0.4953E+03
     -0.316  0.7734E+02  0.7651E+02  0.4995E+03  0.4993E+03
     -0.264  0.6770E+02  0.6618E+02  0.5031E+03  0.5028E+03
     -0.211  0.8779E+02  0.8767E+02  0.5077E+03  0.5074E+03
     -0.158  0.1078E+03  0.1105E+03  0.5134E+03  0.5132E+03
     -0.106  0.1027E+03  0.9742E+02  0.5188E+03  0.5183E+03
     -0.053  0.1243E+03  0.1269E+03  0.5253E+03  0.5250E+03
     -0.000  0.9651E+02  0.9643E+02  0.5304E+03  0.5301E+03
      0.052  0.1428E+03  0.1445E+03  0.5379E+03  0.5377E+03
      0.105  0.1253E+03  0.1211E+03  0.5445E+03  0.5441E+03
      0.158  0.9415E+02  0.9638E+02  0.5495E+03  0.5492E+03
      0.210  0.8575E+02  0.8820E+02  0.5540E+03  0.5538E+03
      0.263  0.7922E+02  0.7660E+02  0.5581E+03  0.5578E+03
      0.315  0.9127E+02  0.9115E+02  0.5629E+03  0.5626E+03
      0.368  0.8024E+02  0.8339E+02  0.5672E+03  0.5670E+03
      0.421  0.1259E+03  0.1228E+03  0.5738E+03  0.5735E+03
      0.473  0.8041E+02  0.8156E+02  0.5780E+03  0.5778E+03
      0.526  0.9243E+02  0.9116E+02  0.5829E+03  0.5826E+03
      0.579  0.1348E+03  0.1373E+03  0.5900E+03  0.5898E+03
      0.631  0.1041E+03  0.1036E+03  0.5955E+03  0.5953E+03
      0.684  0.1570E+03  0.1520E+03  0.6037E+03  0.6033E+03
      0.737  0.1353E+03  0.1377E+03  0.6109E+03  0.6105E+03
      0.789  0.1422E+03  0.1429E+03  0.6183E+03  0.6180E+03
      0.842  0.8286E+02  0.8420E+02  0.6227E+03  0.6225E+03
      0.895  0.1143E+03  0.1143E+03  0.6287E+03  0.6285E+03
      0.947  0.1080E+03  0.1058E+03  0.6344E+03  0.6341E+03
      1.000  0.1160E+03  0.1185E+03  0.6405E+03  0.6403E+03
      1.052  0.1307E+03  0.1265E+03  0.6474E+03  0.6470E+03
      1.105  0.1768E+03  0.1792E+03  0.6567E+03  0.6564E+03
      1.158  0.1792E+03  0.1752E+03  0.6661E+03  0.6656E+03
      1.210  0.1807E+03  0.1803E+03  0.6757E+03  0.6751E+03
      1.263  0.1511E+03  0.1536E+03  0.6836E+03  0.6832E+03
      1.316  0.1924E+03  0.1882E+03  0.6937E+03  0.6931E+03
      1.368  0.1879E+03  0.1922E+03  0.7036E+03  0.7032E+03
      1.421  0.1406E+03  0.1424E+03  0.7110E+03  0.7107E+03
      1.474  0.1495E+03  0.1446E+03  0.7189E+03  0.7183E+03
      1.526  0.2034E+03  0.2062E+03  0.7296E+03  0.7292E+03
      1.579  0.1851E+03  0.1817E+03  0.7394E+03  0.7387E+03
      1.632  0.1957E+03  0.1959E+03  0.7497E+03  0.7491E+03
      1.684  0.1820E+03  0.1811E+03  0.7592E+03  0.7586E+03
      1.737  0.1878E+03  0.1918E+03  0.7691E+03  0.7687E+03
      1.790  0.1863E+03  0.1877E+03  0.7789E+03  0.7786E+03
      1.842  0.1660E+03  0.1651E+03  0.7877E+03  0.7873E+03
      1.895  0.1535E+03  0.1502E+03  0.7958E+03  0.7952E+03
      1.947  0.2206E+03  0.2162E+03  0.8074E+03  0.8066E+03
      2.000  0.1663E+03  0.1725E+03  0.8161E+03  0.8156E+03
      2.053  0.1814E+03  0.1770E+03  0.8257E+03  0.8249E+03
      2.105  0.1949E+03  0.1958E+03  0.8359E+03  0.8353E+03
      2.158  0.1937E+03  0.1970E+03  0.8461E+03  0.8456E+03
      2.211  0.1333E+03  0.1332E+03  0.8531E+03  0.8526E+03
      2.263  0.1792E+03  0.1786E+03  0.8626E+03  0.8620E+03
      2.316  0.1497E+03  0.1506E+03  0.8705E+03  0.8700E+03
      2.369  0.1696E+03  0.1695E+03  0.8794E+03  0.8789E+03
      2.421  0.1915E+03  0.1901E+03  0.8895E+03  0.8889E+03
      2.474  0.1164E+03  0.1201E+03  0.8956E+03  0.8952E+03
      2.527  0.1510E+03  0.1500E+03  0.9035E+03  0.9031E+03
      2.579  0.1228E+03  0.1249E+03  0.9100E+03  0.9097E+03
      2.632  0.1321E+03  0.1282E+03  0.9170E+03  0.9164E+03
      2.684  0.1361E+03  0.1378E+03  0.9241E+03  0.9237E+03
      2.737  0.1355E+03  0.1334E+03  0.9313E+03  0.9307E+03
      2.790  0.1482E+03  0.1503E+03  0.9391E+03  0.9386E+03
      2.842  0.1296E+03  0.1235E+03  0.9459E+03  0.9451E+03
      2.895  0.1470E+03  0.1486E+03  0.9536E+03  0.9529E+03
      2.948  0.1250E+03  0.1248E+03  0.9602E+03  0.9595E+03
      3.000  0.1044E+03  0.1039E+03  0.9657E+03  0.9650E+03
      3.053  0.1550E+03  0.1549E+03  0.9739E+03  0.9731E+03
      3.106  0.1142E+03  0.1194E+03  0.9799E+03  0.9794E+03
      3.158  0.9933E+02  0.9375E+02  0.9851E+03  0.9844E+03
      3.211  0.1095E+03  0.1098E+03  0.9909E+03  0.9901E+03
      3.264  0.1060E+03  0.1099E+03  0.9964E+03  0.9959E+03
      3.316  0.1049E+03  0.1011E+03  0.1002E+04  0.1001E+04
      3.369  0.1142E+03  0.1175E+03  0.1008E+04  0.1007E+04
      3.421  0.6564E+02  0.6876E+02  0.1011E+04  0.1011E+04
      3.474  0.9514E+02  0.8475E+02  0.1016E+04  0.1016E+04
      3.527  0.1079E+03  0.1168E+03  0.1022E+04  0.1022E+04
      3.579  0.8895E+02  0.7779E+02  0.1027E+04  0.1026E+04
      3.632  0.1053E+03  0.1133E+03  0.1032E+04  0.1032E+04
      3.685  0.4917E+02  0.5790E+02  0.1035E+04  0.1035E+04
      3.737  0.5580E+02  0.5305E+02  0.1038E+04  0.1038E+04
      3.790  0.5055E+02  0.4846E+02  0.1041E+04  0.1040E+04
      3.843  0.4008E+02  0.4551E+02  0.1043E+04  0.1043E+04
      3.895  0.4246E+02  0.3798E+02  0.1045E+04  0.1045E+04
      3.948  0.6478E+02  0.5907E+02  0.1048E+04  0.1048E+04
      4.001  0.8668E+02  0.7892E+02  0.1053E+04  0.1052E+04
      4.053  0.1023E+03  0.9317E+02  0.1058E+04  0.1057E+04
      4.106  0.1203E+03  0.1319E+03  0.1065E+04  0.1064E+04
      4.159  0.8385E+02  0.8649E+02  0.1069E+04  0.1068E+04
      4.211  0.7893E+02  0.7218E+02  0.1073E+04  0.1072E+04
      4.264  0.1064E+03  0.1118E+03  0.1079E+04  0.1078E+04
      4.316  0.8874E+02  0.8343E+02  0.1083E+04  0.1082E+04
      4.369  0.1400E+03  0.1415E+03  0.1091E+04  0.1090E+04
      4.422  0.1057E+03  0.1098E+03  0.1096E+04  0.1095E+04
      4.474  0.1115E+03  0.1125E+03  0.1102E+04  0.1101E+04
      4.527  0.1154E+03  0.1180E+03  0.1108E+04  0.1108E+04
      4.580  0.7882E+02  0.7638E+02  0.1112E+04  0.1112E+04
      4.632  0.1069E+03  0.1071E+03  0.1118E+04  0.1117E+04
      4.685  0.1080E+03  0.1139E+03  0.1124E+04  0.1123E+04
      4.738  0.1161E+03  0.1134E+03  0.1130E+04  0.1129E+04
      4.790  0.1107E+03  0.1082E+03  0.1136E+04  0.1135E+04
      4.843  0.1118E+03  0.1110E+03  0.1142E+04  0.1141E+04
      4.896  0.1367E+03  0.1407E+03  0.1149E+04  0.1148E+04
      4.948  0.1118E+03  0.1072E+03  0.1155E+04  0.1154E+04
      5.001  0.1261E+03  0.1312E+03  0.1161E+04  0.1161E+04
      5.053  0.1255E+03  0.1226E+03  0.1168E+04  0.1167E+04
      5.106  0.1294E+03  0.1298E+03  0.1175E+04  0.1174E+04
      5.159  0.9221E+02  0.9626E+02  0.1180E+04  0.1179E+04
      5.211  0.1237E+03  0.1237E+03  0.1186E+04  0.1186E+04
      5.264  0.1065E+03  0.1054E+03  0.1192E+04  0.1191E+04
      5.317  0.1057E+03  0.1005E+03  0.1197E+04  0.1196E+04
      5.369  0.1291E+03  0.1348E+03  0.1204E+04  0.1204E+04
      5.422  0.1315E+03  0.1282E+03  0.1211E+04  0.1210E+04
      5.475  0.1308E+03  0.1341E+03  0.1218E+04  0.1217E+04
      5.527  0.1627E+03  0.1572E+03  0.1226E+04  0.1226E+04
      5.580  0.1635E+03  0.1681E+03  0.1235E+04  0.1234E+04
      5.633  0.1322E+03  0.1356E+03  0.1242E+04  0.1242E+04
      5.685  0.1063E+03  0.1064E+03  0.1248E+04  0.1247E+04
      5.738  0.1252E+03  0.1242E+03  0.1254E+04  0.1254E+04
      5.791  0.1069E+03  0.1046E+03  0.1260E+04  0.1259E+04
      5.843  0.1303E+03  0.1337E+03  0.1267E+04  0.1266E+04
      5.896  0.9201E+02  0.9046E+02  0.1272E+04  0.1271E+04
      5.948  0.9052E+01  0.1775E+02  0.1272E+04  0.1272E+04
      6.001  0.0000E+00  0.0000E+00  0.1272E+04  0.1272E+04
      6.054  0.0000E+00  0.0000E+00  0.1272E+04  0.1272E+04
      6.106  0.0000E+00  0.0000E+00  0.1272E+04  0.1272E+04
      6.159  0.0000E+00  0.0000E+00  0.1272E+04  0.1272E+04
      6.212  0.0000E+00  0.0000E+00  0.1272E+04  0.1272E+04
      6.264  0.0000E+00  0.0000E+00  0.1272E+04  0.1272E+04
      6.317  0.0000E+00  0.0000E+00  0.1272E+04  0.1272E+04
      6.370  0.0000E+00  0.0000E+00  0.1272E+04  0.1272E+04
      6.422  0.0000E+00  0.0000E+00  0.1272E+04  0.1272E+04
      6.475  0.0000E+00  0.0000E+00  0.1272E+04  0.1272E+04
      6.528  0.0000E+00  0.0000E+00  0.1272E+04  0.1272E+04
      6.580  0.0000E+00  0.0000E+00  0.1272E+04  0.1272E+04
      6.633  0.0000E+00  0.0000E+00  0.1272E+04  0.1272E+04
