 vasp.6.4.3 19Mar24 (build Oct 22 2024 11:23:12) complex                        
  
 executed on             LinuxIFC date 2025.04.30  09:36:24
 running   16 mpi-ranks, on    1 nodes
 distrk:  each k-point on   16 cores,    1 groups
 distr:  one band on NCORE=  16 cores,    1 groups


--------------------------------------------------------------------------------------------------------


 INCAR:
   SYSTEM = Si114 and Ge011 interface calculation
   ISTART = 0
   ICHARG = 2
   LWAVE = .FALSE.
   LREAL = AUTO
   ENCUT = 700
   ENAUG = 900
   ADDGRID = .TRUE.
   LMAXMIX = 6
   LASPH = .TRUE.
   LMIXTAU = .TRUE.
   NCORE = 16
   NELM = 100
   NBANDS = 231
   EDIFF = 1d-7
   AMIX = 0.6
   ISMEAR = 0
   SIGMA = 0.01
   NELECT = 384
   ISPIN = 2
   NUPDOWN = 1
   LVTOT = .FALSE.
   LVHAR = .TRUE.

 POTCAR:    PAW_PBE Si 05Jan2001                  
 POTCAR:    PAW_PBE Ge 05Jan2001                  
 -----------------------------------------------------------------------------
|                                                                             |
|           W    W    AA    RRRRR   N    N  II  N    N   GGGG   !!!           |
|           W    W   A  A   R    R  NN   N  II  NN   N  G    G  !!!           |
|           W    W  A    A  R    R  N N  N  II  N N  N  G       !!!           |
|           W WW W  AAAAAA  RRRRR   N  N N  II  N  N N  G  GGG   !            |
|           WW  WW  A    A  R   R   N   NN  II  N   NN  G    G                |
|           W    W  A    A  R    R  N    N  II  N    N   GGGG   !!!           |
|                                                                             |
|     You use a magnetic or noncollinear calculation, but did not specify     |
|     the initial magnetic moment with the MAGMOM tag. Note that a            |
|     default of 0.01 will be used for all atoms. This ferromagnetic          |
|     setup may break the symmetry of the crystal, in particular it may       |
|     rule out finding an antiferromagnetic solution. Thence, we              |
|     recommend setting the initial magnetic moment manually or verifying     |
|     carefully that this magnetic setup is desired.                          |
|                                                                             |
 -----------------------------------------------------------------------------

 -----------------------------------------------------------------------------
|                                                                             |
|           W    W    AA    RRRRR   N    N  II  N    N   GGGG   !!!           |
|           W    W   A  A   R    R  NN   N  II  NN   N  G    G  !!!           |
|           W    W  A    A  R    R  N N  N  II  N N  N  G       !!!           |
|           W WW W  AAAAAA  RRRRR   N  N N  II  N  N N  G  GGG   !            |
|           WW  WW  A    A  R   R   N   NN  II  N   NN  G    G                |
|           W    W  A    A  R    R  N    N  II  N    N   GGGG   !!!           |
|                                                                             |
|     For optimal performance we recommend to set                             |
|       NCORE = 2 up to number-of-cores-per-socket                            |
|     NCORE specifies how many cores store one orbital (NPAR=cpu/NCORE).      |
|     This setting can greatly improve the performance of VASP for DFT.       |
|     The default, NCORE=1 might be grossly inefficient on modern             |
|     multi-core architectures or massively parallel machines. Do your        |
|     own testing! More info at https://www.vasp.at/wiki/index.php/NCORE      |
|     Unfortunately you need to use the default for GW and RPA                |
|     calculations (for HF NCORE is supported but not extensively tested      |
|     yet).                                                                   |
|                                                                             |
 -----------------------------------------------------------------------------

 POTCAR:    PAW_PBE Si 05Jan2001                  
   VRHFIN =Si: s2p2                                                                                 
   LEXCH  = PE                                                                                      
   EATOM  =   103.0669 eV,    7.5752 Ry                                                             
                                                                                                    
   TITEL  = PAW_PBE Si 05Jan2001                                                                    
   LULTRA =        F    use ultrasoft PP ?                                                          
   IUNSCR =        1    unscreen: 0-lin 1-nonlin 2-no                                               
   RPACOR =    1.500    partial core radius                                                         
   POMASS =   28.085; ZVAL   =    4.000    mass and valenz                                          
   RCORE  =    1.900    outmost cutoff radius                                                       
   RWIGS  =    2.480; RWIGS  =    1.312    wigner-seitz radius (au A)                               
   ENMAX  =  245.345; ENMIN  =  184.009 eV                                                          
   ICORE  =        2    local potential                                                             
   LCOR   =        T    correct aug charges                                                         
   LPAW   =        T    paw PP                                                                      
   EAUG   =  322.069                                                                                
   DEXC   =    0.000                                                                                
   RMAX   =    1.950    core radius for proj-oper                                                   
   RAUG   =    1.300    factor for augmentation sphere                                              
   RDEP   =    1.993    radius for radial grids                                                     
   RDEPT  =    1.837    core radius for aug-charge                                                  
                                                                                                    
   Atomic configuration                                                                             
    6 entries                                                                                       
     n  l   j            E        occ.                                                              
     1  0  0.50     -1785.8828   2.0000                                                             
     2  0  0.50      -139.4969   2.0000                                                             
     2  1  1.50       -95.5546   6.0000                                                             
     3  0  0.50       -10.8127   2.0000                                                             
     3  1  0.50        -4.0811   2.0000                                                             
     3  2  1.50        -4.0817   0.0000                                                             
   Description                                                                                      
     l       E           TYP  RCUT    TYP  RCUT                                                     
     0    -10.8127223     23  1.900                                                                 
     0     -7.6451159     23  1.900                                                                 
     1     -4.0811372     23  1.900                                                                 
     1      2.4879257     23  1.900                                                                 
     2     -4.0817478      7  1.900                                                                 
  local pseudopotential read in
  partial core-charges read in
  partial kinetic energy density read in
  atomic valenz-charges read in
  non local Contribution for L=           0  read in
    real space projection operators read in
  non local Contribution for L=           0  read in
    real space projection operators read in
  non local Contribution for L=           1  read in
    real space projection operators read in
  non local Contribution for L=           1  read in
    real space projection operators read in
    PAW grid and wavefunctions read in
 
   number of l-projection  operators is LMAX  =           4
   number of lm-projection operators is LMMAX =           8
 
 POTCAR:    PAW_PBE Ge 05Jan2001                  
   VRHFIN =Ge: s2p2                                                                                 
   LEXCH  = PE                                                                                      
   EATOM  =   104.9960 eV,    7.7170 Ry                                                             
                                                                                                    
   TITEL  = PAW_PBE Ge 05Jan2001                                                                    
   LULTRA =        F    use ultrasoft PP ?                                                          
   IUNSCR =        1    unscreen: 0-lin 1-nonlin 2-no                                               
   RPACOR =    2.170    partial core radius                                                         
   POMASS =   72.610; ZVAL   =    4.000    mass and valenz                                          
   RCORE  =    2.300    outmost cutoff radius                                                       
   RWIGS  =    2.300; RWIGS  =    1.217    wigner-seitz radius (au A)                               
   ENMAX  =  173.807; ENMIN  =  130.355 eV                                                          
   ICORE  =        3    local potential                                                             
   LCOR   =        T    correct aug charges                                                         
   LPAW   =        T    paw PP                                                                      
   EAUG   =  385.843                                                                                
   DEXC   =    0.000                                                                                
   RMAX   =    2.342    core radius for proj-oper                                                   
   RAUG   =    1.300    factor for augmentation sphere                                              
   RDEP   =    2.318    radius for radial grids                                                     
   RDEPT  =    2.103    core radius for aug-charge                                                  
                                                                                                    
   Atomic configuration                                                                             
   10 entries                                                                                       
     n  l   j            E        occ.                                                              
     1  0  0.50    -10959.8463   2.0000                                                             
     2  0  0.50     -1371.6056   2.0000                                                             
     2  1  1.50     -1198.4791   6.0000                                                             
     3  0  0.50      -168.4733   2.0000                                                             
     3  1  1.50      -115.6019   6.0000                                                             
     3  2  2.50       -29.3106  10.0000                                                             
     4  0  0.50       -11.7309   2.0000                                                             
     4  1  0.50        -3.8952   2.0000                                                             
     4  2  1.50        -4.0817   0.0000                                                             
     4  3  2.50        -4.0817   0.0000                                                             
   Description                                                                                      
     l       E           TYP  RCUT    TYP  RCUT                                                     
     0    -11.7309493     23  2.300                                                                 
     0     -7.4578696     23  2.300                                                                 
     1     -3.8952261     23  2.300                                                                 
     1      6.1178114     23  2.300                                                                 
     2     -4.0817478     23  2.300                                                                 
     3     -1.3605826      7  2.300                                                                 
  local pseudopotential read in
  partial core-charges read in
  partial kinetic energy density read in
  atomic valenz-charges read in
  non local Contribution for L=           0  read in
    real space projection operators read in
  non local Contribution for L=           0  read in
    real space projection operators read in
  non local Contribution for L=           1  read in
    real space projection operators read in
  non local Contribution for L=           1  read in
    real space projection operators read in
  non local Contribution for L=           2  read in
    real space projection operators read in
    PAW grid and wavefunctions read in
 
   number of l-projection  operators is LMAX  =           5
   number of lm-projection operators is LMMAX =          13
 
 Optimization of the real space projectors (new method)

 maximal supplied QI-value         = 19.84
 optimisation between [QCUT,QGAM] = [ 13.49, 26.99] = [ 50.98,203.92] Ry 
 Optimized for a Real-space Cutoff    1.07 Angstroem

   l    n(q)    QCUT    max X(q) W(low)/X(q) W(high)/X(q)  e(spline) 
   0      9    13.493   159.560    0.22E-03    0.15E-03    0.72E-07
   0      9    13.493   115.863    0.21E-03    0.15E-03    0.71E-07
   1      8    13.493    88.339    0.15E-03    0.11E-03    0.13E-06
   1      8    13.493    48.592    0.15E-03    0.10E-03    0.13E-06
 Optimization of the real space projectors (new method)

 maximal supplied QI-value         = 16.25
 optimisation between [QCUT,QGAM] = [ 13.49, 26.98] = [ 50.95,203.80] Ry 
 Optimized for a Real-space Cutoff    1.25 Angstroem

   l    n(q)    QCUT    max X(q) W(low)/X(q) W(high)/X(q)  e(spline) 
   0     10    13.489    65.336    0.91E-04    0.11E-03    0.34E-06
   0     10    13.489    52.220    0.89E-04    0.11E-03    0.34E-06
   1     10    13.489    36.409    0.22E-03    0.27E-03    0.14E-06
   1     10    13.489    21.334    0.21E-03    0.27E-03    0.14E-06
   2      9    13.489     4.673    0.11E-03    0.12E-03    0.19E-06
  PAW_PBE Si 05Jan2001                  :
 energy of atom  1       EATOM= -103.0669
 kinetic energy error for atom=    0.0003 (will be added to EATOM!!)
  PAW_PBE Ge 05Jan2001                  :
 energy of atom  2       EATOM= -104.9960
 kinetic energy error for atom=    0.0001 (will be added to EATOM!!)
 
 
 POSCAR: fcc Si+fcc Ge
  positions in direct lattice
  No initial velocities read in


 exchange-correlation table for PE
   RHO(1)=    0.500       N(1)  =     2000
   RHO(2)=  100.500       N(2)  =     4000
 


--------------------------------------------------------------------------------------------------------


 ion  position               nearest neighbor table
   1  0.000  0.000  0.000-  66 2.31  21 2.37  15 2.37
   2  0.750  0.611  0.040-  13 2.37  16 2.37  22 2.37  60 2.49
   3  0.500  0.222  0.081-  17 2.37  23 2.37  14 2.37
   4  0.250  0.833  0.121-  19 2.37  18 2.37  24 2.37  15 2.37
   5  0.000  0.444  0.161-  20 2.37  16 2.37  37 2.49
   6  0.750  0.056  0.201-  49 2.20  61 2.34  17 2.37  21 2.37  31 2.69
   7  0.500  0.000  0.000-  84 2.31  21 2.37  15 2.37
   8  0.250  0.611  0.040-  19 2.37  16 2.37  22 2.37  42 2.49
   9  0.000  0.222  0.081-  17 2.37  23 2.37  20 2.37
  10  0.750  0.833  0.121-  13 2.37  18 2.37  24 2.37  21 2.37
  11  0.500  0.444  0.161-  14 2.37  22 2.37  55 2.49
  12  0.250  0.056  0.201-  31 2.20  79 2.34  23 2.37  15 2.37  49 2.69
  13  0.750  0.750  0.000-  96 2.19  48 2.31  10 2.37   2 2.37  78 2.68
  14  0.500  0.361  0.040-  11 2.37   3 2.37  90 2.47
  15  0.250  0.972  0.081-   4 2.37  12 2.37   7 2.37   1 2.37
  16  0.000  0.583  0.121-   2 2.37   8 2.37   5 2.37
  17  0.750  0.194  0.161-   6 2.37   3 2.37   9 2.37  67 2.47
  18  0.500  0.806  0.201-  43 2.34  10 2.37   4 2.37
  19  0.250  0.750  0.000-  78 2.19  30 2.31   4 2.37   8 2.37  96 2.68
  20  0.000  0.361  0.040-   5 2.37   9 2.37  72 2.47
  21  0.750  0.972  0.081-  10 2.37   6 2.37   7 2.37   1 2.37
  22  0.500  0.583  0.121-   2 2.37   8 2.37  11 2.37
  23  0.250  0.194  0.161-  12 2.37   9 2.37   3 2.37  85 2.47
  24  0.000  0.806  0.201-  25 2.34  10 2.37   4 2.37
  25  0.039  0.693  0.289-  24 2.34  73 2.37  91 2.37  62 2.43
  26  0.289  0.527  0.413-  74 2.37  92 2.37  91 2.43  63 2.43
  27  0.539  0.360  0.538-  75 2.37  93 2.37  64 2.43  92 2.43
  28  0.789  0.193  0.663-  76 2.37  94 2.37  93 2.43  65 2.43
  29  0.039  0.027  0.788-  77 2.37  95 2.37  94 2.43  66 2.43
  30  0.289  0.860  0.913-  19 2.31  78 2.37  96 2.37  95 2.43
  31  0.039  0.027  0.289-  12 2.20  61 2.37  79 2.37  68 2.43   6 2.69
  32  0.289  0.860  0.413-  62 2.37  80 2.37  79 2.43  69 2.43
  33  0.539  0.693  0.538-  63 2.37  81 2.37  70 2.43  80 2.43
  34  0.789  0.527  0.663-  64 2.37  82 2.37  81 2.43  71 2.43
  35  0.039  0.360  0.788-  65 2.37  83 2.37  82 2.43  72 2.43
  36  0.289  0.193  0.913-  66 2.37  84 2.37  83 2.43
  37  0.039  0.360  0.289-  67 2.37  85 2.37  74 2.43   5 2.49
  38  0.289  0.193  0.413-  68 2.37  86 2.37  85 2.43  75 2.43
  39  0.539  0.027  0.538-  69 2.37  87 2.37  76 2.43  86 2.43
  40  0.789  0.860  0.663-  70 2.37  88 2.37  87 2.43  77 2.43
  41  0.039  0.693  0.788-  71 2.37  89 2.37  88 2.43  78 2.43
  42  0.289  0.527  0.913-  72 2.37  90 2.37  89 2.43   8 2.49
  43  0.539  0.693  0.289-  18 2.34  73 2.37  91 2.37  80 2.43
  44  0.789  0.527  0.413-  74 2.37  92 2.37  73 2.43  81 2.43
  45  0.039  0.360  0.538-  75 2.37  93 2.37  82 2.43  74 2.43
  46  0.289  0.193  0.663-  76 2.37  94 2.37  83 2.43  75 2.43
  47  0.539  0.027  0.788-  77 2.37  95 2.37  76 2.43  84 2.43
  48  0.789  0.860  0.913-  13 2.31  78 2.37  96 2.37  77 2.43
  49  0.539  0.027  0.289-   6 2.20  61 2.37  79 2.37  86 2.43  12 2.69
  50  0.789  0.860  0.413-  62 2.37  80 2.37  61 2.43  87 2.43
  51  0.039  0.693  0.538-  63 2.37  81 2.37  88 2.43  62 2.43
  52  0.289  0.527  0.663-  64 2.37  82 2.37  63 2.43  89 2.43
  53  0.539  0.360  0.788-  65 2.37  83 2.37  64 2.43  90 2.43
  54  0.789  0.193  0.913-  66 2.37  84 2.37  65 2.43
  55  0.539  0.360  0.289-  67 2.37  85 2.37  92 2.43  11 2.49
  56  0.789  0.193  0.413-  68 2.37  86 2.37  67 2.43  93 2.43
  57  0.039  0.027  0.538-  69 2.37  87 2.37  94 2.43  68 2.43
  58  0.289  0.860  0.663-  70 2.37  88 2.37  69 2.43  95 2.43
  59  0.539  0.693  0.788-  71 2.37  89 2.37  70 2.43  96 2.43
  60  0.789  0.527  0.913-  72 2.37  90 2.37  71 2.43   2 2.49
  61  0.789  0.943  0.289-   6 2.34  31 2.37  49 2.37  50 2.43
  62  0.039  0.777  0.413-  32 2.37  50 2.37  25 2.43  51 2.43
  63  0.289  0.610  0.538-  33 2.37  51 2.37  52 2.43  26 2.43
  64  0.539  0.443  0.663-  34 2.37  52 2.37  27 2.43  53 2.43
  65  0.789  0.277  0.788-  35 2.37  53 2.37  28 2.43  54 2.43
  66  0.039  0.110  0.913-   1 2.31  36 2.37  54 2.37  29 2.43
  67  0.789  0.277  0.289-  37 2.37  55 2.37  56 2.43  17 2.47
  68  0.039  0.110  0.413-  38 2.37  56 2.37  31 2.43  57 2.43
  69  0.289  0.943  0.538-  39 2.37  57 2.37  58 2.43  32 2.43
  70  0.539  0.777  0.663-  40 2.37  58 2.37  33 2.43  59 2.43
  71  0.789  0.610  0.788-  41 2.37  59 2.37  34 2.43  60 2.43
  72  0.039  0.443  0.913-  42 2.37  60 2.37  35 2.43  20 2.47
  73  0.789  0.610  0.289-  25 2.37  43 2.37  44 2.43
  74  0.039  0.443  0.413-  26 2.37  44 2.37  37 2.43  45 2.43
  75  0.289  0.277  0.538-  27 2.37  45 2.37  46 2.43  38 2.43
  76  0.539  0.110  0.663-  28 2.37  46 2.37  39 2.43  47 2.43
  77  0.789  0.943  0.788-  29 2.37  47 2.37  40 2.43  48 2.43
  78  0.039  0.777  0.913-  19 2.19  30 2.37  48 2.37  41 2.43  13 2.68
  79  0.289  0.943  0.289-  12 2.34  31 2.37  49 2.37  32 2.43
  80  0.539  0.777  0.413-  32 2.37  50 2.37  43 2.43  33 2.43
  81  0.789  0.610  0.538-  33 2.37  51 2.37  34 2.43  44 2.43
  82  0.039  0.443  0.663-  34 2.37  52 2.37  45 2.43  35 2.43
  83  0.289  0.277  0.788-  35 2.37  53 2.37  46 2.43  36 2.43
  84  0.539  0.110  0.913-   7 2.31  36 2.37  54 2.37  47 2.43
  85  0.289  0.277  0.289-  37 2.37  55 2.37  38 2.43  23 2.47
  86  0.539  0.110  0.413-  38 2.37  56 2.37  49 2.43  39 2.43
  87  0.789  0.943  0.538-  39 2.37  57 2.37  40 2.43  50 2.43
  88  0.039  0.777  0.663-  40 2.37  58 2.37  51 2.43  41 2.43
  89  0.289  0.610  0.788-  41 2.37  59 2.37  52 2.43  42 2.43
  90  0.539  0.443  0.913-  42 2.37  60 2.37  53 2.43  14 2.47
  91  0.289  0.610  0.289-  25 2.37  43 2.37  26 2.43
  92  0.539  0.443  0.413-  26 2.37  44 2.37  55 2.43  27 2.43
  93  0.789  0.277  0.538-  27 2.37  45 2.37  28 2.43  56 2.43
  94  0.039  0.110  0.663-  28 2.37  46 2.37  29 2.43  57 2.43
  95  0.289  0.943  0.788-  29 2.37  47 2.37  58 2.43  30 2.43
  96  0.539  0.777  0.913-  13 2.19  30 2.37  48 2.37  59 2.43  19 2.68
 
  LATTYP: Found a simple orthorhombic cell.
 ALAT       =     7.7498903220
 B/A-ratio  =     2.0690204964
 C/A-ratio  =     2.1213203435
  
  Lattice vectors:
  
 A1 = (  -7.7498903220,   0.0000000000,   0.0000000000)
 A2 = (   0.0000000000,   0.0000000000,  16.0346819210)
 A3 = (   0.0000000000,  16.4400000000,   0.0000000000)


Analysis of symmetry for initial positions (statically):
=====================================================================
 Subroutine PRICEL returns following result:
 
  LATTYP: Found a simple orthorhombic cell.
 ALAT       =     3.8749451610
 B/A-ratio  =     4.1380409928
 C/A-ratio  =     4.2426406870
  
  Lattice vectors:
  
 A1 = (  -3.8749451610,   0.0000000000,   0.0000000000)
 A2 = (   0.0000000000,   0.0000000000,  16.0346819210)
 A3 = (   0.0000000000,  16.4400000000,   0.0000000000)
 
   2 primitive cells build up your supercell.
 

 Routine SETGRP: Setting up the symmetry group for a 
 simple orthorhombic supercell.


 Subroutine GETGRP returns: Found  1 space group operations
 (whereof  1 operations were pure point group operations)
 out of a pool of  8 trial point group operations.


The static configuration has the point symmetry C_1 .


Analysis of symmetry for dynamics (positions and initial velocities):
=====================================================================
 Subroutine PRICEL returns following result:
 
  LATTYP: Found a simple orthorhombic cell.
 ALAT       =     3.8749451610
 B/A-ratio  =     4.1380409928
 C/A-ratio  =     4.2426406870
  
  Lattice vectors:
  
 A1 = (  -3.8749451610,   0.0000000000,   0.0000000000)
 A2 = (   0.0000000000,   0.0000000000,  16.0346819210)
 A3 = (   0.0000000000,  16.4400000000,   0.0000000000)
 
   2 primitive cells build up your supercell.
 

 Routine SETGRP: Setting up the symmetry group for a 
 simple orthorhombic supercell.


 Subroutine GETGRP returns: Found  1 space group operations
 (whereof  1 operations were pure point group operations)
 out of a pool of  8 trial point group operations.


The dynamic configuration has the point symmetry C_1 .


Analysis of structural, dynamic, and magnetic symmetry:
=====================================================================
 Subroutine PRICEL returns following result:
 
  LATTYP: Found a simple orthorhombic cell.
 ALAT       =     3.8749451610
 B/A-ratio  =     4.1380409928
 C/A-ratio  =     4.2426406870
  
  Lattice vectors:
  
 A1 = (  -3.8749451610,   0.0000000000,   0.0000000000)
 A2 = (   0.0000000000,   0.0000000000,  16.0346819210)
 A3 = (   0.0000000000,  16.4400000000,   0.0000000000)
 
   2 primitive cells build up your supercell.
 

 Routine SETGRP: Setting up the symmetry group for a 
 simple orthorhombic supercell.


 Subroutine GETGRP returns: Found  1 space group operations
 (whereof  1 operations were pure point group operations)
 out of a pool of  8 trial point group operations.


The overall configuration has the point symmetry C_1 .


 Subroutine INISYM returns: Found  1 space group operations
 (whereof  1 operations are pure point group operations),
 and found     2 'primitive' translations


----------------------------------------------------------------------------------------

                                     Primitive cell                                     

  volume of cell :    1021.4750

  direct lattice vectors                    reciprocal lattice vectors
    -3.874945161  0.000000000  0.000000000    -0.258068168  0.000000000  0.000000000
     0.000000000  0.000000000 16.034681921     0.000000000  0.000000000  0.062364817
     0.000000000 16.440000000  0.000000000     0.000000000  0.060827251  0.000000000

  length of vectors
     3.874945161 16.034681921 16.440000000     0.258068168  0.062364817  0.060827251

  position of ions in fractional coordinates (direct lattice)
     0.000000000  0.000000000  0.000000000
     0.500000000  0.040276707  0.611111111
     0.000000000  0.080553415  0.222222222
     0.500000000  0.120830122  0.833333333
     0.000000000  0.161106830  0.444444444
     0.500000000  0.201383537  0.055555556
     0.500000000  0.000000000  0.750000000
     0.000000000  0.040276707  0.361111111
     0.500000000  0.080553415  0.972222222
     0.000000000  0.120830122  0.583333333
     0.500000000  0.161106830  0.194444444
     0.000000000  0.201383537  0.805555556
     0.921052632  0.288694281  0.693251534
     0.421052632  0.413493276  0.526584867
     0.921052632  0.538292271  0.359918200
     0.421052632  0.663091266  0.193251534
     0.921052632  0.787890261  0.026584867
     0.421052632  0.912689257  0.859918200
     0.921052632  0.288694281  0.026584867
     0.421052632  0.413493276  0.859918200
     0.921052632  0.538292271  0.693251534
     0.421052632  0.663091266  0.526584867
     0.921052632  0.787890261  0.359918200
     0.421052632  0.912689257  0.193251534
     0.921052632  0.288694281  0.359918200
     0.421052632  0.413493276  0.193251534
     0.921052632  0.538292271  0.026584867
     0.421052632  0.663091266  0.859918200
     0.921052632  0.787890261  0.693251534
     0.421052632  0.912689257  0.526584867
     0.421052632  0.288694281  0.943251534
     0.921052632  0.413493276  0.776584867
     0.421052632  0.538292271  0.609918200
     0.921052632  0.663091266  0.443251534
     0.421052632  0.787890261  0.276584867
     0.921052632  0.912689257  0.109918200
     0.421052632  0.288694281  0.276584867
     0.921052632  0.413493276  0.109918200
     0.421052632  0.538292271  0.943251534
     0.921052632  0.663091266  0.776584867
     0.421052632  0.787890261  0.609918200
     0.921052632  0.912689257  0.443251534
     0.421052632  0.288694281  0.609918200
     0.921052632  0.413493276  0.443251534
     0.421052632  0.538292271  0.276584867
     0.921052632  0.663091266  0.109918200
     0.421052632  0.787890261  0.943251534
     0.921052632  0.912689257  0.776584867

  ion indices of the primitive-cell ions
   primitive index   ion index
                 1           1
                 2           2
                 3           9
                 4           4
                 5           5
                 6           6
                 7          13
                 8          20
                 9          15
                10          16
                11          17
                12          24
                13          25
                14          44
                15          45
                16          28
                17          29
                18          48
                19          31
                20          50
                21          51
                22          34
                23          35
                24          54
                25          37
                26          56
                27          57
                28          40
                29          41
                30          60
                31          61
                32          62
                33          81
                34          82
                35          65
                36          66
                37          67
                38          68
                39          87
                40          88
                41          71
                42          72
                43          73
                44          74
                45          93
                46          94
                47          77
                48          78

----------------------------------------------------------------------------------------

 
 
 KPOINTS: Automatic KPOINTS generated             

Automatic generation of k-mesh.
 Grid dimensions read from file:
 generate k-points for:    4    2    2

 Generating k-lattice:

  Cartesian coordinates                     Fractional coordinates (reciprocal lattice)
     0.032258521  0.000000000  0.000000000     0.250000000  0.000000000  0.000000000
     0.000000000  0.030413625  0.000000000     0.000000000  0.500000000  0.000000000
     0.000000000  0.000000000  0.031182408     0.000000000  0.000000000  0.500000000

  Length of vectors
     0.032258521  0.030413625  0.031182408

  Shift w.r.t. Gamma in fractional coordinates (k-lattice)
     0.000000000  0.000000000  0.000000000

 
 Subroutine IBZKPT returns following result:
 ===========================================
 
 Found     12 irreducible k-points:
 
 Following reciprocal coordinates:
            Coordinates               Weight
  0.000000  0.000000  0.000000      1.000000
  0.250000  0.000000  0.000000      2.000000
  0.500000  0.000000  0.000000      1.000000
  0.000000  0.500000  0.000000      1.000000
  0.250000  0.500000  0.000000      2.000000
  0.500000  0.500000  0.000000      1.000000
  0.000000  0.000000  0.500000      1.000000
  0.250000  0.000000  0.500000      2.000000
  0.500000  0.000000  0.500000      1.000000
  0.000000  0.500000  0.500000      1.000000
  0.250000  0.500000  0.500000      2.000000
  0.500000  0.500000  0.500000      1.000000
 
 Following cartesian coordinates:
            Coordinates               Weight
  0.000000  0.000000  0.000000      1.000000
  0.032259  0.000000  0.000000      2.000000
  0.064517  0.000000  0.000000      1.000000
  0.000000  0.030414  0.000000      1.000000
  0.032259  0.030414  0.000000      2.000000
  0.064517  0.030414  0.000000      1.000000
  0.000000  0.000000  0.031182      1.000000
  0.032259  0.000000  0.031182      2.000000
  0.064517  0.000000  0.031182      1.000000
  0.000000  0.030414  0.031182      1.000000
  0.032259  0.030414  0.031182      2.000000
  0.064517  0.030414  0.031182      1.000000
 


--------------------------------------------------------------------------------------------------------




 Dimension of arrays:
   k-points           NKPTS =     12   k-points in BZ     NKDIM =     12   number of bands    NBANDS=    231
   number of dos      NEDOS =    301   number of ions     NIONS =     96
   non local maximal  LDIM  =      5   non local SUM 2l+1 LMDIM =     13
   total plane-waves  NPLWV = 583200
   max r-space proj   IRMAX =   2363   max aug-charges    IRDMAX= 124308
   dimension x,y,z NGX =    50 NGY =  108 NGZ =  108
   dimension x,y,z NGXF=   100 NGYF=  216 NGZF=  216
   support grid    NGXF=   200 NGYF=  432 NGZF=  432
   ions per type =              24  72
   NGX,Y,Z   is equivalent  to a cutoff of  10.73, 10.92, 11.20 a.u.
   NGXF,Y,Z  is equivalent  to a cutoff of  21.45, 21.84, 22.39 a.u.

 SYSTEM =  Si114 and Ge011 interface calculation   
 POSCAR =  fcc Si+fcc Ge                           

 Startparameter for this run:
   NWRITE =      2    write-flag & timer
   PREC   = normal    normal or accurate (medium, high low for compatibility)
   ISTART =      0    job   : 0-new  1-cont  2-samecut
   ICHARG =      2    charge: 1-file 2-atom 10-const
   ISPIN  =      2    spin polarized calculation?
   LNONCOLLINEAR =      F non collinear calculations
   LSORBIT =      F    spin-orbit coupling
   INIWAV =      1    electr: 0-lowe 1-rand  2-diag
   LASPH  =      T    aspherical Exc in radial PAW
 Electronic Relaxation 1
   ENCUT  =  700.0 eV  51.45 Ry    7.17 a.u.  16.72 35.47 34.59*2*pi/ulx,y,z
   ENINI  =  700.0     initial cutoff
   ENAUG  =  900.0 eV  augmentation charge cutoff
   NELM   =    100;   NELMIN=  2; NELMDL= -5     # of ELM steps 
   EDIFF  = 0.1E-06   stopping-criterion for ELM
   LREAL  =      T    real-space projection
   NLSPLINE    = F    spline interpolate recip. space projectors
   LCOMPAT=      F    compatible to vasp.4.4
   GGA_COMPAT  = T    GGA compatible to vasp.4.4-vasp.4.6
   LMAXPAW     = -100 max onsite density
   LMAXMIX     =    6 max onsite mixed and CHGCAR
   VOSKOWN=      0    Vosko Wilk Nusair interpolation
   ROPT   =   -0.00050  -0.00050
 Ionic relaxation
   EDIFFG = 0.1E-05   stopping-criterion for IOM
   NSW    =      0    number of steps for IOM
   NBLOCK =      1;   KBLOCK =      1    inner block; outer block 
   IBRION =     -1    ionic relax: 0-MD 1-quasi-New 2-CG
   NFREE  =      0    steps in history (QN), initial steepest desc. (CG)
   ISIF   =      2    stress and relaxation
   IWAVPR =     10    prediction:  0-non 1-charg 2-wave 3-comb
   ISYM   =      2    0-nonsym 1-usesym 2-fastsym
   LCORR  =      T    Harris-Foulkes like correction to forces

   POTIM  = 0.5000    time-step for ionic-motion
   TEIN   =    0.0    initial temperature
   TEBEG  =    0.0;   TEEND  =   0.0 temperature during run
   SMASS  =  -3.00    Nose mass-parameter (am)
   estimated Nose-frequenzy (Omega)   =  0.10E-29 period in steps = 0.13E+47 mass=  -0.137E-26a.u.
   SCALEE = 1.0000    scale energy and forces
   NPACO  =    256;   APACO  = 10.0  distance and # of slots for P.C.
   PSTRESS=    0.0 pullay stress

  Mass of Ions in am
   POMASS =  28.09 72.61
  Ionic Valenz
   ZVAL   =   4.00  4.00
  Atomic Wigner-Seitz radii
   RWIGS  =  -1.00 -1.00
  virtual crystal weights 
   VCA    =   1.00  1.00
   NELECT =     384.0000    total number of electrons
   NUPDOWN=       1.0000    fix difference up-down

 DOS related values:
   EMIN   =  10.00;   EMAX   =-10.00  energy-range for DOS
   EFERMI =   0.00;   METHOD = LEGACY      
   ISMEAR =     0;   SIGMA  =   0.01  broadening in eV -4-tet -1-fermi 0-gaus

 Electronic relaxation 2 (details)
   IALGO  =     38    algorithm
   LDIAG  =      T    sub-space diagonalisation (order eigenvalues)
   LSUBROT=      F    optimize rotation matrix (better conditioning)
   TURBO    =      0    0=normal 1=particle mesh
   IRESTART =      0    0=no restart 2=restart with 2 vectors
   NREBOOT  =      0    no. of reboots
   NMIN     =      0    reboot dimension
   EREF     =   0.00    reference energy to select bands
   IMIX   =      4    mixing-type and parameters
     AMIX     =   0.60;   BMIX     =  1.00
     AMIX_MAG =   2.40;   BMIX_MAG =  1.00
     AMIN     =   0.10
     WC   =   100.;   INIMIX=   1;  MIXPRE=   1;  MAXMIX= -45

 Intra band minimization:
   WEIMIN = 0.0000     energy-eigenvalue tresh-hold
   EBREAK =  0.11E-09  absolut break condition
   DEPER  =   0.30     relativ break condition  

   TIME   =   0.40     timestep for ELM

  volume/ion in A,a.u.               =      21.28       143.61
  Fermi-wavevector in a.u.,A,eV,Ry     =   0.937776  1.772141 11.965300  0.879425
  Thomas-Fermi vector in A             =   2.064922
 
 Write flags
   LWAVE        =      F    write WAVECAR
   LDOWNSAMPLE  =      F    k-point downsampling of WAVECAR
   LCHARG       =      T    write CHGCAR
   LVTOT        =      F    write LOCPOT, total local potential
   LVHAR        =      T    write LOCPOT, Hartree potential only
   WRT_POTENTIAL=  hartree ionic  ! write potential to hdf5 file
   LELF         =      F    write electronic localiz. function (ELF)
   LORBIT       =      0    0 simple, 1 ext, 2 COOP (PROOUT), +10 PAW based schemes


 Dipole corrections
   LMONO      =      F    monopole corrections only (constant potential shift)
   LDIPOL     =      F    correct potential (dipole corrections)
   IDIPOL     =      0    1-x, 2-y, 3-z, 4-all directions 
   EPSILON    =  1.0000000 bulk dielectric constant
   LVACPOTAV  =      F  vacuum potentials using an averaging scheme for the charge density
   VACPOTFLAT =  0.1000000 required flatness to determine vacuum potential
 Exchange correlation treatment:
   GGA     = PE    functional components
   XC_C    = 1    coefficients multiplying the functional components
   LIBXC   =     F    Libxc                    
   VOSKOWN =     0    Vosko Wilk Nusair interpolation
   LHFCALC =     F    Hartree Fock is set to
   LHFONE  =     F    Hartree Fock one center treatment
   AEXX    =    0.0000 exact exchange contribution

 Parameters of functionals:
   PE:
     No parameter
 
 Van der Waals corrections
   IVDW    =     0    specifies the selected vdW correction

 Linear response parameters
   LEPSILON=     F    determine dielectric tensor
   LRPA    =     F    only Hartree local field effects (RPA)
   LNABLA  =     F    use nabla operator in PAW spheres
   LVEL    =     F    velocity operator in full k-point grid
   CSHIFT  =0.1000    complex shift for real part using Kramers Kronig
   OMEGAMAX=  -1.0    maximum frequency
   DEG_THRESHOLD= 0.2000000E-02 threshold for treating states as degnerate
   RTIME   =   -0.100 relaxation time in fs
  (WPLASMAI=    0.000 imaginary part of plasma frequency in eV, 0.658/RTIME)
   DFIELD  = 0.0000000 0.0000000 0.0000000 field for delta impulse in time
 
  Optional k-point grid parameters
   LKPOINTS_OPT  =     F    use optional k-point grid
   KPOINTS_OPT_MODE=     1    mode for optional k-point grid
 
 Orbital magnetization related:
   ORBITALMAG=     F  switch on orbital magnetization
   LCHIMAG   =     F  perturbation theory with respect to B field
   DQ        =  0.001000  dq finite difference perturbation B field
   LLRAUG    =     F  two centre corrections for induced B field
   LBONE     =     F  B-component reconstruction in AE one-centre
   LVGVCALC  =     T  calculate vGv susceptibility
   LVGVAPPL  =     F  apply vGv susceptibility instead of pGv for G=0

 Random number generation:
   RANDOM_GENERATOR = DEFAULT
   PCG_SEED         = not used


--------------------------------------------------------------------------------------------------------


 Static calculation
 charge density and potential will be updated during run
 spin polarized calculation
 Variant of blocked Davidson
 Davidson routine will perform the subspace rotation
 perform sub-space diagonalisation
    after iterative eigenvector-optimisation
 modified Broyden-mixing scheme, WC =      100.0
 initial mixing is a Kerker type mixing with AMIX =  0.6000 and BMIX =      1.0000
 Hartree-type preconditioning will be used
 using additional bands           39
 real space projection scheme for non local part
 use partial core corrections
 calculate Harris-corrections to forces 
   (improved forces if not selfconsistent)
 use gradient corrections 
 use of overlap-Matrix (Vanderbilt PP)
 Gauss-broadening in eV      SIGMA  =   0.01


--------------------------------------------------------------------------------------------------------


  energy-cutoff  :      700.00
  volume of cell :     2042.95
      direct lattice vectors                 reciprocal lattice vectors
     7.749890322  0.000000000  0.000000000     0.129034084  0.000000000  0.000000000
     0.000000000 16.440000000  0.000000000     0.000000000  0.060827251  0.000000000
     0.000000000  0.000000000 16.034681921     0.000000000  0.000000000  0.062364817

  length of vectors
     7.749890322 16.440000000 16.034681921     0.129034084  0.060827251  0.062364817


 
 k-points in units of 2pi/SCALE and weight: Automatic KPOINTS generated             
   0.00000000  0.00000000  0.00000000       0.062
   0.03225852  0.00000000  0.00000000       0.125
   0.06451704  0.00000000  0.00000000       0.062
   0.00000000  0.03041363  0.00000000       0.062
   0.03225852  0.03041363  0.00000000       0.125
   0.06451704  0.03041363  0.00000000       0.062
   0.00000000  0.00000000  0.03118241       0.062
   0.03225852  0.00000000  0.03118241       0.125
   0.06451704  0.00000000  0.03118241       0.062
   0.00000000  0.03041363  0.03118241       0.062
   0.03225852  0.03041363  0.03118241       0.125
   0.06451704  0.03041363  0.03118241       0.062
 
 k-points in reciprocal lattice and weights: Automatic KPOINTS generated             
   0.00000000  0.00000000  0.00000000       0.062
   0.25000000  0.00000000  0.00000000       0.125
   0.50000000  0.00000000  0.00000000       0.062
   0.00000000  0.50000000  0.00000000       0.062
   0.25000000  0.50000000  0.00000000       0.125
   0.50000000  0.50000000  0.00000000       0.062
   0.00000000  0.00000000  0.50000000       0.062
   0.25000000  0.00000000  0.50000000       0.125
   0.50000000  0.00000000  0.50000000       0.062
   0.00000000  0.50000000  0.50000000       0.062
   0.25000000  0.50000000  0.50000000       0.125
   0.50000000  0.50000000  0.50000000       0.062
 
 position of ions in fractional coordinates (direct lattice) 
   0.00000000  0.00000000  0.00000000
   0.75000000  0.61111111  0.04027671
   0.50000000  0.22222222  0.08055341
   0.25000000  0.83333333  0.12083012
   0.00000000  0.44444444  0.16110683
   0.75000000  0.05555556  0.20138354
   0.50000000  0.00000000  0.00000000
   0.25000000  0.61111111  0.04027671
   0.00000000  0.22222222  0.08055341
   0.75000000  0.83333333  0.12083012
   0.50000000  0.44444444  0.16110683
   0.25000000  0.05555556  0.20138354
   0.75000000  0.75000000  0.00000000
   0.50000000  0.36111111  0.04027671
   0.25000000  0.97222222  0.08055341
   0.00000000  0.58333333  0.12083012
   0.75000000  0.19444444  0.16110683
   0.50000000  0.80555556  0.20138354
   0.25000000  0.75000000  0.00000000
   0.00000000  0.36111111  0.04027671
   0.75000000  0.97222222  0.08055341
   0.50000000  0.58333333  0.12083012
   0.25000000  0.19444444  0.16110683
   0.00000000  0.80555556  0.20138354
   0.03947368  0.69325153  0.28869428
   0.28947368  0.52658487  0.41349328
   0.53947368  0.35991820  0.53829227
   0.78947368  0.19325153  0.66309127
   0.03947368  0.02658487  0.78789026
   0.28947368  0.85991820  0.91268926
   0.03947368  0.02658487  0.28869428
   0.28947368  0.85991820  0.41349328
   0.53947368  0.69325153  0.53829227
   0.78947368  0.52658487  0.66309127
   0.03947368  0.35991820  0.78789026
   0.28947368  0.19325153  0.91268926
   0.03947368  0.35991820  0.28869428
   0.28947368  0.19325153  0.41349328
   0.53947368  0.02658487  0.53829227
   0.78947368  0.85991820  0.66309127
   0.03947368  0.69325153  0.78789026
   0.28947368  0.52658487  0.91268926
   0.53947368  0.69325153  0.28869428
   0.78947368  0.52658487  0.41349328
   0.03947368  0.35991820  0.53829227
   0.28947368  0.19325153  0.66309127
   0.53947368  0.02658487  0.78789026
   0.78947368  0.85991820  0.91268926
   0.53947368  0.02658487  0.28869428
   0.78947368  0.85991820  0.41349328
   0.03947368  0.69325153  0.53829227
   0.28947368  0.52658487  0.66309127
   0.53947368  0.35991820  0.78789026
   0.78947368  0.19325153  0.91268926
   0.53947368  0.35991820  0.28869428
   0.78947368  0.19325153  0.41349328
   0.03947368  0.02658487  0.53829227
   0.28947368  0.85991820  0.66309127
   0.53947368  0.69325153  0.78789026
   0.78947368  0.52658487  0.91268926
   0.78947368  0.94325153  0.28869428
   0.03947368  0.77658487  0.41349328
   0.28947368  0.60991820  0.53829227
   0.53947368  0.44325153  0.66309127
   0.78947368  0.27658487  0.78789026
   0.03947368  0.10991820  0.91268926
   0.78947368  0.27658487  0.28869428
   0.03947368  0.10991820  0.41349328
   0.28947368  0.94325153  0.53829227
   0.53947368  0.77658487  0.66309127
   0.78947368  0.60991820  0.78789026
   0.03947368  0.44325153  0.91268926
   0.78947368  0.60991820  0.28869428
   0.03947368  0.44325153  0.41349328
   0.28947368  0.27658487  0.53829227
   0.53947368  0.10991820  0.66309127
   0.78947368  0.94325153  0.78789026
   0.03947368  0.77658487  0.91268926
   0.28947368  0.94325153  0.28869428
   0.53947368  0.77658487  0.41349328
   0.78947368  0.60991820  0.53829227
   0.03947368  0.44325153  0.66309127
   0.28947368  0.27658487  0.78789026
   0.53947368  0.10991820  0.91268926
   0.28947368  0.27658487  0.28869428
   0.53947368  0.10991820  0.41349328
   0.78947368  0.94325153  0.53829227
   0.03947368  0.77658487  0.66309127
   0.28947368  0.60991820  0.78789026
   0.53947368  0.44325153  0.91268926
   0.28947368  0.60991820  0.28869428
   0.53947368  0.44325153  0.41349328
   0.78947368  0.27658487  0.53829227
   0.03947368  0.10991820  0.66309127
   0.28947368  0.94325153  0.78789026
   0.53947368  0.77658487  0.91268926
 
 position of ions in cartesian coordinates  (Angst):
   0.00000000  0.00000000  0.00000000
   5.81241774 10.04666666  0.64582419
   3.87494516  3.65333333  1.29164839
   1.93747258 13.69999999  1.93747257
   0.00000000  7.30666666  2.58329677
   5.81241774  0.91333334  3.22912096
   3.87494516  0.00000000  0.00000000
   1.93747258 10.04666666  0.64582419
   0.00000000  3.65333333  1.29164839
   5.81241774 13.69999999  1.93747257
   3.87494516  7.30666666  2.58329677
   1.93747258  0.91333334  3.22912096
   5.81241774 12.33000000  0.00000000
   3.87494516  5.93666666  0.64582419
   1.93747258 15.98333333  1.29164839
   0.00000000  9.58999999  1.93747257
   5.81241774  3.19666666  2.58329677
   3.87494516 13.24333334  3.22912096
   1.93747258 12.33000000  0.00000000
   0.00000000  5.93666666  0.64582419
   5.81241774 15.98333333  1.29164839
   3.87494516  9.58999999  1.93747257
   1.93747258  3.19666666  2.58329677
   0.00000000 13.24333334  3.22912096
   0.30591672 11.39705522  4.62912097
   2.24338930  8.65705521  6.63023316
   4.18086188  5.91705521  8.63134535
   6.11833446  3.17705522 10.63245753
   0.30591672  0.43705521 12.63356972
   2.24338930 14.13705521 14.63468193
   0.30591672  0.43705521  4.62912097
   2.24338930 14.13705521  6.63023316
   4.18086188 11.39705522  8.63134535
   6.11833446  8.65705521 10.63245753
   0.30591672  5.91705521 12.63356972
   2.24338930  3.17705522 14.63468193
   0.30591672  5.91705521  4.62912097
   2.24338930  3.17705522  6.63023316
   4.18086188  0.43705521  8.63134535
   6.11833446 14.13705521 10.63245753
   0.30591672 11.39705522 12.63356972
   2.24338930  8.65705521 14.63468193
   4.18086188 11.39705522  4.62912097
   6.11833446  8.65705521  6.63023316
   0.30591672  5.91705521  8.63134535
   2.24338930  3.17705522 10.63245753
   4.18086188  0.43705521 12.63356972
   6.11833446 14.13705521 14.63468193
   4.18086188  0.43705521  4.62912097
   6.11833446 14.13705521  6.63023316
   0.30591672 11.39705522  8.63134535
   2.24338930  8.65705521 10.63245753
   4.18086188  5.91705521 12.63356972
   6.11833446  3.17705522 14.63468193
   4.18086188  5.91705521  4.62912097
   6.11833446  3.17705522  6.63023316
   0.30591672  0.43705521  8.63134535
   2.24338930 14.13705521 10.63245753
   4.18086188 11.39705522 12.63356972
   6.11833446  8.65705521 14.63468193
   6.11833446 15.50705522  4.62912097
   0.30591672 12.76705521  6.63023316
   2.24338930 10.02705521  8.63134535
   4.18086188  7.28705522 10.63245753
   6.11833446  4.54705521 12.63356972
   0.30591672  1.80705521 14.63468193
   6.11833446  4.54705521  4.62912097
   0.30591672  1.80705521  6.63023316
   2.24338930 15.50705522  8.63134535
   4.18086188 12.76705521 10.63245753
   6.11833446 10.02705521 12.63356972
   0.30591672  7.28705522 14.63468193
   6.11833446 10.02705521  4.62912097
   0.30591672  7.28705522  6.63023316
   2.24338930  4.54705521  8.63134535
   4.18086188  1.80705521 10.63245753
   6.11833446 15.50705522 12.63356972
   0.30591672 12.76705521 14.63468193
   2.24338930 15.50705522  4.62912097
   4.18086188 12.76705521  6.63023316
   6.11833446 10.02705521  8.63134535
   0.30591672  7.28705522 10.63245753
   2.24338930  4.54705521 12.63356972
   4.18086188  1.80705521 14.63468193
   2.24338930  4.54705521  4.62912097
   4.18086188  1.80705521  6.63023316
   6.11833446 15.50705522  8.63134535
   0.30591672 12.76705521 10.63245753
   2.24338930 10.02705521 12.63356972
   4.18086188  7.28705522 14.63468193
   2.24338930 10.02705521  4.62912097
   4.18086188  7.28705522  6.63023316
   6.11833446  4.54705521  8.63134535
   0.30591672  1.80705521 10.63245753
   2.24338930 15.50705522 12.63356972
   4.18086188 12.76705521 14.63468193
 


--------------------------------------------------------------------------------------------------------


 k-point     1 :   0.0000 0.0000 0.0000  plane waves:   86015
 k-point     2 :   0.2500 0.0000 0.0000  plane waves:   85979
 k-point     3 :   0.5000 0.0000 0.0000  plane waves:   85870
 k-point     4 :   0.0000 0.5000 0.0000  plane waves:   85874
 k-point     5 :   0.2500 0.5000 0.0000  plane waves:   85930
 k-point     6 :   0.5000 0.5000 0.0000  plane waves:   85928
 k-point     7 :   0.0000 0.0000 0.5000  plane waves:   85978
 k-point     8 :   0.2500 0.0000 0.5000  plane waves:   85868
 k-point     9 :   0.5000 0.0000 0.5000  plane waves:   85940
 k-point    10 :   0.0000 0.5000 0.5000  plane waves:   85884
 k-point    11 :   0.2500 0.5000 0.5000  plane waves:   85884
 k-point    12 :   0.5000 0.5000 0.5000  plane waves:   85880

 maximum and minimum number of plane-waves per node :      5418     5332

 maximum number of plane-waves:     86015
 maximum index in each direction: 
   IXMAX=   16   IYMAX=   35   IZMAX=   34
   IXMIN=  -17   IYMIN=  -35   IZMIN=  -35


 real space projection operators:
  total allocation   :      18532.02 KBytes
  max/ min on nodes  :       1540.38       1023.65


 parallel 3D FFT for wavefunctions:
    minimum data exchange during FFTs selected (reduces bandwidth)
 parallel 3D FFT for charge:
    minimum data exchange during FFTs selected (reduces bandwidth)


 total amount of memory used by VASP MPI-rank0   596097. kBytes
=======================================================================

   base      :      30000. kBytes
   nonlr-proj:       5605. kBytes
   fftplans  :      45650. kBytes
   grid      :      30067. kBytes
   one-center:         97. kBytes
   wavefun   :     484678. kBytes
 
     INWAV:  cpu time      0.0000: real time      0.0003
 Broyden mixing: mesh for mixing (old mesh)
   NGX = 33   NGY = 71   NGZ = 69
  (NGX  =100   NGY  =216   NGZ  =216)
  gives a total of 161667 points

 initial charge density was supplied:
 charge density of overlapping atoms calculated
 number of electron     384.0000000 magnetization       1.0000000
 keeping initial charge density in first step


--------------------------------------------------------------------------------------------------------


 Maximum index for non-local projection operator          357
 Maximum index for augmentation-charges         8822 (set IRDMAX)


--------------------------------------------------------------------------------------------------------


 First call to EWALD:  gamma=   0.140
 Maximum number of real-space cells 4x 2x 2
 Maximum number of reciprocal cells 2x 3x 3

    FEWALD:  cpu time      0.0033: real time      0.0033


--------------------------------------- Ionic step        1  -------------------------------------------




--------------------------------------- Iteration      1(   1)  ---------------------------------------


    POTLOK:  cpu time      0.4904: real time      0.4943
    SETDIJ:  cpu time      3.5461: real time      3.5624
     EDDAV:  cpu time     72.5601: real time     73.1151
       DOS:  cpu time      0.0025: real time      0.0025
    --------------------------------------------
      LOOP:  cpu time     76.5992: real time     77.1744

 eigenvalue-minimisations  : 11088
 total energy-change (2. order) : 0.1783068E+04  (-0.1713904E+05)
 number of electron     384.0000000 magnetization       1.0000000
 augmentation part      384.0000000 magnetization       1.0000000

 Free energy of the ion-electron system (eV)
  ---------------------------------------------------
  alpha Z        PSCENC =       684.63079482
  Ewald energy   TEWEN  =    -10613.96298107
  -Hartree energ DENC   =      -686.16121691
  -exchange      EXHF   =         0.00000000
  -V(xc)+E(xc)   XCENC  =      -759.50058543
  PAW double counting   =      8461.42437605    -6996.08040321
  entropy T*S    EENTRO =        -0.00110600
  eigenvalues    EBANDS =      1659.41487025
  atomic energy  EATOM  =     10033.30447794
  Solvation  Ediel_sol  =         0.00000000
  ---------------------------------------------------
  free energy    TOTEN  =      1783.06822644 eV

  energy without entropy =     1783.06933244  energy(sigma->0) =     1783.06877944


--------------------------------------------------------------------------------------------------------




--------------------------------------- Iteration      1(   2)  ---------------------------------------


     EDDAV:  cpu time     82.2673: real time     82.8905
       DOS:  cpu time      0.0041: real time      0.0041
    --------------------------------------------
      LOOP:  cpu time     82.2714: real time     82.8946

 eigenvalue-minimisations  : 12936
 total energy-change (2. order) :-0.2010964E+04  (-0.1940955E+04)
 number of electron     384.0000000 magnetization       1.0000000
 augmentation part      384.0000000 magnetization       1.0000000

 Free energy of the ion-electron system (eV)
  ---------------------------------------------------
  alpha Z        PSCENC =       684.63079482
  Ewald energy   TEWEN  =    -10613.96298107
  -Hartree energ DENC   =      -686.16121691
  -exchange      EXHF   =         0.00000000
  -V(xc)+E(xc)   XCENC  =      -759.50058543
  PAW double counting   =      8461.42437605    -6996.08040321
  entropy T*S    EENTRO =        -0.00109766
  eigenvalues    EBANDS =      -351.54890330
  atomic energy  EATOM  =     10033.30447794
  Solvation  Ediel_sol  =         0.00000000
  ---------------------------------------------------
  free energy    TOTEN  =      -227.89553877 eV

  energy without entropy =     -227.89444111  energy(sigma->0) =     -227.89498994


--------------------------------------------------------------------------------------------------------




--------------------------------------- Iteration      1(   3)  ---------------------------------------


     EDDAV:  cpu time     84.7094: real time     85.3726
       DOS:  cpu time      0.0026: real time      0.0026
    --------------------------------------------
      LOOP:  cpu time     84.7120: real time     85.3752

 eigenvalue-minimisations  : 13528
 total energy-change (2. order) :-0.1958260E+03  (-0.1892296E+03)
 number of electron     384.0000000 magnetization       1.0000000
 augmentation part      384.0000000 magnetization       1.0000000

 Free energy of the ion-electron system (eV)
  ---------------------------------------------------
  alpha Z        PSCENC =       684.63079482
  Ewald energy   TEWEN  =    -10613.96298107
  -Hartree energ DENC   =      -686.16121691
  -exchange      EXHF   =         0.00000000
  -V(xc)+E(xc)   XCENC  =      -759.50058543
  PAW double counting   =      8461.42437605    -6996.08040321
  entropy T*S    EENTRO =        -0.00058983
  eigenvalues    EBANDS =      -547.37542355
  atomic energy  EATOM  =     10033.30447794
  Solvation  Ediel_sol  =         0.00000000
  ---------------------------------------------------
  free energy    TOTEN  =      -423.72155119 eV

  energy without entropy =     -423.72096135  energy(sigma->0) =     -423.72125627


--------------------------------------------------------------------------------------------------------




--------------------------------------- Iteration      1(   4)  ---------------------------------------


     EDDAV:  cpu time     82.1695: real time     82.7925
       DOS:  cpu time      0.0038: real time      0.0038
    --------------------------------------------
      LOOP:  cpu time     82.1734: real time     82.7964

 eigenvalue-minimisations  : 13032
 total energy-change (2. order) :-0.6809566E+01  (-0.6714411E+01)
 number of electron     384.0000000 magnetization       1.0000000
 augmentation part      384.0000000 magnetization       1.0000000

 Free energy of the ion-electron system (eV)
  ---------------------------------------------------
  alpha Z        PSCENC =       684.63079482
  Ewald energy   TEWEN  =    -10613.96298107
  -Hartree energ DENC   =      -686.16121691
  -exchange      EXHF   =         0.00000000
  -V(xc)+E(xc)   XCENC  =      -759.50058543
  PAW double counting   =      8461.42437605    -6996.08040321
  entropy T*S    EENTRO =        -0.00090093
  eigenvalues    EBANDS =      -554.18467799
  atomic energy  EATOM  =     10033.30447794
  Solvation  Ediel_sol  =         0.00000000
  ---------------------------------------------------
  free energy    TOTEN  =      -430.53111673 eV

  energy without entropy =     -430.53021580  energy(sigma->0) =     -430.53066627


--------------------------------------------------------------------------------------------------------




--------------------------------------- Iteration      1(   5)  ---------------------------------------


     EDDAV:  cpu time     88.5115: real time     89.1707
       DOS:  cpu time      0.0041: real time      0.0041
    CHARGE:  cpu time      4.0912: real time      4.1152
    MIXING:  cpu time      0.0137: real time      0.0138
    --------------------------------------------
      LOOP:  cpu time     92.6205: real time     93.3038

 eigenvalue-minimisations  : 14256
 total energy-change (2. order) :-0.2374505E+00  (-0.2364542E+00)
 number of electron     383.9999997 magnetization       1.0000000
 augmentation part      -53.1799184 magnetization      -0.0837094

 Broyden mixing:
  rms(total) = 0.24698E+01    rms(broyden)= 0.24698E+01
  rms(prec ) = 0.26421E+01
  weight for this iteration     100.00

 Free energy of the ion-electron system (eV)
  ---------------------------------------------------
  alpha Z        PSCENC =       684.63079482
  Ewald energy   TEWEN  =    -10613.96298107
  -Hartree energ DENC   =      -686.16121691
  -exchange      EXHF   =         0.00000000
  -V(xc)+E(xc)   XCENC  =      -759.50058543
  PAW double counting   =      8461.42437605    -6996.08040321
  entropy T*S    EENTRO =        -0.00094647
  eigenvalues    EBANDS =      -554.42208291
  atomic energy  EATOM  =     10033.30447794
  Solvation  Ediel_sol  =         0.00000000
  ---------------------------------------------------
  free energy    TOTEN  =      -430.76856719 eV

  energy without entropy =     -430.76762072  energy(sigma->0) =     -430.76809396


--------------------------------------------------------------------------------------------------------




--------------------------------------- Iteration      1(   6)  ---------------------------------------


    POTLOK:  cpu time      0.4850: real time      0.4889
    SETDIJ:  cpu time      3.5397: real time      3.5574
     EDDAV:  cpu time     82.3935: real time     83.0252
       DOS:  cpu time      0.0027: real time      0.0027
    CHARGE:  cpu time      4.0677: real time      4.0919
    MIXING:  cpu time      0.0134: real time      0.0135
    --------------------------------------------
      LOOP:  cpu time     90.5019: real time     91.1796

 eigenvalue-minimisations  : 13088
 total energy-change (2. order) : 0.5690570E+01  (-0.8351763E+00)
 number of electron     383.9999997 magnetization       1.0000000
 augmentation part      -52.6598364 magnetization      -0.0702554

 Broyden mixing:
  rms(total) = 0.11419E+01    rms(broyden)= 0.11419E+01
  rms(prec ) = 0.12311E+01
  weight for this iteration     100.00

 eigenvalues of (default mixing * dielectric matrix)
  average eigenvalue GAMMA=   1.7332
  1.7332

 Free energy of the ion-electron system (eV)
  ---------------------------------------------------
  alpha Z        PSCENC =       684.63079482
  Ewald energy   TEWEN  =    -10613.96298107
  -Hartree energ DENC   =      -771.76042855
  -exchange      EXHF   =         0.00000000
  -V(xc)+E(xc)   XCENC  =      -745.08622544
  PAW double counting   =     16018.44046019   -14561.72502074
  entropy T*S    EENTRO =        -0.00240418
  eigenvalues    EBANDS =      -468.91667039
  atomic energy  EATOM  =     10033.30447794
  Solvation  Ediel_sol  =         0.00000000
  ---------------------------------------------------
  free energy    TOTEN  =      -425.07799742 eV

  energy without entropy =     -425.07559323  energy(sigma->0) =     -425.07679533


--------------------------------------------------------------------------------------------------------




--------------------------------------- Iteration      1(   7)  ---------------------------------------


    POTLOK:  cpu time      0.4849: real time      0.4893
    SETDIJ:  cpu time      3.5422: real time      3.5593
     EDDAV:  cpu time     82.8072: real time     83.4292
       DOS:  cpu time      0.0026: real time      0.0026
    CHARGE:  cpu time      4.0649: real time      4.0877
    MIXING:  cpu time      0.0144: real time      0.0145
    --------------------------------------------
      LOOP:  cpu time     90.9162: real time     91.5826

 eigenvalue-minimisations  : 13176
 total energy-change (2. order) :-0.1548066E+00  (-0.7677156E+00)
 number of electron     383.9999997 magnetization       1.0000000
 augmentation part      -52.5738589 magnetization      -0.0734025

 Broyden mixing:
  rms(total) = 0.42320E+00    rms(broyden)= 0.42320E+00
  rms(prec ) = 0.72134E+00
  weight for this iteration     100.00

 eigenvalues of (default mixing * dielectric matrix)
  average eigenvalue GAMMA=   1.2016
  1.8320  0.5711

 Free energy of the ion-electron system (eV)
  ---------------------------------------------------
  alpha Z        PSCENC =       684.63079482
  Ewald energy   TEWEN  =    -10613.96298107
  -Hartree energ DENC   =      -816.59971604
  -exchange      EXHF   =         0.00000000
  -V(xc)+E(xc)   XCENC  =      -734.69868777
  PAW double counting   =     23663.05192621   -22212.35717116
  entropy T*S    EENTRO =        -0.00212586
  eigenvalues    EBANDS =      -428.59932106
  atomic energy  EATOM  =     10033.30447794
  Solvation  Ediel_sol  =         0.00000000
  ---------------------------------------------------
  free energy    TOTEN  =      -425.23280399 eV

  energy without entropy =     -425.23067813  energy(sigma->0) =     -425.23174106


--------------------------------------------------------------------------------------------------------




--------------------------------------- Iteration      1(   8)  ---------------------------------------


    POTLOK:  cpu time      0.4847: real time      0.4886
    SETDIJ:  cpu time      3.5425: real time      3.5591
     EDDAV:  cpu time     83.0523: real time     83.6931
       DOS:  cpu time      0.0027: real time      0.0027
    CHARGE:  cpu time      4.0671: real time      4.0918
    MIXING:  cpu time      0.0142: real time      0.0143
    --------------------------------------------
      LOOP:  cpu time     91.1635: real time     91.8496

 eigenvalue-minimisations  : 13240
 total energy-change (2. order) : 0.7106344E+00  (-0.2488885E+00)
 number of electron     383.9999997 magnetization       1.0000000
 augmentation part      -52.4194680 magnetization      -0.0720837

 Broyden mixing:
  rms(total) = 0.13980E+00    rms(broyden)= 0.13980E+00
  rms(prec ) = 0.16155E+00
  weight for this iteration     100.00

 eigenvalues of (default mixing * dielectric matrix)
  average eigenvalue GAMMA=   1.1443
  1.8860  0.9951  0.5518

 Free energy of the ion-electron system (eV)
  ---------------------------------------------------
  alpha Z        PSCENC =       684.63079482
  Ewald energy   TEWEN  =    -10613.96298107
  -Hartree energ DENC   =      -828.61335613
  -exchange      EXHF   =         0.00000000
  -V(xc)+E(xc)   XCENC  =      -732.91377293
  PAW double counting   =     25619.34756213   -24169.81920416
  entropy T*S    EENTRO =        -0.00200271
  eigenvalues    EBANDS =      -416.49368746
  atomic energy  EATOM  =     10033.30447794
  Solvation  Ediel_sol  =         0.00000000
  ---------------------------------------------------
  free energy    TOTEN  =      -424.52216958 eV

  energy without entropy =     -424.52016687  energy(sigma->0) =     -424.52116822


--------------------------------------------------------------------------------------------------------




--------------------------------------- Iteration      1(   9)  ---------------------------------------


    POTLOK:  cpu time      0.4847: real time      0.4887
    SETDIJ:  cpu time      3.5388: real time      3.5566
     EDDAV:  cpu time     80.7980: real time     81.4180
       DOS:  cpu time      0.0027: real time      0.0027
    CHARGE:  cpu time      4.0794: real time      4.1032
    MIXING:  cpu time      0.0152: real time      0.0153
    --------------------------------------------
      LOOP:  cpu time     88.9189: real time     89.5847

 eigenvalue-minimisations  : 12744
 total energy-change (2. order) :-0.2125987E-01  (-0.4913286E-01)
 number of electron     383.9999997 magnetization       1.0000000
 augmentation part      -52.3614808 magnetization      -0.0661236

 Broyden mixing:
  rms(total) = 0.90060E-01    rms(broyden)= 0.90060E-01
  rms(prec ) = 0.11760E+00
  weight for this iteration     100.00

 eigenvalues of (default mixing * dielectric matrix)
  average eigenvalue GAMMA=   1.0881
  1.8770  1.3115  0.5820  0.5820

 Free energy of the ion-electron system (eV)
  ---------------------------------------------------
  alpha Z        PSCENC =       684.63079482
  Ewald energy   TEWEN  =    -10613.96298107
  -Hartree energ DENC   =      -826.58371582
  -exchange      EXHF   =         0.00000000
  -V(xc)+E(xc)   XCENC  =      -732.94518395
  PAW double counting   =     26288.97940055   -24839.59015266
  entropy T*S    EENTRO =        -0.00176163
  eigenvalues    EBANDS =      -418.37430764
  atomic energy  EATOM  =     10033.30447794
  Solvation  Ediel_sol  =         0.00000000
  ---------------------------------------------------
  free energy    TOTEN  =      -424.54342945 eV

  energy without entropy =     -424.54166782  energy(sigma->0) =     -424.54254864


--------------------------------------------------------------------------------------------------------




--------------------------------------- Iteration      1(  10)  ---------------------------------------


    POTLOK:  cpu time      0.4849: real time      0.4890
    SETDIJ:  cpu time      3.5384: real time      3.5559
     EDDAV:  cpu time     79.1569: real time     79.7494
       DOS:  cpu time      0.0026: real time      0.0026
    CHARGE:  cpu time      4.0456: real time      4.0692
    MIXING:  cpu time      0.0152: real time      0.0153
    --------------------------------------------
      LOOP:  cpu time     87.2435: real time     87.8813

 eigenvalue-minimisations  : 12512
 total energy-change (2. order) : 0.1068671E-01  (-0.8763788E-02)
 number of electron     383.9999997 magnetization       1.0000000
 augmentation part      -52.3859887 magnetization      -0.0678795

 Broyden mixing:
  rms(total) = 0.52280E-01    rms(broyden)= 0.52280E-01
  rms(prec ) = 0.54504E-01
  weight for this iteration     100.00

 eigenvalues of (default mixing * dielectric matrix)
  average eigenvalue GAMMA=   1.0734
  1.8339  1.5642  0.8964  0.5362  0.5362

 Free energy of the ion-electron system (eV)
  ---------------------------------------------------
  alpha Z        PSCENC =       684.63079482
  Ewald energy   TEWEN  =    -10613.96298107
  -Hartree energ DENC   =      -824.03112558
  -exchange      EXHF   =         0.00000000
  -V(xc)+E(xc)   XCENC  =      -733.09492262
  PAW double counting   =     26462.62050355   -25013.20481990
  entropy T*S    EENTRO =        -0.00224579
  eigenvalues    EBANDS =      -420.79242411
  atomic energy  EATOM  =     10033.30447794
  Solvation  Ediel_sol  =         0.00000000
  ---------------------------------------------------
  free energy    TOTEN  =      -424.53274274 eV

  energy without entropy =     -424.53049695  energy(sigma->0) =     -424.53161985


--------------------------------------------------------------------------------------------------------




--------------------------------------- Iteration      1(  11)  ---------------------------------------


    POTLOK:  cpu time      0.4886: real time      0.4925
    SETDIJ:  cpu time      3.5384: real time      3.5559
     EDDAV:  cpu time     79.3745: real time     80.0096
       DOS:  cpu time      0.0027: real time      0.0027
    CHARGE:  cpu time      4.0692: real time      4.0943
    MIXING:  cpu time      0.0158: real time      0.0159
    --------------------------------------------
      LOOP:  cpu time     87.4891: real time     88.1709

 eigenvalue-minimisations  : 12456
 total energy-change (2. order) :-0.1263670E-02  (-0.2036521E-02)
 number of electron     383.9999997 magnetization       1.0000000
 augmentation part      -52.3948901 magnetization      -0.0692614

 Broyden mixing:
  rms(total) = 0.25069E-01    rms(broyden)= 0.25068E-01
  rms(prec ) = 0.29577E-01
  weight for this iteration     100.00

 eigenvalues of (default mixing * dielectric matrix)
  average eigenvalue GAMMA=   1.0601
  1.8304  1.5962  1.1580  0.6331  0.6331  0.5100

 Free energy of the ion-electron system (eV)
  ---------------------------------------------------
  alpha Z        PSCENC =       684.63079482
  Ewald energy   TEWEN  =    -10613.96298107
  -Hartree energ DENC   =      -823.19992596
  -exchange      EXHF   =         0.00000000
  -V(xc)+E(xc)   XCENC  =      -733.15699196
  PAW double counting   =     26525.07626755   -25075.64982668
  entropy T*S    EENTRO =        -0.00202492
  eigenvalues    EBANDS =      -421.57379613
  atomic energy  EATOM  =     10033.30447794
  Solvation  Ediel_sol  =         0.00000000
  ---------------------------------------------------
  free energy    TOTEN  =      -424.53400641 eV

  energy without entropy =     -424.53198149  energy(sigma->0) =     -424.53299395


--------------------------------------------------------------------------------------------------------




--------------------------------------- Iteration      1(  12)  ---------------------------------------


    POTLOK:  cpu time      0.4835: real time      0.4889
    SETDIJ:  cpu time      3.5387: real time      3.5561
     EDDAV:  cpu time     79.6115: real time     80.2221
       DOS:  cpu time      0.0027: real time      0.0027
    CHARGE:  cpu time      4.0636: real time      4.0866
    MIXING:  cpu time      0.0163: real time      0.0165
    --------------------------------------------
      LOOP:  cpu time     87.7163: real time     88.3730

 eigenvalue-minimisations  : 12584
 total energy-change (2. order) :-0.4464623E-03  (-0.6156038E-03)
 number of electron     383.9999997 magnetization       1.0000000
 augmentation part      -52.3906482 magnetization      -0.0678384

 Broyden mixing:
  rms(total) = 0.13856E-01    rms(broyden)= 0.13856E-01
  rms(prec ) = 0.15644E-01
  weight for this iteration     100.00

 eigenvalues of (default mixing * dielectric matrix)
  average eigenvalue GAMMA=   1.0364
  1.8413  1.4760  1.4760  0.8470  0.5626  0.5626  0.4895

 Free energy of the ion-electron system (eV)
  ---------------------------------------------------
  alpha Z        PSCENC =       684.63079482
  Ewald energy   TEWEN  =    -10613.96298107
  -Hartree energ DENC   =      -823.27974374
  -exchange      EXHF   =         0.00000000
  -V(xc)+E(xc)   XCENC  =      -733.15424419
  PAW double counting   =     26544.23973978   -25094.82074729
  entropy T*S    EENTRO =        -0.00205838
  eigenvalues    EBANDS =      -421.48969075
  atomic energy  EATOM  =     10033.30447794
  Solvation  Ediel_sol  =         0.00000000
  ---------------------------------------------------
  free energy    TOTEN  =      -424.53445287 eV

  energy without entropy =     -424.53239449  energy(sigma->0) =     -424.53342368


--------------------------------------------------------------------------------------------------------




--------------------------------------- Iteration      1(  13)  ---------------------------------------


    POTLOK:  cpu time      0.4836: real time      0.4887
    SETDIJ:  cpu time      3.5370: real time      3.5542
     EDDAV:  cpu time     80.3310: real time     80.9496
       DOS:  cpu time      0.0027: real time      0.0027
    CHARGE:  cpu time      4.0507: real time      4.0738
    MIXING:  cpu time      0.0177: real time      0.0178
    --------------------------------------------
      LOOP:  cpu time     88.4227: real time     89.0868

 eigenvalue-minimisations  : 12760
 total energy-change (2. order) :-0.1661301E-03  (-0.1112014E-03)
 number of electron     383.9999997 magnetization       1.0000000
 augmentation part      -52.3905778 magnetization      -0.0681010

 Broyden mixing:
  rms(total) = 0.73178E-02    rms(broyden)= 0.73178E-02
  rms(prec ) = 0.91114E-02
  weight for this iteration     100.00

 eigenvalues of (default mixing * dielectric matrix)
  average eigenvalue GAMMA=   1.0632
  1.8025  1.6571  1.6571  1.1328  0.6088  0.6088  0.5613  0.4769

 Free energy of the ion-electron system (eV)
  ---------------------------------------------------
  alpha Z        PSCENC =       684.63079482
  Ewald energy   TEWEN  =    -10613.96298107
  -Hartree energ DENC   =      -823.34050499
  -exchange      EXHF   =         0.00000000
  -V(xc)+E(xc)   XCENC  =      -733.14600560
  PAW double counting   =     26542.22883023   -25092.81459477
  entropy T*S    EENTRO =        -0.00211457
  eigenvalues    EBANDS =      -421.43252099
  atomic energy  EATOM  =     10033.30447794
  Solvation  Ediel_sol  =         0.00000000
  ---------------------------------------------------
  free energy    TOTEN  =      -424.53461900 eV

  energy without entropy =     -424.53250443  energy(sigma->0) =     -424.53356172


--------------------------------------------------------------------------------------------------------




--------------------------------------- Iteration      1(  14)  ---------------------------------------


    POTLOK:  cpu time      0.4818: real time      0.4867
    SETDIJ:  cpu time      3.5375: real time      3.5538
     EDDAV:  cpu time     81.9058: real time     82.5379
       DOS:  cpu time      0.0027: real time      0.0027
    CHARGE:  cpu time      4.0611: real time      4.0842
    MIXING:  cpu time      0.0180: real time      0.0181
    --------------------------------------------
      LOOP:  cpu time     90.0069: real time     90.6834

 eigenvalue-minimisations  : 13072
 total energy-change (2. order) :-0.2534442E-04  (-0.2841436E-04)
 number of electron     383.9999997 magnetization       1.0000000
 augmentation part      -52.3910746 magnetization      -0.0680573

 Broyden mixing:
  rms(total) = 0.32603E-02    rms(broyden)= 0.32602E-02
  rms(prec ) = 0.35576E-02
  weight for this iteration     100.00

 eigenvalues of (default mixing * dielectric matrix)
  average eigenvalue GAMMA=   1.0624
  1.9481  1.9481  1.4827  1.2465  0.6350  0.6350  0.6075  0.5889  0.4698

 Free energy of the ion-electron system (eV)
  ---------------------------------------------------
  alpha Z        PSCENC =       684.63079482
  Ewald energy   TEWEN  =    -10613.96298107
  -Hartree energ DENC   =      -823.37336848
  -exchange      EXHF   =         0.00000000
  -V(xc)+E(xc)   XCENC  =      -733.13783806
  PAW double counting   =     26538.47294002   -25089.06275338
  entropy T*S    EENTRO =        -0.00206388
  eigenvalues    EBANDS =      -421.40385225
  atomic energy  EATOM  =     10033.30447794
  Solvation  Ediel_sol  =         0.00000000
  ---------------------------------------------------
  free energy    TOTEN  =      -424.53464435 eV

  energy without entropy =     -424.53258046  energy(sigma->0) =     -424.53361241


--------------------------------------------------------------------------------------------------------




--------------------------------------- Iteration      1(  15)  ---------------------------------------


    POTLOK:  cpu time      0.4821: real time      0.4864
    SETDIJ:  cpu time      3.5399: real time      3.5572
     EDDAV:  cpu time     81.3305: real time     81.9587
       DOS:  cpu time      0.0027: real time      0.0027
    CHARGE:  cpu time      4.0647: real time      4.0888
    MIXING:  cpu time      0.0196: real time      0.0197
    --------------------------------------------
      LOOP:  cpu time     89.4395: real time     90.1135

 eigenvalue-minimisations  : 12952
 total energy-change (2. order) :-0.2233936E-04  (-0.1017998E-04)
 number of electron     383.9999997 magnetization       1.0000000
 augmentation part      -52.3908340 magnetization      -0.0679716

 Broyden mixing:
  rms(total) = 0.20031E-02    rms(broyden)= 0.20030E-02
  rms(prec ) = 0.22056E-02
  weight for this iteration     100.00

 eigenvalues of (default mixing * dielectric matrix)
  average eigenvalue GAMMA=   1.0496
  2.0176  2.0176  1.3598  1.3598  0.9453  0.6122  0.6122  0.6015  0.5180  0.4520

 Free energy of the ion-electron system (eV)
  ---------------------------------------------------
  alpha Z        PSCENC =       684.63079482
  Ewald energy   TEWEN  =    -10613.96298107
  -Hartree energ DENC   =      -823.37353128
  -exchange      EXHF   =         0.00000000
  -V(xc)+E(xc)   XCENC  =      -733.13544738
  PAW double counting   =     26537.98984276   -25088.58068283
  entropy T*S    EENTRO =        -0.00204614
  eigenvalues    EBANDS =      -421.40509351
  atomic energy  EATOM  =     10033.30447794
  Solvation  Ediel_sol  =         0.00000000
  ---------------------------------------------------
  free energy    TOTEN  =      -424.53466669 eV

  energy without entropy =     -424.53262055  energy(sigma->0) =     -424.53364362


--------------------------------------------------------------------------------------------------------




--------------------------------------- Iteration      1(  16)  ---------------------------------------


    POTLOK:  cpu time      0.4838: real time      0.4883
    SETDIJ:  cpu time      3.5429: real time      3.5605
     EDDAV:  cpu time     80.7040: real time     81.3235
       DOS:  cpu time      0.0034: real time      0.0035
    CHARGE:  cpu time      4.0380: real time      4.0608
    MIXING:  cpu time      0.0204: real time      0.0205
    --------------------------------------------
      LOOP:  cpu time     88.7925: real time     89.4571

 eigenvalue-minimisations  : 12856
 total energy-change (2. order) :-0.7279303E-05  (-0.2201053E-05)
 number of electron     383.9999997 magnetization       1.0000000
 augmentation part      -52.3907779 magnetization      -0.0680304

 Broyden mixing:
  rms(total) = 0.11064E-02    rms(broyden)= 0.11063E-02
  rms(prec ) = 0.11296E-02
  weight for this iteration     100.00

 eigenvalues of (default mixing * dielectric matrix)
  average eigenvalue GAMMA=   1.0566
  2.0558  2.0558  1.4920  1.4920  1.1150  0.6150  0.6150  0.6852  0.5236  0.5236
  0.4495

 Free energy of the ion-electron system (eV)
  ---------------------------------------------------
  alpha Z        PSCENC =       684.63079482
  Ewald energy   TEWEN  =    -10613.96298107
[...]
   0.176E+01 -.252E+02 0.661E+01   -.160E+01 0.246E+02 -.754E+01   0.297E+00 0.922E+00 0.817E+00   0.883E-05 0.864E-04 0.120E-03
   0.185E+01 0.138E+02 -.756E+01   -.136E+01 -.137E+02 0.698E+01   -.535E+00 0.872E+00 -.114E+00   -.835E-06 -.133E-03 -.174E-03
   -.355E+01 0.227E+02 0.389E+01   0.298E+01 -.227E+02 -.357E+01   0.337E+00 0.239E+00 -.261E+00   -.222E-05 -.974E-04 -.102E-03
   0.110E+00 0.413E+01 0.115E+02   -.123E+00 -.403E+01 -.117E+02   -.383E-01 0.277E+00 0.425E-01   -.695E-06 0.359E-04 -.169E-03
   -.400E-02 -.552E+01 0.219E+01   0.195E-02 0.533E+01 -.220E+01   -.479E-02 0.583E+00 -.110E-01   0.365E-06 0.891E-04 -.257E-04
   -.458E-01 -.985E+01 -.325E+01   -.469E-02 0.976E+01 0.329E+01   0.270E-01 0.433E+00 -.712E-01   -.702E-06 0.307E-04 0.669E-04
   -.389E+00 -.125E+02 0.554E+01   0.331E+00 0.130E+02 -.493E+01   0.123E+00 -.138E+00 -.771E+00   -.184E-07 -.136E-03 0.123E-03
   -.243E+01 -.248E+02 0.129E+02   0.264E+01 0.269E+02 -.126E+02   0.912E+00 0.199E+01 -.824E+00   -.123E-04 -.138E-03 0.129E-03
   0.108E+02 -.157E+02 -.123E+02   -.109E+02 0.165E+02 0.125E+02   -.210E+01 0.467E+00 0.103E+01   0.117E-04 -.661E-04 -.783E-04
   0.230E+00 0.338E+01 -.648E+01   -.224E+00 -.343E+01 0.677E+01   0.199E-01 0.498E+00 0.188E+00   -.436E-05 -.861E-04 -.426E-04
   0.454E-01 0.540E+01 0.166E+01   0.701E-02 -.528E+01 -.177E+01   -.175E-01 0.368E+00 0.155E+00   -.259E-05 -.149E-04 -.197E-04
   0.678E-02 0.350E+01 -.598E+00   0.256E-02 -.350E+01 0.521E+00   -.744E-02 0.403E+00 0.460E-01   -.195E-05 0.336E-04 0.995E-04
   -.100E+00 -.215E+01 -.114E+02   0.139E+00 0.192E+01 0.113E+02   -.827E-01 0.565E+00 -.114E-01   -.156E-05 0.106E-03 0.931E-04
   0.211E+01 -.322E+02 -.169E+02   -.172E+01 0.325E+02 0.175E+02   -.912E-01 0.464E+00 0.504E+00   -.252E-05 0.200E-04 -.118E-03
   -.201E+01 -.175E+02 0.149E+02   0.204E+01 0.175E+02 -.147E+02   -.140E+00 0.112E+01 -.794E+00   0.330E-07 0.232E-03 -.156E-03
   -.278E+00 -.154E+02 0.398E+00   0.222E+00 0.154E+02 -.271E+00   0.950E-03 0.440E+00 -.643E-01   -.127E-06 0.663E-04 -.357E-04
   -.204E-01 -.733E+01 -.341E+01   -.115E-01 0.719E+01 0.356E+01   0.129E-01 0.575E+00 -.140E+00   0.115E-05 -.565E-04 0.300E-04
   0.529E-02 -.117E+01 0.321E+01   0.339E-02 0.135E+01 -.311E+01   -.121E-02 0.243E+00 -.118E+00   -.193E-06 -.352E-04 0.149E-03
   0.434E+00 0.992E+01 0.479E+01   -.385E+00 -.100E+02 -.492E+01   -.351E-01 0.401E+00 0.457E-01   0.370E-05 0.336E-04 0.233E-03
   -.159E+01 0.129E+02 -.101E+02   0.145E+01 -.124E+02 0.106E+02   -.655E-01 0.512E+00 0.304E+00   -.513E-05 0.122E-03 0.176E-03
   -.355E+01 0.227E+02 0.389E+01   0.298E+01 -.227E+02 -.357E+01   0.337E+00 0.239E+00 -.261E+00   0.335E-05 -.975E-04 -.103E-03
   0.110E+00 0.413E+01 0.115E+02   -.123E+00 -.403E+01 -.117E+02   -.383E-01 0.277E+00 0.425E-01   0.194E-05 0.366E-04 -.173E-03
   -.400E-02 -.552E+01 0.219E+01   0.195E-02 0.533E+01 -.220E+01   -.479E-02 0.583E+00 -.110E-01   0.918E-06 0.894E-04 -.273E-04
   -.458E-01 -.985E+01 -.325E+01   -.469E-02 0.976E+01 0.329E+01   0.270E-01 0.433E+00 -.712E-01   0.114E-05 0.302E-04 0.656E-04
   -.389E+00 -.125E+02 0.554E+01   0.331E+00 0.130E+02 -.493E+01   0.123E+00 -.138E+00 -.771E+00   0.528E-06 -.136E-03 0.122E-03
   -.243E+01 -.248E+02 0.129E+02   0.264E+01 0.269E+02 -.126E+02   0.912E+00 0.199E+01 -.824E+00   -.116E-04 -.138E-03 0.131E-03
   0.108E+02 -.157E+02 -.123E+02   -.109E+02 0.165E+02 0.125E+02   -.210E+01 0.467E+00 0.103E+01   0.129E-04 -.657E-04 -.777E-04
   0.230E+00 0.338E+01 -.648E+01   -.224E+00 -.343E+01 0.677E+01   0.199E-01 0.498E+00 0.188E+00   -.313E-05 -.860E-04 -.434E-04
   0.453E-01 0.540E+01 0.166E+01   0.701E-02 -.528E+01 -.177E+01   -.175E-01 0.368E+00 0.155E+00   0.128E-05 -.144E-04 -.200E-04
   0.678E-02 0.350E+01 -.598E+00   0.256E-02 -.350E+01 0.521E+00   -.744E-02 0.403E+00 0.460E-01   -.868E-06 0.351E-04 0.992E-04
   -.100E+00 -.215E+01 -.114E+02   0.139E+00 0.192E+01 0.113E+02   -.827E-01 0.565E+00 -.114E-01   -.459E-07 0.106E-03 0.919E-04
   0.211E+01 -.322E+02 -.169E+02   -.172E+01 0.325E+02 0.175E+02   -.912E-01 0.464E+00 0.504E+00   -.188E-05 0.208E-04 -.118E-03
   -.201E+01 -.175E+02 0.149E+02   0.204E+01 0.175E+02 -.147E+02   -.140E+00 0.112E+01 -.794E+00   0.181E-06 0.231E-03 -.156E-03
   -.278E+00 -.154E+02 0.398E+00   0.222E+00 0.154E+02 -.271E+00   0.950E-03 0.440E+00 -.643E-01   -.914E-06 0.663E-04 -.354E-04
   -.204E-01 -.733E+01 -.341E+01   -.115E-01 0.719E+01 0.356E+01   0.129E-01 0.575E+00 -.140E+00   0.106E-05 -.570E-04 0.293E-04
   0.529E-02 -.117E+01 0.321E+01   0.339E-02 0.135E+01 -.311E+01   -.121E-02 0.243E+00 -.118E+00   -.332E-06 -.355E-04 0.149E-03
   0.434E+00 0.992E+01 0.479E+01   -.385E+00 -.100E+02 -.492E+01   -.351E-01 0.401E+00 0.457E-01   0.121E-05 0.333E-04 0.233E-03
   -.159E+01 0.129E+02 -.101E+02   0.145E+01 -.124E+02 0.106E+02   -.655E-01 0.512E+00 0.304E+00   -.387E-05 0.122E-03 0.177E-03
   -.221E+01 0.239E+02 -.125E+02   0.240E+01 -.260E+02 0.121E+02   0.884E+00 -.190E+01 0.695E+00   -.165E-04 -.770E-04 -.950E-04
   -.386E+00 0.127E+02 -.533E+01   0.329E+00 -.132E+02 0.474E+01   0.122E+00 0.131E+00 0.760E+00   0.145E-05 -.102E-03 -.996E-04
   -.485E-01 0.981E+01 0.329E+01   -.466E-02 -.971E+01 -.332E+01   0.192E-01 -.459E+00 0.780E-01   -.510E-06 -.219E-04 -.425E-04
   -.375E-02 0.542E+01 -.223E+01   0.206E-02 -.522E+01 0.224E+01   0.390E-02 -.569E+00 0.151E-01   -.578E-06 0.504E-04 0.743E-04
   0.107E+00 -.428E+01 -.115E+02   -.122E+00 0.417E+01 0.117E+02   -.416E-01 -.268E+00 -.331E-01   0.128E-05 0.786E-04 0.715E-04
   -.369E+01 -.237E+02 -.294E+01   0.312E+01 0.238E+02 0.266E+01   0.381E+00 -.339E-01 0.347E-01   -.164E-05 -.182E-03 -.958E-04
   -.171E+01 -.135E+02 0.924E+01   0.157E+01 0.131E+02 -.975E+01   -.476E-01 -.455E+00 -.187E+00   -.137E-05 0.177E-03 -.515E-04
   0.436E+00 -.979E+01 -.494E+01   -.389E+00 0.985E+01 0.506E+01   -.402E-01 -.397E+00 -.509E-01   0.483E-05 -.735E-05 -.398E-04
   0.617E-02 0.127E+01 -.320E+01   0.310E-02 -.146E+01 0.309E+01   -.103E-01 -.261E+00 0.138E+00   0.881E-06 -.757E-04 0.346E-04
   -.165E-01 0.741E+01 0.341E+01   -.116E-01 -.728E+01 -.356E+01   0.201E-01 -.547E+00 0.142E+00   0.849E-06 -.150E-04 0.142E-03
   -.274E+00 0.154E+02 -.588E+00   0.218E+00 -.154E+02 0.489E+00   -.243E-02 -.421E+00 0.605E-01   0.752E-06 0.420E-04 0.201E-03
   -.212E+01 0.168E+02 -.143E+02   0.214E+01 -.169E+02 0.142E+02   -.109E+00 -.103E+01 0.683E+00   0.211E-05 0.130E-03 0.175E-03
   0.213E+01 0.318E+02 0.169E+02   -.174E+01 -.320E+02 -.175E+02   -.860E-01 -.491E+00 -.511E+00   -.845E-06 -.548E-04 -.116E-03
   -.101E+00 0.199E+01 0.113E+02   0.139E+00 -.178E+01 -.114E+02   -.882E-01 -.555E+00 0.148E-01   0.438E-06 0.949E-04 -.131E-03
   0.570E-02 -.357E+01 0.529E+00   0.271E-02 0.358E+01 -.463E+00   -.167E-01 -.429E+00 -.337E-01   -.101E-05 0.754E-04 -.235E-04
   0.444E-01 -.538E+01 -.164E+01   0.710E-02 0.527E+01 0.171E+01   -.814E-02 -.358E+00 -.134E+00   0.796E-06 -.591E-04 0.818E-04
   0.220E+00 -.317E+01 0.641E+01   -.217E+00 0.325E+01 -.678E+01   0.129E-01 -.539E+00 -.890E-01   -.314E-05 -.145E-03 0.171E-03
   0.110E+02 0.163E+02 0.126E+02   -.111E+02 -.171E+02 -.129E+02   -.214E+01 -.443E+00 -.113E+01   0.410E-05 -.395E-04 0.165E-03
   -.221E+01 0.239E+02 -.125E+02   0.240E+01 -.260E+02 0.121E+02   0.884E+00 -.190E+01 0.695E+00   -.163E-04 -.769E-04 -.937E-04
   -.386E+00 0.127E+02 -.533E+01   0.329E+00 -.132E+02 0.474E+01   0.122E+00 0.131E+00 0.760E+00   0.994E-06 -.101E-03 -.100E-03
   -.485E-01 0.981E+01 0.329E+01   -.466E-02 -.971E+01 -.332E+01   0.192E-01 -.459E+00 0.780E-01   0.146E-05 -.208E-04 -.434E-04
   -.375E-02 0.542E+01 -.223E+01   0.206E-02 -.522E+01 0.224E+01   0.390E-02 -.569E+00 0.151E-01   0.244E-05 0.504E-04 0.741E-04
   0.107E+00 -.428E+01 -.115E+02   -.122E+00 0.417E+01 0.117E+02   -.416E-01 -.268E+00 -.331E-01   0.176E-05 0.804E-04 0.709E-04
   -.369E+01 -.237E+02 -.294E+01   0.312E+01 0.238E+02 0.266E+01   0.381E+00 -.339E-01 0.347E-01   0.223E-05 -.182E-03 -.968E-04
   -.171E+01 -.135E+02 0.924E+01   0.157E+01 0.131E+02 -.975E+01   -.476E-01 -.455E+00 -.187E+00   -.371E-05 0.177E-03 -.503E-04
   0.436E+00 -.979E+01 -.494E+01   -.389E+00 0.985E+01 0.506E+01   -.402E-01 -.397E+00 -.509E-01   0.333E-05 -.823E-05 -.389E-04
   0.617E-02 0.127E+01 -.320E+01   0.310E-02 -.146E+01 0.309E+01   -.103E-01 -.261E+00 0.138E+00   -.166E-05 -.755E-04 0.354E-04
   -.165E-01 0.741E+01 0.341E+01   -.116E-01 -.728E+01 -.356E+01   0.201E-01 -.547E+00 0.142E+00   0.123E-05 -.162E-04 0.142E-03
   -.274E+00 0.154E+02 -.588E+00   0.218E+00 -.154E+02 0.489E+00   -.243E-02 -.421E+00 0.605E-01   -.658E-06 0.406E-04 0.200E-03
   -.212E+01 0.168E+02 -.143E+02   0.214E+01 -.169E+02 0.142E+02   -.109E+00 -.103E+01 0.683E+00   0.201E-06 0.130E-03 0.174E-03
   0.213E+01 0.318E+02 0.169E+02   -.174E+01 -.320E+02 -.175E+02   -.860E-01 -.491E+00 -.511E+00   -.172E-05 -.549E-04 -.113E-03
   -.101E+00 0.199E+01 0.113E+02   0.139E+00 -.178E+01 -.114E+02   -.882E-01 -.555E+00 0.148E-01   -.174E-05 0.953E-04 -.130E-03
   0.570E-02 -.357E+01 0.529E+00   0.271E-02 0.358E+01 -.463E+00   -.167E-01 -.429E+00 -.337E-01   -.123E-05 0.750E-04 -.220E-04
   0.444E-01 -.538E+01 -.164E+01   0.710E-02 0.527E+01 0.171E+01   -.814E-02 -.358E+00 -.134E+00   -.135E-05 -.581E-04 0.827E-04
   0.220E+00 -.317E+01 0.641E+01   -.217E+00 0.325E+01 -.678E+01   0.129E-01 -.539E+00 -.890E-01   -.232E-05 -.144E-03 0.170E-03
   0.110E+02 0.163E+02 0.126E+02   -.111E+02 -.171E+02 -.129E+02   -.214E+01 -.443E+00 -.113E+01   0.742E-05 -.390E-04 0.166E-03
 -----------------------------------------------------------------------------------------------
   -.883E+01 0.467E+00 -.190E+00   0.373E-13 0.497E-13 0.176E-12   0.867E+01 -.638E+00 0.191E+00   -.111E-03 -.428E-03 0.557E-04
 
 
 POSITION                                       TOTAL-FORCE (eV/Angst)
 -----------------------------------------------------------------------------------
      0.00000      0.00000      0.00000        -0.058194     -1.272319      0.913888
      5.81242     10.04667      0.64582         0.490818     -0.405934      0.018813
      3.87495      3.65333      1.29165        -0.377914      0.225179     -0.584122
      1.93747     13.70000      1.93747         0.004020     -0.120305      0.321845
      0.00000      7.30667      2.58330         0.146048     -0.156607     -0.711210
      5.81242      0.91333      3.22912         1.119799      1.967665     -2.877071
      3.87495      0.00000      0.00000        -0.058194     -1.272319      0.913888
      1.93747     10.04667      0.64582         0.490818     -0.405934      0.018813
      0.00000      3.65333      1.29165        -0.377914      0.225179     -0.584122
      5.81242     13.70000      1.93747         0.004020     -0.120305      0.321845
      3.87495      7.30667      2.58330         0.146048     -0.156607     -0.711210
      1.93747      0.91333      3.22912         1.119799      1.967665     -2.877071
      5.81242     12.33000      0.00000         1.135340     -2.103042      3.086139
      3.87495      5.93667      0.64582         0.132651      0.089244      0.800089
      1.93747     15.98333      1.29165         0.006857      0.126236     -0.314181
      0.00000      9.59000      1.93747        -0.369867     -0.210157      0.575453
      5.81242      3.19667      2.58330         0.461789      0.317428     -0.111213
      3.87495     13.24333      3.22912        -0.044926      1.026752     -0.700359
      1.93747     12.33000      0.00000         1.135340     -2.103042      3.086139
      0.00000      5.93667      0.64582         0.132651      0.089244      0.800089
      5.81242     15.98333      1.29165         0.006857      0.126236     -0.314181
      3.87495      9.59000      1.93747        -0.369867     -0.210157      0.575453
      1.93747      3.19667      2.58330         0.461789      0.317428     -0.111213
      0.00000     13.24333      3.22912        -0.044926      1.026752     -0.700359
      0.30592     11.39706      4.62912        -0.233168      0.222716      0.056154
      2.24339      8.65706      6.63023        -0.049952      0.384178     -0.098413
      4.18086      5.91706      8.63135        -0.005183      0.391704     -0.017380
      6.11833      3.17706     10.63246        -0.021859      0.343309     -0.038572
      0.30592      0.43706     12.63357         0.067406      0.353611     -0.163479
      2.24339     14.13706     14.63468         1.120905      4.140957     -0.490077
      0.30592      0.43706      4.62912        -2.142733      1.276937      1.231699
      2.24339     14.13706      6.63023         0.027890      0.448019      0.474352
      4.18086     11.39706      8.63135         0.036507      0.488947      0.046979
      6.11833      8.65706     10.63246         0.003550      0.401849     -0.031523
      0.30592      5.91706     12.63357        -0.041563      0.336692     -0.041351
      2.24339      3.17706     14.63468         0.303176      0.728981      1.117244
      0.30592      5.91706      4.62912        -0.114919      1.157742     -0.627938
      2.24339      3.17706      6.63023        -0.052683      0.450058      0.062875
      4.18086      0.43706      8.63135        -0.017380      0.436697      0.005361
      6.11833     14.13706     10.63246         0.009123      0.428517     -0.015705
      0.30592     11.39706     12.63357         0.015025      0.325056     -0.089716
      2.24339      8.65706     14.63468        -0.200227      0.959104      0.761483
      4.18086     11.39706      4.62912        -0.233168      0.222716      0.056154
      6.11833      8.65706      6.63023        -0.049952      0.384178     -0.098413
      0.30592      5.91706      8.63135        -0.005183      0.391704     -0.017380
      2.24339      3.17706     10.63246        -0.021859      0.343309     -0.038572
      4.18086      0.43706     12.63357         0.067406      0.353611     -0.163479
      6.11833     14.13706     14.63468         1.120905      4.140957     -0.490077
      4.18086      0.43706      4.62912        -2.142733      1.276937      1.231699
      6.11833     14.13706      6.63023         0.027890      0.448019      0.474352
      0.30592     11.39706      8.63135         0.036507      0.488947      0.046979
      2.24339      8.65706     10.63246         0.003550      0.401849     -0.031523
      4.18086      5.91706     12.63357        -0.041563      0.336692     -0.041351
      6.11833      3.17706     14.63468         0.303176      0.728981      1.117244
      4.18086      5.91706      4.62912        -0.114919      1.157742     -0.627938
      6.11833      3.17706      6.63023        -0.052683      0.450058      0.062875
      0.30592      0.43706      8.63135        -0.017380      0.436697      0.005361
      2.24339     14.13706     10.63246         0.009123      0.428517     -0.015705
      4.18086     11.39706     12.63357         0.015025      0.325056     -0.089716
      6.11833      8.65706     14.63468        -0.200227      0.959104      0.761483
      6.11833     15.50706      4.62912         1.071233     -3.996397      0.330375
      0.30592     12.76706      6.63023         0.066560     -0.360685      0.167230
      2.24339     10.02706      8.63135        -0.032263     -0.359792      0.050015
      4.18086      7.28706     10.63246         0.003859     -0.368050      0.020254
      6.11833      4.54706     12.63357        -0.054345     -0.378122      0.127971
      0.30592      1.80706     14.63468        -0.181057      0.001047     -0.245218
      6.11833      4.54706      4.62912        -0.184691     -0.877292     -0.694502
      0.30592      1.80706      6.63023         0.008626     -0.332029      0.065284
      2.24339     15.50706      8.63135         0.000624     -0.451492      0.027785
      4.18086     12.76706     10.63246        -0.006397     -0.412670     -0.005879
      6.11833     10.02706     12.63357        -0.057273     -0.445940     -0.038369
      0.30592      7.28706     14.63468        -0.087045     -1.072724      0.583901
      6.11833     10.02706      4.62912         0.306512     -0.739296     -1.103341
      0.30592      7.28706      6.63023        -0.049175     -0.343850      0.006394
      2.24339      4.54706      8.63135        -0.006620     -0.420133      0.032405
      4.18086      1.80706     10.63246         0.044980     -0.471751     -0.058323
      6.11833     15.50706     12.63357         0.017602     -0.453809     -0.463155
      0.30592     12.76706     14.63468        -2.211468     -1.276230     -1.362893
      2.24339     15.50706      4.62912         1.071233     -3.996397      0.330375
      4.18086     12.76706      6.63023         0.066560     -0.360685      0.167230
      6.11833     10.02706      8.63135        -0.032263     -0.359792      0.050015
      0.30592      7.28706     10.63246         0.003859     -0.368050      0.020254
      2.24339      4.54706     12.63357        -0.054345     -0.378122      0.127971
      4.18086      1.80706     14.63468        -0.181057      0.001047     -0.245218
      2.24339      4.54706      4.62912        -0.184691     -0.877292     -0.694502
      4.18086      1.80706      6.63023         0.008626     -0.332029      0.065284
      6.11833     15.50706      8.63135         0.000624     -0.451492      0.027785
      0.30592     12.76706     10.63246        -0.006397     -0.412670     -0.005879
      2.24339     10.02706     12.63357        -0.057273     -0.445940     -0.038369
      4.18086      7.28706     14.63468        -0.087045     -1.072724      0.583901
      2.24339     10.02706      4.62912         0.306512     -0.739296     -1.103341
      4.18086      7.28706      6.63023        -0.049175     -0.343850      0.006394
      6.11833      4.54706      8.63135        -0.006620     -0.420133      0.032405
      0.30592      1.80706     10.63246         0.044980     -0.471751     -0.058323
      2.24339     15.50706     12.63357         0.017602     -0.453809     -0.463155
      4.18086     12.76706     14.63468        -2.211468     -1.276230     -1.362893
 -----------------------------------------------------------------------------------
    total drift:                               -0.158507     -0.171626      0.001734


--------------------------------------------------------------------------------------------------------



  FREE ENERGIE OF THE ION-ELECTRON SYSTEM (eV)
  ---------------------------------------------------
  free  energy   TOTEN  =      -424.53467864 eV

  energy  without entropy=     -424.53261749  energy(sigma->0) =     -424.53364807
 


--------------------------------------------------------------------------------------------------------


    POTLOK:  cpu time      4.0376: real time      4.0601


--------------------------------------------------------------------------------------------------------


     LOOP+:  cpu time   1828.5967: real time   1842.9594
    4ORBIT:  cpu time      0.0000: real time      0.0000

 total amount of memory used by VASP MPI-rank0   596097. kBytes
=======================================================================

   base      :      30000. kBytes
   nonlr-proj:       5605. kBytes
   fftplans  :      45650. kBytes
   grid      :      30067. kBytes
   one-center:         97. kBytes
   wavefun   :     484678. kBytes
 
  
  
 General timing and accounting informations for this job:
 ========================================================
  
                  Total CPU time used (sec):     1886.698
                            User time (sec):     1799.866
                          System time (sec):       86.832
                         Elapsed time (sec):     1903.888
  
                   Maximum memory used (kb):      850568.
                   Average memory used (kb):          N/A
  
                          Minor page faults:       349459
                          Major page faults:           23
                 Voluntary context switches:         1394
