 264 264   0   0
  0.2774202E+02  0.1958175E-08  0.1958175E-08  0.1910025E-08  0.5000000E-15
  1.000000000000000E-004
  CAR 
 Si and Ge interface calculation         
      6.63669434     -9.19653386  301      4.06446229      1.00000000
     -9.197  0.0000E+00  0.0000E+00  0.0000E+00  0.0000E+00
     -9.144  0.0000E+00  0.0000E+00  0.0000E+00  0.0000E+00
     -9.091  0.0000E+00  0.0000E+00  0.0000E+00  0.0000E+00
     -9.038  0.0000E+00  0.0000E+00  0.0000E+00  0.0000E+00
     -8.985  0.0000E+00  0.0000E+00  0.0000E+00  0.0000E+00
     -8.933  0.0000E+00  0.0000E+00  0.0000E+00  0.0000E+00
     -8.880  0.0000E+00  0.0000E+00  0.0000E+00  0.0000E+00
     -8.827  0.0000E+00  0.0000E+00  0.0000E+00  0.0000E+00
     -8.774  0.0000E+00  0.0000E+00  0.0000E+00  0.0000E+00
     -8.722  0.0000E+00  0.0000E+00  0.0000E+00  0.0000E+00
     -8.669  0.0000E+00  0.0000E+00  0.0000E+00  0.0000E+00
     -8.616  0.0000E+00  0.0000E+00  0.0000E+00  0.0000E+00
     -8.563  0.0000E+00  0.0000E+00  0.0000E+00  0.0000E+00
     -8.510  0.9592E-05  0.2864E-05  0.5062E-06  0.1512E-06
     -8.458  0.2442E+02  0.2261E+02  0.1289E+01  0.1193E+01
     -8.405  0.1348E+02  0.1529E+02  0.2000E+01  0.2000E+01
     -8.352  0.0000E+00  0.0000E+00  0.2000E+01  0.2000E+01
     -8.299  0.3423E-05  0.9423E-06  0.2000E+01  0.2000E+01
     -8.247  0.1247E+02  0.1165E+02  0.2658E+01  0.2615E+01
     -8.194  0.1340E+02  0.1339E+02  0.3366E+01  0.3321E+01
     -8.141  0.2548E+02  0.2541E+02  0.4710E+01  0.4662E+01
     -8.088  0.1488E+02  0.1570E+02  0.5495E+01  0.5491E+01
     -8.035  0.9528E+01  0.9574E+01  0.5998E+01  0.5997E+01
     -7.983  0.3682E+02  0.3619E+02  0.7941E+01  0.7907E+01
     -7.930  0.6514E+01  0.6285E+01  0.8285E+01  0.8238E+01
     -7.877  0.4420E+01  0.5156E+01  0.8518E+01  0.8510E+01
     -7.824  0.2783E+02  0.2781E+02  0.9987E+01  0.9978E+01
     -7.772  0.2184E+01  0.1798E+01  0.1010E+02  0.1007E+02
     -7.719  0.2628E+02  0.2670E+02  0.1149E+02  0.1148E+02
     -7.666  0.2037E+00  0.3466E+00  0.1150E+02  0.1150E+02
     -7.613  0.1764E+02  0.1700E+02  0.1243E+02  0.1240E+02
     -7.560  0.2035E+02  0.2094E+02  0.1351E+02  0.1350E+02
     -7.508  0.4101E+02  0.4017E+02  0.1567E+02  0.1562E+02
     -7.455  0.6261E+01  0.7153E+01  0.1600E+02  0.1600E+02
     -7.402  0.1376E+02  0.1239E+02  0.1673E+02  0.1665E+02
     -7.349  0.1468E+02  0.1604E+02  0.1750E+02  0.1750E+02
     -7.297  0.2796E+02  0.2716E+02  0.1898E+02  0.1893E+02
     -7.244  0.3072E+02  0.2946E+02  0.2060E+02  0.2049E+02
     -7.191  0.3655E+02  0.3669E+02  0.2253E+02  0.2243E+02
     -7.138  0.3375E+02  0.3323E+02  0.2431E+02  0.2418E+02
     -7.085  0.2229E+02  0.2417E+02  0.2549E+02  0.2545E+02
     -7.033  0.3594E+02  0.3508E+02  0.2738E+02  0.2731E+02
     -6.980  0.3787E+02  0.3731E+02  0.2938E+02  0.2928E+02
     -6.927  0.3229E+02  0.3360E+02  0.3109E+02  0.3105E+02
     -6.874  0.2792E+02  0.2818E+02  0.3256E+02  0.3254E+02
     -6.822  0.4085E+02  0.3935E+02  0.3471E+02  0.3461E+02
     -6.769  0.3742E+02  0.3795E+02  0.3669E+02  0.3662E+02
     -6.716  0.6572E+02  0.6451E+02  0.4016E+02  0.4002E+02
     -6.663  0.5041E+02  0.5143E+02  0.4282E+02  0.4273E+02
     -6.610  0.1954E+02  0.1984E+02  0.4385E+02  0.4378E+02
     -6.558  0.3587E+02  0.3398E+02  0.4574E+02  0.4557E+02
     -6.505  0.3557E+02  0.3684E+02  0.4762E+02  0.4752E+02
     -6.452  0.5284E+02  0.5362E+02  0.5041E+02  0.5035E+02
     -6.399  0.5515E+02  0.5438E+02  0.5332E+02  0.5322E+02
     -6.347  0.2845E+02  0.2802E+02  0.5482E+02  0.5470E+02
     -6.294  0.2932E+02  0.2986E+02  0.5637E+02  0.5627E+02
     -6.241  0.7785E+02  0.7722E+02  0.6048E+02  0.6035E+02
     -6.188  0.7461E+02  0.7245E+02  0.6442E+02  0.6417E+02
     -6.135  0.4319E+02  0.4667E+02  0.6669E+02  0.6664E+02
     -6.083  0.7724E+02  0.7450E+02  0.7077E+02  0.7057E+02
     -6.030  0.6927E+02  0.7117E+02  0.7443E+02  0.7432E+02
     -5.977  0.6879E+02  0.6812E+02  0.7806E+02  0.7792E+02
     -5.924  0.6521E+02  0.6373E+02  0.8150E+02  0.8128E+02
     -5.872  0.6501E+02  0.6539E+02  0.8493E+02  0.8473E+02
     -5.819  0.6608E+02  0.6679E+02  0.8842E+02  0.8826E+02
     -5.766  0.7830E+02  0.7567E+02  0.9255E+02  0.9225E+02
     -5.713  0.8070E+02  0.8196E+02  0.9681E+02  0.9658E+02
     -5.660  0.9523E+02  0.9440E+02  0.1018E+03  0.1016E+03
     -5.608  0.6765E+02  0.7034E+02  0.1054E+03  0.1053E+03
     -5.555  0.7807E+02  0.7750E+02  0.1095E+03  0.1094E+03
     -5.502  0.7556E+02  0.7604E+02  0.1135E+03  0.1134E+03
     -5.449  0.7481E+02  0.7470E+02  0.1175E+03  0.1173E+03
     -5.397  0.7114E+02  0.7081E+02  0.1212E+03  0.1211E+03
     -5.344  0.7272E+02  0.7189E+02  0.1251E+03  0.1249E+03
     -5.291  0.9126E+02  0.9008E+02  0.1299E+03  0.1296E+03
     -5.238  0.7808E+02  0.8023E+02  0.1340E+03  0.1338E+03
     -5.185  0.5709E+02  0.5628E+02  0.1370E+03  0.1368E+03
     -5.133  0.6901E+02  0.6842E+02  0.1406E+03  0.1404E+03
     -5.080  0.6387E+02  0.6513E+02  0.1440E+03  0.1439E+03
     -5.027  0.7389E+02  0.7361E+02  0.1479E+03  0.1477E+03
     -4.974  0.7536E+02  0.7407E+02  0.1519E+03  0.1517E+03
     -4.922  0.6682E+02  0.6779E+02  0.1554E+03  0.1552E+03
     -4.869  0.7861E+02  0.7840E+02  0.1596E+03  0.1594E+03
     -4.816  0.8249E+02  0.8089E+02  0.1639E+03  0.1636E+03
     -4.763  0.9975E+02  0.1004E+03  0.1692E+03  0.1689E+03
     -4.710  0.1140E+03  0.1116E+03  0.1752E+03  0.1748E+03
     -4.658  0.1196E+03  0.1216E+03  0.1815E+03  0.1812E+03
     -4.605  0.1059E+03  0.1040E+03  0.1871E+03  0.1867E+03
     -4.552  0.8709E+02  0.8780E+02  0.1917E+03  0.1914E+03
     -4.499  0.1236E+03  0.1239E+03  0.1982E+03  0.1979E+03
     -4.447  0.9959E+02  0.9734E+02  0.2035E+03  0.2030E+03
     -4.394  0.1008E+03  0.9943E+02  0.2088E+03  0.2083E+03
     -4.341  0.7309E+02  0.7895E+02  0.2127E+03  0.2125E+03
     -4.288  0.8008E+02  0.7821E+02  0.2169E+03  0.2166E+03
     -4.235  0.7265E+02  0.7310E+02  0.2207E+03  0.2204E+03
     -4.183  0.8874E+02  0.9015E+02  0.2254E+03  0.2252E+03
     -4.130  0.9747E+02  0.9666E+02  0.2306E+03  0.2303E+03
     -4.077  0.5443E+02  0.5601E+02  0.2334E+03  0.2333E+03
     -4.024  0.9155E+02  0.8977E+02  0.2383E+03  0.2380E+03
     -3.972  0.4359E+02  0.4543E+02  0.2406E+03  0.2404E+03
     -3.919  0.4425E+02  0.4442E+02  0.2429E+03  0.2427E+03
     -3.866  0.4349E+02  0.4303E+02  0.2452E+03  0.2450E+03
     -3.813  0.6592E+02  0.6572E+02  0.2487E+03  0.2485E+03
     -3.760  0.5236E+02  0.5162E+02  0.2514E+03  0.2512E+03
     -3.708  0.7608E+02  0.7663E+02  0.2554E+03  0.2553E+03
     -3.655  0.7141E+02  0.6879E+02  0.2592E+03  0.2589E+03
     -3.602  0.6517E+02  0.6640E+02  0.2627E+03  0.2624E+03
     -3.549  0.5791E+02  0.5938E+02  0.2657E+03  0.2655E+03
     -3.497  0.7842E+02  0.7781E+02  0.2699E+03  0.2696E+03
     -3.444  0.7392E+02  0.7353E+02  0.2738E+03  0.2735E+03
     -3.391  0.6852E+02  0.6697E+02  0.2774E+03  0.2770E+03
     -3.338  0.8275E+02  0.8297E+02  0.2817E+03  0.2814E+03
     -3.285  0.7639E+02  0.7742E+02  0.2858E+03  0.2855E+03
     -3.233  0.7647E+02  0.7398E+02  0.2898E+03  0.2894E+03
     -3.180  0.6790E+02  0.7143E+02  0.2934E+03  0.2932E+03
     -3.127  0.7044E+02  0.6723E+02  0.2971E+03  0.2967E+03
     -3.074  0.7710E+02  0.7825E+02  0.3012E+03  0.3009E+03
     -3.022  0.7423E+02  0.7679E+02  0.3051E+03  0.3049E+03
     -2.969  0.7246E+02  0.7122E+02  0.3089E+03  0.3087E+03
     -2.916  0.1086E+03  0.1085E+03  0.3146E+03  0.3144E+03
     -2.863  0.8365E+02  0.8373E+02  0.3191E+03  0.3188E+03
     -2.810  0.9130E+02  0.8792E+02  0.3239E+03  0.3235E+03
     -2.758  0.1087E+03  0.1119E+03  0.3296E+03  0.3294E+03
     -2.705  0.8443E+02  0.8527E+02  0.3341E+03  0.3339E+03
     -2.652  0.9838E+02  0.9642E+02  0.3393E+03  0.3390E+03
     -2.599  0.1067E+03  0.1065E+03  0.3449E+03  0.3446E+03
     -2.547  0.1227E+03  0.1220E+03  0.3514E+03  0.3510E+03
     -2.494  0.1086E+03  0.1090E+03  0.3571E+03  0.3568E+03
     -2.441  0.1006E+03  0.1033E+03  0.3624E+03  0.3622E+03
     -2.388  0.9359E+02  0.9056E+02  0.3674E+03  0.3670E+03
     -2.335  0.1006E+03  0.1021E+03  0.3727E+03  0.3724E+03
     -2.283  0.1026E+03  0.1014E+03  0.3781E+03  0.3777E+03
     -2.230  0.8799E+02  0.9182E+02  0.3827E+03  0.3826E+03
     -2.177  0.3885E+02  0.4072E+02  0.3848E+03  0.3847E+03
     -2.124  0.4119E+02  0.3841E+02  0.3869E+03  0.3868E+03
     -2.072  0.6398E+02  0.6314E+02  0.3903E+03  0.3901E+03
     -2.019  0.8021E+02  0.7868E+02  0.3946E+03  0.3942E+03
     -1.966  0.1045E+03  0.1037E+03  0.4001E+03  0.3997E+03
     -1.913  0.1006E+03  0.1023E+03  0.4054E+03  0.4051E+03
     -1.860  0.6508E+02  0.6659E+02  0.4088E+03  0.4086E+03
     -1.808  0.6756E+02  0.6592E+02  0.4124E+03  0.4121E+03
     -1.755  0.1063E+03  0.1054E+03  0.4180E+03  0.4177E+03
     -1.702  0.9618E+02  0.9806E+02  0.4231E+03  0.4228E+03
     -1.649  0.9682E+02  0.9641E+02  0.4282E+03  0.4279E+03
     -1.597  0.7334E+02  0.7036E+02  0.4321E+03  0.4317E+03
     -1.544  0.9097E+02  0.9568E+02  0.4369E+03  0.4367E+03
     -1.491  0.5634E+02  0.5589E+02  0.4398E+03  0.4397E+03
     -1.438  0.4131E+02  0.4267E+02  0.4420E+03  0.4419E+03
     -1.385  0.8172E+02  0.7974E+02  0.4463E+03  0.4461E+03
     -1.333  0.6779E+02  0.6959E+02  0.4499E+03  0.4498E+03
     -1.280  0.2817E+02  0.2708E+02  0.4514E+03  0.4512E+03
     -1.227  0.6230E+02  0.6091E+02  0.4547E+03  0.4544E+03
     -1.174  0.5325E+02  0.5660E+02  0.4575E+03  0.4574E+03
     -1.122  0.5484E+02  0.5235E+02  0.4604E+03  0.4602E+03
     -1.069  0.4177E+02  0.4292E+02  0.4626E+03  0.4624E+03
     -1.016  0.6193E+02  0.6036E+02  0.4659E+03  0.4656E+03
     -0.963  0.3423E+02  0.3676E+02  0.4677E+03  0.4676E+03
     -0.910  0.3840E+02  0.3698E+02  0.4697E+03  0.4695E+03
     -0.858  0.7578E+02  0.7404E+02  0.4737E+03  0.4734E+03
     -0.805  0.6433E+02  0.6588E+02  0.4771E+03  0.4769E+03
     -0.752  0.3917E+02  0.3909E+02  0.4791E+03  0.4790E+03
     -0.699  0.7868E+02  0.7533E+02  0.4833E+03  0.4829E+03
     -0.647  0.6039E+02  0.6365E+02  0.4865E+03  0.4863E+03
     -0.594  0.3910E+02  0.3973E+02  0.4885E+03  0.4884E+03
     -0.541  0.1891E+02  0.1970E+02  0.4895E+03  0.4894E+03
     -0.488  0.2437E+02  0.2535E+02  0.4908E+03  0.4908E+03
     -0.435  0.2747E+02  0.2759E+02  0.4923E+03  0.4922E+03
     -0.383  0.3351E+02  0.3127E+02  0.4941E+03  0.4939E+03
     -0.330  0.5972E+02  0.5931E+02  0.4972E+03  0.4970E+03
     -0.277  0.7173E+02  0.7323E+02  0.5010E+03  0.5009E+03
     -0.224  0.9118E+02  0.8803E+02  0.5058E+03  0.5055E+03
     -0.172  0.9522E+02  0.9550E+02  0.5108E+03  0.5106E+03
     -0.119  0.1225E+03  0.1222E+03  0.5173E+03  0.5170E+03
     -0.066  0.1085E+03  0.1098E+03  0.5230E+03  0.5228E+03
     -0.013  0.1056E+03  0.1041E+03  0.5286E+03  0.5283E+03
      0.040  0.1350E+03  0.1325E+03  0.5357E+03  0.5353E+03
      0.092  0.1325E+03  0.1343E+03  0.5427E+03  0.5424E+03
      0.145  0.1094E+03  0.1099E+03  0.5485E+03  0.5482E+03
      0.198  0.7875E+02  0.8045E+02  0.5526E+03  0.5524E+03
      0.251  0.7896E+02  0.8157E+02  0.5568E+03  0.5567E+03
      0.303  0.9266E+02  0.8698E+02  0.5617E+03  0.5613E+03
      0.356  0.7235E+02  0.7545E+02  0.5655E+03  0.5653E+03
      0.409  0.1093E+03  0.1066E+03  0.5713E+03  0.5709E+03
      0.462  0.1003E+03  0.1033E+03  0.5766E+03  0.5764E+03
      0.515  0.8640E+02  0.8357E+02  0.5811E+03  0.5808E+03
      0.567  0.1279E+03  0.1296E+03  0.5879E+03  0.5876E+03
      0.620  0.1132E+03  0.1127E+03  0.5939E+03  0.5936E+03
      0.673  0.1310E+03  0.1290E+03  0.6008E+03  0.6004E+03
      0.726  0.1595E+03  0.1600E+03  0.6092E+03  0.6088E+03
      0.778  0.1255E+03  0.1259E+03  0.6158E+03  0.6155E+03
      0.831  0.1027E+03  0.1057E+03  0.6212E+03  0.6211E+03
      0.884  0.1091E+03  0.1064E+03  0.6270E+03  0.6267E+03
      0.937  0.1145E+03  0.1147E+03  0.6330E+03  0.6327E+03
      0.990  0.1097E+03  0.1094E+03  0.6388E+03  0.6385E+03
      1.042  0.1296E+03  0.1258E+03  0.6457E+03  0.6451E+03
      1.095  0.1577E+03  0.1591E+03  0.6540E+03  0.6535E+03
      1.148  0.1689E+03  0.1706E+03  0.6629E+03  0.6625E+03
      1.201  0.1911E+03  0.1869E+03  0.6730E+03  0.6724E+03
      1.253  0.1731E+03  0.1761E+03  0.6821E+03  0.6817E+03
      1.306  0.1751E+03  0.1724E+03  0.6914E+03  0.6908E+03
      1.359  0.1856E+03  0.1863E+03  0.7012E+03  0.7006E+03
      1.412  0.1661E+03  0.1679E+03  0.7099E+03  0.7095E+03
      1.465  0.1336E+03  0.1302E+03  0.7170E+03  0.7164E+03
      1.517  0.2182E+03  0.2208E+03  0.7285E+03  0.7280E+03
      1.570  0.1903E+03  0.1875E+03  0.7385E+03  0.7379E+03
      1.623  0.1872E+03  0.1888E+03  0.7484E+03  0.7479E+03
      1.676  0.1758E+03  0.1745E+03  0.7577E+03  0.7571E+03
      1.728  0.1888E+03  0.1894E+03  0.7676E+03  0.7671E+03
      1.781  0.1892E+03  0.1923E+03  0.7776E+03  0.7772E+03
      1.834  0.1715E+03  0.1698E+03  0.7867E+03  0.7862E+03
      1.887  0.1494E+03  0.1468E+03  0.7946E+03  0.7940E+03
      1.940  0.1994E+03  0.1982E+03  0.8051E+03  0.8044E+03
      1.992  0.1908E+03  0.1941E+03  0.8152E+03  0.8147E+03
      2.045  0.1646E+03  0.1621E+03  0.8239E+03  0.8232E+03
      2.098  0.2016E+03  0.2012E+03  0.8345E+03  0.8338E+03
      2.151  0.1948E+03  0.1950E+03  0.8448E+03  0.8441E+03
      2.203  0.1483E+03  0.1525E+03  0.8526E+03  0.8522E+03
      2.256  0.1551E+03  0.1523E+03  0.8608E+03  0.8602E+03
      2.309  0.1486E+03  0.1491E+03  0.8686E+03  0.8681E+03
      2.362  0.1792E+03  0.1774E+03  0.8781E+03  0.8774E+03
      2.415  0.1870E+03  0.1892E+03  0.8880E+03  0.8874E+03
      2.467  0.1426E+03  0.1424E+03  0.8955E+03  0.8949E+03
      2.520  0.1384E+03  0.1376E+03  0.9028E+03  0.9022E+03
      2.573  0.1351E+03  0.1330E+03  0.9099E+03  0.9092E+03
      2.626  0.1391E+03  0.1404E+03  0.9172E+03  0.9166E+03
      2.678  0.1216E+03  0.1261E+03  0.9237E+03  0.9233E+03
      2.731  0.1661E+03  0.1568E+03  0.9324E+03  0.9316E+03
      2.784  0.1435E+03  0.1546E+03  0.9400E+03  0.9397E+03
      2.837  0.1343E+03  0.1249E+03  0.9471E+03  0.9463E+03
      2.889  0.1534E+03  0.1562E+03  0.9552E+03  0.9546E+03
      2.942  0.1000E+03  0.1021E+03  0.9605E+03  0.9600E+03
      2.995  0.1276E+03  0.1258E+03  0.9672E+03  0.9666E+03
      3.048  0.1189E+03  0.1132E+03  0.9735E+03  0.9726E+03
      3.101  0.1143E+03  0.1197E+03  0.9795E+03  0.9789E+03
      3.153  0.1053E+03  0.1070E+03  0.9851E+03  0.9845E+03
      3.206  0.1163E+03  0.1135E+03  0.9912E+03  0.9905E+03
      3.259  0.1069E+03  0.1061E+03  0.9969E+03  0.9961E+03
      3.312  0.1239E+03  0.1275E+03  0.1003E+04  0.1003E+04
      3.364  0.8105E+02  0.8150E+02  0.1008E+04  0.1007E+04
      3.417  0.6446E+02  0.6879E+02  0.1011E+04  0.1011E+04
      3.470  0.8764E+02  0.8553E+02  0.1016E+04  0.1015E+04
      3.523  0.1110E+03  0.1086E+03  0.1022E+04  0.1021E+04
      3.576  0.8117E+02  0.8353E+02  0.1026E+04  0.1025E+04
      3.628  0.8629E+02  0.8922E+02  0.1030E+04  0.1030E+04
      3.681  0.7039E+02  0.6567E+02  0.1034E+04  0.1034E+04
      3.734  0.5582E+02  0.6268E+02  0.1037E+04  0.1037E+04
      3.787  0.5227E+02  0.4330E+02  0.1040E+04  0.1039E+04
      3.839  0.4812E+02  0.5498E+02  0.1042E+04  0.1042E+04
      3.892  0.3121E+02  0.3576E+02  0.1044E+04  0.1044E+04
      3.945  0.5033E+02  0.4423E+02  0.1047E+04  0.1046E+04
      3.998  0.6487E+02  0.6181E+02  0.1050E+04  0.1050E+04
      4.051  0.8054E+02  0.7115E+02  0.1054E+04  0.1053E+04
      4.103  0.1264E+03  0.1235E+03  0.1061E+04  0.1060E+04
      4.156  0.9343E+02  0.9967E+02  0.1066E+04  0.1065E+04
      4.209  0.8450E+02  0.8717E+02  0.1070E+04  0.1070E+04
      4.262  0.1103E+03  0.1057E+03  0.1076E+04  0.1075E+04
      4.314  0.1020E+03  0.1048E+03  0.1082E+04  0.1081E+04
      4.367  0.1098E+03  0.1104E+03  0.1087E+04  0.1087E+04
      4.420  0.1437E+03  0.1364E+03  0.1095E+04  0.1094E+04
      4.473  0.1192E+03  0.1262E+03  0.1101E+04  0.1101E+04
      4.526  0.1244E+03  0.1283E+03  0.1108E+04  0.1107E+04
      4.578  0.8165E+02  0.8405E+02  0.1112E+04  0.1112E+04
      4.631  0.9892E+02  0.8890E+02  0.1117E+04  0.1116E+04
      4.684  0.1283E+03  0.1346E+03  0.1124E+04  0.1124E+04
      4.737  0.1081E+03  0.1064E+03  0.1130E+04  0.1129E+04
      4.789  0.1259E+03  0.1233E+03  0.1136E+04  0.1136E+04
      4.842  0.1207E+03  0.1239E+03  0.1143E+04  0.1142E+04
      4.895  0.1296E+03  0.1300E+03  0.1150E+04  0.1149E+04
      4.948  0.9784E+02  0.9940E+02  0.1155E+04  0.1154E+04
      5.001  0.1292E+03  0.1288E+03  0.1162E+04  0.1161E+04
      5.053  0.1409E+03  0.1362E+03  0.1169E+04  0.1168E+04
      5.106  0.1249E+03  0.1278E+03  0.1176E+04  0.1175E+04
      5.159  0.1015E+03  0.1026E+03  0.1181E+04  0.1180E+04
      5.212  0.1074E+03  0.1077E+03  0.1187E+04  0.1186E+04
      5.264  0.1057E+03  0.1099E+03  0.1192E+04  0.1192E+04
      5.317  0.1156E+03  0.1091E+03  0.1198E+04  0.1198E+04
      5.370  0.1242E+03  0.1291E+03  0.1205E+04  0.1204E+04
      5.423  0.1387E+03  0.1366E+03  0.1212E+04  0.1212E+04
      5.476  0.1509E+03  0.1488E+03  0.1220E+04  0.1220E+04
      5.528  0.1502E+03  0.1493E+03  0.1228E+04  0.1227E+04
      5.581  0.1565E+03  0.1598E+03  0.1236E+04  0.1236E+04
      5.634  0.1236E+03  0.1266E+03  0.1243E+04  0.1243E+04
      5.687  0.1036E+03  0.1053E+03  0.1248E+04  0.1248E+04
      5.739  0.1255E+03  0.1210E+03  0.1255E+04  0.1254E+04
      5.792  0.1250E+03  0.1262E+03  0.1262E+04  0.1261E+04
      5.845  0.9686E+02  0.1019E+03  0.1267E+04  0.1267E+04
      5.898  0.8457E+02  0.9259E+02  0.1271E+04  0.1271E+04
      5.951  0.1490E+02  0.1118E+02  0.1272E+04  0.1272E+04
      6.003  0.0000E+00  0.0000E+00  0.1272E+04  0.1272E+04
      6.056  0.0000E+00  0.0000E+00  0.1272E+04  0.1272E+04
      6.109  0.0000E+00  0.0000E+00  0.1272E+04  0.1272E+04
      6.162  0.0000E+00  0.0000E+00  0.1272E+04  0.1272E+04
      6.214  0.0000E+00  0.0000E+00  0.1272E+04  0.1272E+04
      6.267  0.0000E+00  0.0000E+00  0.1272E+04  0.1272E+04
      6.320  0.0000E+00  0.0000E+00  0.1272E+04  0.1272E+04
      6.373  0.0000E+00  0.0000E+00  0.1272E+04  0.1272E+04
      6.426  0.0000E+00  0.0000E+00  0.1272E+04  0.1272E+04
      6.478  0.0000E+00  0.0000E+00  0.1272E+04  0.1272E+04
      6.531  0.0000E+00  0.0000E+00  0.1272E+04  0.1272E+04
      6.584  0.0000E+00  0.0000E+00  0.1272E+04  0.1272E+04
      6.637  0.0000E+00  0.0000E+00  0.1272E+04  0.1272E+04
