 vasp.6.4.3 19Mar24 (build Oct 22 2024 11:23:12) complex                        
  
 executed on             LinuxIFC date 2025.06.08  04:40:10
 running   64 mpi-ranks, on    4 nodes
 distrk:  each k-point on   64 cores,    1 groups
 distr:  one band on NCORE=  16 cores,    4 groups


--------------------------------------------------------------------------------------------------------


 INCAR:
   SYSTEM = Si and Ge interface calculation
   ISTART = 0
   ICHARG = 2
   LWAVE = .FALSE.
   LREAL = AUTO
   ENCUT = 700
   ENAUG = 900
   ADDGRID = .TRUE.
   LMAXMIX = 6
   LASPH = .TRUE.
   LMIXTAU = .TRUE.
   NCORE = 16
   NELM = 100
   NBANDS = 288
   EDIFF = 1d-7
   AMIX = 0.6
   ISMEAR = 0
   SIGMA = 0.01
   NELECT = 480
   ISPIN = 2
   NUPDOWN = 1
   LVTOT = .FALSE.
   LVHAR = .TRUE.

 POTCAR:    PAW_PBE Si 05Jan2001                  
 POTCAR:    PAW_PBE C 08Apr2002                   
 -----------------------------------------------------------------------------
|                                                                             |
|           W    W    AA    RRRRR   N    N  II  N    N   GGGG   !!!           |
|           W    W   A  A   R    R  NN   N  II  NN   N  G    G  !!!           |
|           W    W  A    A  R    R  N N  N  II  N N  N  G       !!!           |
|           W WW W  AAAAAA  RRRRR   N  N N  II  N  N N  G  GGG   !            |
|           WW  WW  A    A  R   R   N   NN  II  N   NN  G    G                |
|           W    W  A    A  R    R  N    N  II  N    N   GGGG   !!!           |
|                                                                             |
|     You use a magnetic or noncollinear calculation, but did not specify     |
|     the initial magnetic moment with the MAGMOM tag. Note that a            |
|     default of 8.333e-3 will be used for all atoms. This ferromagnetic      |
|     setup may break the symmetry of the crystal, in particular it may       |
|     rule out finding an antiferromagnetic solution. Thence, we              |
|     recommend setting the initial magnetic moment manually or verifying     |
|     carefully that this magnetic setup is desired.                          |
|                                                                             |
 -----------------------------------------------------------------------------

 POTCAR:    PAW_PBE Si 05Jan2001                  
   VRHFIN =Si: s2p2                                                                                 
   LEXCH  = PE                                                                                      
   EATOM  =   103.0669 eV,    7.5752 Ry                                                             
                                                                                                    
   TITEL  = PAW_PBE Si 05Jan2001                                                                    
   LULTRA =        F    use ultrasoft PP ?                                                          
   IUNSCR =        1    unscreen: 0-lin 1-nonlin 2-no                                               
   RPACOR =    1.500    partial core radius                                                         
   POMASS =   28.085; ZVAL   =    4.000    mass and valenz                                          
   RCORE  =    1.900    outmost cutoff radius                                                       
   RWIGS  =    2.480; RWIGS  =    1.312    wigner-seitz radius (au A)                               
   ENMAX  =  245.345; ENMIN  =  184.009 eV                                                          
   ICORE  =        2    local potential                                                             
   LCOR   =        T    correct aug charges                                                         
   LPAW   =        T    paw PP                                                                      
   EAUG   =  322.069                                                                                
   DEXC   =    0.000                                                                                
   RMAX   =    1.950    core radius for proj-oper                                                   
   RAUG   =    1.300    factor for augmentation sphere                                              
   RDEP   =    1.993    radius for radial grids                                                     
   RDEPT  =    1.837    core radius for aug-charge                                                  
                                                                                                    
   Atomic configuration                                                                             
    6 entries                                                                                       
     n  l   j            E        occ.                                                              
     1  0  0.50     -1785.8828   2.0000                                                             
     2  0  0.50      -139.4969   2.0000                                                             
     2  1  1.50       -95.5546   6.0000                                                             
     3  0  0.50       -10.8127   2.0000                                                             
     3  1  0.50        -4.0811   2.0000                                                             
     3  2  1.50        -4.0817   0.0000                                                             
   Description                                                                                      
     l       E           TYP  RCUT    TYP  RCUT                                                     
     0    -10.8127223     23  1.900                                                                 
     0     -7.6451159     23  1.900                                                                 
     1     -4.0811372     23  1.900                                                                 
     1      2.4879257     23  1.900                                                                 
     2     -4.0817478      7  1.900                                                                 
  local pseudopotential read in
  partial core-charges read in
  partial kinetic energy density read in
  atomic valenz-charges read in
  non local Contribution for L=           0  read in
    real space projection operators read in
  non local Contribution for L=           0  read in
    real space projection operators read in
  non local Contribution for L=           1  read in
    real space projection operators read in
  non local Contribution for L=           1  read in
    real space projection operators read in
    PAW grid and wavefunctions read in
 
   number of l-projection  operators is LMAX  =           4
   number of lm-projection operators is LMMAX =           8
 
 POTCAR:    PAW_PBE C 08Apr2002                   
   VRHFIN =C: s2p2                                                                                  
   LEXCH  = PE                                                                                      
   EATOM  =   147.1560 eV,   10.8157 Ry                                                             
                                                                                                    
   TITEL  = PAW_PBE C 08Apr2002                                                                     
   LULTRA =        F    use ultrasoft PP ?                                                          
   IUNSCR =        1    unscreen: 0-lin 1-nonlin 2-no                                               
   RPACOR =    1.200    partial core radius                                                         
   POMASS =   12.011; ZVAL   =    4.000    mass and valenz                                          
   RCORE  =    1.500    outmost cutoff radius                                                       
   RWIGS  =    1.630; RWIGS  =    0.863    wigner-seitz radius (au A)                               
   ENMAX  =  400.000; ENMIN  =  300.000 eV                                                          
   ICORE  =        2    local potential                                                             
   LCOR   =        T    correct aug charges                                                         
   LPAW   =        T    paw PP                                                                      
   EAUG   =  644.873                                                                                
   DEXC   =    0.000                                                                                
   RMAX   =    1.529    core radius for proj-oper                                                   
   RAUG   =    1.300    factor for augmentation sphere                                              
   RDEP   =    1.501    radius for radial grids                                                     
   RDEPT  =    1.300    core radius for aug-charge                                                  
                                                                                                    
   Atomic configuration                                                                             
    4 entries                                                                                       
     n  l   j            E        occ.                                                              
     1  0  0.50      -273.3789   2.0000                                                             
     2  0  0.50       -13.7508   2.0000                                                             
     2  1  0.50        -5.2854   2.0000                                                             
     3  2  1.50        -5.4423   0.0000                                                             
   Description                                                                                      
     l       E           TYP  RCUT    TYP  RCUT                                                     
     0    -13.7508458     23  1.200                                                                 
     0     -8.2022199     23  1.200                                                                 
     1     -5.2854383     23  1.500                                                                 
     1     34.0145650     23  1.500                                                                 
     2     -5.4423304      7  1.500                                                                 
  local pseudopotential read in
  partial core-charges read in
  partial kinetic energy density read in
  atomic valenz-charges read in
  non local Contribution for L=           0  read in
    real space projection operators read in
  non local Contribution for L=           0  read in
    real space projection operators read in
  non local Contribution for L=           1  read in
    real space projection operators read in
  non local Contribution for L=           1  read in
    real space projection operators read in
    PAW grid and wavefunctions read in
 
   number of l-projection  operators is LMAX  =           4
   number of lm-projection operators is LMMAX =           8
 
 Optimization of the real space projectors (new method)

 maximal supplied QI-value         = 19.84
 optimisation between [QCUT,QGAM] = [ 13.49, 26.99] = [ 50.98,203.92] Ry 
 Optimized for a Real-space Cutoff    1.07 Angstroem

   l    n(q)    QCUT    max X(q) W(low)/X(q) W(high)/X(q)  e(spline) 
   0      9    13.493   159.560    0.22E-03    0.15E-03    0.72E-07
   0      9    13.493   115.863    0.21E-03    0.15E-03    0.71E-07
   1      8    13.493    88.339    0.15E-03    0.11E-03    0.13E-06
   1      8    13.493    48.592    0.15E-03    0.10E-03    0.13E-06
 Optimization of the real space projectors (new method)

 maximal supplied QI-value         = 25.13
 optimisation between [QCUT,QGAM] = [ 13.32, 26.89] = [ 49.69,202.52] Ry 
 Optimized for a Real-space Cutoff    1.01 Angstroem

   l    n(q)    QCUT    max X(q) W(low)/X(q) W(high)/X(q)  e(spline) 
   0      8    13.321   115.676    0.29E-03    0.42E-03    0.11E-06
   0      8    13.321    87.132    0.29E-03    0.42E-03    0.11E-06
   1      8    13.321     4.429    0.39E-03    0.33E-03    0.98E-07
   1      8    13.321     2.733    0.30E-03    0.26E-03    0.97E-07
  PAW_PBE Si 05Jan2001                  :
 energy of atom  1       EATOM= -103.0669
 kinetic energy error for atom=    0.0003 (will be added to EATOM!!)
  PAW_PBE C 08Apr2002                   :
 energy of atom  2       EATOM= -147.1560
 kinetic energy error for atom=    0.0032 (will be added to EATOM!!)
 
 
 POSCAR: Si+C
  positions in direct lattice
  No initial velocities read in


 exchange-correlation table for PE
   RHO(1)=    0.500       N(1)  =     2000
   RHO(2)=  100.500       N(2)  =     4000
 


--------------------------------------------------------------------------------------------------------


 ion  position               nearest neighbor table
   1  0.983  0.641  0.000-  69 1.67  93 2.04  29 2.35  28 2.35
   2  0.783  0.341  0.152-  30 2.35  29 2.35  13 2.35
   3  0.583  0.041  0.304-  14 2.35  30 2.35  16 2.35  55 2.40
   4  0.983  0.308  0.000- 108 1.63  32 2.35  31 2.35
   5  0.783  0.008  0.152-  33 2.35  32 2.35  16 2.35
   6  0.583  0.708  0.304-  17 2.35  33 2.35  10 2.35  91 2.37
   7  0.983  0.974  0.000-  57 2.07  35 2.35  34 2.35 119 2.45  60 2.60
   8  0.783  0.674  0.152-  36 2.35  10 2.35  35 2.35
   9  0.583  0.374  0.304-  11 2.35  13 2.35  36 2.35
  10  0.633  0.658  0.076- 114 2.17   8 2.35  22 2.35   6 2.35
  11  0.433  0.358  0.228-   9 2.35  23 2.35  22 2.35
  12  0.233  0.058  0.380-  97 2.14  76 2.33  24 2.35  23 2.35
  13  0.633  0.324  0.076-  25 2.35   2 2.35   9 2.35  66 2.58
  14  0.433  0.024  0.228-   3 2.35  26 2.35  25 2.35
  15  0.233  0.724  0.380-  27 2.35  26 2.35  50 2.47  52 2.56
  16  0.633  0.991  0.076-   5 2.35  19 2.35   3 2.35  99 2.50
  17  0.433  0.691  0.228-   6 2.35  19 2.35  20 2.35
  18  0.233  0.391  0.380-  43 2.26  20 2.35  21 2.35  86 2.45
  19  0.483  0.808  0.000-  75 1.63  17 2.35  16 2.35
  20  0.283  0.508  0.152-  18 2.35  31 2.35  17 2.35
  21  0.083  0.208  0.304-  32 2.35  34 2.35  18 2.35  40 2.37
  22  0.483  0.474  0.000-  87 2.07  10 2.35  11 2.35  65 2.45 114 2.60
  23  0.283  0.174  0.152-  11 2.35  12 2.35  34 2.35
  24  0.083  0.874  0.304-  12 2.35  35 2.35  28 2.35
  25  0.483  0.141  0.000- 102 1.67  42 2.04  13 2.35  14 2.35
  26  0.283  0.841  0.152-  28 2.35  14 2.35  15 2.35
  27  0.083  0.541  0.304-  29 2.35  15 2.35  31 2.35  85 2.40
  28  0.133  0.824  0.076-  26 2.35   1 2.35  24 2.35 120 2.58
  29  0.933  0.524  0.228-  27 2.35   2 2.35   1 2.35
  30  0.733  0.224  0.380-   2 2.35   3 2.35  80 2.47  82 2.56
  31  0.133  0.491  0.076-  20 2.35   4 2.35  27 2.35  48 2.50
  32  0.933  0.191  0.228-   4 2.35  21 2.35   5 2.35
  33  0.733  0.891  0.380-  94 2.26   5 2.35   6 2.35  56 2.45
  34  0.133  0.158  0.076-  60 2.17  21 2.35  23 2.35   7 2.35
  35  0.933  0.858  0.228-   7 2.35  24 2.35   8 2.35
  36  0.733  0.558  0.380-  46 2.14 109 2.33   8 2.35   9 2.35
  37  0.772  0.114  0.565- 118 1.54  59 1.54
  38  0.015  0.086  0.665- 119 1.54 100 1.54  60 1.54
  39  0.257  0.057  0.765- 101 1.54 120 1.54  76 1.54
  40  0.057  0.257  0.565- 100 1.54  62 1.54  21 2.37
  41  0.300  0.229  0.665- 101 1.54 103 1.54  63 1.54
  42  0.543  0.200  0.765- 102 1.54 104 1.54  58 1.54  25 2.04
  43  0.343  0.400  0.565- 103 1.54  65 1.54  18 2.26
  44  0.586  0.372  0.665- 104 1.54 106 1.54  66 1.54
  45  0.829  0.343  0.765- 105 1.54 107 1.54  61 1.54
  46  0.629  0.543  0.565- 106 1.54  68 1.54  36 2.14
  47  0.872  0.514  0.665- 107 1.54 109 1.54  69 1.54
  48  0.115  0.486  0.765- 108 1.54 110 1.54  64 1.54  31 2.50
  49  0.915  0.686  0.565- 109 1.54  71 1.54
  50  0.157  0.657  0.665- 110 1.54 112 1.54  72 1.54  15 2.47
  51  0.400  0.629  0.765- 111 1.54 113 1.54  67 1.54
  52  0.200  0.829  0.565- 112 1.54  74 1.54  15 2.56
  53  0.443  0.800  0.665- 113 1.54 115 1.54  75 1.54
  54  0.686  0.772  0.765- 116 1.54 114 1.54  70 1.54
  55  0.486  0.972  0.565- 115 1.54  77 1.54   3 2.40
  56  0.729  0.943  0.665- 116 1.54 118 1.54  78 1.54  33 2.45
  57  0.972  0.914  0.765- 117 1.54 119 1.54  73 1.54   7 2.07
  58  0.607  0.207  0.615-  82 1.54  80 1.54  42 1.54
  59  0.850  0.179  0.715-  83 1.54  81 1.54  37 1.54
  60  0.093  0.150  0.815-  84 1.54  38 1.54  34 2.17   7 2.60
  61  0.893  0.350  0.615-  85 1.54  83 1.54  45 1.54
  62  0.136  0.322  0.715-  86 1.54  84 1.54  40 1.54
  63  0.379  0.293  0.815-  87 1.54  41 1.54
  64  0.179  0.493  0.615-  88 1.54  86 1.54  48 1.54
  65  0.422  0.464  0.715-  89 1.54  87 1.54  43 1.54  22 2.45
  66  0.665  0.436  0.815-  90 1.54  44 1.54  13 2.58
  67  0.465  0.636  0.615-  91 1.54  89 1.54  51 1.54
  68  0.707  0.607  0.715-  92 1.54  90 1.54  46 1.54
  69  0.950  0.579  0.815-  93 1.54  47 1.54   1 1.67
  70  0.750  0.779  0.615-  94 1.54  92 1.54  54 1.54
  71  0.993  0.750  0.715-  95 1.54  93 1.54  49 1.54
  72  0.236  0.722  0.815-  96 1.54  50 1.54
  73  0.036  0.922  0.615-  95 1.54  97 1.54  57 1.54
  74  0.279  0.893  0.715-  96 1.54  98 1.54  52 1.54
  75  0.522  0.864  0.815-  99 1.54  53 1.54  19 1.63
  76  0.322  0.064  0.615-  79 1.54  98 1.54  39 1.54  12 2.33
  77  0.565  0.036  0.715-  80 1.54  99 1.54  55 1.54
  78  0.807  0.007  0.815-  81 1.54  56 1.54
  79  0.415  0.186  0.565-  76 1.54 104 1.54
  80  0.657  0.157  0.665-  77 1.54  58 1.54 105 1.54  30 2.47
  81  0.900  0.129  0.765-  78 1.54  59 1.54 100 1.54
  82  0.700  0.329  0.565-  58 1.54 107 1.54  30 2.56
  83  0.943  0.300  0.665-  59 1.54  61 1.54 108 1.54
  84  0.186  0.272  0.765-  60 1.54  62 1.54 103 1.54
  85  0.986  0.472  0.565-  61 1.54 110 1.54  27 2.40
  86  0.229  0.443  0.665-  62 1.54  64 1.54 111 1.54  18 2.45
  87  0.472  0.414  0.765-  63 1.54  65 1.54 106 1.54  22 2.07
  88  0.272  0.614  0.565-  64 1.54 113 1.54
  89  0.515  0.586  0.665-  65 1.54  67 1.54 114 1.54
  90  0.757  0.557  0.765-  66 1.54  68 1.54 109 1.54
  91  0.557  0.757  0.565-  67 1.54 116 1.54   6 2.37
  92  0.800  0.729  0.665-  68 1.54  70 1.54 117 1.54
  93  0.043  0.700  0.765-  69 1.54  71 1.54 112 1.54   1 2.04
  94  0.843  0.900  0.565-  70 1.54 119 1.54  33 2.26
  95  0.086  0.872  0.665-  73 1.54  71 1.54 120 1.54
  96  0.329  0.843  0.765-  74 1.54  72 1.54 115 1.54
  97  0.129  0.043  0.565-  73 1.54 101 1.54  12 2.14
  98  0.372  0.014  0.665-  74 1.54  76 1.54 102 1.54
  99  0.615  0.986  0.765-  75 1.54  77 1.54 118 1.54  16 2.50
 100  0.965  0.136  0.615-  40 1.54  38 1.54  81 1.54
 101  0.207  0.107  0.715-  39 1.54  41 1.54  97 1.54
 102  0.450  0.079  0.815-  42 1.54  98 1.54  25 1.67
 103  0.250  0.279  0.615-  43 1.54  41 1.54  84 1.54
 104  0.493  0.250  0.715-  44 1.54  42 1.54  79 1.54
 105  0.736  0.222  0.815-  45 1.54  80 1.54
 106  0.536  0.422  0.615-  46 1.54  44 1.54  87 1.54
 107  0.779  0.393  0.715-  47 1.54  45 1.54  82 1.54
 108  0.022  0.364  0.815-  48 1.54  83 1.54   4 1.63
 109  0.822  0.564  0.615-  49 1.54  47 1.54  90 1.54  36 2.33
 110  0.065  0.536  0.715-  50 1.54  48 1.54  85 1.54
 111  0.307  0.507  0.815-  51 1.54  86 1.54
 112  0.107  0.707  0.615-  50 1.54  52 1.54  93 1.54
 113  0.350  0.679  0.715-  51 1.54  53 1.54  88 1.54
 114  0.593  0.650  0.815-  54 1.54  89 1.54  10 2.17  22 2.60
 115  0.393  0.850  0.615-  55 1.54  53 1.54  96 1.54
 116  0.636  0.822  0.715-  56 1.54  54 1.54  91 1.54
 117  0.879  0.793  0.815-  57 1.54  92 1.54
 118  0.679  0.993  0.615-  37 1.54  56 1.54  99 1.54
 119  0.922  0.964  0.715-  38 1.54  57 1.54  94 1.54   7 2.45
 120  0.165  0.936  0.815-  39 1.54  95 1.54  28 2.58
 
  LATTYP: Found a base centered orthorhombic cell.
 ALAT       =    13.3031797203
 B/A-ratio  =     2.2360679556
 C/A-ratio  =     0.6009653116
  
  Lattice vectors:
  
 A1 = (  16.2930011750,   0.0000000000,   0.0000000000)
 A2 = ( -10.8620004650,  12.1440858840,   0.0000000000)
 A3 = (   0.0000000000,   0.0000000000,   7.9947495460)


Analysis of symmetry for initial positions (statically):
=====================================================================
 Subroutine PRICEL returns following result:
 
  LATTYP: Found a simple orthorhombic cell.
 ALAT       =     6.6515894610
 B/A-ratio  =     1.2019306953
 C/A-ratio  =     2.2360682239
  
  Lattice vectors:
  
 A1 = (  -2.7155010067,  -6.0720422134,   0.0000000000)
 A2 = (   0.0000000000,   0.0000000000,   7.9947495460)
 A3 = ( -13.5775014717,   6.0720436706,   0.0000000000)
 
   2 primitive cells build up your supercell.
 

 Routine SETGRP: Setting up the symmetry group for a 
 base centered orthorhombic supercell.


 Subroutine GETGRP returns: Found  1 space group operations
 (whereof  1 operations were pure point group operations)
 out of a pool of  8 trial point group operations.


The static configuration has the point symmetry C_1 .


Analysis of symmetry for dynamics (positions and initial velocities):
=====================================================================
 Subroutine PRICEL returns following result:
 
  LATTYP: Found a simple orthorhombic cell.
 ALAT       =     6.6515894610
 B/A-ratio  =     1.2019306953
 C/A-ratio  =     2.2360682239
  
  Lattice vectors:
  
 A1 = (  -2.7155010067,  -6.0720422134,   0.0000000000)
 A2 = (   0.0000000000,   0.0000000000,   7.9947495460)
 A3 = ( -13.5775014717,   6.0720436706,   0.0000000000)
 
   2 primitive cells build up your supercell.
 

 Routine SETGRP: Setting up the symmetry group for a 
 base centered orthorhombic supercell.


 Subroutine GETGRP returns: Found  1 space group operations
 (whereof  1 operations were pure point group operations)
 out of a pool of  8 trial point group operations.


The dynamic configuration has the point symmetry C_1 .


Analysis of structural, dynamic, and magnetic symmetry:
=====================================================================
 Subroutine PRICEL returns following result:
 
  LATTYP: Found a simple orthorhombic cell.
 ALAT       =     6.6515894610
 B/A-ratio  =     1.2019306953
 C/A-ratio  =     2.2360682239
  
  Lattice vectors:
  
 A1 = (  -2.7155010067,  -6.0720422134,   0.0000000000)
 A2 = (   0.0000000000,   0.0000000000,   7.9947495460)
 A3 = ( -13.5775014717,   6.0720436706,   0.0000000000)
 
   2 primitive cells build up your supercell.
 

 Routine SETGRP: Setting up the symmetry group for a 
 base centered orthorhombic supercell.


 Subroutine GETGRP returns: Found  1 space group operations
 (whereof  1 operations were pure point group operations)
 out of a pool of  8 trial point group operations.


The overall configuration has the point symmetry C_1 .


 Subroutine INISYM returns: Found  1 space group operations
 (whereof  1 operations are pure point group operations),
 and found     2 'primitive' translations


----------------------------------------------------------------------------------------

                                     Primitive cell                                     

  volume of cell :     790.9350

  direct lattice vectors                    reciprocal lattice vectors
    -2.715501007 -6.072042213  0.000000000    -0.061376054 -0.137241019  0.000000000
     0.000000000  0.000000000  7.994749546     0.000000000  0.000000000  0.125082092
   -13.577501472  6.072043671  0.000000000    -0.061376039  0.027448211  0.000000000

  length of vectors
     6.651589461  7.994749546 14.873407833     0.150340006  0.125082092  0.067234087

  position of ions in fractional coordinates (direct lattice)
     0.376069130  0.000000002  0.658119618
     0.876069363  0.151900828  0.558119539
     0.376069565  0.303801656  0.458119551
     0.709402473  0.000000002  0.324786275
     0.209402795  0.151900828  0.224786107
     0.709402849  0.303801656  0.124786327
     0.042735757  0.000000002  0.991452991
     0.542735959  0.151900828  0.891452883
     0.042736252  0.303801656  0.791452864
     0.709402545  0.075950257  0.024786131
     0.209402449  0.227851093  0.924786441
     0.709402473  0.379751921  0.824786513
     0.042735784  0.075950272  0.691452862
     0.542735941  0.227851093  0.591452949
     0.042736130  0.379751921  0.491452826
     0.376069098  0.075950272  0.358119548
     0.876069225  0.227851093  0.258119605
     0.376069384  0.379751921  0.158119572
     0.113907126  0.565175176  0.342636320
     0.899621365  0.664935827  0.071207645
     0.685335426  0.764696479  0.799778910
     0.685335629  0.565175176  0.199779041
     0.471049749  0.664935827  0.928350485
     0.256764288  0.764696479  0.656921750
     0.256764132  0.565175176  0.056922120
     0.042478372  0.664935827  0.785493324
     0.828192672  0.764696479  0.514064590
     0.828192696  0.565175176  0.914064900
     0.613906934  0.664935827  0.642636226
     0.399621175  0.764696479  0.371207311
     0.399621317  0.565175176  0.771207741
     0.185335617  0.664935827  0.499779005
     0.971049857  0.764696479  0.228350329
     0.971049940  0.565175176  0.628350580
     0.756764031  0.664935827  0.356921815
     0.542478420  0.764696479  0.085493230
     0.542478384  0.565175176  0.485493480
     0.328192683  0.664935827  0.214064625
     0.113906982  0.764696479  0.942636130
     0.185335743  0.615055442  0.599779023
     0.971049982  0.714816093  0.328350348
     0.756764162  0.814576745  0.056921732
     0.756764335  0.615055442  0.456922251
     0.542478634  0.714816093  0.185493396
     0.328192487  0.814576745  0.914064631
     0.328192928  0.615055442  0.314065000
     0.113906987  0.714816093  0.042636267
     0.899621348  0.814576745  0.771207472
     0.899621372  0.615055442  0.171207782
     0.685335492  0.714816093  0.899778988
     0.471049672  0.814576745  0.628350372
     0.471050053  0.615055442  0.028350801
     0.256764174  0.714816093  0.756922006
     0.042478652  0.814576745  0.485493330
     0.042478498  0.615055442  0.885493342
     0.828192648  0.714816093  0.614064756
     0.613906976  0.814576626  0.342635992
     0.613907239  0.615055442  0.742636541
     0.399621419  0.714816093  0.471207687
     0.185335718  0.814576626  0.199778952

  ion indices of the primitive-cell ions
   primitive index   ion index
                 1           1
                 2          26
                 3          27
                 4           4
                 5          20
                 6           6
                 7           7
                 8           8
                 9          24
                10          10
                11          35
                12          36
                13          28
                14          29
                15          15
                16          31
                17          17
                18          18
                19          88
                20          38
                21          90
                22          40
                23          92
                24          93
                25          94
                26          95
                27          45
                28          46
                29          47
                30          48
                31          49
                32          50
                33          51
                34          52
                35          83
                36          54
                37          85
                38          86
                39          57
                40         112
                41         113
                42         114
                43          61
                44          62
                45         117
                46          64
                47         119
                48         120
                49          67
                50          68
                51          69
                52          70
                53          71
                54          72
                55          73
                56         107
                57         108
                58         109
                59         110
                60         111

----------------------------------------------------------------------------------------

 
 
 KPOINTS: Automatic KPOINTS generated             

Automatic generation of k-mesh.
 Grid dimensions read from file:
 generate k-points for:    3    3    4

 Generating k-lattice:

  Cartesian coordinates                     Fractional coordinates (reciprocal lattice)
     0.020458682  0.018298801  0.000000000     0.333333333  0.000000000  0.000000000
     0.000000000  0.027448203  0.000000000     0.000000000  0.333333333  0.000000000
     0.000000000  0.000000000  0.031270523     0.000000000  0.000000000  0.250000000

  Length of vectors
     0.027448202  0.027448203  0.031270523

  Shift w.r.t. Gamma in fractional coordinates (k-lattice)
     0.000000000  0.000000000  0.000000000

 
 Subroutine IBZKPT returns following result:
 ===========================================
 
 Found     19 irreducible k-points:
 
 Following reciprocal coordinates:
            Coordinates               Weight
  0.000000  0.000000  0.000000      1.000000
  0.333333 -0.000000  0.000000      2.000000
  0.000000  0.333333  0.000000      2.000000
  0.333333  0.333333  0.000000      2.000000
 -0.333333  0.333333  0.000000      2.000000
  0.000000  0.000000  0.250000      2.000000
  0.333333 -0.000000  0.250000      2.000000
 -0.333333  0.000000  0.250000      2.000000
  0.000000  0.333333 -0.250000      2.000000
  0.000000 -0.333333 -0.250000      2.000000
  0.333333  0.333333  0.250000      2.000000
 -0.333333 -0.333333  0.250000      2.000000
 -0.333333  0.333333  0.250000      2.000000
  0.333333 -0.333333  0.250000      2.000000
  0.000000  0.000000  0.500000      1.000000
  0.333333 -0.000000  0.500000      2.000000
  0.000000  0.333333  0.500000      2.000000
  0.333333  0.333333  0.500000      2.000000
 -0.333333  0.333333  0.500000      2.000000
 
 Following cartesian coordinates:
            Coordinates               Weight
  0.000000  0.000000  0.000000      1.000000
  0.020459  0.018299  0.000000      2.000000
  0.000000  0.027448  0.000000      2.000000
  0.020459  0.045747  0.000000      2.000000
 -0.020459  0.009149  0.000000      2.000000
  0.000000  0.000000  0.031271      2.000000
  0.020459  0.018299  0.031271      2.000000
 -0.020459 -0.018299  0.031271      2.000000
  0.000000  0.027448 -0.031271      2.000000
  0.000000 -0.027448 -0.031271      2.000000
  0.020459  0.045747  0.031271      2.000000
 -0.020459 -0.045747  0.031271      2.000000
 -0.020459  0.009149  0.031271      2.000000
  0.020459 -0.009149  0.031271      2.000000
  0.000000  0.000000  0.062541      1.000000
  0.020459  0.018299  0.062541      2.000000
  0.000000  0.027448  0.062541      2.000000
  0.020459  0.045747  0.062541      2.000000
 -0.020459  0.009149  0.062541      2.000000
 


--------------------------------------------------------------------------------------------------------




 Dimension of arrays:
   k-points           NKPTS =     19   k-points in BZ     NKDIM =     19   number of bands    NBANDS=    288
   number of dos      NEDOS =    301   number of ions     NIONS =    120
   non local maximal  LDIM  =      4   non local SUM 2l+1 LMDIM =      8
   total plane-waves  NPLWV = 629856
   max r-space proj   IRMAX =   2121   max aug-charges    IRDMAX= 106690
   dimension x,y,z NGX =   108 NGY =  108 NGZ =   54
   dimension x,y,z NGXF=   216 NGYF=  216 NGZF=  108
   support grid    NGXF=   432 NGYF=  432 NGZF=  216
   ions per type =              36  84
   NGX,Y,Z   is equivalent  to a cutoff of  11.02, 11.02, 11.23 a.u.
   NGXF,Y,Z  is equivalent  to a cutoff of  22.04, 22.04, 22.46 a.u.

 SYSTEM =  Si and Ge interface calculation         
 POSCAR =  Si+C                                    

 Startparameter for this run:
   NWRITE =      2    write-flag & timer
   PREC   = normal    normal or accurate (medium, high low for compatibility)
   ISTART =      0    job   : 0-new  1-cont  2-samecut
   ICHARG =      2    charge: 1-file 2-atom 10-const
   ISPIN  =      2    spin polarized calculation?
   LNONCOLLINEAR =      F non collinear calculations
   LSORBIT =      F    spin-orbit coupling
   INIWAV =      1    electr: 0-lowe 1-rand  2-diag
   LASPH  =      T    aspherical Exc in radial PAW
 Electronic Relaxation 1
   ENCUT  =  700.0 eV  51.45 Ry    7.17 a.u.  35.15 35.15 17.25*2*pi/ulx,y,z
   ENINI  =  700.0     initial cutoff
   ENAUG  =  900.0 eV  augmentation charge cutoff
   NELM   =    100;   NELMIN=  2; NELMDL= -5     # of ELM steps 
   EDIFF  = 0.1E-06   stopping-criterion for ELM
   LREAL  =      T    real-space projection
   NLSPLINE    = F    spline interpolate recip. space projectors
   LCOMPAT=      F    compatible to vasp.4.4
   GGA_COMPAT  = T    GGA compatible to vasp.4.4-vasp.4.6
   LMAXPAW     = -100 max onsite density
   LMAXMIX     =    6 max onsite mixed and CHGCAR
   VOSKOWN=      0    Vosko Wilk Nusair interpolation
   ROPT   =   -0.00050  -0.00050
 Ionic relaxation
   EDIFFG = 0.1E-05   stopping-criterion for IOM
   NSW    =      0    number of steps for IOM
   NBLOCK =      1;   KBLOCK =      1    inner block; outer block 
   IBRION =     -1    ionic relax: 0-MD 1-quasi-New 2-CG
   NFREE  =      0    steps in history (QN), initial steepest desc. (CG)
   ISIF   =      2    stress and relaxation
   IWAVPR =     10    prediction:  0-non 1-charg 2-wave 3-comb
   ISYM   =      2    0-nonsym 1-usesym 2-fastsym
   LCORR  =      T    Harris-Foulkes like correction to forces

   POTIM  = 0.5000    time-step for ionic-motion
   TEIN   =    0.0    initial temperature
   TEBEG  =    0.0;   TEEND  =   0.0 temperature during run
   SMASS  =  -3.00    Nose mass-parameter (am)
   estimated Nose-frequenzy (Omega)   =  0.10E-29 period in steps = 0.13E+47 mass=  -0.607E-26a.u.
   SCALEE = 1.0000    scale energy and forces
   NPACO  =    256;   APACO  = 10.0  distance and # of slots for P.C.
   PSTRESS=    0.0 pullay stress

  Mass of Ions in am
   POMASS =  28.09 12.01
  Ionic Valenz
   ZVAL   =   4.00  4.00
  Atomic Wigner-Seitz radii
   RWIGS  =  -1.00 -1.00
  virtual crystal weights 
   VCA    =   1.00  1.00
   NELECT =     480.0000    total number of electrons
   NUPDOWN=       1.0000    fix difference up-down

 DOS related values:
   EMIN   =  10.00;   EMAX   =-10.00  energy-range for DOS
   EFERMI =   0.00;   METHOD = LEGACY      
   ISMEAR =     0;   SIGMA  =   0.01  broadening in eV -4-tet -1-fermi 0-gaus

 Electronic relaxation 2 (details)
   IALGO  =     38    algorithm
   LDIAG  =      T    sub-space diagonalisation (order eigenvalues)
   LSUBROT=      F    optimize rotation matrix (better conditioning)
   TURBO    =      0    0=normal 1=particle mesh
   IRESTART =      0    0=no restart 2=restart with 2 vectors
   NREBOOT  =      0    no. of reboots
   NMIN     =      0    reboot dimension
   EREF     =   0.00    reference energy to select bands
   IMIX   =      4    mixing-type and parameters
     AMIX     =   0.60;   BMIX     =  1.00
     AMIX_MAG =   2.40;   BMIX_MAG =  1.00
     AMIN     =   0.10
     WC   =   100.;   INIMIX=   1;  MIXPRE=   1;  MAXMIX= -45

 Intra band minimization:
   WEIMIN = 0.0000     energy-eigenvalue tresh-hold
   EBREAK =  0.87E-10  absolut break condition
   DEPER  =   0.30     relativ break condition  

   TIME   =   0.40     timestep for ELM

  volume/ion in A,a.u.               =      13.18        88.96
  Fermi-wavevector in a.u.,A,eV,Ry     =   1.100099  2.078885 16.466004  1.210217
  Thomas-Fermi vector in A             =   2.236504
 
 Write flags
   LWAVE        =      F    write WAVECAR
   LDOWNSAMPLE  =      F    k-point downsampling of WAVECAR
   LCHARG       =      T    write CHGCAR
   LVTOT        =      F    write LOCPOT, total local potential
   LVHAR        =      T    write LOCPOT, Hartree potential only
   WRT_POTENTIAL=  hartree ionic  ! write potential to hdf5 file
   LELF         =      F    write electronic localiz. function (ELF)
   LORBIT       =      0    0 simple, 1 ext, 2 COOP (PROOUT), +10 PAW based schemes


 Dipole corrections
   LMONO      =      F    monopole corrections only (constant potential shift)
   LDIPOL     =      F    correct potential (dipole corrections)
   IDIPOL     =      0    1-x, 2-y, 3-z, 4-all directions 
   EPSILON    =  1.0000000 bulk dielectric constant
   LVACPOTAV  =      F  vacuum potentials using an averaging scheme for the charge density
   VACPOTFLAT =  0.1000000 required flatness to determine vacuum potential
 Exchange correlation treatment:
   GGA     = PE    functional components
   XC_C    = 1    coefficients multiplying the functional components
   LIBXC   =     F    Libxc                    
   VOSKOWN =     0    Vosko Wilk Nusair interpolation
   LHFCALC =     F    Hartree Fock is set to
   LHFONE  =     F    Hartree Fock one center treatment
   AEXX    =    0.0000 exact exchange contribution

 Parameters of functionals:
   PE:
     No parameter
 
 Van der Waals corrections
   IVDW    =     0    specifies the selected vdW correction

 Linear response parameters
   LEPSILON=     F    determine dielectric tensor
   LRPA    =     F    only Hartree local field effects (RPA)
   LNABLA  =     F    use nabla operator in PAW spheres
   LVEL    =     F    velocity operator in full k-point grid
   CSHIFT  =0.1000    complex shift for real part using Kramers Kronig
   OMEGAMAX=  -1.0    maximum frequency
   DEG_THRESHOLD= 0.2000000E-02 threshold for treating states as degnerate
   RTIME   =   -0.100 relaxation time in fs
  (WPLASMAI=    0.000 imaginary part of plasma frequency in eV, 0.658/RTIME)
   DFIELD  = 0.0000000 0.0000000 0.0000000 field for delta impulse in time
 
  Optional k-point grid parameters
   LKPOINTS_OPT  =     F    use optional k-point grid
   KPOINTS_OPT_MODE=     1    mode for optional k-point grid
 
 Orbital magnetization related:
   ORBITALMAG=     F  switch on orbital magnetization
   LCHIMAG   =     F  perturbation theory with respect to B field
   DQ        =  0.001000  dq finite difference perturbation B field
   LLRAUG    =     F  two centre corrections for induced B field
   LBONE     =     F  B-component reconstruction in AE one-centre
   LVGVCALC  =     T  calculate vGv susceptibility
   LVGVAPPL  =     F  apply vGv susceptibility instead of pGv for G=0

 Random number generation:
   RANDOM_GENERATOR = DEFAULT
   PCG_SEED         = not used


--------------------------------------------------------------------------------------------------------


 Static calculation
 charge density and potential will be updated during run
 spin polarized calculation
 Variant of blocked Davidson
 Davidson routine will perform the subspace rotation
 perform sub-space diagonalisation
    after iterative eigenvector-optimisation
 modified Broyden-mixing scheme, WC =      100.0
 initial mixing is a Kerker type mixing with AMIX =  0.6000 and BMIX =      1.0000
 Hartree-type preconditioning will be used
 using additional bands           48
 real space projection scheme for non local part
 use partial core corrections
 calculate Harris-corrections to forces 
   (improved forces if not selfconsistent)
 use gradient corrections 
 use of overlap-Matrix (Vanderbilt PP)
 Gauss-broadening in eV      SIGMA  =   0.01


--------------------------------------------------------------------------------------------------------


  energy-cutoff  :      700.00
  volume of cell :     1581.87
      direct lattice vectors                 reciprocal lattice vectors
    16.293001175  0.000000000  0.000000000     0.061376047  0.054896404  0.000000000
   -10.862000465 12.144085884  0.000000000     0.000000000  0.082344609  0.000000000
     0.000000000  0.000000000  7.994749546     0.000000000  0.000000000  0.125082092

  length of vectors
    16.293001175 16.293000830  7.994749546     0.082344607  0.082344609  0.125082092


 
 k-points in units of 2pi/SCALE and weight: Automatic KPOINTS generated             
   0.00000000  0.00000000  0.00000000       0.028
   0.02045868  0.01829880  0.00000000       0.056
   0.00000000  0.02744820  0.00000000       0.056
   0.02045868  0.04574700  0.00000000       0.056
  -0.02045868  0.00914940  0.00000000       0.056
   0.00000000  0.00000000  0.03127052       0.056
   0.02045868  0.01829880  0.03127052       0.056
  -0.02045868 -0.01829880  0.03127052       0.056
   0.00000000  0.02744820 -0.03127052       0.056
   0.00000000 -0.02744820 -0.03127052       0.056
   0.02045868  0.04574700  0.03127052       0.056
  -0.02045868 -0.04574700  0.03127052       0.056
  -0.02045868  0.00914940  0.03127052       0.056
   0.02045868 -0.00914940  0.03127052       0.056
   0.00000000  0.00000000  0.06254105       0.028
   0.02045868  0.01829880  0.06254105       0.056
   0.00000000  0.02744820  0.06254105       0.056
   0.02045868  0.04574700  0.06254105       0.056
  -0.02045868  0.00914940  0.06254105       0.056
 
 k-points in reciprocal lattice and weights: Automatic KPOINTS generated             
   0.00000000  0.00000000  0.00000000       0.028
   0.33333333 -0.00000000  0.00000000       0.056
   0.00000000  0.33333333  0.00000000       0.056
   0.33333333  0.33333333  0.00000000       0.056
  -0.33333333  0.33333333  0.00000000       0.056
   0.00000000  0.00000000  0.25000000       0.056
   0.33333333 -0.00000000  0.25000000       0.056
  -0.33333333  0.00000000  0.25000000       0.056
   0.00000000  0.33333333 -0.25000000       0.056
   0.00000000 -0.33333333 -0.25000000       0.056
   0.33333333  0.33333333  0.25000000       0.056
  -0.33333333 -0.33333333  0.25000000       0.056
  -0.33333333  0.33333333  0.25000000       0.056
   0.33333333 -0.33333333  0.25000000       0.056
   0.00000000  0.00000000  0.50000000       0.028
   0.33333333 -0.00000000  0.50000000       0.056
   0.00000000  0.33333333  0.50000000       0.056
   0.33333333  0.33333333  0.50000000       0.056
  -0.33333333  0.33333333  0.50000000       0.056
 
 position of ions in fractional coordinates (direct lattice) 
   0.98290563  0.64102513  0.00000000
   0.78290558  0.34102503  0.15190083
   0.58290541  0.04102494  0.30380166
   0.98290563  0.30769178  0.00000000
   0.78290558  0.00769171  0.15190083
   0.58290541  0.70769167  0.30380166
   0.98290563  0.97435850  0.00000000
   0.78290558  0.67435837  0.15190083
   0.58290541  0.37435830  0.30380166
   0.63290566  0.65769172  0.07595026
   0.43290559  0.35769162  0.22785109
   0.23290552  0.05769158  0.37975192
   0.63290566  0.32435846  0.07595026
   0.43290559  0.02435837  0.22785109
   0.23290552  0.72435832  0.37975192
   0.63290566  0.99102521  0.07595026
   0.43290559  0.69102514  0.22785109
   0.23290552  0.39102507  0.37975192
   0.48290563  0.80769175  0.00000000
   0.28290555  0.50769162  0.15190083
   0.08290544  0.20769161  0.30380166
   0.48290563  0.47435844  0.00000000
   0.28290555  0.17435835  0.15190083
   0.08290544  0.87435830  0.30380166
   0.48290563  0.14102514  0.00000000
   0.28290555  0.84102505  0.15190083
   0.08290544  0.54102498  0.30380166
   0.13290568  0.82435852  0.07595027
   0.93290555  0.52435839  0.22785109
   0.73290551  0.22435838  0.37975192
   0.13290568  0.49102521  0.07595027
   0.93290555  0.19102511  0.22785109
   0.73290551  0.89102513  0.37975192
   0.13290568  0.15769196  0.07595027
   0.93290555  0.85769188  0.22785109
   0.73290551  0.55769193  0.37975192
   0.77172834  0.11436462  0.56517518
   0.01458549  0.08579314  0.66493583
   0.25744271  0.05722165  0.76469648
   0.05744267  0.25722170  0.56517518
   0.30029988  0.22865021  0.66493583
   0.54315710  0.20007876  0.76469648
   0.34315682  0.40007880  0.56517518
   0.58601403  0.37150732  0.66493583
   0.82887137  0.34293586  0.76469648
   0.62887120  0.54293603  0.56517518
   0.87172842  0.51436454  0.66493583
   0.11458576  0.48579305  0.76469648
   0.91458547  0.68579310  0.56517518
   0.15744269  0.65722168  0.66493583
   0.40029991  0.62865019  0.76469648
   0.20029974  0.82865030  0.56517518
   0.44315696  0.80007881  0.66493583
   0.68601417  0.77150732  0.76469648
   0.48601401  0.97150743  0.56517518
   0.72887123  0.94293588  0.66493583
   0.97172844  0.91436446  0.76469648
   0.60744250  0.20722172  0.61505544
   0.85029984  0.17865023  0.71481609
   0.09315705  0.15007871  0.81457663
   0.89315671  0.35007885  0.61505544
   0.13601398  0.32150737  0.71481609
   0.37887120  0.29293585  0.81457674
   0.17887104  0.49293601  0.61505544
   0.42172837  0.46436453  0.71481609
   0.66458559  0.43579304  0.81457674
   0.46458542  0.63579315  0.61505544
   0.70744276  0.60722166  0.71481609
   0.95029998  0.57865024  0.81457674
   0.75029957  0.77865028  0.61505544
   0.99315691  0.75007880  0.71481609
   0.23601401  0.72150731  0.81457674
   0.03601408  0.92150742  0.61505544
   0.27887130  0.89293587  0.71481609
   0.52172852  0.86436444  0.81457663
   0.32172823  0.06436455  0.61505544
   0.56458545  0.03579307  0.71481609
   0.80744266  0.00722158  0.81457663
   0.41458559  0.18579316  0.56517518
   0.65744269  0.15722164  0.66493583
   0.90030003  0.12865022  0.76469648
   0.70029998  0.32865030  0.56517518
   0.94315708  0.30007878  0.66493583
   0.18601417  0.27150729  0.76469648
   0.98601407  0.47150743  0.56517518
   0.22887135  0.44293594  0.66493583
   0.47172856  0.41436446  0.76469648
   0.27172828  0.61436456  0.56517518
   0.51458549  0.58579308  0.66493583
   0.75744283  0.55722165  0.76469648
   0.55744266  0.75722170  0.56517518
   0.80029988  0.72865027  0.66493583
   0.04315698  0.70007873  0.76469648
   0.84315687  0.90007889  0.56517518
   0.08601415  0.87150747  0.66493583
   0.32887149  0.84293598  0.76469648
   0.12887120  0.04293609  0.56517518
   0.37172842  0.01436460  0.66493583
   0.61458564  0.98579311  0.76469648
   0.96458548  0.13579315  0.61505544
   0.20744276  0.10722160  0.71481609
   0.45029998  0.07865024  0.81457674
   0.25029969  0.27865028  0.61505544
   0.49315691  0.25007880  0.71481609
   0.73601413  0.22150734  0.81457663
   0.53601384  0.42150739  0.61505544
   0.77887130  0.39293596  0.71481609
   0.02172852  0.36436450  0.81457663
   0.82172811  0.56436455  0.61505544
   0.06458545  0.53579313  0.71481609
   0.30744267  0.50722158  0.81457663
   0.10744262  0.70722163  0.61505544
   0.35029984  0.67865014  0.71481609
   0.59315705  0.65007871  0.81457674
   0.39315689  0.85007882  0.61505544
   0.63601422  0.82150733  0.71481609
   0.87887144  0.79293597  0.81457674
   0.67887104  0.99293596  0.61505544
   0.92172837  0.96436453  0.71481609
   0.16458559  0.93579304  0.81457674
 
 position of ions in cartesian coordinates  (Angst):
   9.05166730  7.78466418  0.00000002
   9.05166754  4.14143719  1.21440908
   9.05166570  0.49821033  2.42881815
  12.67233423  3.73663544  0.00000002
  12.67233411  0.09340885  1.21440908
   1.81033132  8.59426841  2.42881815
   5.43100005 11.83269329  0.00000002
   5.43100061  8.18946594  1.21440908
   5.43099858  4.54623930  2.42881815
   3.16808496  7.98706470  0.60720328
   3.16808471  4.34383770  1.82161242
   3.16808400  0.70061148  3.03602150
   6.78875092  3.93903703  0.60720328
   6.78875059  0.29581013  1.82161242
  -4.07325047  8.79666965  3.03602150
  -0.45258359 12.03509525  0.60720328
  -0.45258417  8.39186862  1.82161242
  -0.45258451  4.74864198  3.03602150
  -0.90516626  9.80867802  0.00000000
  -0.90516619  6.16545066  1.21440908
  -0.90516790  2.52222475  2.42881815
   2.71550035  5.76064962  0.00000000
   2.71549993  2.11742281  1.21440908
  -8.14650175 10.61828224  2.42881815
   6.33616678  1.71262142  0.00000000
  -4.52583409 10.21348049  1.21440908
  -4.52583515  6.57025386  2.42881815
  -6.78875031 10.01108070  0.60720340
   9.50425021  6.36785335  1.82161242
   9.50424946  2.72462744  3.03602150
  -3.16808370  5.96305231  0.60720340
  13.12491649  2.31982532  1.82161242
   2.26291495 10.82068565  3.03602150
   0.45258225  1.91502466  0.60720340
   5.88358166 10.41588390  1.82161242
   5.88358026  6.77265872  3.03602150
  11.33154210  1.38885382  4.51843398
  -0.69424362  1.04187924  5.31599540
   3.57297283  0.69490464  6.11355683
  -1.85802881  3.12372240  4.51843398
   2.40918764  2.77674781  5.31599540
   6.67640374  2.42977360  6.11355683
   1.24539825  4.85859134  4.51843398
   5.51261466  4.51161676  5.31599540
   9.77983272  4.16464254  6.11355683
   4.34882786  6.59346174  4.51843398
   8.61604429  6.24648716  5.31599540
  -3.40973851  5.89951257  6.11355683
   7.45225716  8.32833033  4.51843398
  -4.57352822  7.98135647  5.31599540
  -0.30631178  7.63438187  6.11355683
  -5.73731600 10.06320036  4.51843398
  -1.47009956  9.71622577  5.31599540
   2.79711686  9.36925119  6.11355683
  -2.63388734 11.79806967  4.51843398
   1.63332973 11.45109436  5.31599540
   5.90054552 11.10412050  6.11355683
   7.64621895  2.51651833  4.91721422
  11.91343733  2.16954374  5.71477563
  -0.11234709  1.82256879  6.51233611
  10.74964663  4.25138763  4.91721422
  -1.27613713  3.90441305  5.71477563
   2.99107962  3.55743810  6.51233706
  -2.43992522  5.98625730  4.91721422
   1.82729315  5.63928272  5.71477563
   6.09450957  5.29230813  6.51233706
   0.66350536  7.72112661  4.91721422
   4.93072373  7.37415203  5.71477563
   9.19793953  7.02717816  6.51233706
   3.76693208  9.45599592  4.91721422
   8.03415046  9.10902133  5.71477563
  -3.99163622  8.76204675  6.51233706
  -9.42263656 11.19086523  4.91721422
  -5.15541947 10.84388992  5.71477563
  -0.88820368 10.49691606  6.51233611
   4.54279064  0.78164865  4.91721422
   8.81000705  0.43467407  5.71477563
  13.07722348  0.08769949  6.51233611
   4.73675810  2.25628810  4.51843398
   9.00397292  1.90931316  5.31599540
  13.27119065  1.56233930  6.11355683
   7.84018870  3.99115742  4.51843398
  12.10740353  3.64418246  5.31599540
   0.08161683  3.29720788  6.11355683
  10.94361444  5.72602672  4.51843398
  -1.08216932  5.37905215  5.31599540
   3.18504711  5.03207755  6.11355683
  -2.24595904  7.46089603  4.51843398
   2.02125739  7.11392145  5.31599540
   6.28847512  6.76694759  6.11355683
   0.85747155  9.19576535  4.51843398
   5.12468734  8.84879148  5.31599540
  -6.90109871  8.50181617  6.11355683
   3.96089858 10.93063538  4.51843398
  -8.06488582 10.58366152  5.31599540
  -3.79766744 10.23668692  6.11355683
   1.63332685  0.52141953  4.51843398
   5.90054329  0.17444494  5.31599540
  -0.69424074 11.97155624  6.11355683
  14.24100716  1.64908366  4.91721422
   2.21522403  1.30210836  5.71477563
   6.48243917  0.95513522  6.51233706
   1.05143366  3.38395298  4.91721422
   5.31865010  3.03697839  5.71477563
   9.58586621  2.69000417  6.51233611
   4.15486071  5.11882192  4.91721422
   8.42208038  4.77184806  5.71477563
  -3.60370469  4.42487384  6.51233611
   7.25828904  6.85369159  4.91721422
  -4.76749442  6.50671774  5.71477563
  -0.50027734  6.15974243  6.51233611
  -5.93127896  8.58856018  4.91721422
  -1.66406252  8.24158560  5.71477563
   2.60315327  7.89461173  6.51233706
  -2.82785094 10.32343021  4.91721422
   1.43936743  9.97645563  5.71477563
   5.70658258  9.62948248  6.51233706
   0.27557577 12.05829953  4.91721422
   4.54279350 11.71132566  5.71477563
  -7.48299125 11.36435107  6.51233706
 


--------------------------------------------------------------------------------------------------------


 k-point     1 :   0.0000 0.0000 0.0000  plane waves:   66547
 k-point     2 :   0.3333-0.0000 0.0000  plane waves:   66521
 k-point     3 :   0.0000 0.3333 0.0000  plane waves:   66521
 k-point     4 :   0.3333 0.3333 0.0000  plane waves:   66551
 k-point     5 :  -0.3333 0.3333 0.0000  plane waves:   66504
 k-point     6 :   0.0000 0.0000 0.2500  plane waves:   66560
 k-point     7 :   0.3333-0.0000 0.2500  plane waves:   66504
 k-point     8 :  -0.3333 0.0000 0.2500  plane waves:   66504
 k-point     9 :   0.0000 0.3333-0.2500  plane waves:   66504
 k-point    10 :   0.0000-0.3333-0.2500  plane waves:   66504
 k-point    11 :   0.3333 0.3333 0.2500  plane waves:   66494
 k-point    12 :  -0.3333-0.3333 0.2500  plane waves:   66494
 k-point    13 :  -0.3333 0.3333 0.2500  plane waves:   66507
 k-point    14 :   0.3333-0.3333 0.2500  plane waves:   66507
 k-point    15 :   0.0000 0.0000 0.5000  plane waves:   66494
 k-point    16 :   0.3333-0.0000 0.5000  plane waves:   66548
 k-point    17 :   0.0000 0.3333 0.5000  plane waves:   66548
 k-point    18 :   0.3333 0.3333 0.5000  plane waves:   66500
 k-point    19 :  -0.3333 0.3333 0.5000  plane waves:   66554

 maximum and minimum number of plane-waves per node :      4205     4093

 maximum number of plane-waves:     66560
 maximum index in each direction: 
   IXMAX=   35   IYMAX=   35   IZMAX=   17
   IXMIN=  -35   IYMIN=  -35   IZMIN=  -17


 real space projection operators:
  total allocation   :      13361.12 KBytes
  max/ min on nodes  :        886.12        740.38


 parallel 3D FFT for wavefunctions:
    minimum data exchange during FFTs selected (reduces bandwidth)
 parallel 3D FFT for charge:
    minimum data exchange during FFTs selected (reduces bandwidth)


 total amount of memory used by VASP MPI-rank0   246071. kBytes
=======================================================================

   base      :      30000. kBytes
   nonlr-proj:       5360. kBytes
   fftplans  :      13312. kBytes
   grid      :      10865. kBytes
   one-center:         49. kBytes
   wavefun   :     186485. kBytes
 
     INWAV:  cpu time      0.0000: real time      0.0002
 Broyden mixing: mesh for mixing (old mesh)
   NGX = 71   NGY = 71   NGZ = 35
  (NGX  =216   NGY  =216   NGZ  =108)
  gives a total of 176435 points

 initial charge density was supplied:
 charge density of overlapping atoms calculated
 number of electron     480.0000000 magnetization       1.0000000
 keeping initial charge density in first step


--------------------------------------------------------------------------------------------------------


 Maximum index for non-local projection operator          183
 Maximum index for augmentation-charges         2267 (set IRDMAX)


--------------------------------------------------------------------------------------------------------


 First call to EWALD:  gamma=   0.152
 Maximum number of real-space cells 3x 3x 4
 Maximum number of reciprocal cells 4x 4x 2

    FEWALD:  cpu time      0.0037: real time      0.0037


--------------------------------------- Ionic step        1  -------------------------------------------




--------------------------------------- Iteration      1(   1)  ---------------------------------------


    POTLOK:  cpu time      0.1756: real time      0.1772
    SETDIJ:  cpu time      0.6287: real time      0.6319
     EDDAV:  cpu time     41.0220: real time     41.3466
       DOS:  cpu time      0.0034: real time      0.0034
    --------------------------------------------
      LOOP:  cpu time     41.8297: real time     42.1592

 eigenvalue-minimisations  : 21888
 total energy-change (2. order) : 0.2380630E+04  (-0.2555736E+05)
 number of electron     480.0000000 magnetization       1.0000000
 augmentation part      480.0000000 magnetization       1.0000000

 Free energy of the ion-electron system (eV)
  ---------------------------------------------------
  alpha Z        PSCENC =       615.38788919
  Ewald energy   TEWEN  =     -8775.31104271
  -Hartree energ DENC   =     -8328.70903129
  -exchange      EXHF   =         0.00000000
  -V(xc)+E(xc)   XCENC  =       737.97977558
  PAW double counting   =     12288.30765307   -11702.77953025
  entropy T*S    EENTRO =        -0.00106360
  eigenvalues    EBANDS =      1474.52558245
  atomic energy  EATOM  =     16071.23009607
  Solvation  Ediel_sol  =         0.00000000
  ---------------------------------------------------
  free energy    TOTEN  =      2380.63032852 eV

  energy without entropy =     2380.63139211  energy(sigma->0) =     2380.63086032


--------------------------------------------------------------------------------------------------------




--------------------------------------- Iteration      1(   2)  ---------------------------------------


     EDDAV:  cpu time     47.4272: real time     47.8135
       DOS:  cpu time      0.0034: real time      0.0034
    --------------------------------------------
      LOOP:  cpu time     47.4305: real time     47.8168

 eigenvalue-minimisations  : 26808
 total energy-change (2. order) :-0.2894283E+04  (-0.2764536E+04)
 number of electron     480.0000000 magnetization       1.0000000
 augmentation part      480.0000000 magnetization       1.0000000

 Free energy of the ion-electron system (eV)
  ---------------------------------------------------
  alpha Z        PSCENC =       615.38788919
  Ewald energy   TEWEN  =     -8775.31104271
  -Hartree energ DENC   =     -8328.70903129
  -exchange      EXHF   =         0.00000000
  -V(xc)+E(xc)   XCENC  =       737.97977558
  PAW double counting   =     12288.30765307   -11702.77953025
  entropy T*S    EENTRO =        -0.00131897
  eigenvalues    EBANDS =     -1419.75687528
  atomic energy  EATOM  =     16071.23009607
  Solvation  Ediel_sol  =         0.00000000
  ---------------------------------------------------
  free energy    TOTEN  =      -513.65238459 eV

  energy without entropy =     -513.65106562  energy(sigma->0) =     -513.65172510


--------------------------------------------------------------------------------------------------------




--------------------------------------- Iteration      1(   3)  ---------------------------------------


     EDDAV:  cpu time     48.1259: real time     48.5196
       DOS:  cpu time      0.0033: real time      0.0033
    --------------------------------------------
      LOOP:  cpu time     48.1292: real time     48.5229

 eigenvalue-minimisations  : 27272
 total energy-change (2. order) :-0.3130119E+03  (-0.2982535E+03)
 number of electron     480.0000000 magnetization       1.0000000
 augmentation part      480.0000000 magnetization       1.0000000

 Free energy of the ion-electron system (eV)
  ---------------------------------------------------
  alpha Z        PSCENC =       615.38788919
  Ewald energy   TEWEN  =     -8775.31104271
  -Hartree energ DENC   =     -8328.70903129
  -exchange      EXHF   =         0.00000000
  -V(xc)+E(xc)   XCENC  =       737.97977558
  PAW double counting   =     12288.30765307   -11702.77953025
  entropy T*S    EENTRO =        -0.00159274
  eigenvalues    EBANDS =     -1732.76851820
  atomic energy  EATOM  =     16071.23009607
  Solvation  Ediel_sol  =         0.00000000
  ---------------------------------------------------
  free energy    TOTEN  =      -826.66430127 eV

  energy without entropy =     -826.66270853  energy(sigma->0) =     -826.66350490


--------------------------------------------------------------------------------------------------------




--------------------------------------- Iteration      1(   4)  ---------------------------------------


     EDDAV:  cpu time     50.6969: real time     51.1112
       DOS:  cpu time      0.0033: real time      0.0033
    --------------------------------------------
      LOOP:  cpu time     50.7002: real time     51.1145

 eigenvalue-minimisations  : 29048
 total energy-change (2. order) :-0.1646138E+02  (-0.1587589E+02)
 number of electron     480.0000000 magnetization       1.0000000
 augmentation part      480.0000000 magnetization       1.0000000

 Free energy of the ion-electron system (eV)
  ---------------------------------------------------
  alpha Z        PSCENC =       615.38788919
  Ewald energy   TEWEN  =     -8775.31104271
  -Hartree energ DENC   =     -8328.70903129
  -exchange      EXHF   =         0.00000000
  -V(xc)+E(xc)   XCENC  =       737.97977558
  PAW double counting   =     12288.30765307   -11702.77953025
  entropy T*S    EENTRO =        -0.00171329
  eigenvalues    EBANDS =     -1749.22977424
  atomic energy  EATOM  =     16071.23009607
  Solvation  Ediel_sol  =         0.00000000
  ---------------------------------------------------
  free energy    TOTEN  =      -843.12567786 eV

  energy without entropy =     -843.12396458  energy(sigma->0) =     -843.12482122


--------------------------------------------------------------------------------------------------------




--------------------------------------- Iteration      1(   5)  ---------------------------------------


     EDDAV:  cpu time     54.0050: real time     54.4469
       DOS:  cpu time      0.0032: real time      0.0032
    CHARGE:  cpu time      1.8502: real time      1.8601
    MIXING:  cpu time      0.0040: real time      0.0040
    --------------------------------------------
      LOOP:  cpu time     55.8625: real time     56.3143

 eigenvalue-minimisations  : 31512
 total energy-change (2. order) :-0.8697860E+00  (-0.8554847E+00)
 number of electron     480.0000000 magnetization       1.0000000
 augmentation part       -0.8224714 magnetization       0.0193383

 Broyden mixing:
  rms(total) = 0.40617E+01    rms(broyden)= 0.40616E+01
  rms(prec ) = 0.52652E+01
  weight for this iteration     100.00

 Free energy of the ion-electron system (eV)
  ---------------------------------------------------
  alpha Z        PSCENC =       615.38788919
  Ewald energy   TEWEN  =     -8775.31104271
  -Hartree energ DENC   =     -8328.70903129
  -exchange      EXHF   =         0.00000000
  -V(xc)+E(xc)   XCENC  =       737.97977558
  PAW double counting   =     12288.30765307   -11702.77953025
  entropy T*S    EENTRO =        -0.00179312
  eigenvalues    EBANDS =     -1750.09948040
  atomic energy  EATOM  =     16071.23009607
  Solvation  Ediel_sol  =         0.00000000
  ---------------------------------------------------
  free energy    TOTEN  =      -843.99546385 eV

  energy without entropy =     -843.99367073  energy(sigma->0) =     -843.99456729


--------------------------------------------------------------------------------------------------------




--------------------------------------- Iteration      1(   6)  ---------------------------------------


    POTLOK:  cpu time      0.1626: real time      0.1647
    SETDIJ:  cpu time      0.6232: real time      0.6263
     EDDAV:  cpu time     51.9864: real time     52.4091
       DOS:  cpu time      0.0034: real time      0.0034
    CHARGE:  cpu time      1.8488: real time      1.8584
    MIXING:  cpu time      0.0038: real time      0.0038
    --------------------------------------------
      LOOP:  cpu time     54.6282: real time     55.0657

 eigenvalue-minimisations  : 30024
 total energy-change (2. order) : 0.1298516E+02  (-0.3828237E+02)
 number of electron     480.0000000 magnetization       1.0000000
 augmentation part       -4.3506445 magnetization       0.0232130

 Broyden mixing:
  rms(total) = 0.33765E+01    rms(broyden)= 0.33765E+01
  rms(prec ) = 0.50102E+01
  weight for this iteration     100.00

 eigenvalues of (default mixing * dielectric matrix)
  average eigenvalue GAMMA=   0.6318
  0.6318

 Free energy of the ion-electron system (eV)
  ---------------------------------------------------
  alpha Z        PSCENC =       615.38788919
  Ewald energy   TEWEN  =     -8775.31104271
  -Hartree energ DENC   =     -9216.93909948
  -exchange      EXHF   =         0.00000000
  -V(xc)+E(xc)   XCENC  =       771.86485346
  PAW double counting   =     22332.07345110   -21751.92999166
  entropy T*S    EENTRO =        -0.00258191
  eigenvalues    EBANDS =      -877.38387462
  atomic energy  EATOM  =     16071.23009607
  Solvation  Ediel_sol  =         0.00000000
  ---------------------------------------------------
  free energy    TOTEN  =      -831.01030056 eV

  energy without entropy =     -831.00771865  energy(sigma->0) =     -831.00900961


--------------------------------------------------------------------------------------------------------




--------------------------------------- Iteration      1(   7)  ---------------------------------------


    POTLOK:  cpu time      0.1624: real time      0.1648
    SETDIJ:  cpu time      0.6262: real time      0.6293
     EDDAV:  cpu time     51.9433: real time     52.3640
       DOS:  cpu time      0.0035: real time      0.0035
    CHARGE:  cpu time      1.8778: real time      1.8877
    MIXING:  cpu time      0.0041: real time      0.0041
    --------------------------------------------
      LOOP:  cpu time     54.6172: real time     55.0534

 eigenvalue-minimisations  : 30016
 total energy-change (2. order) : 0.3616180E+02  (-0.1704430E+02)
 number of electron     480.0000000 magnetization       1.0000000
 augmentation part       -3.2637251 magnetization       0.0182913

 Broyden mixing:
  rms(total) = 0.12632E+01    rms(broyden)= 0.12632E+01
  rms(prec ) = 0.14688E+01
  weight for this iteration     100.00

 eigenvalues of (default mixing * dielectric matrix)
  average eigenvalue GAMMA=   0.8539
  1.1982  0.5097

 Free energy of the ion-electron system (eV)
  ---------------------------------------------------
  alpha Z        PSCENC =       615.38788919
  Ewald energy   TEWEN  =     -8775.31104271
  -Hartree energ DENC   =     -8867.48947028
  -exchange      EXHF   =         0.00000000
  -V(xc)+E(xc)   XCENC  =       768.22492446
  PAW double counting   =     27093.05238997   -26513.91574140
  entropy T*S    EENTRO =        -0.00332884
  eigenvalues    EBANDS =     -1186.02421696
  atomic energy  EATOM  =     16071.23009607
  Solvation  Ediel_sol  =         0.00000000
  ---------------------------------------------------
  free energy    TOTEN  =      -794.84850049 eV

  energy without entropy =     -794.84517166  energy(sigma->0) =     -794.84683608


--------------------------------------------------------------------------------------------------------




--------------------------------------- Iteration      1(   8)  ---------------------------------------


    POTLOK:  cpu time      0.1628: real time      0.1644
    SETDIJ:  cpu time      0.6248: real time      0.6276
     EDDAV:  cpu time     52.2803: real time     52.7070
       DOS:  cpu time      0.0032: real time      0.0033
    CHARGE:  cpu time      1.8751: real time      1.8852
    MIXING:  cpu time      0.0039: real time      0.0039
    --------------------------------------------
      LOOP:  cpu time     54.9503: real time     55.3915

 eigenvalue-minimisations  : 30232
 total energy-change (2. order) :-0.4063921E+01  (-0.3695148E+01)
 number of electron     480.0000000 magnetization       1.0000000
 augmentation part       -2.9944528 magnetization       0.0208767

 Broyden mixing:
  rms(total) = 0.95585E+00    rms(broyden)= 0.95583E+00
  rms(prec ) = 0.18625E+01
  weight for this iteration     100.00

 eigenvalues of (default mixing * dielectric matrix)
  average eigenvalue GAMMA=   0.8082
  1.4040  0.5103  0.5103

 Free energy of the ion-electron system (eV)
  ---------------------------------------------------
  alpha Z        PSCENC =       615.38788919
  Ewald energy   TEWEN  =     -8775.31104271
  -Hartree energ DENC   =     -8874.86600059
  -exchange      EXHF   =         0.00000000
  -V(xc)+E(xc)   XCENC  =       770.46160838
  PAW double counting   =     32037.38420907   -31458.17264522
  entropy T*S    EENTRO =        -0.00215028
  eigenvalues    EBANDS =     -1185.02438582
  atomic energy  EATOM  =     16071.23009607
  Solvation  Ediel_sol  =         0.00000000
  ---------------------------------------------------
  free energy    TOTEN  =      -798.91242190 eV

  energy without entropy =     -798.91027162  energy(sigma->0) =     -798.91134676


--------------------------------------------------------------------------------------------------------




--------------------------------------- Iteration      1(   9)  ---------------------------------------


    POTLOK:  cpu time      0.1626: real time      0.1639
    SETDIJ:  cpu time      0.6248: real time      0.6278
     EDDAV:  cpu time     49.9760: real time     50.3817
       DOS:  cpu time      0.0035: real time      0.0035
    CHARGE:  cpu time      1.8674: real time      1.8773
    MIXING:  cpu time      0.0040: real time      0.0040
    --------------------------------------------
      LOOP:  cpu time     52.6383: real time     53.0583

 eigenvalue-minimisations  : 28528
 total energy-change (2. order) : 0.2356057E+01  (-0.1056367E+01)
 number of electron     480.0000000 magnetization       1.0000000
 augmentation part       -3.0136069 magnetization       0.0212263

 Broyden mixing:
  rms(total) = 0.48646E+00    rms(broyden)= 0.48643E+00
  rms(prec ) = 0.90983E+00
  weight for this iteration     100.00

 eigenvalues of (default mixing * dielectric matrix)
  average eigenvalue GAMMA=   0.7733
  1.5617  0.6103  0.6103  0.3107

 Free energy of the ion-electron system (eV)
  ---------------------------------------------------
  alpha Z        PSCENC =       615.38788919
  Ewald energy   TEWEN  =     -8775.31104271
  -Hartree energ DENC   =     -8899.57134504
  -exchange      EXHF   =         0.00000000
  -V(xc)+E(xc)   XCENC  =       771.69271665
  PAW double counting   =     33779.77161740   -33200.67357228
  entropy T*S    EENTRO =        -0.00305528
  eigenvalues    EBANDS =     -1159.07966877
  atomic energy  EATOM  =     16071.23009607
  Solvation  Ediel_sol  =         0.00000000
  ---------------------------------------------------
  free energy    TOTEN  =      -796.55636476 eV

  energy without entropy =     -796.55330948  energy(sigma->0) =     -796.55483712


--------------------------------------------------------------------------------------------------------




--------------------------------------- Iteration      1(  10)  ---------------------------------------


    POTLOK:  cpu time      0.1631: real time      0.1642
    SETDIJ:  cpu time      0.6247: real time      0.6278
     EDDAV:  cpu time     52.9707: real time     53.4034
       DOS:  cpu time      0.0034: real time      0.0034
    CHARGE:  cpu time      1.8654: real time      1.8755
    MIXING:  cpu time      0.0041: real time      0.0041
    --------------------------------------------
      LOOP:  cpu time     55.6314: real time     56.0785

 eigenvalue-minimisations  : 30664
 total energy-change (2. order) : 0.3522824E+00  (-0.4015724E+00)
 number of electron     480.0000000 magnetization       1.0000000
 augmentation part       -3.0561016 magnetization       0.0207059

 Broyden mixing:
  rms(total) = 0.29860E+00    rms(broyden)= 0.29859E+00
  rms(prec ) = 0.40704E+00
  weight for this iteration     100.00

 eigenvalues of (default mixing * dielectric matrix)
  average eigenvalue GAMMA=   0.7452
  1.6001  0.6978  0.6978  0.4479  0.2826

 Free energy of the ion-electron system (eV)
  ---------------------------------------------------
  alpha Z        PSCENC =       615.38788919
  Ewald energy   TEWEN  =     -8775.31104271
  -Hartree energ DENC   =     -8913.41554664
  -exchange      EXHF   =         0.00000000
  -V(xc)+E(xc)   XCENC  =       772.54326380
  PAW double counting   =     34959.01742305   -34380.12454738
  entropy T*S    EENTRO =        -0.00347638
  eigenvalues    EBANDS =     -1145.52814136
  atomic energy  EATOM  =     16071.23009607
  Solvation  Ediel_sol  =         0.00000000
  ---------------------------------------------------
  free energy    TOTEN  =      -796.20408234 eV

  energy without entropy =     -796.20060597  energy(sigma->0) =     -796.20234415


--------------------------------------------------------------------------------------------------------




--------------------------------------- Iteration      1(  11)  ---------------------------------------


    POTLOK:  cpu time      0.1616: real time      0.1637
    SETDIJ:  cpu time      0.6236: real time      0.6266
     EDDAV:  cpu time     51.1038: real time     51.5126
       DOS:  cpu time      0.0034: real time      0.0034
    CHARGE:  cpu time      1.8193: real time      1.8292
    MIXING:  cpu time      0.0042: real time      0.0043
    --------------------------------------------
      LOOP:  cpu time     53.7160: real time     54.1397

 eigenvalue-minimisations  : 29248
 total energy-change (2. order) : 0.1364819E+00  (-0.1215789E+00)
 number of electron     480.0000000 magnetization       1.0000000
 augmentation part       -3.1082472 magnetization       0.0210292

 Broyden mixing:
  rms(total) = 0.16679E+00    rms(broyden)= 0.16678E+00
  rms(prec ) = 0.19022E+00
  weight for this iteration     100.00

 eigenvalues of (default mixing * dielectric matrix)
  average eigenvalue GAMMA=   0.7714
  1.4823  1.2112  0.7216  0.5207  0.4158  0.2768

 Free energy of the ion-electron system (eV)
  ---------------------------------------------------
  alpha Z        PSCENC =       615.38788919
  Ewald energy   TEWEN  =     -8775.31104271
  -Hartree energ DENC   =     -8919.02011638
  -exchange      EXHF   =         0.00000000
  -V(xc)+E(xc)   XCENC  =       772.85075392
  PAW double counting   =     35359.41668632   -34780.63365861
  entropy T*S    EENTRO =        -0.00287579
  eigenvalues    EBANDS =     -1139.98533248
  atomic energy  EATOM  =     16071.23009607
  Solvation  Ediel_sol  =         0.00000000
  ---------------------------------------------------
  free energy    TOTEN  =      -796.06760047 eV

  energy without entropy =     -796.06472468  energy(sigma->0) =     -796.06616257


--------------------------------------------------------------------------------------------------------




--------------------------------------- Iteration      1(  12)  ---------------------------------------


    POTLOK:  cpu time      0.1624: real time      0.1646
    SETDIJ:  cpu time      0.6206: real time      0.6237
     EDDAV:  cpu time     48.6540: real time     49.0456
       DOS:  cpu time      0.0034: real time      0.0034
    CHARGE:  cpu time      1.8292: real time      1.8387
    MIXING:  cpu time      0.0051: real time      0.0052
    --------------------------------------------
      LOOP:  cpu time     51.2748: real time     51.6812

 eigenvalue-minimisations  : 27696
 total energy-change (2. order) : 0.4814847E-02  (-0.2795767E-01)
 number of electron     480.0000000 magnetization       1.0000000
 augmentation part       -3.1231060 magnetization       0.0217725

 Broyden mixing:
  rms(total) = 0.10321E+00    rms(broyden)= 0.10321E+00
  rms(prec ) = 0.12833E+00
  weight for this iteration     100.00

 eigenvalues of (default mixing * dielectric matrix)
  average eigenvalue GAMMA=   0.8424
  1.6827  1.6827  0.7491  0.5478  0.5478  0.4104  0.2763

 Free energy of the ion-electron system (eV)
  ---------------------------------------------------
  alpha Z        PSCENC =       615.38788919
  Ewald energy   TEWEN  =     -8775.31104271
  -Hartree energ DENC   =     -8918.56333733
  -exchange      EXHF   =         0.00000000
  -V(xc)+E(xc)   XCENC  =       772.89636170
  PAW double counting   =     35419.53286713   -34840.80118209
  entropy T*S    EENTRO =        -0.00318094
  eigenvalues    EBANDS =     -1140.43125663
  atomic energy  EATOM  =     16071.23009607
  Solvation  Ediel_sol  =         0.00000000
  ---------------------------------------------------
  free energy    TOTEN  =      -796.06278562 eV

  energy without entropy =     -796.05960468  energy(sigma->0) =     -796.06119515


--------------------------------------------------------------------------------------------------------




--------------------------------------- Iteration      1(  13)  ---------------------------------------


    POTLOK:  cpu time      0.1629: real time      0.1643
    SETDIJ:  cpu time      0.6218: real time      0.6246
     EDDAV:  cpu time     50.1020: real time     50.5047
       DOS:  cpu time      0.0034: real time      0.0034
    CHARGE:  cpu time      1.8598: real time      1.8698
    MIXING:  cpu time      0.0045: real time      0.0045
    --------------------------------------------
      LOOP:  cpu time     52.7544: real time     53.1712

 eigenvalue-minimisations  : 28728
 total energy-change (2. order) :-0.5235252E-02  (-0.9088024E-02)
 number of electron     480.0000000 magnetization       1.0000000
 augmentation part       -3.1200404 magnetization       0.0219392

 Broyden mixing:
  rms(total) = 0.69020E-01    rms(broyden)= 0.69018E-01
  rms(prec ) = 0.12990E+00
  weight for this iteration     100.00

 eigenvalues of (default mixing * dielectric matrix)
  average eigenvalue GAMMA=   0.8379
  1.8184  1.8184  0.7938  0.5907  0.5907  0.2776  0.4425  0.3710

 Free energy of the ion-electron system (eV)
  ---------------------------------------------------
  alpha Z        PSCENC =       615.38788919
  Ewald energy   TEWEN  =     -8775.31104271
  -Hartree energ DENC   =     -8916.81285436
  -exchange      EXHF   =         0.00000000
  -V(xc)+E(xc)   XCENC  =       772.87216653
  PAW double counting   =     35388.75490615   -34810.05227433
  entropy T*S    EENTRO =        -0.00295041
  eigenvalues    EBANDS =     -1142.13395702
  atomic energy  EATOM  =     16071.23009607
  Solvation  Ediel_sol  =         0.00000000
  ---------------------------------------------------
  free energy    TOTEN  =      -796.06802087 eV

  energy without entropy =     -796.06507047  energy(sigma->0) =     -796.06654567


--------------------------------------------------------------------------------------------------------




--------------------------------------- Iteration      1(  14)  ---------------------------------------


    POTLOK:  cpu time      0.1617: real time      0.1639
    SETDIJ:  cpu time      0.6211: real time      0.6240
     EDDAV:  cpu time     50.1421: real time     50.5462
       DOS:  cpu time      0.0033: real time      0.0033
    CHARGE:  cpu time      1.8380: real time      1.8479
    MIXING:  cpu time      0.0048: real time      0.0048
    --------------------------------------------
      LOOP:  cpu time     52.7711: real time     53.1901

 eigenvalue-minimisations  : 28688
 total energy-change (2. order) : 0.5740592E-02  (-0.4583584E-02)
 number of electron     480.0000000 magnetization       1.0000000
 augmentation part       -3.1173773 magnetization       0.0222025

 Broyden mixing:
  rms(total) = 0.42250E-01    rms(broyden)= 0.42249E-01
  rms(prec ) = 0.75209E-01
  weight for this iteration     100.00

 eigenvalues of (default mixing * dielectric matrix)
  average eigenvalue GAMMA=   0.8083
  1.8503  1.8503  0.8352  0.6555  0.6555  0.4688  0.4138  0.2763  0.2688

 Free energy of the ion-electron system (eV)
  ---------------------------------------------------
  alpha Z        PSCENC =       615.38788919
  Ewald energy   TEWEN  =     -8775.31104271
  -Hartree energ DENC   =     -8916.46628425
  -exchange      EXHF   =         0.00000000
  -V(xc)+E(xc)   XCENC  =       772.87424808
  PAW double counting   =     35370.98965433   -34792.29974917
  entropy T*S    EENTRO =        -0.00302005
  eigenvalues    EBANDS =     -1142.46407177
  atomic energy  EATOM  =     16071.23009607
  Solvation  Ediel_sol  =         0.00000000
  ---------------------------------------------------
  free energy    TOTEN  =      -796.06228028 eV

  energy without entropy =     -796.05926023  energy(sigma->0) =     -796.06077026


--------------------------------------------------------------------------------------------------------




--------------------------------------- Iteration      1(  15)  ---------------------------------------


    POTLOK:  cpu time      0.1630: real time      0.1642
    SETDIJ:  cpu time      0.6199: real time      0.6229
     EDDAV:  cpu time     50.2548: real time     50.6602
       DOS:  cpu time      0.0033: real time      0.0033
    CHARGE:  cpu time      1.8823: real time      1.8925
    MIXING:  cpu time      0.0050: real time      0.0050
    --------------------------------------------
      LOOP:  cpu time     52.9283: real time     53.3481

 eigenvalue-minimisations  : 28832
[...]
   -.221E+02 0.388E+02 -.191E+03   0.224E+02 -.443E+02 0.198E+03   -.301E+00 0.589E+01 -.107E+02   0.239E-03 -.356E-03 0.478E-04
   0.215E+02 0.278E+02 0.145E+03   -.239E+02 -.298E+02 -.147E+03   0.381E+01 0.561E+01 0.411E+01   0.300E-03 0.201E-03 0.699E-04
   0.472E+02 0.357E+01 -.635E+02   -.504E+02 -.155E+01 0.636E+02   0.361E+01 -.527E+00 -.449E+01   -.339E-03 -.327E-03 0.208E-03
   -.196E+02 0.213E+02 -.201E+03   0.196E+02 -.239E+02 0.205E+03   0.107E+01 0.316E+01 -.676E+01   -.945E-04 0.809E-04 -.259E-03
   0.240E+02 0.366E+02 0.141E+03   -.269E+02 -.384E+02 -.143E+03   0.424E+01 0.539E+01 0.482E+01   -.583E-03 -.798E-03 0.158E-03
   0.366E+02 -.340E+01 -.855E+02   -.393E+02 0.534E+01 0.868E+02   0.435E+01 0.770E-01 -.423E+01   0.666E-03 -.920E-03 0.263E-03
   -.243E+02 0.604E+02 -.151E+03   0.237E+02 -.677E+02 0.152E+03   0.357E+00 0.699E+01 -.574E+01   -.208E-03 0.719E-04 -.183E-03
   0.104E+02 0.329E+02 0.139E+03   -.123E+02 -.352E+02 -.142E+03   0.356E+01 0.579E+01 0.508E+01   -.968E-04 -.519E-03 0.205E-04
   0.456E+02 -.155E+01 -.706E+02   -.495E+02 0.262E+01 0.712E+02   0.477E+01 0.486E+00 -.476E+01   0.352E-03 -.163E-03 -.120E-03
   -.248E+02 0.307E+02 -.206E+03   0.255E+02 -.354E+02 0.214E+03   -.122E+00 0.685E+01 -.104E+02   0.689E-04 -.238E-03 -.137E-03
   0.303E+02 0.353E+02 0.138E+03   -.321E+02 -.366E+02 -.141E+03   0.368E+01 0.492E+01 0.420E+01   0.930E-03 0.237E-03 0.264E-03
   0.361E+02 -.274E+01 -.788E+02   -.395E+02 0.441E+01 0.800E+02   0.518E+01 0.274E+00 -.538E+01   -.561E-03 0.315E-04 -.266E-03
   -.158E+02 0.152E+02 -.141E+03   0.161E+02 -.150E+02 0.139E+03   -.725E+00 0.189E+01 -.609E+01   -.399E-03 -.478E-03 -.976E-04
   0.576E+01 0.293E+02 0.133E+03   -.705E+01 -.303E+02 -.135E+03   0.202E+01 0.407E+01 0.238E+01   -.480E-03 0.403E-03 0.504E-03
   0.408E+02 0.257E+01 -.829E+02   -.438E+02 -.804E+00 0.842E+02   0.426E+01 -.139E+00 -.543E+01   -.261E-03 0.685E-04 -.427E-04
   -.250E+02 0.311E+02 -.196E+03   0.254E+02 -.349E+02 0.203E+03   0.170E-01 0.537E+01 -.882E+01   -.143E-04 0.395E-03 0.176E-03
   0.134E+02 -.328E+02 0.199E+03   -.123E+02 0.379E+02 -.206E+03   -.101E+01 -.542E+01 0.103E+02   -.357E-03 -.698E-04 0.261E-03
   -.372E+02 0.253E+01 0.589E+02   0.406E+02 -.406E+01 -.593E+02   -.525E+01 0.119E+00 0.441E+01   -.199E-03 0.383E-03 0.143E-04
   -.208E+02 -.247E+02 -.142E+03   0.237E+02 0.262E+02 0.144E+03   -.427E+01 -.511E+01 -.431E+01   0.154E-03 0.595E-03 0.136E-04
   0.265E+02 -.379E+02 0.194E+03   -.274E+02 0.422E+02 -.200E+03   0.930E+00 -.650E+01 0.813E+01   -.413E-03 0.158E-03 0.127E-04
   -.353E+02 0.680E+00 0.947E+02   0.383E+02 -.241E+01 -.958E+02   -.436E+01 -.320E-01 0.386E+01   0.189E-03 0.367E-03 -.139E-03
   -.213E+02 -.370E+02 -.149E+03   0.239E+02 0.390E+02 0.152E+03   -.424E+01 -.522E+01 -.491E+01   0.239E-03 0.481E-03 0.131E-03
   0.266E+02 -.203E+02 0.187E+03   -.263E+02 0.227E+02 -.192E+03   0.296E+00 -.330E+01 0.579E+01   0.216E-03 -.181E-04 0.170E-04
   -.374E+02 -.900E+01 0.634E+02   0.397E+02 0.713E+01 -.638E+02   -.423E+01 -.138E-01 0.349E+01   0.258E-03 0.307E-03 0.251E-03
   -.259E+02 -.164E+02 -.118E+03   0.289E+02 0.170E+02 0.119E+03   -.467E+01 -.283E+01 -.968E+00   0.949E-05 -.487E-03 0.871E-04
   0.979E+01 -.287E+02 0.194E+03   -.914E+01 0.331E+02 -.201E+03   -.890E+00 -.543E+01 0.929E+01   0.122E-03 -.792E-04 0.224E-04
   -.347E+02 0.842E+00 0.868E+02   0.381E+02 -.241E+01 -.889E+02   -.432E+01 -.145E+00 0.600E+01   -.504E-03 -.680E-03 0.122E-03
   -.231E+02 -.309E+02 -.157E+03   0.250E+02 0.332E+02 0.160E+03   -.405E+01 -.551E+01 -.406E+01   0.260E-03 -.404E-03 0.976E-04
   0.359E+02 -.266E+02 0.179E+03   -.379E+02 0.301E+02 -.184E+03   0.146E+01 -.518E+01 0.695E+01   -.538E-03 -.679E-03 0.177E-04
   -.384E+02 -.528E+01 0.781E+02   0.424E+02 0.372E+01 -.788E+02   -.518E+01 -.317E+00 0.474E+01   0.460E-03 -.813E-03 -.287E-04
   -.236E+02 -.363E+02 -.111E+03   0.266E+02 0.401E+02 0.110E+03   -.428E+01 -.579E+01 -.281E+01   0.621E-04 0.228E-03 -.196E-03
   0.127E+01 -.356E+02 0.192E+03   0.546E+00 0.385E+02 -.197E+03   -.295E+01 -.506E+01 0.560E+01   -.590E-04 0.247E-03 -.625E-04
   -.384E+02 0.348E+01 0.710E+02   0.409E+02 -.525E+01 -.719E+02   -.433E+01 0.401E+00 0.514E+01   0.934E-03 0.322E-03 0.285E-03
   -.216E+02 -.330E+02 -.149E+03   0.237E+02 0.342E+02 0.151E+03   -.366E+01 -.502E+01 -.441E+01   -.203E-03 -.429E-03 -.237E-03
   0.463E+02 -.350E+02 0.184E+03   -.467E+02 0.371E+02 -.188E+03   0.145E+01 -.373E+01 0.556E+01   0.965E-03 0.590E-03 0.195E-03
   -.388E+02 0.833E+00 0.841E+02   0.415E+02 -.430E+01 -.859E+02   -.382E+01 0.110E+01 0.532E+01   -.853E-03 0.233E-03 -.286E-04
   -.197E+02 -.396E+02 -.127E+03   0.214E+02 0.415E+02 0.130E+03   -.351E+01 -.461E+01 -.279E+01   -.331E-03 -.704E-04 0.998E-04
   0.240E+02 0.366E+02 0.141E+03   -.269E+02 -.384E+02 -.143E+03   0.424E+01 0.539E+01 0.482E+01   0.298E-04 0.563E-03 -.610E-04
   0.366E+02 -.340E+01 -.855E+02   -.393E+02 0.534E+01 0.868E+02   0.435E+01 0.770E-01 -.423E+01   0.126E-02 0.235E-03 0.475E-03
   -.243E+02 0.604E+02 -.151E+03   0.237E+02 -.677E+02 0.152E+03   0.357E+00 0.699E+01 -.574E+01   -.801E-03 0.195E-03 -.143E-03
   0.104E+02 0.329E+02 0.139E+03   -.123E+02 -.352E+02 -.142E+03   0.356E+01 0.579E+01 0.508E+01   0.213E-03 0.274E-03 0.937E-04
   0.456E+02 -.155E+01 -.706E+02   -.495E+02 0.262E+01 0.712E+02   0.477E+01 0.486E+00 -.476E+01   -.552E-03 -.162E-03 -.140E-03
   -.248E+02 0.307E+02 -.206E+03   0.255E+02 -.354E+02 0.214E+03   -.122E+00 0.685E+01 -.104E+02   -.130E-03 0.936E-04 -.658E-04
   0.303E+02 0.353E+02 0.138E+03   -.321E+02 -.366E+02 -.141E+03   0.368E+01 0.492E+01 0.420E+01   0.101E-03 -.637E-03 0.195E-03
   0.361E+02 -.274E+01 -.788E+02   -.395E+02 0.441E+01 0.800E+02   0.518E+01 0.274E+00 -.538E+01   -.577E-03 -.126E-04 -.289E-03
   -.158E+02 0.152E+02 -.141E+03   0.161E+02 -.150E+02 0.139E+03   -.725E+00 0.189E+01 -.609E+01   0.238E-03 0.132E-03 -.195E-03
   0.576E+01 0.293E+02 0.133E+03   -.705E+01 -.303E+02 -.135E+03   0.202E+01 0.407E+01 0.238E+01   -.240E-03 -.193E-03 0.368E-03
   0.408E+02 0.257E+01 -.829E+02   -.438E+02 -.804E+00 0.842E+02   0.426E+01 -.139E+00 -.543E+01   0.316E-03 0.105E-03 -.122E-03
   -.250E+02 0.311E+02 -.196E+03   0.254E+02 -.349E+02 0.203E+03   0.170E-01 0.537E+01 -.882E+01   0.289E-04 -.136E-03 -.475E-05
   0.315E+02 0.301E+02 0.143E+03   -.342E+02 -.315E+02 -.145E+03   0.390E+01 0.501E+01 0.450E+01   0.179E-03 0.354E-03 -.479E-04
   0.395E+02 0.594E+01 -.743E+02   -.435E+02 -.430E+01 0.755E+02   0.510E+01 0.406E-01 -.560E+01   -.962E-04 -.382E-03 -.146E-03
   -.108E+02 0.194E+02 -.175E+03   0.110E+02 -.213E+02 0.177E+03   0.109E+01 0.425E+01 -.389E+01   -.327E-03 -.710E-03 0.175E-03
   0.156E+02 0.260E+02 0.143E+03   -.177E+02 -.277E+02 -.145E+03   0.350E+01 0.458E+01 0.343E+01   -.815E-04 -.479E-03 -.866E-04
   0.362E+02 0.146E+01 -.900E+02   -.395E+02 -.287E+00 0.910E+02   0.509E+01 0.247E+00 -.480E+01   -.376E-03 -.313E-03 0.223E-03
   -.221E+02 0.388E+02 -.191E+03   0.224E+02 -.443E+02 0.198E+03   -.301E+00 0.589E+01 -.107E+02   0.481E-03 -.317E-03 -.427E-05
   0.215E+02 0.278E+02 0.145E+03   -.239E+02 -.298E+02 -.147E+03   0.381E+01 0.561E+01 0.411E+01   -.243E-03 0.159E-03 0.354E-04
   0.472E+02 0.357E+01 -.635E+02   -.504E+02 -.155E+01 0.636E+02   0.361E+01 -.527E+00 -.449E+01   0.139E-03 0.585E-03 0.304E-03
   -.196E+02 0.213E+02 -.201E+03   0.196E+02 -.239E+02 0.205E+03   0.107E+01 0.316E+01 -.676E+01   0.452E-03 0.861E-03 -.132E-03
 -----------------------------------------------------------------------------------------------
   0.172E+01 -.872E+01 -.495E+02   -.355E-13 0.210E-12 0.341E-12   -.169E+01 0.865E+01 0.495E+02   0.105E-02 0.494E-03 0.261E-02
 
 
 POSITION                                       TOTAL-FORCE (eV/Angst)
 -----------------------------------------------------------------------------------
      9.05167      7.78466      0.00000        -0.272403      0.408933      3.922126
      9.05167      4.14144      1.21441         0.417386      0.348348     -0.230348
      9.05167      0.49821      2.42882        -1.271171     -0.396016      1.646027
     12.67233      3.73664      0.00000         0.479745     -1.550760      5.085823
     12.67233      0.09341      1.21441         0.173587      0.747599     -0.932490
      1.81033      8.59427      2.42882        -0.385296      0.570968      0.769633
      5.43100     11.83269      0.00000         0.729907     -0.152339     -0.304249
      5.43100      8.18947      1.21441         0.512983      0.770108     -0.289461
      5.43100      4.54624      2.42882         0.025211     -0.263113      0.176173
      3.16808      7.98706      0.60720        -0.402359     -1.003248     -1.611374
      3.16808      4.34384      1.82161        -0.192635     -0.759835      0.087757
      3.16808      0.70061      3.03602        -0.664667     -0.691564      1.864608
      6.78875      3.93904      0.60720        -0.657802      0.732224     -1.419202
      6.78875      0.29581      1.82161        -0.044923     -0.238766     -0.018409
     -4.07325      8.79667      3.03602         0.656570      0.257060      1.946190
     -0.45258     12.03510      0.60720         0.437940      0.036237     -0.274213
     -0.45258      8.39187      1.82161        -0.312627     -0.351161     -0.125867
     -0.45258      4.74864      3.03602         1.352899      0.463629      1.542200
     -0.90517      9.80868      0.00000         0.479745     -1.550760      5.085823
     -0.90517      6.16545      1.21441         0.173587      0.747599     -0.932490
     -0.90517      2.52222      2.42882        -0.385296      0.570968      0.769633
      2.71550      5.76065      0.00000         0.729907     -0.152339     -0.304249
      2.71550      2.11742      1.21441         0.512983      0.770108     -0.289461
     -8.14650     10.61828      2.42882         0.025211     -0.263113      0.176173
      6.33617      1.71262      0.00000        -0.272403      0.408933      3.922126
     -4.52583     10.21348      1.21441         0.417386      0.348348     -0.230348
     -4.52584      6.57025      2.42882        -1.271171     -0.396016      1.646027
     -6.78875     10.01108      0.60720        -0.657802      0.732224     -1.419202
      9.50425      6.36785      1.82161        -0.044923     -0.238766     -0.018409
      9.50425      2.72463      3.03602         0.656570      0.257060      1.946190
     -3.16808      5.96305      0.60720         0.437940      0.036237     -0.274213
     13.12492      2.31983      1.82161        -0.312627     -0.351161     -0.125867
      2.26291     10.82069      3.03602         1.352899      0.463629      1.542200
      0.45258      1.91502      0.60720        -0.402359     -1.003248     -1.611374
      5.88358     10.41588      1.82161        -0.192635     -0.759835      0.087757
      5.88358      6.77266      3.03602        -0.664667     -0.691564      1.864608
     11.33154      1.38885      4.51843        -0.237815     -1.058870      2.880269
     -0.69424      1.04188      5.31600        -0.910690     -1.710663      3.944739
      3.57297      0.69490      6.11356        -2.160033     -3.193373     -0.921849
     -1.85803      3.12372      4.51843        -0.512300     -1.651976      2.470576
      2.40919      2.77675      5.31600        -1.183876     -1.873586      4.077793
      6.67640      2.42977      6.11356        -1.296219     -1.973580     -3.416931
      1.24540      4.85859      4.51843        -1.136414     -2.142532      0.683959
      5.51261      4.51162      5.31600        -1.753636     -1.368505      4.219693
      9.77983      4.16464      6.11356        -1.639050     -3.834249     -2.089618
      4.34883      6.59346      4.51843         0.997528     -1.701316      1.581543
      8.61604      6.24649      5.31600        -1.104046     -2.365482      3.496206
     -3.40974      5.89951      6.11356        -1.850488     -2.755652     -0.365254
      7.45226      8.32833      4.51843         0.046744     -0.390773      3.354063
     -4.57353      7.98136      5.31600        -1.887022     -1.404780      4.037907
     -0.30631      7.63438      6.11356        -1.325380     -3.599178     -2.400588
     -5.73732     10.06320      4.51843        -0.029777     -2.158094      2.029879
     -1.47010      9.71623      5.31600        -1.331129     -1.755692      2.746141
      2.79712      9.36925      6.11356        -1.560764     -3.208258     -2.708875
     -2.63389     11.79807      4.51843         0.635343     -0.853673      1.511672
      1.63333     11.45109      5.31600        -1.934723     -1.886377      3.087091
      5.90055     11.10412      6.11356        -1.672779     -2.190816      0.252311
      7.64622      2.51652      4.91721         1.263101      3.538589      2.392733
     11.91344      2.16954      5.71478         1.083568      1.683995     -4.396097
     -0.11235      1.82257      6.51234         1.231364      2.305669     -1.780392
     10.74965      4.25139      4.91721         1.338748      2.829035      1.005786
     -1.27614      3.90441      5.71478         1.812085      1.420764     -3.777194
      2.99108      3.55744      6.51234         0.077583      0.328512     -3.500011
     -2.43993      5.98626      4.91721         1.455523      3.665595      2.002248
      1.82729      5.63928      5.71478         0.474943      1.488220     -4.325177
      6.09451      5.29231      6.51234         1.007567      0.589837     -2.217497
      0.66351      7.72113      4.91721         1.363537      3.576681      2.812518
      4.93072      7.37415      5.71478         1.656310      2.016335     -2.994619
      9.19794      7.02718      6.51234        -0.243954     -0.365803     -4.954095
      3.76693      9.45600      4.91721         1.611939      3.526338      2.867130
      8.03415      9.10902      5.71478         0.897604      1.561251     -4.246403
     -3.99164      8.76205      6.51234         0.595056      2.071622     -2.873272
     -9.42264     11.19087      4.91721         1.880418      3.625045      1.190734
     -5.15542     10.84389      5.71478         1.795092      1.952059     -4.168907
     -0.88820     10.49692      6.51234        -0.383447      2.120997     -7.733324
      4.54279      0.78165      4.91721         0.732183      3.008327      0.233413
      8.81001      0.43467      5.71478         1.261830      1.623834     -4.096225
     13.07722      0.08770      6.51234         0.353133      1.582222     -1.746998
      4.73676      2.25629      4.51843         0.046744     -0.390773      3.354063
      9.00397      1.90931      5.31600        -1.887022     -1.404780      4.037907
     13.27119      1.56234      6.11356        -1.325380     -3.599178     -2.400588
      7.84019      3.99116      4.51843        -0.029777     -2.158094      2.029879
     12.10740      3.64418      5.31600        -1.331129     -1.755692      2.746141
      0.08162      3.29721      6.11356        -1.560764     -3.208258     -2.708875
     10.94361      5.72603      4.51843         0.635343     -0.853673      1.511672
     -1.08217      5.37905      5.31600        -1.934723     -1.886377      3.087091
      3.18505      5.03208      6.11356        -1.672779     -2.190816      0.252311
     -2.24596      7.46090      4.51843        -0.237815     -1.058870      2.880269
      2.02126      7.11392      5.31600        -0.910690     -1.710663      3.944739
      6.28848      6.76695      6.11356        -2.160033     -3.193373     -0.921849
      0.85747      9.19577      4.51843        -0.512300     -1.651976      2.470576
      5.12469      8.84879      5.31600        -1.183876     -1.873586      4.077793
     -6.90110      8.50182      6.11356        -1.296219     -1.973580     -3.416931
      3.96090     10.93064      4.51843        -1.136414     -2.142532      0.683959
     -8.06489     10.58366      5.31600        -1.753636     -1.368505      4.219693
     -3.79767     10.23669      6.11356        -1.639050     -3.834249     -2.089618
      1.63333      0.52142      4.51843         0.997528     -1.701316      1.581543
      5.90054      0.17444      5.31600        -1.104046     -2.365482      3.496206
     -0.69424     11.97156      6.11356        -1.850488     -2.755652     -0.365254
     14.24101      1.64908      4.91721         1.363537      3.576681      2.812518
      2.21522      1.30211      5.71478         1.656310      2.016335     -2.994619
      6.48244      0.95514      6.51234        -0.243954     -0.365803     -4.954095
      1.05143      3.38395      4.91721         1.611939      3.526338      2.867130
      5.31865      3.03698      5.71478         0.897604      1.561251     -4.246403
      9.58587      2.69000      6.51234         0.595056      2.071622     -2.873272
      4.15486      5.11882      4.91721         1.880418      3.625045      1.190734
      8.42208      4.77185      5.71478         1.795092      1.952059     -4.168907
     -3.60370      4.42487      6.51234        -0.383447      2.120997     -7.733324
      7.25829      6.85369      4.91721         0.732183      3.008327      0.233413
     -4.76749      6.50672      5.71478         1.261830      1.623834     -4.096225
     -0.50028      6.15974      6.51234         0.353133      1.582222     -1.746998
     -5.93128      8.58856      4.91721         1.263101      3.538589      2.392733
     -1.66406      8.24159      5.71478         1.083568      1.683995     -4.396097
      2.60315      7.89461      6.51234         1.231364      2.305669     -1.780392
     -2.82785     10.32343      4.91721         1.338748      2.829035      1.005786
      1.43937      9.97646      5.71478         1.812085      1.420764     -3.777194
      5.70658      9.62948      6.51234         0.077583      0.328512     -3.500011
      0.27558     12.05830      4.91721         1.455523      3.665595      2.002248
      4.54279     11.71133      5.71478         0.474943      1.488220     -4.325177
     -7.48299     11.36435      6.51234         1.007567      0.589837     -2.217497
 -----------------------------------------------------------------------------------
    total drift:                                0.028490     -0.068175      0.080499


--------------------------------------------------------------------------------------------------------



  FREE ENERGIE OF THE ION-ELECTRON SYSTEM (eV)
  ---------------------------------------------------
  free  energy   TOTEN  =      -796.05780468 eV

  energy  without entropy=     -796.05481228  energy(sigma->0) =     -796.05630848
 


--------------------------------------------------------------------------------------------------------


    POTLOK:  cpu time      0.7757: real time      0.7796


--------------------------------------------------------------------------------------------------------


     LOOP+:  cpu time   1404.3803: real time   1415.9472
    4ORBIT:  cpu time      0.0000: real time      0.0000

 total amount of memory used by VASP MPI-rank0   246071. kBytes
=======================================================================

   base      :      30000. kBytes
   nonlr-proj:       5360. kBytes
   fftplans  :      13312. kBytes
   grid      :      10865. kBytes
   one-center:         49. kBytes
   wavefun   :     186485. kBytes
 
  
  
 General timing and accounting informations for this job:
 ========================================================
  
                  Total CPU time used (sec):     1471.570
                            User time (sec):     1376.592
                          System time (sec):       94.977
                         Elapsed time (sec):     1485.291
  
                   Maximum memory used (kb):      478220.
                   Average memory used (kb):          N/A
  
                          Minor page faults:       206933
                          Major page faults:          161
                 Voluntary context switches:         1998
