Si and Ge interface calculation         
           1
    16.293001    0.000000    0.000000
   -10.862000   12.144086    0.000000
     0.000000    0.000000    7.994750
   Si   C 
    36    84
Direct configuration=     1
   0.98290563  0.64102513  0.00000000
   0.78290558  0.34102503  0.15190083
   0.58290541  0.04102494  0.30380166
   0.98290563  0.30769178  0.00000000
   0.78290558  0.00769171  0.15190083
   0.58290541  0.70769167  0.30380166
   0.98290563  0.97435850  0.00000000
   0.78290558  0.67435837  0.15190083
   0.58290541  0.37435830  0.30380166
   0.63290566  0.65769172  0.07595026
   0.43290559  0.35769162  0.22785109
   0.23290552  0.05769158  0.37975192
   0.63290566  0.32435846  0.07595026
   0.43290559  0.02435837  0.22785109
   0.23290552  0.72435832  0.37975192
   0.63290566  0.99102521  0.07595026
   0.43290559  0.69102514  0.22785109
   0.23290552  0.39102507  0.37975192
   0.48290563  0.80769175  0.00000000
   0.28290555  0.50769162  0.15190083
   0.08290544  0.20769161  0.30380166
   0.48290563  0.47435844  0.00000000
   0.28290555  0.17435835  0.15190083
   0.08290544  0.87435830  0.30380166
   0.48290563  0.14102514  0.00000000
   0.28290555  0.84102505  0.15190083
   0.08290544  0.54102498  0.30380166
   0.13290568  0.82435852  0.07595027
   0.93290555  0.52435839  0.22785109
   0.73290551  0.22435838  0.37975192
   0.13290568  0.49102521  0.07595027
   0.93290555  0.19102511  0.22785109
   0.73290551  0.89102513  0.37975192
   0.13290568  0.15769196  0.07595027
   0.93290555  0.85769188  0.22785109
   0.73290551  0.55769193  0.37975192
   0.77172834  0.11436462  0.56517518
   0.01458549  0.08579314  0.66493583
   0.25744271  0.05722165  0.76469648
   0.05744267  0.25722170  0.56517518
   0.30029988  0.22865021  0.66493583
   0.54315710  0.20007876  0.76469648
   0.34315682  0.40007880  0.56517518
   0.58601403  0.37150732  0.66493583
   0.82887137  0.34293586  0.76469648
   0.62887120  0.54293603  0.56517518
   0.87172842  0.51436454  0.66493583
   0.11458576  0.48579305  0.76469648
   0.91458547  0.68579310  0.56517518
   0.15744269  0.65722168  0.66493583
   0.40029991  0.62865019  0.76469648
   0.20029974  0.82865030  0.56517518
   0.44315696  0.80007881  0.66493583
   0.68601417  0.77150732  0.76469648
   0.48601401  0.97150743  0.56517518
   0.72887123  0.94293588  0.66493583
   0.97172844  0.91436446  0.76469648
   0.60744250  0.20722172  0.61505544
   0.85029984  0.17865023  0.71481609
   0.09315705  0.15007871  0.81457663
   0.89315671  0.35007885  0.61505544
   0.13601398  0.32150737  0.71481609
   0.37887120  0.29293585  0.81457674
   0.17887104  0.49293601  0.61505544
   0.42172837  0.46436453  0.71481609
   0.66458559  0.43579304  0.81457674
   0.46458542  0.63579315  0.61505544
   0.70744276  0.60722166  0.71481609
   0.95029998  0.57865024  0.81457674
   0.75029957  0.77865028  0.61505544
   0.99315691  0.75007880  0.71481609
   0.23601401  0.72150731  0.81457674
   0.03601408  0.92150742  0.61505544
   0.27887130  0.89293587  0.71481609
   0.52172852  0.86436444  0.81457663
   0.32172823  0.06436455  0.61505544
   0.56458545  0.03579307  0.71481609
   0.80744266  0.00722158  0.81457663
   0.41458559  0.18579316  0.56517518
   0.65744269  0.15722164  0.66493583
   0.90030003  0.12865022  0.76469648
   0.70029998  0.32865030  0.56517518
   0.94315708  0.30007878  0.66493583
   0.18601417  0.27150729  0.76469648
   0.98601407  0.47150743  0.56517518
   0.22887135  0.44293594  0.66493583
   0.47172856  0.41436446  0.76469648
   0.27172828  0.61436456  0.56517518
   0.51458549  0.58579308  0.66493583
   0.75744283  0.55722165  0.76469648
   0.55744266  0.75722170  0.56517518
   0.80029988  0.72865027  0.66493583
   0.04315698  0.70007873  0.76469648
   0.84315687  0.90007889  0.56517518
   0.08601415  0.87150747  0.66493583
   0.32887149  0.84293598  0.76469648
   0.12887120  0.04293609  0.56517518
   0.37172842  0.01436460  0.66493583
   0.61458564  0.98579311  0.76469648
   0.96458548  0.13579315  0.61505544
   0.20744276  0.10722160  0.71481609
   0.45029998  0.07865024  0.81457674
   0.25029969  0.27865028  0.61505544
   0.49315691  0.25007880  0.71481609
   0.73601413  0.22150734  0.81457663
   0.53601384  0.42150739  0.61505544
   0.77887130  0.39293596  0.71481609
   0.02172852  0.36436450  0.81457663
   0.82172811  0.56436455  0.61505544
   0.06458545  0.53579313  0.71481609
   0.30744267  0.50722158  0.81457663
   0.10744262  0.70722163  0.61505544
   0.35029984  0.67865014  0.71481609
   0.59315705  0.65007871  0.81457674
   0.39315689  0.85007882  0.61505544
   0.63601422  0.82150733  0.71481609
   0.87887144  0.79293597  0.81457674
   0.67887104  0.99293596  0.61505544
   0.92172837  0.96436453  0.71481609
   0.16458559  0.93579304  0.81457674
