<?xml version="1.0" encoding="ISO-8859-1"?>
<modeling>
 <generator>
  <i name="program" type="string">vasp </i>
  <i name="version" type="string">6.4.3  </i>
  <i name="subversion" type="string">19Mar24 (build Oct 22 2024 11:23:12) complex                          parallel </i>
  <i name="platform" type="string">LinuxIFC </i>
  <i name="date" type="string">2025 06 04 </i>
  <i name="time" type="string">01:27:13 </i>
 </generator>
 <incar>
  <i type="string" name="SYSTEM">Si and Ge interface calculation</i>
  <i type="int" name="ISTART">     0</i>
  <i type="logical" name="ADDGRID"> T  </i>
  <i type="int" name="ISPIN">     2</i>
  <i name="AMIX">      0.60000000</i>
  <i type="int" name="ICHARG">     2</i>
  <i type="int" name="NELM">   100</i>
  <i name="EDIFF">      0.00000010</i>
  <i name="ENCUT">    700.00000000</i>
  <i name="ENAUG">    900.00000000</i>
  <i type="int" name="NBANDS">   144</i>
  <i name="NUPDOWN">      1.00000000</i>
  <i name="NELECT">    240.00000000</i>
  <i type="string" name="LREAL">AUTO</i>
  <i type="int" name="ISMEAR">     0</i>
  <i name="SIGMA">      0.01000000</i>
  <i type="int" name="LMAXMIX">     6</i>
  <i type="logical" name="LWAVE"> F  </i>
  <i type="logical" name="LVTOT"> F  </i>
  <i type="logical" name="LVHAR"> T  </i>
  <i type="logical" name="LASPH"> T  </i>
  <i type="logical" name="LMIXTAU"> T  </i>
 </incar>
 <primitive_cell>
  <structure name="primitive_cell" >
   <crystal>
    <varray name="basis" >
     <v>      -6.65158987       0.00000000       0.00000000 </v>
     <v>       0.00000000       0.00000000       6.66359377 </v>
     <v>      -0.00000048      14.87340641       0.00000000 </v>
    </varray>
    <i name="volume">    659.24132215 </i>
    <varray name="rec_basis" >
     <v>      -0.15034000      -0.00000000       0.00000000 </v>
     <v>       0.00000000       0.00000000       0.15006917 </v>
     <v>       0.00000000       0.06723409       0.00000000 </v>
    </varray>
   </crystal>
   <varray name="positions" >
    <v>       0.37606925       0.00000001       0.65811950 </v>
    <v>       0.87606955       0.18224537       0.55811930 </v>
    <v>       0.37607002       0.36449075       0.45811909 </v>
    <v>       0.70940262       0.00000001       0.32478613 </v>
    <v>       0.20940287       0.18224537       0.22478597 </v>
    <v>       0.70940331       0.36449075       0.12478581 </v>
    <v>       0.04273594       0.00000001       0.99145281 </v>
    <v>       0.54273617       0.18224537       0.89145267 </v>
    <v>       0.04273659       0.36449075       0.79145253 </v>
    <v>       0.04273590       0.09112252       0.69145274 </v>
    <v>       0.54273641       0.27336785       0.59145248 </v>
    <v>       0.04273653       0.45561323       0.49145243 </v>
    <v>       0.37606916       0.09112252       0.35811949 </v>
    <v>       0.87606961       0.27336785       0.25811928 </v>
    <v>       0.37606981       0.45561323       0.15811914 </v>
    <v>       0.70940251       0.09112252       0.02478614 </v>
    <v>       0.20940292       0.27336785       0.92478597 </v>
    <v>       0.70940313       0.45561323       0.82478583 </v>
    <v>       0.00000005       0.45561320       0.02564151 </v>
    <v>       0.00000006       0.67336804       0.32564157 </v>
    <v>       0.00000009       0.89112288       0.62564164 </v>
    <v>       0.74999982       0.56449044       0.67564148 </v>
    <v>       0.75000015       0.78224522       0.97564149 </v>
    <v>       0.75000024       0.00000000       0.27564156 </v>
    <v>       0.49999994       0.45561332       0.52564150 </v>
    <v>       0.50000012       0.67336804       0.82564151 </v>
    <v>       0.50000006       0.89112288       0.12564170 </v>
    <v>       0.24999991       0.56449044       0.17564151 </v>
    <v>       0.25000012       0.78224522       0.47564155 </v>
    <v>       0.25000006       0.00000000       0.77564162 </v>
   </varray>
  </structure>
  <varray name="primitive_index" >
   <v type="int" >        1 </v>
   <v type="int" >        2 </v>
   <v type="int" >       21 </v>
   <v type="int" >        4 </v>
   <v type="int" >        5 </v>
   <v type="int" >       24 </v>
   <v type="int" >        7 </v>
   <v type="int" >        8 </v>
   <v type="int" >       27 </v>
   <v type="int" >       28 </v>
   <v type="int" >       29 </v>
   <v type="int" >       12 </v>
   <v type="int" >       31 </v>
   <v type="int" >       32 </v>
   <v type="int" >       15 </v>
   <v type="int" >       34 </v>
   <v type="int" >       35 </v>
   <v type="int" >       18 </v>
   <v type="int" >       37 </v>
   <v type="int" >       38 </v>
   <v type="int" >       42 </v>
   <v type="int" >       46 </v>
   <v type="int" >       44 </v>
   <v type="int" >       45 </v>
   <v type="int" >       49 </v>
   <v type="int" >       50 </v>
   <v type="int" >       54 </v>
   <v type="int" >       58 </v>
   <v type="int" >       56 </v>
   <v type="int" >       57 </v>
  </varray>
 </primitive_cell>
 <kpoints>
  <generation param="Gamma">
   <v type="int" name="divisions">       3        2        5 </v>
   <v name="usershift">      0.00000000       0.00000000       0.00000000 </v>
   <v name="genvec1">      0.33333333      -0.00000000       0.00000000 </v>
   <v name="genvec2">      0.00000000       0.50000000       0.00000000 </v>
   <v name="genvec3">      0.00000000       0.00000000       0.20000000 </v>
   <v name="shift">      0.00000000       0.00000000       0.00000000 </v>
  </generation>
  <varray name="kpointlist" >
   <v>       0.00000000       0.00000000       0.00000000 </v>
   <v>       0.33333333       0.00000000       0.00000000 </v>
   <v>       0.00000000       0.50000000       0.00000000 </v>
   <v>       0.33333333       0.50000000       0.00000000 </v>
   <v>       0.00000000       0.00000000       0.20000000 </v>
   <v>       0.33333333       0.00000000       0.20000000 </v>
   <v>      -0.33333333      -0.00000000       0.20000000 </v>
   <v>       0.00000000       0.50000000       0.20000000 </v>
   <v>       0.33333333       0.50000000       0.20000000 </v>
   <v>      -0.33333333       0.50000000       0.20000000 </v>
   <v>       0.00000000       0.00000000       0.40000000 </v>
   <v>       0.33333333       0.00000000       0.40000000 </v>
   <v>      -0.33333333      -0.00000000       0.40000000 </v>
   <v>       0.00000000       0.50000000       0.40000000 </v>
   <v>       0.33333333       0.50000000       0.40000000 </v>
   <v>      -0.33333333       0.50000000       0.40000000 </v>
  </varray>
  <varray name="weights" >
   <v>       0.03333333 </v>
   <v>       0.06666667 </v>
   <v>       0.03333333 </v>
   <v>       0.06666667 </v>
   <v>       0.06666667 </v>
   <v>       0.06666667 </v>
   <v>       0.06666667 </v>
   <v>       0.06666667 </v>
   <v>       0.06666667 </v>
   <v>       0.06666667 </v>
   <v>       0.06666667 </v>
   <v>       0.06666667 </v>
   <v>       0.06666667 </v>
   <v>       0.06666667 </v>
   <v>       0.06666667 </v>
   <v>       0.06666667 </v>
  </varray>
 </kpoints>
 <parameters>
  <separator name="general" >
   <i type="string" name="SYSTEM">Si and Ge interface calculation</i>
   <i type="logical" name="LCOMPAT"> F  </i>
  </separator>
  <separator name="electronic" >
   <i type="string" name="PREC">normal</i>
   <i name="ENMAX">    700.00000000</i>
   <i name="ENAUG">    900.00000000</i>
   <i name="EDIFF">      0.00000010</i>
   <i type="int" name="IALGO">    38</i>
   <i type="int" name="IWAVPR">    10</i>
   <i type="int" name="NBANDS">   144</i>
   <i type="int" name="NBANDSLOW">    -1</i>
   <i type="int" name="NBANDSHIGH">    -1</i>
   <i name="NELECT">    240.00000000</i>
   <i type="int" name="TURBO">     0</i>
   <i type="int" name="IRESTART">     0</i>
   <i type="int" name="NREBOOT">     0</i>
   <i type="int" name="NMIN">     0</i>
   <i name="EREF">      0.00000000</i>
   <separator name="electronic smearing" >
    <i type="int" name="ISMEAR">     0</i>
    <i name="SIGMA">      0.01000000</i>
    <i name="KSPACING">      0.50000000</i>
    <i type="logical" name="KGAMMA"> T  </i>
    <i type="logical" name="KBLOWUP"> F  </i>
   </separator>
   <separator name="electronic projectors" >
    <i type="logical" name="LREAL"> T  </i>
    <v name="ROPT">     -0.00050000     -0.00050000</v>
    <i type="int" name="LMAXPAW">  -100</i>
    <i type="int" name="LMAXMIX">     6</i>
    <i type="logical" name="NLSPLINE"> F  </i>
   </separator>
   <separator name="electronic startup" >
    <i type="int" name="ISTART">     0</i>
    <i type="int" name="ICHARG">     2</i>
    <i type="int" name="INIWAV">     1</i>
   </separator>
   <separator name="electronic spin" >
    <i type="int" name="ISPIN">     2</i>
    <i type="logical" name="LNONCOLLINEAR"> F  </i>
    <v name="MAGMOM">      0.01666667      0.01666667      0.01666667      0.01666667      0.01666667      0.01666667      0.01666667      0.01666667      0.01666667      0.01666667      0.01666667      0.01666667      0.01666667      0.01666667      0.01666667      0.01666667      0.01666667      0.01666667      0.01666667      0.01666667
      0.01666667      0.01666667      0.01666667      0.01666667      0.01666667      0.01666667      0.01666667      0.01666667      0.01666667      0.01666667      0.01666667      0.01666667      0.01666667      0.01666667      0.01666667      0.01666667      0.01666667      0.01666667      0.01666667      0.01666667
      0.01666667      0.01666667      0.01666667      0.01666667      0.01666667      0.01666667      0.01666667      0.01666667      0.01666667      0.01666667      0.01666667      0.01666667      0.01666667      0.01666667      0.01666667      0.01666667      0.01666667      0.01666667      0.01666667      0.01666667
</v>
    <i name="NUPDOWN">      1.00000000</i>
    <i type="logical" name="LSORBIT"> F  </i>
    <v name="SAXIS">      0.00000000      0.00000000      1.00000000</v>
    <i type="logical" name="LSPIRAL"> F  </i>
    <v name="QSPIRAL">      0.00000000      0.00000000      0.00000000</v>
    <i type="logical" name="LZEROZ"> F  </i>
   </separator>
   <separator name="electronic exchange-correlation" >
    <i type="logical" name="LASPH"> T  </i>
   </separator>
   <separator name="electronic convergence" >
    <i type="int" name="NELM">   100</i>
    <i type="int" name="NELMDL">    -5</i>
    <i type="int" name="NELMIN">     2</i>
    <i name="ENINI">    700.00000000</i>
    <separator name="electronic convergence detail" >
     <i type="logical" name="LDIAG"> T  </i>
     <i type="logical" name="LSUBROT"> F  </i>
     <i name="WEIMIN">      0.00000000</i>
     <i name="EBREAK">      0.00000000</i>
     <i name="DEPER">      0.30000000</i>
     <i type="int" name="NRMM">     4</i>
     <i name="TIME">      0.40000000</i>
    </separator>
   </separator>
   <separator name="electronic mixer" >
    <i name="AMIX">      0.60000000</i>
    <i name="BMIX">      1.00000000</i>
    <i name="AMIN">      0.10000000</i>
    <i name="AMIX_MAG">      2.40000000</i>
    <i name="BMIX_MAG">      1.00000000</i>
    <separator name="electronic mixer details" >
     <i type="int" name="IMIX">     4</i>
     <i type="logical" name="MIXFIRST"> F  </i>
     <i type="int" name="MAXMIX">   -45</i>
     <i name="WC">    100.00000000</i>
     <i type="int" name="INIMIX">     1</i>
     <i type="int" name="MIXPRE">     1</i>
     <i type="int" name="MREMOVE">     5</i>
    </separator>
   </separator>
   <separator name="electronic dipolcorrection" >
    <i type="logical" name="LDIPOL"> F  </i>
    <i type="logical" name="LMONO"> F  </i>
    <i type="int" name="IDIPOL">     0</i>
    <i name="EPSILON">      1.00000000</i>
    <v name="DIPOL">   -100.00000000   -100.00000000   -100.00000000</v>
    <i name="EFIELD">      0.00000000</i>
    <i type="logical" name="LVACPOTAV"> F  </i>
   </separator>
  </separator>
  <separator name="grids" >
   <i type="int" name="NGX">    90</i>
   <i type="int" name="NGY">   108</i>
   <i type="int" name="NGZ">    48</i>
   <i type="int" name="NGXF">   180</i>
   <i type="int" name="NGYF">   216</i>
   <i type="int" name="NGZF">    96</i>
   <i type="logical" name="ADDGRID"> T  </i>
  </separator>
  <separator name="ionic" >
   <i type="int" name="NSW">     0</i>
   <i type="int" name="IBRION">    -1</i>
   <i type="int" name="MDALGO">     0</i>
   <i type="int" name="ISIF">     2</i>
   <i name="PSTRESS">      0.00000000</i>
   <i name="EDIFFG">      0.00000100</i>
   <i type="int" name="NFREE">     0</i>
   <i name="POTIM">      0.50000000</i>
   <i name="SMASS">     -3.00000000</i>
   <i name="SCALEE">      1.00000000</i>
  </separator>
  <separator name="ionic md" >
   <i name="TEBEG">      0.00010000</i>
   <i name="TEEND">      0.00010000</i>
   <i type="int" name="NBLOCK">     1</i>
   <i type="int" name="KBLOCK">     1</i>
   <i type="int" name="NPACO">   256</i>
   <i name="APACO">     10.00000000</i>
  </separator>
  <separator name="symmetry" >
   <i type="int" name="ISYM">     2</i>
   <i name="SYMPREC">      0.00001000</i>
  </separator>
  <separator name="dos" >
   <i type="int" name="LORBIT">     0</i>
   <v name="RWIGS">     -1.00000000     -1.00000000</v>
   <i type="int" name="NEDOS">   301</i>
   <i name="EMIN">     10.00000000</i>
   <i name="EMAX">    -10.00000000</i>
   <i name="EFERMI">      0.00000000</i>
  </separator>
  <separator name="writing" >
   <i type="int" name="NWRITE">     2</i>
   <i type="logical" name="LWAVE"> F  </i>
   <i type="logical" name="LDOWNSAMPLE"> F  </i>
   <i type="logical" name="LCHARG"> T  </i>
   <i type="logical" name="LPARD"> F  </i>
   <i type="logical" name="LVTOT"> F  </i>
   <i type="logical" name="LVHAR"> T  </i>
   <i type="logical" name="LELF"> F  </i>
   <i type="logical" name="LOPTICS"> F  </i>
   <v name="STM">      0.00000000      0.00000000      0.00000000      0.00000000      0.00000000      0.00000000      0.00000000</v>
  </separator>
  <separator name="performance" >
   <i type="int" name="NPAR">     4</i>
   <i type="int" name="NSIM">     4</i>
   <i type="int" name="NBLK">    -1</i>
   <i type="logical" name="LPLANE"> T  </i>
   <i type="logical" name="LSCALAPACK"> T  </i>
   <i type="logical" name="LSCAAWARE"> F  </i>
   <i type="logical" name="LSCALU"> F  </i>
   <i type="logical" name="LASYNC"> F  </i>
   <i type="logical" name="LORBITALREAL"> F  </i>
  </separator>
  <separator name="miscellaneous" >
   <i type="int" name="IDIOT">     3</i>
   <i type="int" name="PHON_NSTRUCT">    -1</i>
   <i type="logical" name="LMUSIC"> F  </i>
   <v name="POMASS">     28.08500000    118.71000000</v>
   <v name="DARWINR">      0.00000000      0.00000000</v>
   <v name="DARWINV">      1.00000000      1.00000000</v>
   <i type="logical" name="LCORR"> T  </i>
  </separator>
  <i type="logical" name="GGA_COMPAT"> T  </i>
  <i type="logical" name="LBERRY"> F  </i>
  <i type="int" name="ICORELEVEL">     0</i>
  <i type="logical" name="LDAU"> F  </i>
  <i type="int" name="I_CONSTRAINED_M">     0</i>
  <separator name="electronic exchange-correlation" >
   <i type="string" name="GGA    ">PE</i>
   <i type="string" name="XC_C">1</i>
   <i type="int" name="VOSKOWN">     0</i>
   <i type="logical" name="LHFCALC"> F  </i>
   <i type="string" name="PRECFOCK"></i>
   <i type="logical" name="LSYMGRAD"> F  </i>
   <i type="logical" name="LHFONE"> F  </i>
   <i type="logical" name="LRHFCALC"> F  </i>
   <i type="logical" name="LTHOMAS"> F  </i>
   <i type="logical" name="LMODELHF"> F  </i>
   <i type="logical" name="LFOCKACE"> F  </i>
   <i name="ENCUT4O">     -1.00000000</i>
   <i type="int" name="EXXOEP">     0</i>
   <i type="int" name="FOURORBIT">     0</i>
   <i name="AEXX">      0.00000000</i>
   <i name="HFALPHA">      0.00000000</i>
   <i name="MCALPHA">      0.00000000</i>
   <i name="ALDAX">      1.00000000</i>
   <i name="AGGAX">      1.00000000</i>
   <i name="AMGGAX">      1.00000000</i>
   <i name="ALDAC">      1.00000000</i>
   <i name="AGGAC">      1.00000000</i>
   <i name="AMGGAC">      1.00000000</i>
   <i type="int" name="NKREDX">     1</i>
   <i type="int" name="NKREDY">     1</i>
   <i type="int" name="NKREDZ">     1</i>
   <i type="logical" name="SHIFTRED"> F  </i>
   <i type="logical" name="ODDONLY"> F  </i>
   <i type="logical" name="EVENONLY"> F  </i>
   <i type="int" name="LMAXFOCK">     0</i>
   <i type="int" name="NMAXFOCKAE">     0</i>
   <i type="logical" name="LFOCKAEDFT"> F  </i>
   <i name="HFSCREEN">      0.00000000</i>
   <i name="HFSCREENC">      0.00000000</i>
   <i type="int" name="NBANDSGWLOW">     0</i>
  </separator>
  <separator name="vdW DFT" >
   <i type="logical" name="LUSE_VDW"> F  </i>
   <i type="int" name="IVDW_NL">    -1</i>
   <i type="logical" name="LSPIN_VDW"> F  </i>
   <i name="ZAB_VDW">     -0.84910000</i>
   <i name="GAMMA_VDW">      1.39626340</i>
   <i name="ALPHA_VDW">      0.00000000</i>
   <i name="PARAM1">      0.12340000</i>
   <i name="PARAM2">      1.00000000</i>
   <i name="BPARAM">      6.30000000</i>
   <i name="CPARAM">      0.00930000</i>
  </separator>
  <separator name="model GW" >
   <i type="int" name="MODEL_GW">     0</i>
   <i name="MODEL_EPS0">     13.18482644</i>
   <i name="MODEL_ALPHA">      1.00000000</i>
  </separator>
  <separator name="linear response parameters" >
   <i type="logical" name="LEPSILON"> F  </i>
   <i type="logical" name="LRPA"> F  </i>
   <i type="logical" name="LNABLA"> F  </i>
   <i type="logical" name="LVEL"> F  </i>
   <i name="CSHIFT">      0.10000000</i>
   <i name="OMEGAMAX">     -1.00000000</i>
   <i name="DEG_THRESHOLD">      0.00200000</i>
   <i name="RTIME">     -0.10000000</i>
   <i name="WPLASMAI">      0.00000000</i>
   <v name="DFIELD">      0.00000000      0.00000000      0.00000000</v>
   <v name="WPLASMA">      0.00000000      0.00000000      0.00000000      0.00000000      0.00000000      0.00000000      0.00000000      0.00000000      0.00000000</v>
  </separator>
  <separator name="orbital magnetization" >
   <i type="logical" name="NUCIND"> F  </i>
   <v name="MAGPOS">      0.00000000      0.00000000      0.00000000</v>
   <i type="logical" name="LNICSALL"> T  </i>
   <i type="logical" name="ORBITALMAG"> F  </i>
   <i type="logical" name="LMAGBLOCH"> F  </i>
   <i type="logical" name="LCHIMAG"> F  </i>
   <i type="logical" name="LGAUGE"> T  </i>
   <i type="int" name="MAGATOM">     0</i>
   <v name="MAGDIPOL">      0.00000000      0.00000000      0.00000000</v>
   <v name="AVECCONST">      0.00000000      0.00000000      0.00000000</v>
  </separator>
  <separator name="response functions" >
   <i type="logical" name="LALL_IN_ONE"> F  </i>
   <i type="int" name="IALL_IN_ONE">    -1</i>
   <i type="int" name="NBANDS_WAVE">    -1</i>
   <i type="logical" name="LFINITE_TEMPERATURE"> F  </i>
   <i type="logical" name="LADDER"> F  </i>
   <i type="logical" name="LRPAFORCE"> F  </i>
   <i type="logical" name="LFXC"> F  </i>
   <i type="logical" name="LHARTREE"> T  </i>
   <i type="int" name="IBSE">     0</i>
   <v type="int" name="KPOINT">    -1     0     0     0</v>
   <i type="logical" name="LTCTC"> F  </i>
   <i type="logical" name="LTCTE"> F  </i>
   <i type="logical" name="LTETE"> F  </i>
   <i type="logical" name="LTRIPLET"> F  </i>
   <i type="logical" name="LFXCEPS"> F  </i>
   <i type="logical" name="LFXHEG"> F  </i>
   <i type="int" name="NATURALO">     2</i>
   <i type="logical" name="LHOLEGF"> F  </i>
   <i type="logical" name="L2ORDER"> F  </i>
   <i type="logical" name="LDMP1"> F  </i>
   <i type="logical" name="LMP2LT"> F  </i>
   <i type="logical" name="LSMP2LT"> F  </i>
   <i type="logical" name="LGWLF"> F  </i>
   <i name="ENCUTGW">     -1.60000002</i>
   <i name="ENCUTGWSOFT">     -1.60000002</i>
   <i name="ENCUTLF">     -1.00000000</i>
   <i type="logical" name="ESF_SPLINES"> F  </i>
   <i name="ESF_CONV">      0.01000000</i>
   <i type="int" name="ESF_NINTER">    15</i>
   <i type="int" name="LMAXMP2">    -1</i>
   <i name="SCISSOR">      0.00000000</i>
   <i type="int" name="NOMEGA">     0</i>
   <i type="int" name="NOMEGAR">     0</i>
   <i type="int" name="NBANDSGW">    -1</i>
   <i type="int" name="NBANDSO">    -1</i>
   <i type="int" name="NBANDSV">    -1</i>
   <i type="int" name="NELMGW">     1</i>
   <i type="int" name="NELMHF">     1</i>
   <i type="int" name="DIM">     3</i>
   <i type="int" name="IESPILON">     4</i>
   <i type="int" name="ANTIRES">     0</i>
   <i name="OMEGAMAX">    -30.00000000</i>
   <i name="OMEGAMIN">    -30.00000000</i>
   <i name="OMEGATL">   -200.00000000</i>
   <i type="int" name="OMEGAGRID">     0</i>
   <i name="CSHIFT">     -0.10000000</i>
   <i type="logical" name="LSELFENERGY"> F  </i>
   <i type="logical" name="LSPECTRAL"> F  </i>
   <i type="logical" name="LSPECTRALGW"> F  </i>
   <i type="logical" name="LSINGLES"> F  </i>
   <i type="logical" name="LFERMIGW"> F  </i>
   <i type="logical" name="ODDONLYGW"> F  </i>
   <i type="logical" name="EVENONLYGW"> F  </i>
   <i type="int" name="NKREDLFX">     1</i>
   <i type="int" name="NKREDLFY">     1</i>
   <i type="int" name="NKREDLFZ">     1</i>
   <i type="int" name="MAXMEM">  2800</i>
   <i type="int" name="TELESCOPE">     0</i>
   <i type="int" name="NTAUPAR">    -1</i>
   <i type="int" name="NOMEGAPAR">    -1</i>
   <i name="DAMP_NEWTON">      0.80000001</i>
   <i name="LAMBDA">      1.00000000</i>
  </separator>
  <separator name="External order field" >
   <i name="OFIELD_KAPPA">      0.00000000</i>
   <v name="OFIELD_K">      0.00000000      0.00000000      0.00000000</v>
   <i name="OFIELD_Q6_NEAR">      0.00000000</i>
   <i name="OFIELD_Q6_FAR">      0.00000000</i>
   <i name="OFIELD_A">      0.00000000</i>
  </separator>
  <separator name="optional k-points parameters" >
   <i type="int" name="KPOINTS_OPT_MODE">     1</i>
   <i type="logical" name="LKPOINTS_OPT"> F  </i>
  </separator>
 </parameters>
 <atominfo>
  <atoms>      60 </atoms>
  <types>       2 </types>
  <array name="atoms" >
   <dimension dim="1">ion</dimension>
   <field type="string">element</field>
   <field type="int">atomtype</field>
   <set>
    <rc><c>Si</c><c>   1</c></rc>
    <rc><c>Si</c><c>   1</c></rc>
    <rc><c>Si</c><c>   1</c></rc>
    <rc><c>Si</c><c>   1</c></rc>
    <rc><c>Si</c><c>   1</c></rc>
    <rc><c>Si</c><c>   1</c></rc>
    <rc><c>Si</c><c>   1</c></rc>
    <rc><c>Si</c><c>   1</c></rc>
    <rc><c>Si</c><c>   1</c></rc>
    <rc><c>Si</c><c>   1</c></rc>
    <rc><c>Si</c><c>   1</c></rc>
    <rc><c>Si</c><c>   1</c></rc>
    <rc><c>Si</c><c>   1</c></rc>
    <rc><c>Si</c><c>   1</c></rc>
    <rc><c>Si</c><c>   1</c></rc>
    <rc><c>Si</c><c>   1</c></rc>
    <rc><c>Si</c><c>   1</c></rc>
    <rc><c>Si</c><c>   1</c></rc>
    <rc><c>Si</c><c>   1</c></rc>
    <rc><c>Si</c><c>   1</c></rc>
    <rc><c>Si</c><c>   1</c></rc>
    <rc><c>Si</c><c>   1</c></rc>
    <rc><c>Si</c><c>   1</c></rc>
    <rc><c>Si</c><c>   1</c></rc>
    <rc><c>Si</c><c>   1</c></rc>
    <rc><c>Si</c><c>   1</c></rc>
    <rc><c>Si</c><c>   1</c></rc>
    <rc><c>Si</c><c>   1</c></rc>
    <rc><c>Si</c><c>   1</c></rc>
    <rc><c>Si</c><c>   1</c></rc>
    <rc><c>Si</c><c>   1</c></rc>
    <rc><c>Si</c><c>   1</c></rc>
    <rc><c>Si</c><c>   1</c></rc>
    <rc><c>Si</c><c>   1</c></rc>
    <rc><c>Si</c><c>   1</c></rc>
    <rc><c>Si</c><c>   1</c></rc>
    <rc><c>Sn</c><c>   2</c></rc>
    <rc><c>Sn</c><c>   2</c></rc>
    <rc><c>Sn</c><c>   2</c></rc>
    <rc><c>Sn</c><c>   2</c></rc>
    <rc><c>Sn</c><c>   2</c></rc>
    <rc><c>Sn</c><c>   2</c></rc>
    <rc><c>Sn</c><c>   2</c></rc>
    <rc><c>Sn</c><c>   2</c></rc>
    <rc><c>Sn</c><c>   2</c></rc>
    <rc><c>Sn</c><c>   2</c></rc>
    <rc><c>Sn</c><c>   2</c></rc>
    <rc><c>Sn</c><c>   2</c></rc>
    <rc><c>Sn</c><c>   2</c></rc>
    <rc><c>Sn</c><c>   2</c></rc>
    <rc><c>Sn</c><c>   2</c></rc>
    <rc><c>Sn</c><c>   2</c></rc>
    <rc><c>Sn</c><c>   2</c></rc>
    <rc><c>Sn</c><c>   2</c></rc>
    <rc><c>Sn</c><c>   2</c></rc>
    <rc><c>Sn</c><c>   2</c></rc>
    <rc><c>Sn</c><c>   2</c></rc>
    <rc><c>Sn</c><c>   2</c></rc>
    <rc><c>Sn</c><c>   2</c></rc>
    <rc><c>Sn</c><c>   2</c></rc>
   </set>
  </array>
  <array name="atomtypes" >
   <dimension dim="1">type</dimension>
   <field type="int">atomspertype</field>
   <field type="string">element</field>
   <field>mass</field>
   <field>valence</field>
   <field type="string">pseudopotential</field>
   <set>
    <rc><c>  36</c><c>Si</c><c>     28.08500000</c><c>      4.00000000</c><c>  PAW_PBE Si 05Jan2001                  </c></rc>
    <rc><c>  24</c><c>Sn</c><c>    118.71000000</c><c>      4.00000000</c><c>  PAW_PBE Sn 08Apr2002                  </c></rc>
   </set>
  </array>
 </atominfo>
 <structure name="initialpos" >
  <crystal>
   <varray name="basis" >
    <v>      13.30317974       0.00000000       0.00000000 </v>
    <v>       6.65158939      14.87340641       0.00000000 </v>
    <v>       0.00000000       0.00000000       6.66359377 </v>
   </varray>
   <i name="volume">   1318.48264430 </i>
   <varray name="rec_basis" >
    <v>       0.07517000      -0.03361704       0.00000000 </v>
    <v>       0.00000000       0.06723409       0.00000000 </v>
    <v>       0.00000000       0.00000000       0.15006917 </v>
   </varray>
  </crystal>
  <varray name="positions" >
   <v>       0.98290563       0.65811950       0.00000001 </v>
   <v>       0.78290558       0.55811930       0.18224537 </v>
   <v>       0.58290541       0.45811909       0.36449075 </v>
   <v>       0.98290563       0.32478613       0.00000001 </v>
   <v>       0.78290558       0.22478597       0.18224537 </v>
   <v>       0.58290541       0.12478580       0.36449075 </v>
   <v>       0.98290563       0.99145281       0.00000001 </v>
   <v>       0.78290558       0.89145267       0.18224537 </v>
   <v>       0.58290541       0.79145253       0.36449075 </v>
   <v>       0.63290566       0.69145268       0.09112249 </v>
   <v>       0.43290559       0.59145248       0.27336785 </v>
   <v>       0.23290552       0.49145243       0.45561323 </v>
   <v>       0.63290566       0.35811943       0.09112249 </v>
   <v>       0.43290559       0.25811928       0.27336785 </v>
   <v>       0.23290552       0.15811914       0.45561323 </v>
   <v>       0.63290566       0.02478614       0.09112249 </v>
   <v>       0.43290559       0.92478597       0.27336785 </v>
   <v>       0.23290552       0.82478583       0.45561323 </v>
   <v>       0.48290563       0.65811950       0.00000000 </v>
   <v>       0.28290555       0.55811930       0.18224537 </v>
   <v>       0.08290544       0.45811909       0.36449075 </v>
   <v>       0.48290563       0.32478613       0.00000000 </v>
   <v>       0.28290555       0.22478595       0.18224537 </v>
   <v>       0.08290544       0.12478581       0.36449075 </v>
   <v>       0.48290563       0.99145281       0.00000000 </v>
   <v>       0.28290555       0.89145267       0.18224537 </v>
   <v>       0.08290544       0.79145253       0.36449075 </v>
   <v>       0.13290568       0.69145274       0.09112252 </v>
   <v>       0.93290555       0.59145248       0.27336785 </v>
   <v>       0.73290551       0.49145240       0.45561323 </v>
   <v>       0.13290568       0.35811949       0.09112252 </v>
   <v>       0.93290555       0.25811928       0.27336785 </v>
   <v>       0.73290551       0.15811913       0.45561323 </v>
   <v>       0.13290568       0.02478614       0.09112252 </v>
   <v>       0.93290555       0.92478597       0.27336785 </v>
   <v>       0.73290551       0.82478583       0.45561323 </v>
   <v>       0.98717922       0.02564151       0.45561320 </v>
   <v>       0.83717918       0.32564157       0.67336804 </v>
   <v>       0.68717915       0.62564164       0.89112288 </v>
   <v>       0.48717925       0.02564151       0.45561320 </v>
   <v>       0.33717915       0.32564157       0.67336804 </v>
   <v>       0.18717913       0.62564164       0.89112288 </v>
   <v>       0.28717920       0.67564148       0.56449044 </v>
   <v>       0.13717918       0.97564149       0.78224522 </v>
   <v>       0.98717910       0.27564156       0.00000000 </v>
   <v>       0.78717935       0.67564148       0.56449044 </v>
   <v>       0.63717931       0.97564149       0.78224522 </v>
   <v>       0.48717925       0.27564156       0.00000000 </v>
   <v>       0.98717928       0.52564150       0.45561332 </v>
   <v>       0.83717918       0.82564151       0.67336804 </v>
   <v>       0.68717909       0.12564170       0.89112288 </v>
   <v>       0.48717925       0.52564150       0.45561332 </v>
   <v>       0.33717924       0.82564151       0.67336804 </v>
   <v>       0.18717912       0.12564170       0.89112288 </v>
   <v>       0.28717923       0.17564151       0.56449044 </v>
   <v>       0.13717917       0.47564155       0.78224522 </v>
   <v>       0.98717916       0.77564162       0.00000000 </v>
   <v>       0.78717929       0.17564151       0.56449044 </v>
   <v>       0.63717925       0.47564155       0.78224522 </v>
   <v>       0.48717916       0.77564162       0.00000000 </v>
  </varray>
 </structure>
 <calculation>
  <scstep>
   <time name="dav">   11.77   11.88</time>
   <time name="total">   12.70   12.81</time>
   <energy>
    <i name="alphaZ">    191.76964316 </i>
    <i name="ewald">  -5583.05631550 </i>
    <i name="hartreedc">   -733.03800686 </i>
    <i name="XCdc">  -3181.53611243 </i>
    <i name="pawpsdc">   7718.42320762 </i>
    <i name="pawaedc">  -4112.57403773 </i>
    <i name="eentropy">     -0.00052665 </i>
    <i name="bandstr">   1428.94561849 </i>
    <i name="atom">   5968.46204355 </i>
    <i name="e_fr_energy">   1697.39551365 </i>
    <i name="e_wo_entrp">   1697.39604030 </i>
    <i name="e_0_energy">   1697.39577698 </i>
   </energy>
  </scstep>
  <scstep>
   <time name="dav">   13.31   13.42</time>
   <time name="total">   13.31   13.42</time>
   <energy>
    <i name="e_fr_energy">    420.18875361 </i>
    <i name="e_wo_entrp">    420.18971475 </i>
    <i name="e_0_energy">    420.18923418 </i>
   </energy>
  </scstep>
  <scstep>
   <time name="dav">   14.55   14.67</time>
   <time name="total">   14.55   14.67</time>
   <energy>
    <i name="e_fr_energy">    287.16999278 </i>
    <i name="e_wo_entrp">    287.17171729 </i>
    <i name="e_0_energy">    287.17085504 </i>
   </energy>
  </scstep>
  <scstep>
   <time name="dav">   15.16   15.29</time>
   <time name="total">   15.17   15.29</time>
   <energy>
    <i name="e_fr_energy">    279.08796387 </i>
    <i name="e_wo_entrp">    279.08940008 </i>
    <i name="e_0_energy">    279.08868198 </i>
   </energy>
  </scstep>
  <scstep>
   <time name="dav">   16.30   16.44</time>
   <time name="total">   17.21   17.35</time>
   <energy>
    <i name="e_fr_energy">    278.60546801 </i>
    <i name="e_wo_entrp">    278.60698178 </i>
    <i name="e_0_energy">    278.60622489 </i>
   </energy>
  </scstep>
  <scstep>
   <time name="dav">   12.91   13.01</time>
   <time name="total">   14.63   14.76</time>
   <energy>
    <i name="e_fr_energy">    303.01943305 </i>
    <i name="e_wo_entrp">    303.02100250 </i>
    <i name="e_0_energy">    303.02021778 </i>
   </energy>
  </scstep>
  <scstep>
   <time name="dav">   14.38   14.50</time>
   <time name="total">   16.14   16.27</time>
   <energy>
    <i name="e_fr_energy">    294.71192683 </i>
    <i name="e_wo_entrp">    294.71316581 </i>
    <i name="e_0_energy">    294.71254632 </i>
   </energy>
  </scstep>
  <scstep>
   <time name="dav">   14.74   14.86</time>
   <time name="total">   16.46   16.60</time>
   <energy>
    <i name="e_fr_energy">    305.35855755 </i>
    <i name="e_wo_entrp">    305.35983904 </i>
    <i name="e_0_energy">    305.35919829 </i>
   </energy>
  </scstep>
  <scstep>
   <time name="dav">   14.12   14.24</time>
   <time name="total">   15.85   15.98</time>
   <energy>
    <i name="e_fr_energy">    306.16528225 </i>
    <i name="e_wo_entrp">    306.16658118 </i>
    <i name="e_0_energy">    306.16593171 </i>
   </energy>
  </scstep>
  <scstep>
   <time name="dav">   13.48   13.59</time>
   <time name="total">   15.20   15.32</time>
   <energy>
    <i name="e_fr_energy">    306.26018834 </i>
    <i name="e_wo_entrp">    306.26132532 </i>
    <i name="e_0_energy">    306.26075683 </i>
   </energy>
  </scstep>
  <scstep>
   <time name="dav">   15.20   15.32</time>
   <time name="total">   16.93   17.06</time>
   <energy>
    <i name="e_fr_energy">    306.23683819 </i>
    <i name="e_wo_entrp">    306.23783493 </i>
    <i name="e_0_energy">    306.23733656 </i>
   </energy>
  </scstep>
  <scstep>
   <time name="dav">   15.66   15.78</time>
   <time name="total">   17.44   17.58</time>
   <energy>
    <i name="e_fr_energy">    306.21967690 </i>
    <i name="e_wo_entrp">    306.22058736 </i>
    <i name="e_0_energy">    306.22013213 </i>
   </energy>
  </scstep>
  <scstep>
   <time name="dav">   13.82   13.94</time>
   <time name="total">   15.56   15.70</time>
   <energy>
    <i name="e_fr_energy">    306.25415989 </i>
    <i name="e_wo_entrp">    306.25496710 </i>
    <i name="e_0_energy">    306.25456349 </i>
   </energy>
  </scstep>
  <scstep>
   <time name="dav">   13.90   14.01</time>
   <time name="total">   15.62   15.74</time>
   <energy>
    <i name="e_fr_energy">    306.27151848 </i>
    <i name="e_wo_entrp">    306.27253673 </i>
    <i name="e_0_energy">    306.27202760 </i>
   </energy>
  </scstep>
  <scstep>
   <time name="dav">   13.56   13.68</time>
   <time name="total">   15.28   15.41</time>
   <energy>
    <i name="e_fr_energy">    306.27270473 </i>
    <i name="e_wo_entrp">    306.27371204 </i>
    <i name="e_0_energy">    306.27320839 </i>
   </energy>
  </scstep>
  <scstep>
   <time name="dav">   14.99   15.11</time>
   <time name="total">   16.71   16.84</time>
   <energy>
    <i name="e_fr_energy">    306.27349793 </i>
    <i name="e_wo_entrp">    306.27451182 </i>
    <i name="e_0_energy">    306.27400488 </i>
   </energy>
  </scstep>
  <scstep>
   <time name="dav">   14.21   14.33</time>
   <time name="total">   15.93   16.06</time>
   <energy>
    <i name="e_fr_energy">    306.28243736 </i>
    <i name="e_wo_entrp">    306.28346331 </i>
    <i name="e_0_energy">    306.28295033 </i>
   </energy>
  </scstep>
  <scstep>
   <time name="dav">   15.35   15.47</time>
   <time name="total">   17.07   17.22</time>
   <energy>
    <i name="e_fr_energy">    306.28397045 </i>
    <i name="e_wo_entrp">    306.28501021 </i>
    <i name="e_0_energy">    306.28449033 </i>
   </energy>
  </scstep>
  <scstep>
   <time name="dav">   13.40   13.52</time>
   <time name="total">   15.12   15.25</time>
   <energy>
    <i name="e_fr_energy">    306.28569167 </i>
    <i name="e_wo_entrp">    306.28672563 </i>
    <i name="e_0_energy">    306.28620865 </i>
   </energy>
  </scstep>
  <scstep>
   <time name="dav">   13.33   13.43</time>
   <time name="total">   15.08   15.21</time>
   <energy>
    <i name="e_fr_energy">    306.28680531 </i>
    <i name="e_wo_entrp">    306.28783278 </i>
    <i name="e_0_energy">    306.28731904 </i>
   </energy>
  </scstep>
  <scstep>
   <time name="dav">   14.89   15.02</time>
   <time name="total">   16.62   16.76</time>
   <energy>
    <i name="e_fr_energy">    306.28742441 </i>
    <i name="e_wo_entrp">    306.28844995 </i>
    <i name="e_0_energy">    306.28793718 </i>
   </energy>
  </scstep>
  <scstep>
   <time name="dav">   15.00   15.12</time>
   <time name="total">   16.72   16.86</time>
   <energy>
    <i name="e_fr_energy">    306.28767728 </i>
    <i name="e_wo_entrp">    306.28869826 </i>
    <i name="e_0_energy">    306.28818777 </i>
   </energy>
  </scstep>
  <scstep>
   <time name="dav">   13.97   14.09</time>
   <time name="total">   15.72   15.85</time>
   <energy>
    <i name="e_fr_energy">    306.28814574 </i>
    <i name="e_wo_entrp">    306.28915752 </i>
    <i name="e_0_energy">    306.28865163 </i>
   </energy>
  </scstep>
  <scstep>
   <time name="dav">   15.56   15.69</time>
   <time name="total">   17.29   17.43</time>
   <energy>
    <i name="e_fr_energy">    306.28825147 </i>
    <i name="e_wo_entrp">    306.28926226 </i>
    <i name="e_0_energy">    306.28875687 </i>
   </energy>
  </scstep>
  <scstep>
   <time name="dav">   15.86   15.99</time>
   <time name="total">   17.59   17.73</time>
   <energy>
    <i name="e_fr_energy">    306.28827049 </i>
    <i name="e_wo_entrp">    306.28927989 </i>
    <i name="e_0_energy">    306.28877519 </i>
   </energy>
  </scstep>
  <scstep>
   <time name="dav">   14.04   14.15</time>
   <time name="total">   15.77   15.89</time>
   <energy>
    <i name="e_fr_energy">    306.28829224 </i>
    <i name="e_wo_entrp">    306.28930039 </i>
    <i name="e_0_energy">    306.28879632 </i>
   </energy>
  </scstep>
  <scstep>
   <time name="dav">   14.89   15.01</time>
   <time name="total">   16.64   16.77</time>
   <energy>
    <i name="e_fr_energy">    306.28830330 </i>
    <i name="e_wo_entrp">    306.28931031 </i>
    <i name="e_0_energy">    306.28880680 </i>
   </energy>
  </scstep>
  <scstep>
   <time name="dav">   14.39   14.51</time>
   <time name="total">   16.11   16.24</time>
   <energy>
    <i name="e_fr_energy">    306.28830272 </i>
    <i name="e_wo_entrp">    306.28930975 </i>
    <i name="e_0_energy">    306.28880624 </i>
   </energy>
  </scstep>
  <scstep>
   <time name="dav">   14.13   14.24</time>
   <time name="total">   15.85   15.98</time>
   <energy>
    <i name="e_fr_energy">    306.28830259 </i>
    <i name="e_wo_entrp">    306.28930939 </i>
    <i name="e_0_energy">    306.28880599 </i>
   </energy>
  </scstep>
  <scstep>
   <time name="dav">   11.82   11.92</time>
   <time name="total">   13.54   13.65</time>
   <energy>
    <i name="e_fr_energy">    306.28830229 </i>
    <i name="e_wo_entrp">    306.28930908 </i>
    <i name="e_0_energy">    306.28880569 </i>
   </energy>
  </scstep>
  <scstep>
   <time name="dav">    9.48    9.56</time>
   <time name="total">   11.20   11.29</time>
   <energy>
    <i name="e_fr_energy">    306.28830241 </i>
    <i name="e_wo_entrp">    306.28930919 </i>
    <i name="e_0_energy">    306.28880580 </i>
   </energy>
  </scstep>
  <scstep>
   <time name="dav">    9.98   10.06</time>
   <time name="total">   11.70   11.80</time>
   <energy>
    <i name="e_fr_energy">    306.28830261 </i>
    <i name="e_wo_entrp">    306.28930929 </i>
    <i name="e_0_energy">    306.28880595 </i>
   </energy>
  </scstep>
  <scstep>
   <time name="dav">    8.20    8.27</time>
   <time name="total">    9.10    9.18</time>
   <energy>
    <i name="alphaZ">    191.76964316 </i>
    <i name="ewald">  -5583.05631550 </i>
    <i name="hartreedc">   -843.59794418 </i>
    <i name="XCdc">  -3158.79802124 </i>
    <i name="pawpsdc">1449911.18225548 </i>
    <i name="pawaedc">**************** </i>
    <i name="eentropy">     -0.00100670 </i>
    <i name="bandstr">    163.18948795 </i>
    <i name="atom">   5968.46204355 </i>
    <i name="e_fr_energy">    306.28830262 </i>
    <i name="e_wo_entrp">    306.28930932 </i>
    <i name="e_0_energy">    306.28880597 </i>
   </energy>
  </scstep>
  <structure>
   <crystal>
    <varray name="basis" >
     <v>      13.30317974       0.00000000       0.00000000 </v>
     <v>       6.65158939      14.87340641       0.00000000 </v>
     <v>       0.00000000       0.00000000       6.66359377 </v>
    </varray>
    <i name="volume">   1318.48264430 </i>
    <varray name="rec_basis" >
     <v>       0.07517000      -0.03361704       0.00000000 </v>
     <v>       0.00000000       0.06723409       0.00000000 </v>
     <v>       0.00000000       0.00000000       0.15006917 </v>
    </varray>
   </crystal>
   <varray name="positions" >
    <v>       0.98290563       0.65811950       0.00000001 </v>
    <v>       0.78290558       0.55811930       0.18224537 </v>
    <v>       0.58290541       0.45811909       0.36449075 </v>
    <v>       0.98290563       0.32478613       0.00000001 </v>
    <v>       0.78290558       0.22478597       0.18224537 </v>
    <v>       0.58290541       0.12478580       0.36449075 </v>
    <v>       0.98290563       0.99145281       0.00000001 </v>
    <v>       0.78290558       0.89145267       0.18224537 </v>
    <v>       0.58290541       0.79145253       0.36449075 </v>
    <v>       0.63290566       0.69145268       0.09112249 </v>
    <v>       0.43290559       0.59145248       0.27336785 </v>
    <v>       0.23290552       0.49145243       0.45561323 </v>
    <v>       0.63290566       0.35811943       0.09112249 </v>
    <v>       0.43290559       0.25811928       0.27336785 </v>
    <v>       0.23290552       0.15811914       0.45561323 </v>
    <v>       0.63290566       0.02478614       0.09112249 </v>
    <v>       0.43290559       0.92478597       0.27336785 </v>
    <v>       0.23290552       0.82478583       0.45561323 </v>
    <v>       0.48290563       0.65811950       0.00000000 </v>
    <v>       0.28290555       0.55811930       0.18224537 </v>
    <v>       0.08290544       0.45811909       0.36449075 </v>
    <v>       0.48290563       0.32478613       0.00000000 </v>
    <v>       0.28290555       0.22478595       0.18224537 </v>
    <v>       0.08290544       0.12478581       0.36449075 </v>
    <v>       0.48290563       0.99145281       0.00000000 </v>
    <v>       0.28290555       0.89145267       0.18224537 </v>
    <v>       0.08290544       0.79145253       0.36449075 </v>
    <v>       0.13290568       0.69145274       0.09112252 </v>
    <v>       0.93290555       0.59145248       0.27336785 </v>
    <v>       0.73290551       0.49145240       0.45561323 </v>
    <v>       0.13290568       0.35811949       0.09112252 </v>
    <v>       0.93290555       0.25811928       0.27336785 </v>
    <v>       0.73290551       0.15811913       0.45561323 </v>
    <v>       0.13290568       0.02478614       0.09112252 </v>
    <v>       0.93290555       0.92478597       0.27336785 </v>
    <v>       0.73290551       0.82478583       0.45561323 </v>
    <v>       0.98717922       0.02564151       0.45561320 </v>
    <v>       0.83717918       0.32564157       0.67336804 </v>
    <v>       0.68717915       0.62564164       0.89112288 </v>
    <v>       0.48717925       0.02564151       0.45561320 </v>
    <v>       0.33717915       0.32564157       0.67336804 </v>
    <v>       0.18717913       0.62564164       0.89112288 </v>
    <v>       0.28717920       0.67564148       0.56449044 </v>
    <v>       0.13717918       0.97564149       0.78224522 </v>
    <v>       0.98717910       0.27564156       0.00000000 </v>
    <v>       0.78717935       0.67564148       0.56449044 </v>
    <v>       0.63717931       0.97564149       0.78224522 </v>
    <v>       0.48717925       0.27564156       0.00000000 </v>
    <v>       0.98717928       0.52564150       0.45561332 </v>
    <v>       0.83717918       0.82564151       0.67336804 </v>
    <v>       0.68717909       0.12564170       0.89112288 </v>
    <v>       0.48717925       0.52564150       0.45561332 </v>
    <v>       0.33717924       0.82564151       0.67336804 </v>
    <v>       0.18717912       0.12564170       0.89112288 </v>
    <v>       0.28717923       0.17564151       0.56449044 </v>
    <v>       0.13717917       0.47564155       0.78224522 </v>
    <v>       0.98717916       0.77564162       0.00000000 </v>
    <v>       0.78717929       0.17564151       0.56449044 </v>
    <v>       0.63717925       0.47564155       0.78224522 </v>
    <v>       0.48717916       0.77564162       0.00000000 </v>
   </varray>
  </structure>
  <varray name="forces" >
   <v>      -8.10893181     -15.48833844       0.20573470 </v>
   <v>       1.23086452      -2.26399463       2.39291204 </v>
   <v>      47.30012439     -58.15642199     -34.28344689 </v>
   <v>     126.97512644     342.45105284      -0.47293509 </v>
   <v>      -0.25853173      -0.35852603      -1.52044468 </v>
   <v>       0.59232752       0.83365318       0.07995233 </v>
   <v>      -2.13156936       0.58893200       0.53822520 </v>
   <v>       0.06721226      -0.09693465       0.02115755 </v>
   <v>       0.07761773      -0.10906839       1.16569283 </v>
   <v>       3.57445594      15.00694597      37.52666127 </v>
   <v>     -10.28830541      34.01775604     -41.39590336 </v>
   <v>       1.27420007      -0.39291176      -0.88753271 </v>
   <v>      -1.37606488      -0.03757619      -0.26691681 </v>
   <v>      -4.97558449      -1.43678210      10.94517530 </v>
   <v>    -115.26804825     -35.49952750     -99.92704010 </v>
   <v>      -0.32107191       0.60259710       7.17600538 </v>
   <v>      -1.40991834      -1.31165303      -0.97643285 </v>
   <v>      -7.93127511       2.72924909     -10.19022631 </v>
   <v>      -8.10893181     -15.48833844       0.20573470 </v>
   <v>       1.23086452      -2.26399463       2.39291204 </v>
   <v>      47.30012439     -58.15642199     -34.28344689 </v>
   <v>     126.97512644     342.45105284      -0.47293509 </v>
   <v>      -0.25853173      -0.35852603      -1.52044468 </v>
   <v>       0.59232752       0.83365318       0.07995233 </v>
   <v>      -2.13156936       0.58893200       0.53822520 </v>
   <v>       0.06721226      -0.09693465       0.02115755 </v>
   <v>       0.07761773      -0.10906839       1.16569283 </v>
   <v>       3.57445594      15.00694597      37.52666127 </v>
   <v>     -10.28830541      34.01775604     -41.39590336 </v>
   <v>       1.27420007      -0.39291176      -0.88753271 </v>
   <v>      -1.37606488      -0.03757619      -0.26691681 </v>
   <v>      -4.97558449      -1.43678210      10.94517530 </v>
   <v>    -115.26804825     -35.49952750     -99.92704010 </v>
   <v>      -0.32107191       0.60259710       7.17600538 </v>
   <v>      -1.40991834      -1.31165303      -0.97643285 </v>
   <v>      -7.93127511       2.72924909     -10.19022631 </v>
   <v>       1.13262031       0.14742782       1.32883563 </v>
   <v>       1.02936360       0.03690680      -0.61779535 </v>
   <v>       7.86636421     -23.61375507     -35.49540934 </v>
   <v>       1.13262031       0.14742782       1.32883563 </v>
   <v>       1.02936360       0.03690680      -0.61779535 </v>
   <v>       7.86636421     -23.61375507     -35.49540934 </v>
   <v>      -1.32200439      -2.96725902       1.06561926 </v>
   <v>       0.04895590      -2.93394963      -6.75900623 </v>
   <v>    -120.73510213    -339.88884169      -9.97734502 </v>
   <v>      -1.32200439      -2.96725902       1.06561926 </v>
   <v>       0.04895590      -2.93394963      -6.75900623 </v>
   <v>    -120.73510213    -339.88884169      -9.97734502 </v>
   <v>     -36.92425407      23.34970773      74.25327158 </v>
   <v>       9.20768397       0.89769793       8.24291177 </v>
   <v>       1.74998734       1.11787994       0.35647324 </v>
   <v>     -36.92425407      23.34970773      74.25327158 </v>
   <v>       9.20768397       0.89769793       8.24291177 </v>
   <v>       1.74998734       1.11787994       0.35647324 </v>
   <v>     114.83128413      36.66408956      99.93615100 </v>
   <v>      -0.91796502       0.14461893       2.51779164 </v>
   <v>      -4.98956140      25.96702519      -4.98213597 </v>
   <v>     114.83128413      36.66408956      99.93615100 </v>
   <v>      -0.91796502       0.14461893       2.51779164 </v>
   <v>      -4.98956140      25.96702519      -4.98213597 </v>
  </varray>
  <varray name="stress" >
   <v>     604.28923840     142.09765965     163.19690205 </v>
   <v>     142.09753923    1112.24227312     105.63622134 </v>
   <v>     163.19692941     105.63614319     683.51408669 </v>
  </varray>
  <energy>
   <i name="e_fr_energy">    306.28830262 </i>
   <i name="e_wo_entrp">    306.28930932 </i>
   <i name="e_0_energy">    306.28880597 </i>
  </energy>
  <time name="totalsc">  532.62  537.16</time>
  <eigenvalues>
   <array>
    <dimension dim="1">band</dimension>
    <dimension dim="2">kpoint</dimension>
    <dimension dim="3">spin</dimension>
    <field>eigene</field>
    <field>occ</field>
    <set>
     <set comment="spin 1">
      <set comment="kpoint 1">
       <r>   -8.4534    1.0000 </r>
       <r>   -8.3151    1.0000 </r>
       <r>   -7.6881    1.0000 </r>
       <r>   -7.6155    1.0000 </r>
       <r>   -6.5269    1.0000 </r>
       <r>   -6.2429    1.0000 </r>
       <r>   -5.8423    1.0000 </r>
       <r>   -5.8014    1.0000 </r>
       <r>   -5.3984    1.0000 </r>
       <r>   -5.2064    1.0000 </r>
       <r>   -5.1630    1.0000 </r>
       <r>   -4.9133    1.0000 </r>
       <r>   -4.9012    1.0000 </r>
       <r>   -4.6239    1.0000 </r>
       <r>   -4.3830    1.0000 </r>
       <r>   -4.3169    1.0000 </r>
       <r>   -4.0147    1.0000 </r>
       <r>   -3.8400    1.0000 </r>
       <r>   -3.2673    1.0000 </r>
       <r>   -3.2461    1.0000 </r>
       <r>   -3.1930    1.0000 </r>
       <r>   -2.9648    1.0000 </r>
       <r>   -2.8844    1.0000 </r>
       <r>   -2.7122    1.0000 </r>
       <r>   -2.6980    1.0000 </r>
       <r>   -2.4892    1.0000 </r>
       <r>   -2.4612    1.0000 </r>
       <r>   -2.3352    1.0000 </r>
       <r>   -2.2606    1.0000 </r>
       <r>   -2.0317    1.0000 </r>
       <r>   -2.0215    1.0000 </r>
       <r>   -1.8308    1.0000 </r>
       <r>   -1.7926    1.0000 </r>
       <r>   -1.7114    1.0000 </r>
       <r>   -1.5607    1.0000 </r>
       <r>   -1.4315    1.0000 </r>
       <r>   -1.2108    1.0000 </r>
       <r>   -1.1034    1.0000 </r>
       <r>   -1.0336    1.0000 </r>
       <r>   -0.9206    1.0000 </r>
       <r>   -0.8614    1.0000 </r>
       <r>   -0.8279    1.0000 </r>
       <r>   -0.6189    1.0000 </r>
       <r>   -0.4034    1.0000 </r>
       <r>   -0.3442    1.0000 </r>
       <r>   -0.2392    1.0000 </r>
       <r>   -0.1379    1.0000 </r>
       <r>   -0.1294    1.0000 </r>
       <r>    0.0258    1.0000 </r>
       <r>    0.1285    1.0000 </r>
       <r>    0.2461    1.0000 </r>
       <r>    0.2664    1.0000 </r>
       <r>    0.4829    1.0000 </r>
       <r>    0.5583    1.0000 </r>
       <r>    0.6250    1.0000 </r>
       <r>    0.6495    1.0000 </r>
       <r>    0.6975    1.0000 </r>
       <r>    0.8350    1.0000 </r>
       <r>    1.0660    1.0000 </r>
       <r>    1.1186    1.0000 </r>
       <r>    1.2843    1.0000 </r>
       <r>    1.3341    1.0000 </r>
       <r>    1.5315    1.0000 </r>
       <r>    1.5574    1.0000 </r>
       <r>    1.5738    1.0000 </r>
       <r>    1.6209    1.0000 </r>
       <r>    1.7465    1.0000 </r>
       <r>    1.7596    1.0000 </r>
       <r>    1.8413    1.0000 </r>
       <r>    1.8482    1.0000 </r>
       <r>    2.1029    1.0000 </r>
       <r>    2.1787    1.0000 </r>
       <r>    2.2091    1.0000 </r>
       <r>    2.2441    1.0000 </r>
       <r>    2.3819    1.0000 </r>
       <r>    2.4487    1.0000 </r>
       <r>    2.5638    1.0000 </r>
       <r>    2.5938    1.0000 </r>
       <r>    2.7165    1.0000 </r>
       <r>    2.7469    1.0000 </r>
       <r>    2.8513    1.0000 </r>
       <r>    2.8970    1.0000 </r>
       <r>    2.9568    1.0000 </r>
       <r>    3.1323    1.0000 </r>
       <r>    3.2189    1.0000 </r>
       <r>    3.2349    1.0000 </r>
       <r>    3.4742    1.0000 </r>
       <r>    3.5277    1.0000 </r>
       <r>    3.5883    1.0000 </r>
       <r>    3.6566    1.0000 </r>
       <r>    3.7159    1.0000 </r>
       <r>    3.8166    1.0000 </r>
       <r>    3.8365    1.0000 </r>
       <r>    3.9090    1.0000 </r>
       <r>    4.0311    1.0000 </r>
       <r>    4.1163    1.0000 </r>
       <r>    4.2957    1.0000 </r>
       <r>    4.4909    1.0000 </r>
       <r>    4.5120    1.0000 </r>
       <r>    4.6300    1.0000 </r>
       <r>    4.7306    1.0000 </r>
       <r>    4.9176    1.0000 </r>
       <r>    4.9316    1.0000 </r>
       <r>    5.0508    1.0000 </r>
       <r>    5.0850    1.0000 </r>
       <r>    5.3161    1.0000 </r>
       <r>    5.3277    1.0000 </r>
       <r>    5.4664    1.0000 </r>
       <r>    5.4666    1.0000 </r>
       <r>    5.5633    1.0000 </r>
       <r>    5.6849    1.0000 </r>
       <r>    5.7335    1.0000 </r>
       <r>    5.8010    1.0000 </r>
       <r>    5.9375    1.0000 </r>
       <r>    6.0502    1.0000 </r>
       <r>    6.0596    1.0000 </r>
       <r>    6.1408    1.0000 </r>
       <r>    6.1716    1.0000 </r>
       <r>    6.3274    0.0000 </r>
       <r>    6.3303    0.0000 </r>
       <r>    6.3728    0.0000 </r>
       <r>    6.4980    0.0000 </r>
       <r>    6.4992    0.0000 </r>
       <r>    6.5929    0.0000 </r>
       <r>    6.6072    0.0000 </r>
       <r>    6.6383    0.0000 </r>
       <r>    6.7960    0.0000 </r>
       <r>    6.8345    0.0000 </r>
       <r>    6.9910    0.0000 </r>
       <r>    7.0439    0.0000 </r>
       <r>    7.0650    0.0000 </r>
       <r>    7.1735    0.0000 </r>
       <r>    7.2004    0.0000 </r>
       <r>    7.2959    0.0000 </r>
       <r>    7.3219    0.0000 </r>
       <r>    7.4300    0.0000 </r>
       <r>    7.5449    0.0000 </r>
       <r>    7.5681    0.0000 </r>
       <r>    7.5931    0.0000 </r>
       <r>    7.6670    0.0000 </r>
       <r>    7.7186    0.0000 </r>
       <r>    7.7679    0.0000 </r>
       <r>    7.8204    0.0000 </r>
       <r>    7.8639    0.0000 </r>
      </set>
      <set comment="kpoint 2">
       <r>   -8.4232    1.0000 </r>
       <r>   -8.3549    1.0000 </r>
       <r>   -7.6637    1.0000 </r>
       <r>   -7.6284    1.0000 </r>
       <r>   -6.4748    1.0000 </r>
       <r>   -6.3466    1.0000 </r>
       <r>   -5.7979    1.0000 </r>
       <r>   -5.6943    1.0000 </r>
       <r>   -5.5146    1.0000 </r>
       <r>   -5.3162    1.0000 </r>
       <r>   -5.0607    1.0000 </r>
       <r>   -4.9671    1.0000 </r>
       <r>   -4.8195    1.0000 </r>
       <r>   -4.5298    1.0000 </r>
       <r>   -4.4231    1.0000 </r>
       <r>   -4.2975    1.0000 </r>
       <r>   -4.0219    1.0000 </r>
       <r>   -3.9658    1.0000 </r>
       <r>   -3.3614    1.0000 </r>
       <r>   -3.3290    1.0000 </r>
       <r>   -3.0068    1.0000 </r>
       <r>   -2.9360    1.0000 </r>
       <r>   -2.7886    1.0000 </r>
       <r>   -2.7623    1.0000 </r>
       <r>   -2.6906    1.0000 </r>
       <r>   -2.5940    1.0000 </r>
       <r>   -2.4163    1.0000 </r>
       <r>   -2.3786    1.0000 </r>
       <r>   -2.2173    1.0000 </r>
       <r>   -2.0601    1.0000 </r>
       <r>   -1.9490    1.0000 </r>
       <r>   -1.7887    1.0000 </r>
       <r>   -1.7088    1.0000 </r>
       <r>   -1.6950    1.0000 </r>
       <r>   -1.5209    1.0000 </r>
       <r>   -1.4458    1.0000 </r>
       <r>   -1.2782    1.0000 </r>
       <r>   -1.1918    1.0000 </r>
       <r>   -1.1493    1.0000 </r>
       <r>   -1.0806    1.0000 </r>
       <r>   -0.7369    1.0000 </r>
       <r>   -0.7140    1.0000 </r>
       <r>   -0.5580    1.0000 </r>
       <r>   -0.4216    1.0000 </r>
       <r>   -0.3249    1.0000 </r>
       <r>   -0.2130    1.0000 </r>
       <r>   -0.1603    1.0000 </r>
       <r>   -0.0912    1.0000 </r>
       <r>   -0.0255    1.0000 </r>
       <r>    0.1643    1.0000 </r>
       <r>    0.2303    1.0000 </r>
       <r>    0.3257    1.0000 </r>
       <r>    0.4414    1.0000 </r>
       <r>    0.5160    1.0000 </r>
       <r>    0.5258    1.0000 </r>
       <r>    0.7668    1.0000 </r>
       <r>    0.7902    1.0000 </r>
       <r>    0.8329    1.0000 </r>
       <r>    0.9096    1.0000 </r>
       <r>    1.1633    1.0000 </r>
       <r>    1.2267    1.0000 </r>
       <r>    1.2527    1.0000 </r>
       <r>    1.3265    1.0000 </r>
       <r>    1.4091    1.0000 </r>
       <r>    1.6486    1.0000 </r>
       <r>    1.6581    1.0000 </r>
       <r>    1.8199    1.0000 </r>
       <r>    1.8657    1.0000 </r>
       <r>    1.9360    1.0000 </r>
       <r>    1.9720    1.0000 </r>
       <r>    2.0720    1.0000 </r>
       <r>    2.1267    1.0000 </r>
       <r>    2.2433    1.0000 </r>
       <r>    2.2555    1.0000 </r>
       <r>    2.3273    1.0000 </r>
       <r>    2.3593    1.0000 </r>
       <r>    2.5243    1.0000 </r>
       <r>    2.5365    1.0000 </r>
       <r>    2.6495    1.0000 </r>
       <r>    2.6909    1.0000 </r>
       <r>    2.8308    1.0000 </r>
       <r>    3.0190    1.0000 </r>
       <r>    3.0409    1.0000 </r>
       <r>    3.0718    1.0000 </r>
       <r>    3.3270    1.0000 </r>
       <r>    3.3967    1.0000 </r>
       <r>    3.4255    1.0000 </r>
       <r>    3.5220    1.0000 </r>
       <r>    3.6066    1.0000 </r>
       <r>    3.6494    1.0000 </r>
       <r>    3.7257    1.0000 </r>
       <r>    3.7289    1.0000 </r>
       <r>    3.8457    1.0000 </r>
       <r>    3.9788    1.0000 </r>
       <r>    4.0988    1.0000 </r>
       <r>    4.2349    1.0000 </r>
       <r>    4.3445    1.0000 </r>
       <r>    4.4896    1.0000 </r>
       <r>    4.5180    1.0000 </r>
       <r>    4.6577    1.0000 </r>
       <r>    4.8579    1.0000 </r>
       <r>    4.9037    1.0000 </r>
       <r>    5.0081    1.0000 </r>
       <r>    5.0979    1.0000 </r>
       <r>    5.1370    1.0000 </r>
       <r>    5.2247    1.0000 </r>
       <r>    5.3071    1.0000 </r>
       <r>    5.3853    1.0000 </r>
       <r>    5.5837    1.0000 </r>
       <r>    5.6042    1.0000 </r>
       <r>    5.6907    1.0000 </r>
       <r>    5.7097    1.0000 </r>
       <r>    5.7946    1.0000 </r>
       <r>    5.8022    1.0000 </r>
       <r>    5.9620    1.0000 </r>
       <r>    6.0459    1.0000 </r>
       <r>    6.0733    1.0000 </r>
       <r>    6.1226    1.0000 </r>
       <r>    6.1950    1.0000 </r>
       <r>    6.2244    1.0000 </r>
       <r>    6.3376    0.0000 </r>
       <r>    6.4026    0.0000 </r>
       <r>    6.5499    0.0000 </r>
       <r>    6.5591    0.0000 </r>
       <r>    6.6155    0.0000 </r>
       <r>    6.6564    0.0000 </r>
       <r>    6.7590    0.0000 </r>
       <r>    6.7865    0.0000 </r>
       <r>    6.9252    0.0000 </r>
       <r>    6.9459    0.0000 </r>
       <r>    7.0871    0.0000 </r>
       <r>    7.1408    0.0000 </r>
       <r>    7.2004    0.0000 </r>
       <r>    7.2429    0.0000 </r>
       <r>    7.2942    0.0000 </r>
       <r>    7.3811    0.0000 </r>
       <r>    7.3924    0.0000 </r>
       <r>    7.5827    0.0000 </r>
       <r>    7.5979    0.0000 </r>
       <r>    7.6960    0.0000 </r>
       <r>    7.7168    0.0000 </r>
       <r>    7.7553    0.0000 </r>
       <r>    7.8202    0.0000 </r>
       <r>    7.9108    0.0000 </r>
      </set>
      <set comment="kpoint 3">
       <r>   -8.4532    1.0000 </r>
       <r>   -8.3152    1.0000 </r>
       <r>   -7.6881    1.0000 </r>
       <r>   -7.6166    1.0000 </r>
       <r>   -6.5339    1.0000 </r>
       <r>   -6.2444    1.0000 </r>
       <r>   -5.7794    1.0000 </r>
       <r>   -5.7323    1.0000 </r>
       <r>   -5.5180    1.0000 </r>
       <r>   -5.3066    1.0000 </r>
       <r>   -5.2148    1.0000 </r>
       <r>   -4.9051    1.0000 </r>
       <r>   -4.8349    1.0000 </r>
       <r>   -4.4905    1.0000 </r>
       <r>   -4.3762    1.0000 </r>
       <r>   -4.2729    1.0000 </r>
       <r>   -3.9944    1.0000 </r>
       <r>   -3.9934    1.0000 </r>
       <r>   -3.2525    1.0000 </r>
       <r>   -3.2318    1.0000 </r>
       <r>   -3.1480    1.0000 </r>
       <r>   -3.0099    1.0000 </r>
       <r>   -2.8803    1.0000 </r>
       <r>   -2.7036    1.0000 </r>
       <r>   -2.6979    1.0000 </r>
       <r>   -2.4867    1.0000 </r>
       <r>   -2.4296    1.0000 </r>
       <r>   -2.3860    1.0000 </r>
       <r>   -2.2982    1.0000 </r>
       <r>   -2.0724    1.0000 </r>
       <r>   -1.9441    1.0000 </r>
       <r>   -1.8087    1.0000 </r>
       <r>   -1.7287    1.0000 </r>
       <r>   -1.7161    1.0000 </r>
       <r>   -1.5187    1.0000 </r>
       <r>   -1.4296    1.0000 </r>
       <r>   -1.3365    1.0000 </r>
       <r>   -1.2540    1.0000 </r>
       <r>   -1.0969    1.0000 </r>
       <r>   -1.0031    1.0000 </r>
       <r>   -0.8916    1.0000 </r>
       <r>   -0.7664    1.0000 </r>
       <r>   -0.4546    1.0000 </r>
       <r>   -0.3376    1.0000 </r>
       <r>   -0.2671    1.0000 </r>
       <r>   -0.2074    1.0000 </r>
       <r>   -0.1784    1.0000 </r>
       <r>   -0.0570    1.0000 </r>
       <r>    0.0188    1.0000 </r>
       <r>    0.0992    1.0000 </r>
       <r>    0.2343    1.0000 </r>
       <r>    0.3003    1.0000 </r>
       <r>    0.4316    1.0000 </r>
       <r>    0.5108    1.0000 </r>
       <r>    0.5231    1.0000 </r>
       <r>    0.7932    1.0000 </r>
       <r>    0.9126    1.0000 </r>
       <r>    1.0677    1.0000 </r>
       <r>    1.0763    1.0000 </r>
       <r>    1.1435    1.0000 </r>
       <r>    1.2141    1.0000 </r>
       <r>    1.2372    1.0000 </r>
       <r>    1.2422    1.0000 </r>
       <r>    1.4205    1.0000 </r>
       <r>    1.6382    1.0000 </r>
       <r>    1.6404    1.0000 </r>
       <r>    1.7357    1.0000 </r>
       <r>    1.7541    1.0000 </r>
       <r>    1.7819    1.0000 </r>
       <r>    2.0244    1.0000 </r>
       <r>    2.0522    1.0000 </r>
       <r>    2.1044    1.0000 </r>
       <r>    2.1447    1.0000 </r>
       <r>    2.2142    1.0000 </r>
       <r>    2.2884    1.0000 </r>
       <r>    2.4195    1.0000 </r>
       <r>    2.6113    1.0000 </r>
       <r>    2.6205    1.0000 </r>
       <r>    2.7029    1.0000 </r>
       <r>    2.7110    1.0000 </r>
       <r>    2.8043    1.0000 </r>
       <r>    2.9324    1.0000 </r>
       <r>    2.9458    1.0000 </r>
       <r>    3.1310    1.0000 </r>
       <r>    3.2343    1.0000 </r>
       <r>    3.2412    1.0000 </r>
       <r>    3.3753    1.0000 </r>
       <r>    3.4311    1.0000 </r>
       <r>    3.5829    1.0000 </r>
       <r>    3.5942    1.0000 </r>
       <r>    3.7796    1.0000 </r>
       <r>    3.8537    1.0000 </r>
       <r>    3.9646    1.0000 </r>
       <r>    3.9848    1.0000 </r>
       <r>    4.0888    1.0000 </r>
       <r>    4.2931    1.0000 </r>
       <r>    4.3350    1.0000 </r>
       <r>    4.3634    1.0000 </r>
       <r>    4.6968    1.0000 </r>
       <r>    4.7529    1.0000 </r>
       <r>    4.8194    1.0000 </r>
       <r>    4.8995    1.0000 </r>
       <r>    5.0344    1.0000 </r>
       <r>    5.0960    1.0000 </r>
       <r>    5.1698    1.0000 </r>
       <r>    5.3088    1.0000 </r>
       <r>    5.3523    1.0000 </r>
       <r>    5.4218    1.0000 </r>
       <r>    5.4799    1.0000 </r>
       <r>    5.5830    1.0000 </r>
       <r>    5.6461    1.0000 </r>
       <r>    5.6894    1.0000 </r>
       <r>    5.7133    1.0000 </r>
       <r>    5.7373    1.0000 </r>
       <r>    6.0063    1.0000 </r>
       <r>    6.0789    1.0000 </r>
       <r>    6.1179    1.0000 </r>
       <r>    6.2169    1.0000 </r>
       <r>    6.2929    0.0064 </r>
       <r>    6.3085    0.0000 </r>
       <r>    6.3102    0.0000 </r>
       <r>    6.3613    0.0000 </r>
       <r>    6.3679    0.0000 </r>
       <r>    6.5740    0.0000 </r>
       <r>    6.6497    0.0000 </r>
       <r>    6.6795    0.0000 </r>
       <r>    6.6898    0.0000 </r>
       <r>    6.8035    0.0000 </r>
       <r>    6.8984    0.0000 </r>
       <r>    7.0658    0.0000 </r>
       <r>    7.0930    0.0000 </r>
       <r>    7.1088    0.0000 </r>
       <r>    7.1442    0.0000 </r>
       <r>    7.1685    0.0000 </r>
       <r>    7.3209    0.0000 </r>
       <r>    7.3935    0.0000 </r>
       <r>    7.5016    0.0000 </r>
       <r>    7.5494    0.0000 </r>
       <r>    7.6697    0.0000 </r>
       <r>    7.7180    0.0000 </r>
       <r>    7.7576    0.0000 </r>
       <r>    7.8150    0.0000 </r>
       <r>    7.8453    0.0000 </r>
       <r>    7.9294    0.0000 </r>
      </set>
      <set comment="kpoint 4">
       <r>   -8.4231    1.0000 </r>
       <r>   -8.3549    1.0000 </r>
       <r>   -7.6637    1.0000 </r>
       <r>   -7.6287    1.0000 </r>
       <r>   -6.4779    1.0000 </r>
       <r>   -6.3318    1.0000 </r>
       <r>   -5.8065    1.0000 </r>
       <r>   -5.7793    1.0000 </r>
       <r>   -5.3353    1.0000 </r>
       <r>   -5.3217    1.0000 </r>
       <r>   -5.1486    1.0000 </r>
       <r>   -4.9935    1.0000 </r>
       <r>   -4.7963    1.0000 </r>
       <r>   -4.5356    1.0000 </r>
       <r>   -4.4680    1.0000 </r>
       <r>   -4.3074    1.0000 </r>
       <r>   -3.9659    1.0000 </r>
       <r>   -3.9049    1.0000 </r>
       <r>   -3.3669    1.0000 </r>
       <r>   -3.3604    1.0000 </r>
       <r>   -3.0868    1.0000 </r>
       <r>   -2.9707    1.0000 </r>
       <r>   -2.8341    1.0000 </r>
       <r>   -2.6823    1.0000 </r>
       <r>   -2.6488    1.0000 </r>
       <r>   -2.5153    1.0000 </r>
       <r>   -2.4276    1.0000 </r>
       <r>   -2.3960    1.0000 </r>
       <r>   -2.1752    1.0000 </r>
       <r>   -2.0762    1.0000 </r>
       <r>   -1.9489    1.0000 </r>
       <r>   -1.9225    1.0000 </r>
       <r>   -1.7107    1.0000 </r>
       <r>   -1.7047    1.0000 </r>
       <r>   -1.4849    1.0000 </r>
       <r>   -1.3973    1.0000 </r>
       <r>   -1.2599    1.0000 </r>
       <r>   -1.2087    1.0000 </r>
       <r>   -1.1184    1.0000 </r>
       <r>   -1.0752    1.0000 </r>
       <r>   -0.7727    1.0000 </r>
       <r>   -0.7602    1.0000 </r>
       <r>   -0.4884    1.0000 </r>
       <r>   -0.3927    1.0000 </r>
       <r>   -0.3603    1.0000 </r>
       <r>   -0.3134    1.0000 </r>
       <r>   -0.1156    1.0000 </r>
       <r>   -0.0821    1.0000 </r>
       <r>    0.0632    1.0000 </r>
       <r>    0.1883    1.0000 </r>
       <r>    0.1938    1.0000 </r>
       <r>    0.3698    1.0000 </r>
       <r>    0.4550    1.0000 </r>
       <r>    0.5223    1.0000 </r>
       <r>    0.5903    1.0000 </r>
       <r>    0.6873    1.0000 </r>
       <r>    0.7075    1.0000 </r>
       <r>    0.8647    1.0000 </r>
       <r>    0.9228    1.0000 </r>
       <r>    1.0868    1.0000 </r>
       <r>    1.1834    1.0000 </r>
       <r>    1.1957    1.0000 </r>
       <r>    1.3356    1.0000 </r>
       <r>    1.3560    1.0000 </r>
       <r>    1.6613    1.0000 </r>
       <r>    1.6701    1.0000 </r>
       <r>    1.7323    1.0000 </r>
       <r>    1.8910    1.0000 </r>
       <r>    1.9431    1.0000 </r>
       <r>    2.0361    1.0000 </r>
       <r>    2.1152    1.0000 </r>
       <r>    2.1312    1.0000 </r>
       <r>    2.1889    1.0000 </r>
       <r>    2.2367    1.0000 </r>
       <r>    2.4154    1.0000 </r>
       <r>    2.4276    1.0000 </r>
       <r>    2.5773    1.0000 </r>
       <r>    2.6465    1.0000 </r>
       <r>    2.7078    1.0000 </r>
       <r>    2.7444    1.0000 </r>
       <r>    2.8474    1.0000 </r>
       <r>    2.9574    1.0000 </r>
       <r>    3.0084    1.0000 </r>
       <r>    3.0824    1.0000 </r>
       <r>    3.1930    1.0000 </r>
       <r>    3.2046    1.0000 </r>
       <r>    3.4688    1.0000 </r>
       <r>    3.5018    1.0000 </r>
       <r>    3.5621    1.0000 </r>
       <r>    3.7154    1.0000 </r>
       <r>    3.8014    1.0000 </r>
       <r>    3.8567    1.0000 </r>
       <r>    3.9261    1.0000 </r>
       <r>    3.9817    1.0000 </r>
       <r>    4.0078    1.0000 </r>
       <r>    4.1083    1.0000 </r>
       <r>    4.4088    1.0000 </r>
       <r>    4.4775    1.0000 </r>
       <r>    4.5717    1.0000 </r>
       <r>    4.5844    1.0000 </r>
       <r>    4.8624    1.0000 </r>
       <r>    4.8984    1.0000 </r>
       <r>    5.0071    1.0000 </r>
       <r>    5.0761    1.0000 </r>
       <r>    5.2140    1.0000 </r>
       <r>    5.2322    1.0000 </r>
       <r>    5.2655    1.0000 </r>
       <r>    5.3853    1.0000 </r>
       <r>    5.4044    1.0000 </r>
       <r>    5.4714    1.0000 </r>
       <r>    5.5550    1.0000 </r>
       <r>    5.7425    1.0000 </r>
       <r>    5.7937    1.0000 </r>
       <r>    5.8607    1.0000 </r>
       <r>    5.9404    1.0000 </r>
       <r>    6.0007    1.0000 </r>
       <r>    6.0860    1.0000 </r>
       <r>    6.1119    1.0000 </r>
       <r>    6.2912    0.0125 </r>
       <r>    6.3193    0.0000 </r>
       <r>    6.3218    0.0000 </r>
       <r>    6.4630    0.0000 </r>
       <r>    6.4718    0.0000 </r>
       <r>    6.6037    0.0000 </r>
       <r>    6.6425    0.0000 </r>
       <r>    6.7511    0.0000 </r>
       <r>    6.7966    0.0000 </r>
       <r>    6.8785    0.0000 </r>
       <r>    6.8969    0.0000 </r>
       <r>    6.9969    0.0000 </r>
       <r>    7.1277    0.0000 </r>
       <r>    7.1401    0.0000 </r>
       <r>    7.1858    0.0000 </r>
       <r>    7.3377    0.0000 </r>
       <r>    7.4108    0.0000 </r>
       <r>    7.4471    0.0000 </r>
       <r>    7.4551    0.0000 </r>
       <r>    7.5437    0.0000 </r>
       <r>    7.5879    0.0000 </r>
       <r>    7.6263    0.0000 </r>
       <r>    7.6823    0.0000 </r>
       <r>    7.7350    0.0000 </r>
       <r>    7.8377    0.0000 </r>
       <r>    7.9482    0.0000 </r>
      </set>
      <set comment="kpoint 5">
       <r>   -8.4264    1.0000 </r>
       <r>   -8.3041    1.0000 </r>
       <r>   -7.6798    1.0000 </r>
       <r>   -7.6315    1.0000 </r>
       <r>   -6.4399    1.0000 </r>
       <r>   -6.1586    1.0000 </r>
       <r>   -5.8099    1.0000 </r>
       <r>   -5.7459    1.0000 </r>
       <r>   -5.3646    1.0000 </r>
       <r>   -5.3152    1.0000 </r>
       <r>   -5.1520    1.0000 </r>
       <r>   -4.9072    1.0000 </r>
       <r>   -4.9068    1.0000 </r>
       <r>   -4.6717    1.0000 </r>
       <r>   -4.4855    1.0000 </r>
       <r>   -4.3251    1.0000 </r>
       <r>   -3.9992    1.0000 </r>
       <r>   -3.9290    1.0000 </r>
       <r>   -3.5259    1.0000 </r>
       <r>   -3.4163    1.0000 </r>
       <r>   -3.4065    1.0000 </r>
       <r>   -3.2084    1.0000 </r>
       <r>   -2.9296    1.0000 </r>
       <r>   -2.8851    1.0000 </r>
       <r>   -2.6730    1.0000 </r>
       <r>   -2.6377    1.0000 </r>
       <r>   -2.3589    1.0000 </r>
       <r>   -2.3467    1.0000 </r>
       <r>   -2.3072    1.0000 </r>
       <r>   -2.1448    1.0000 </r>
       <r>   -1.8849    1.0000 </r>
       <r>   -1.8679    1.0000 </r>
       <r>   -1.6335    1.0000 </r>
       <r>   -1.6334    1.0000 </r>
       <r>   -1.4950    1.0000 </r>
       <r>   -1.4311    1.0000 </r>
       <r>   -1.3137    1.0000 </r>
       <r>   -1.1291    1.0000 </r>
       <r>   -1.0203    1.0000 </r>
       <r>   -0.8607    1.0000 </r>
       <r>   -0.7847    1.0000 </r>
       <r>   -0.6171    1.0000 </r>
       <r>   -0.4307    1.0000 </r>
       <r>   -0.3906    1.0000 </r>
       <r>   -0.2349    1.0000 </r>
       <r>   -0.1479    1.0000 </r>
       <r>   -0.0915    1.0000 </r>
       <r>    0.0486    1.0000 </r>
       <r>    0.1052    1.0000 </r>
       <r>    0.2004    1.0000 </r>
       <r>    0.2157    1.0000 </r>
       <r>    0.2683    1.0000 </r>
       <r>    0.4739    1.0000 </r>
       <r>    0.4942    1.0000 </r>
       <r>    0.6651    1.0000 </r>
       <r>    0.7433    1.0000 </r>
       <r>    0.8758    1.0000 </r>
       <r>    1.0555    1.0000 </r>
       <r>    1.1385    1.0000 </r>
       <r>    1.1636    1.0000 </r>
       <r>    1.2757    1.0000 </r>
       <r>    1.3454    1.0000 </r>
       <r>    1.5510    1.0000 </r>
       <r>    1.5662    1.0000 </r>
       <r>    1.6337    1.0000 </r>
       <r>    1.6470    1.0000 </r>
       <r>    1.7885    1.0000 </r>
       <r>    1.8069    1.0000 </r>
       <r>    1.9541    1.0000 </r>
       <r>    1.9561    1.0000 </r>
       <r>    2.0858    1.0000 </r>
       <r>    2.2054    1.0000 </r>
       <r>    2.2134    1.0000 </r>
       <r>    2.2846    1.0000 </r>
       <r>    2.4289    1.0000 </r>
       <r>    2.4631    1.0000 </r>
       <r>    2.5627    1.0000 </r>
       <r>    2.6406    1.0000 </r>
       <r>    2.6871    1.0000 </r>
       <r>    2.8473    1.0000 </r>
       <r>    2.9290    1.0000 </r>
       <r>    3.0047    1.0000 </r>
       <r>    3.0521    1.0000 </r>
       <r>    3.1072    1.0000 </r>
       <r>    3.2170    1.0000 </r>
       <r>    3.3036    1.0000 </r>
       <r>    3.4752    1.0000 </r>
       <r>    3.6549    1.0000 </r>
       <r>    3.6899    1.0000 </r>
       <r>    3.8032    1.0000 </r>
       <r>    3.8750    1.0000 </r>
       <r>    3.9513    1.0000 </r>
       <r>    3.9657    1.0000 </r>
       <r>    3.9999    1.0000 </r>
       <r>    4.1125    1.0000 </r>
       <r>    4.1127    1.0000 </r>
       <r>    4.4421    1.0000 </r>
       <r>    4.4757    1.0000 </r>
       <r>    4.5765    1.0000 </r>
       <r>    4.6030    1.0000 </r>
       <r>    4.7290    1.0000 </r>
       <r>    4.8460    1.0000 </r>
       <r>    4.9215    1.0000 </r>
       <r>    5.0346    1.0000 </r>
       <r>    5.0927    1.0000 </r>
       <r>    5.1801    1.0000 </r>
       <r>    5.2546    1.0000 </r>
       <r>    5.2550    1.0000 </r>
       <r>    5.4154    1.0000 </r>
       <r>    5.4954    1.0000 </r>
       <r>    5.5310    1.0000 </r>
       <r>    5.6264    1.0000 </r>
       <r>    5.6485    1.0000 </r>
       <r>    5.8210    1.0000 </r>
       <r>    5.9445    1.0000 </r>
       <r>    5.9580    1.0000 </r>
       <r>    6.0944    1.0000 </r>
       <r>    6.1619    1.0000 </r>
       <r>    6.2492    0.9999 </r>
       <r>    6.3022    0.0001 </r>
       <r>    6.3375    0.0000 </r>
       <r>    6.4184    0.0000 </r>
       <r>    6.4596    0.0000 </r>
       <r>    6.5671    0.0000 </r>
       <r>    6.5736    0.0000 </r>
       <r>    6.6488    0.0000 </r>
       <r>    6.6831    0.0000 </r>
       <r>    6.7618    0.0000 </r>
       <r>    6.8526    0.0000 </r>
       <r>    6.9604    0.0000 </r>
       <r>    6.9787    0.0000 </r>
       <r>    7.0654    0.0000 </r>
       <r>    7.1047    0.0000 </r>
       <r>    7.2112    0.0000 </r>
       <r>    7.2417    0.0000 </r>
       <r>    7.2738    0.0000 </r>
       <r>    7.4059    0.0000 </r>
       <r>    7.4215    0.0000 </r>
       <r>    7.4564    0.0000 </r>
       <r>    7.5481    0.0000 </r>
       <r>    7.5492    0.0000 </r>
       <r>    7.6317    0.0000 </r>
       <r>    7.7241    0.0000 </r>
       <r>    7.8465    0.0000 </r>
      </set>
      <set comment="kpoint 6">
       <r>   -8.3969    1.0000 </r>
       <r>   -8.3411    1.0000 </r>
       <r>   -7.6607    1.0000 </r>
       <r>   -7.6420    1.0000 </r>
       <r>   -6.3909    1.0000 </r>
       <r>   -6.2545    1.0000 </r>
       <r>   -5.7677    1.0000 </r>
       <r>   -5.6599    1.0000 </r>
       <r>   -5.4729    1.0000 </r>
       <r>   -5.3422    1.0000 </r>
       <r>   -5.0757    1.0000 </r>
       <r>   -5.0640    1.0000 </r>
       <r>   -4.8334    1.0000 </r>
       <r>   -4.5047    1.0000 </r>
       <r>   -4.4614    1.0000 </r>
       <r>   -4.2505    1.0000 </r>
       <r>   -4.1188    1.0000 </r>
       <r>   -4.0717    1.0000 </r>
       <r>   -3.5825    1.0000 </r>
       <r>   -3.5671    1.0000 </r>
       <r>   -3.2116    1.0000 </r>
       <r>   -3.1930    1.0000 </r>
       <r>   -2.8864    1.0000 </r>
       <r>   -2.8433    1.0000 </r>
       <r>   -2.7544    1.0000 </r>
       <r>   -2.5301    1.0000 </r>
       <r>   -2.4172    1.0000 </r>
       <r>   -2.4158    1.0000 </r>
       <r>   -2.1142    1.0000 </r>
       <r>   -2.0652    1.0000 </r>
       <r>   -1.9711    1.0000 </r>
       <r>   -1.9639    1.0000 </r>
       <r>   -1.7794    1.0000 </r>
       <r>   -1.6025    1.0000 </r>
       <r>   -1.4339    1.0000 </r>
       <r>   -1.3246    1.0000 </r>
       <r>   -1.3169    1.0000 </r>
       <r>   -1.1480    1.0000 </r>
       <r>   -1.1134    1.0000 </r>
       <r>   -0.8736    1.0000 </r>
       <r>   -0.7744    1.0000 </r>
       <r>   -0.5663    1.0000 </r>
       <r>   -0.3831    1.0000 </r>
       <r>   -0.3606    1.0000 </r>
       <r>   -0.2818    1.0000 </r>
       <r>   -0.1022    1.0000 </r>
       <r>   -0.0449    1.0000 </r>
       <r>    0.0138    1.0000 </r>
       <r>    0.1608    1.0000 </r>
       <r>    0.2039    1.0000 </r>
       <r>    0.2449    1.0000 </r>
       <r>    0.3086    1.0000 </r>
       <r>    0.4002    1.0000 </r>
       <r>    0.5103    1.0000 </r>
       <r>    0.7106    1.0000 </r>
       <r>    0.8119    1.0000 </r>
       <r>    0.8301    1.0000 </r>
       <r>    0.9351    1.0000 </r>
       <r>    0.9979    1.0000 </r>
       <r>    1.0937    1.0000 </r>
       <r>    1.2405    1.0000 </r>
       <r>    1.3805    1.0000 </r>
       <r>    1.3929    1.0000 </r>
       <r>    1.4886    1.0000 </r>
       <r>    1.6011    1.0000 </r>
       <r>    1.6793    1.0000 </r>
       <r>    1.8291    1.0000 </r>
       <r>    1.8431    1.0000 </r>
       <r>    1.8828    1.0000 </r>
       <r>    1.9922    1.0000 </r>
       <r>    2.1052    1.0000 </r>
       <r>    2.1860    1.0000 </r>
       <r>    2.2571    1.0000 </r>
       <r>    2.2773    1.0000 </r>
       <r>    2.4037    1.0000 </r>
       <r>    2.4146    1.0000 </r>
       <r>    2.5119    1.0000 </r>
       <r>    2.7342    1.0000 </r>
       <r>    2.8048    1.0000 </r>
       <r>    2.8420    1.0000 </r>
       <r>    2.8673    1.0000 </r>
       <r>    3.1000    1.0000 </r>
       <r>    3.1137    1.0000 </r>
       <r>    3.1753    1.0000 </r>
       <r>    3.3432    1.0000 </r>
       <r>    3.3590    1.0000 </r>
       <r>    3.5718    1.0000 </r>
       <r>    3.5855    1.0000 </r>
       <r>    3.6771    1.0000 </r>
       <r>    3.7493    1.0000 </r>
       <r>    3.8464    1.0000 </r>
       <r>    3.9201    1.0000 </r>
       <r>    3.9267    1.0000 </r>
       <r>    4.0500    1.0000 </r>
       <r>    4.1595    1.0000 </r>
       <r>    4.2414    1.0000 </r>
       <r>    4.3822    1.0000 </r>
       <r>    4.4433    1.0000 </r>
       <r>    4.5707    1.0000 </r>
       <r>    4.6020    1.0000 </r>
       <r>    4.7901    1.0000 </r>
       <r>    4.8021    1.0000 </r>
       <r>    5.0363    1.0000 </r>
       <r>    5.0507    1.0000 </r>
       <r>    5.0876    1.0000 </r>
       <r>    5.1359    1.0000 </r>
       <r>    5.3285    1.0000 </r>
       <r>    5.3518    1.0000 </r>
       <r>    5.4160    1.0000 </r>
       <r>    5.4778    1.0000 </r>
       <r>    5.5759    1.0000 </r>
       <r>    5.6166    1.0000 </r>
       <r>    5.7309    1.0000 </r>
       <r>    5.7626    1.0000 </r>
       <r>    5.8842    1.0000 </r>
       <r>    5.9022    1.0000 </r>
       <r>    6.0672    1.0000 </r>
       <r>    6.0773    1.0000 </r>
       <r>    6.1390    1.0000 </r>
       <r>    6.3125    0.0000 </r>
       <r>    6.3454    0.0000 </r>
       <r>    6.3671    0.0000 </r>
       <r>    6.4362    0.0000 </r>
       <r>    6.4629    0.0000 </r>
       <r>    6.5780    0.0000 </r>
       <r>    6.5806    0.0000 </r>
       <r>    6.6752    0.0000 </r>
       <r>    6.7165    0.0000 </r>
       <r>    6.8151    0.0000 </r>
       <r>    6.8582    0.0000 </r>
       <r>    6.9530    0.0000 </r>
       <r>    6.9940    0.0000 </r>
       <r>    7.1402    0.0000 </r>
       <r>    7.1580    0.0000 </r>
       <r>    7.1970    0.0000 </r>
       <r>    7.2617    0.0000 </r>
       <r>    7.2894    0.0000 </r>
       <r>    7.4199    0.0000 </r>
       <r>    7.4853    0.0000 </r>
       <r>    7.5609    0.0000 </r>
       <r>    7.6481    0.0000 </r>
       <r>    7.6915    0.0000 </r>
       <r>    7.7608    0.0000 </r>
       <r>    7.7635    0.0000 </r>
      </set>
      <set comment="kpoint 7">
       <r>   -8.4013    1.0000 </r>
       <r>   -8.3358    1.0000 </r>
       <r>   -7.6660    1.0000 </r>
       <r>   -7.6377    1.0000 </r>
       <r>   -6.3858    1.0000 </r>
       <r>   -6.2657    1.0000 </r>
       <r>   -5.7495    1.0000 </r>
       <r>   -5.6651    1.0000 </r>
       <r>   -5.4600    1.0000 </r>
       <r>   -5.3819    1.0000 </r>
       <r>   -5.1373    1.0000 </r>
       <r>   -4.9257    1.0000 </r>
       <r>   -4.7944    1.0000 </r>
[...]
       <r>     8.0060     1.4067   288.0000 </r>
       <r>     8.0662     0.0000   288.0000 </r>
       <r>     8.1264     0.0000   288.0000 </r>
       <r>     8.1867     0.0000   288.0000 </r>
       <r>     8.2469     0.0000   288.0000 </r>
       <r>     8.3071     0.0000   288.0000 </r>
       <r>     8.3673     0.0000   288.0000 </r>
       <r>     8.4275     0.0000   288.0000 </r>
       <r>     8.4877     0.0000   288.0000 </r>
       <r>     8.5479     0.0000   288.0000 </r>
       <r>     8.6081     0.0000   288.0000 </r>
       <r>     8.6683     0.0000   288.0000 </r>
       <r>     8.7286     0.0000   288.0000 </r>
       <r>     8.7888     0.0000   288.0000 </r>
      </set>
      <set comment="spin 2">
       <r>    -9.2745     0.0000     0.0000 </r>
       <r>    -9.2142     0.0000     0.0000 </r>
       <r>    -9.1540     0.0000     0.0000 </r>
       <r>    -9.0938     0.0000     0.0000 </r>
       <r>    -9.0336     0.0000     0.0000 </r>
       <r>    -8.9734     0.0000     0.0000 </r>
       <r>    -8.9132     0.0000     0.0000 </r>
       <r>    -8.8530     0.0000     0.0000 </r>
       <r>    -8.7928     0.0000     0.0000 </r>
       <r>    -8.7326     0.0000     0.0000 </r>
       <r>    -8.6724     0.0000     0.0000 </r>
       <r>    -8.6121     0.0000     0.0000 </r>
       <r>    -8.5519     0.0000     0.0000 </r>
       <r>    -8.4917     0.0000     0.0000 </r>
       <r>    -8.4315     2.2920     0.1380 </r>
       <r>    -8.3713    19.4118     1.3068 </r>
       <r>    -8.3111    26.4650     2.9006 </r>
       <r>    -8.2509    18.2540     4.0000 </r>
       <r>    -8.1907     0.0000     4.0000 </r>
       <r>    -8.1305     0.0000     4.0000 </r>
       <r>    -8.0702     0.0000     4.0000 </r>
       <r>    -8.0100     0.0000     4.0000 </r>
       <r>    -7.9498     0.0000     4.0000 </r>
       <r>    -7.8896     0.0000     4.0000 </r>
       <r>    -7.8294     0.0000     4.0000 </r>
       <r>    -7.7692     0.0000     4.0000 </r>
       <r>    -7.7090     0.0000     4.0000 </r>
       <r>    -7.6488    37.6805     6.2688 </r>
       <r>    -7.5886    28.7373     7.9994 </r>
       <r>    -7.5283     0.0106     8.0000 </r>
       <r>    -7.4681     0.0000     8.0000 </r>
       <r>    -7.4079     0.0000     8.0000 </r>
       <r>    -7.3477     0.0000     8.0000 </r>
       <r>    -7.2875     0.0000     8.0000 </r>
       <r>    -7.2273     0.0000     8.0000 </r>
       <r>    -7.1671     0.0000     8.0000 </r>
       <r>    -7.1069     0.0000     8.0000 </r>
       <r>    -7.0467     0.0000     8.0000 </r>
       <r>    -6.9865     0.0000     8.0000 </r>
       <r>    -6.9262     0.0000     8.0000 </r>
       <r>    -6.8660     0.0000     8.0000 </r>
       <r>    -6.8058     0.0000     8.0000 </r>
       <r>    -6.7456     0.0000     8.0000 </r>
       <r>    -6.6854     0.0000     8.0000 </r>
       <r>    -6.6252     0.0000     8.0000 </r>
       <r>    -6.5650     0.0000     8.0000 </r>
       <r>    -6.5048     2.0862     8.1256 </r>
       <r>    -6.4446     4.7732     8.4130 </r>
       <r>    -6.3843     5.9318     8.7705 </r>
       <r>    -6.3241     9.6455     9.3512 </r>
       <r>    -6.2639     2.0473     9.4745 </r>
       <r>    -6.2037    15.2122    10.3904 </r>
       <r>    -6.1435    11.9569    11.1107 </r>
       <r>    -6.0833     1.4799    11.2000 </r>
       <r>    -6.0231     6.0724    11.5656 </r>
       <r>    -5.9629     2.8034    11.7344 </r>
       <r>    -5.9027     4.4108    12.0000 </r>
       <r>    -5.8424     0.0395    12.0024 </r>
       <r>    -5.7822     7.8662    12.4760 </r>
       <r>    -5.7220    29.5345    14.2543 </r>
       <r>    -5.6618    17.5797    15.3129 </r>
       <r>    -5.6016    11.4072    16.0000 </r>
       <r>    -5.5414     3.9473    16.2377 </r>
       <r>    -5.4812    12.3600    16.9819 </r>
       <r>    -5.4210     8.9516    17.5212 </r>
       <r>    -5.3608    14.0125    18.3649 </r>
       <r>    -5.3006    21.2447    19.6444 </r>
       <r>    -5.2403     4.7970    19.9333 </r>
       <r>    -5.1801    10.6893    20.5769 </r>
       <r>    -5.1199    13.8119    21.4087 </r>
       <r>    -5.0597    13.1721    22.2021 </r>
       <r>    -4.9995     5.5200    22.5344 </r>
       <r>    -4.9393    10.7397    23.1811 </r>
       <r>    -4.8791    21.0517    24.4487 </r>
       <r>    -4.8189     4.4235    24.7152 </r>
       <r>    -4.7587    16.1507    25.6877 </r>
       <r>    -4.6984     7.0838    26.1144 </r>
       <r>    -4.6382     9.4102    26.6810 </r>
       <r>    -4.5780    13.9376    27.5204 </r>
       <r>    -4.5178    11.1665    28.1929 </r>
       <r>    -4.4576    20.1561    29.4065 </r>
       <r>    -4.3974    12.3474    30.1503 </r>
       <r>    -4.3372     6.3875    30.5349 </r>
       <r>    -4.2770    14.9199    31.4332 </r>
       <r>    -4.2168    18.3957    32.5408 </r>
       <r>    -4.1565     4.3020    32.8000 </r>
       <r>    -4.0963     2.0822    32.9254 </r>
       <r>    -4.0361     6.7635    33.3326 </r>
       <r>    -3.9759    13.5115    34.1462 </r>
       <r>    -3.9157    19.2443    35.3049 </r>
       <r>    -3.8555    10.4811    35.9360 </r>
       <r>    -3.7953    12.9874    36.7180 </r>
       <r>    -3.7351     5.6383    37.0575 </r>
       <r>    -3.6749     5.7940    37.4063 </r>
       <r>    -3.6146    10.3682    38.0308 </r>
       <r>    -3.5544    15.1851    38.9452 </r>
       <r>    -3.4942     7.3107    39.3854 </r>
       <r>    -3.4340     3.9216    39.6215 </r>
       <r>    -3.3738    15.1350    40.5328 </r>
       <r>    -3.3136    10.0593    41.1388 </r>
       <r>    -3.2534     5.4364    41.4661 </r>
       <r>    -3.1932    14.2718    42.3256 </r>
       <r>    -3.1330     6.3873    42.7102 </r>
       <r>    -3.0728     8.7721    43.2384 </r>
       <r>    -3.0125    19.0053    44.3827 </r>
       <r>    -2.9523     7.9746    44.8630 </r>
       <r>    -2.8921    13.7132    45.6886 </r>
       <r>    -2.8319    27.8891    47.3680 </r>
       <r>    -2.7717     9.7487    47.9551 </r>
       <r>    -2.7115    17.1414    48.9872 </r>
       <r>    -2.6513    21.1294    50.2594 </r>
       <r>    -2.5911    18.5679    51.3776 </r>
       <r>    -2.5309    12.9081    52.1551 </r>
       <r>    -2.4706    23.1270    53.5477 </r>
       <r>    -2.4104    20.8307    54.8022 </r>
       <r>    -2.3502    25.6138    56.3444 </r>
       <r>    -2.2900    15.1862    57.2589 </r>
       <r>    -2.2298     8.3935    57.7643 </r>
       <r>    -2.1696    11.0384    58.4289 </r>
       <r>    -2.1094    10.3547    59.0524 </r>
       <r>    -2.0492    12.4098    59.7997 </r>
       <r>    -1.9890    11.1332    60.4701 </r>
       <r>    -1.9287    16.4549    61.4610 </r>
       <r>    -1.8685    21.4027    62.7496 </r>
       <r>    -1.8083    14.4792    63.6216 </r>
       <r>    -1.7481    12.3032    64.3624 </r>
       <r>    -1.6879    24.0881    65.8128 </r>
       <r>    -1.6277    16.4228    66.8016 </r>
       <r>    -1.5675    17.0326    67.8272 </r>
       <r>    -1.5073     7.4628    68.2769 </r>
       <r>    -1.4471    11.4167    68.9644 </r>
       <r>    -1.3869    15.9079    69.9222 </r>
       <r>    -1.3266    10.7042    70.5668 </r>
       <r>    -1.2664    23.7445    71.9965 </r>
       <r>    -1.2062    12.6399    72.7576 </r>
       <r>    -1.1460    15.3141    73.6797 </r>
       <r>    -1.0858    23.4304    75.0904 </r>
       <r>    -1.0256    14.6034    75.9697 </r>
       <r>    -0.9654    16.8407    76.9837 </r>
       <r>    -0.9052    12.5279    77.7381 </r>
       <r>    -0.8450    17.1422    78.7704 </r>
       <r>    -0.7847    15.8459    79.7248 </r>
       <r>    -0.7245    25.1701    81.2404 </r>
       <r>    -0.6643     6.9966    81.6618 </r>
       <r>    -0.6041    13.4090    82.4692 </r>
       <r>    -0.5439    18.6998    83.5951 </r>
       <r>    -0.4837     9.0064    84.1374 </r>
       <r>    -0.4235    13.1966    84.9320 </r>
       <r>    -0.3633    23.6016    86.3531 </r>
       <r>    -0.3031    17.5255    87.4085 </r>
       <r>    -0.2428    23.6896    88.8350 </r>
       <r>    -0.1826    24.0917    90.2856 </r>
       <r>    -0.1224    17.6866    91.3506 </r>
       <r>    -0.0622    26.1576    92.9256 </r>
       <r>    -0.0020    14.9580    93.8263 </r>
       <r>     0.0582    18.6396    94.9490 </r>
       <r>     0.1184    21.2269    96.2274 </r>
       <r>     0.1786    21.8220    97.5413 </r>
       <r>     0.2388    27.5109    99.1978 </r>
       <r>     0.2990    25.4929   100.7330 </r>
       <r>     0.3593    17.6054   101.7930 </r>
       <r>     0.4195    20.7279   103.0414 </r>
       <r>     0.4797    21.1919   104.3174 </r>
       <r>     0.5399    23.6007   105.7384 </r>
       <r>     0.6001    15.5419   106.6744 </r>
       <r>     0.6603    21.5172   107.9700 </r>
       <r>     0.7205    26.4943   109.5656 </r>
       <r>     0.7807    16.9585   110.5875 </r>
       <r>     0.8409    12.9047   111.3649 </r>
       <r>     0.9012    34.1410   113.4206 </r>
       <r>     0.9614    17.3138   114.4634 </r>
       <r>     1.0216    21.6343   115.7661 </r>
       <r>     1.0818    14.3054   116.6276 </r>
       <r>     1.1420    19.0603   117.7752 </r>
       <r>     1.2022    18.0463   118.8622 </r>
       <r>     1.2624    24.9053   120.3621 </r>
       <r>     1.3226    22.0856   121.6919 </r>
       <r>     1.3828    19.7474   122.8809 </r>
       <r>     1.4431    28.6208   124.6043 </r>
       <r>     1.5033    19.1688   125.7586 </r>
       <r>     1.5635    11.9338   126.4773 </r>
       <r>     1.6237    16.8247   127.4903 </r>
       <r>     1.6839    37.7919   129.7658 </r>
       <r>     1.7441    23.8123   131.1999 </r>
       <r>     1.8043    30.3341   133.0264 </r>
       <r>     1.8645    19.4364   134.1969 </r>
       <r>     1.9247    22.4290   135.5474 </r>
       <r>     1.9850    27.0132   137.1739 </r>
       <r>     2.0452    30.7248   139.0248 </r>
       <r>     2.1054    23.0034   140.4099 </r>
       <r>     2.1656    24.3445   141.8757 </r>
       <r>     2.2258    24.0927   143.3265 </r>
       <r>     2.2860    34.0162   145.3752 </r>
       <r>     2.3462    17.5022   146.4292 </r>
       <r>     2.4064     9.7989   147.0192 </r>
       <r>     2.4666    34.0874   149.0716 </r>
       <r>     2.5268    23.8248   150.5063 </r>
       <r>     2.5871    16.3410   151.4903 </r>
       <r>     2.6473    30.7382   153.3410 </r>
       <r>     2.7075    23.3716   154.7484 </r>
       <r>     2.7677    25.6205   156.2910 </r>
       <r>     2.8279    19.8536   157.4865 </r>
       <r>     2.8881    31.4252   159.3786 </r>
       <r>     2.9483    17.3992   160.4263 </r>
       <r>     3.0085    26.3666   162.0139 </r>
       <r>     3.0687    26.4176   163.6048 </r>
       <r>     3.1290    23.2665   165.0057 </r>
       <r>     3.1892    17.8466   166.0805 </r>
       <r>     3.2494    26.7035   167.6884 </r>
       <r>     3.3096    20.6562   168.9321 </r>
       <r>     3.3698    20.5586   170.1700 </r>
       <r>     3.4300    15.9921   171.1329 </r>
       <r>     3.4902    22.6284   172.4954 </r>
       <r>     3.5504    19.3457   173.6603 </r>
       <r>     3.6106    22.5222   175.0165 </r>
       <r>     3.6709    19.8687   176.2129 </r>
       <r>     3.7311    26.9676   177.8367 </r>
       <r>     3.7913    26.2745   179.4188 </r>
       <r>     3.8515    17.1562   180.4518 </r>
       <r>     3.9117    32.5079   182.4093 </r>
       <r>     3.9719    28.2301   184.1094 </r>
       <r>     4.0321    31.4494   186.0030 </r>
       <r>     4.0923    16.2216   186.9797 </r>
       <r>     4.1525    28.8389   188.7162 </r>
       <r>     4.2127    12.6155   189.4760 </r>
       <r>     4.2730    25.5401   191.0140 </r>
       <r>     4.3332    13.3403   191.8173 </r>
       <r>     4.3934    21.8261   193.1316 </r>
       <r>     4.4536    21.5059   194.4268 </r>
       <r>     4.5138    20.5453   195.6641 </r>
       <r>     4.5740    23.6004   197.0851 </r>
       <r>     4.6342    22.8042   198.4581 </r>
       <r>     4.6944    22.6359   199.8213 </r>
       <r>     4.7546    21.9428   201.1427 </r>
       <r>     4.8149    16.5091   202.1368 </r>
       <r>     4.8751    31.4631   204.0313 </r>
       <r>     4.9353    16.7393   205.0392 </r>
       <r>     4.9955    21.8067   206.3525 </r>
       <r>     5.0557    22.3547   207.6985 </r>
       <r>     5.1159    31.9594   209.6229 </r>
       <r>     5.1761    24.7171   211.1114 </r>
       <r>     5.2363    22.3507   212.4574 </r>
       <r>     5.2965    36.6213   214.6626 </r>
       <r>     5.3568    22.3776   216.0100 </r>
       <r>     5.4170    27.7976   217.6837 </r>
       <r>     5.4772    22.9077   219.0630 </r>
       <r>     5.5374    25.4143   220.5936 </r>
       <r>     5.5976    25.2773   222.1156 </r>
       <r>     5.6578    22.8180   223.4895 </r>
       <r>     5.7180    28.1021   225.1817 </r>
       <r>     5.7782    34.2245   227.2427 </r>
       <r>     5.8384    26.4568   228.8359 </r>
       <r>     5.8987    21.4109   230.1252 </r>
       <r>     5.9589    22.5980   231.4859 </r>
       <r>     6.0191    33.0809   233.4778 </r>
       <r>     6.0793    26.8537   235.0947 </r>
       <r>     6.1395    30.3398   236.9218 </r>
       <r>     6.1997    31.4754   238.8171 </r>
       <r>     6.2599    17.5919   239.8765 </r>
       <r>     6.3201    27.4012   241.5263 </r>
       <r>     6.3803    37.5065   243.7850 </r>
       <r>     6.4405    28.7844   245.5185 </r>
       <r>     6.5008    33.5835   247.5405 </r>
       <r>     6.5610    28.0199   249.2281 </r>
       <r>     6.6212    41.3619   251.7186 </r>
       <r>     6.6814    26.9176   253.3396 </r>
       <r>     6.7416    30.6334   255.1840 </r>
       <r>     6.8018    23.8681   256.6212 </r>
       <r>     6.8620    33.4981   258.6382 </r>
       <r>     6.9222    24.7697   260.1297 </r>
       <r>     6.9824    27.5088   261.7861 </r>
       <r>     7.0427    36.5656   263.9878 </r>
       <r>     7.1029    30.1934   265.8059 </r>
       <r>     7.1631    25.6032   267.3476 </r>
       <r>     7.2233    33.2035   269.3469 </r>
       <r>     7.2835    37.2006   271.5867 </r>
       <r>     7.3437    33.5136   273.6049 </r>
       <r>     7.4039    27.2247   275.2445 </r>
       <r>     7.4641    30.3467   277.0720 </r>
       <r>     7.5243    25.5739   278.6120 </r>
       <r>     7.5846    33.0761   280.6036 </r>
       <r>     7.6448    31.1052   282.4771 </r>
       <r>     7.7050    32.7146   284.4471 </r>
       <r>     7.7652    25.1001   285.9585 </r>
       <r>     7.8254    13.8254   286.7909 </r>
       <r>     7.8856    11.9388   287.5098 </r>
       <r>     7.9458     5.4196   287.8361 </r>
       <r>     8.0060     2.7218   288.0000 </r>
       <r>     8.0662     0.0000   288.0000 </r>
       <r>     8.1264     0.0000   288.0000 </r>
       <r>     8.1867     0.0000   288.0000 </r>
       <r>     8.2469     0.0000   288.0000 </r>
       <r>     8.3071     0.0000   288.0000 </r>
       <r>     8.3673     0.0000   288.0000 </r>
       <r>     8.4275     0.0000   288.0000 </r>
       <r>     8.4877     0.0000   288.0000 </r>
       <r>     8.5479     0.0000   288.0000 </r>
       <r>     8.6081     0.0000   288.0000 </r>
       <r>     8.6683     0.0000   288.0000 </r>
       <r>     8.7286     0.0000   288.0000 </r>
       <r>     8.7888     0.0000   288.0000 </r>
      </set>
     </set>
    </array>
   </total>
  </dos>
 </calculation>
 <structure name="finalpos" >
  <crystal>
   <varray name="basis" >
    <v>      13.30317974       0.00000000       0.00000000 </v>
    <v>       6.65158939      14.87340641       0.00000000 </v>
    <v>       0.00000000       0.00000000       6.66359377 </v>
   </varray>
   <i name="volume">   1318.48264430 </i>
   <varray name="rec_basis" >
    <v>       0.07517000      -0.03361704       0.00000000 </v>
    <v>       0.00000000       0.06723409       0.00000000 </v>
    <v>       0.00000000       0.00000000       0.15006917 </v>
   </varray>
  </crystal>
  <varray name="positions" >
   <v>       0.98290563       0.65811950       0.00000001 </v>
   <v>       0.78290558       0.55811930       0.18224537 </v>
   <v>       0.58290541       0.45811909       0.36449075 </v>
   <v>       0.98290563       0.32478613       0.00000001 </v>
   <v>       0.78290558       0.22478597       0.18224537 </v>
   <v>       0.58290541       0.12478580       0.36449075 </v>
   <v>       0.98290563       0.99145281       0.00000001 </v>
   <v>       0.78290558       0.89145267       0.18224537 </v>
   <v>       0.58290541       0.79145253       0.36449075 </v>
   <v>       0.63290566       0.69145268       0.09112249 </v>
   <v>       0.43290559       0.59145248       0.27336785 </v>
   <v>       0.23290552       0.49145243       0.45561323 </v>
   <v>       0.63290566       0.35811943       0.09112249 </v>
   <v>       0.43290559       0.25811928       0.27336785 </v>
   <v>       0.23290552       0.15811914       0.45561323 </v>
   <v>       0.63290566       0.02478614       0.09112249 </v>
   <v>       0.43290559       0.92478597       0.27336785 </v>
   <v>       0.23290552       0.82478583       0.45561323 </v>
   <v>       0.48290563       0.65811950       0.00000000 </v>
   <v>       0.28290555       0.55811930       0.18224537 </v>
   <v>       0.08290544       0.45811909       0.36449075 </v>
   <v>       0.48290563       0.32478613       0.00000000 </v>
   <v>       0.28290555       0.22478595       0.18224537 </v>
   <v>       0.08290544       0.12478581       0.36449075 </v>
   <v>       0.48290563       0.99145281       0.00000000 </v>
   <v>       0.28290555       0.89145267       0.18224537 </v>
   <v>       0.08290544       0.79145253       0.36449075 </v>
   <v>       0.13290568       0.69145274       0.09112252 </v>
   <v>       0.93290555       0.59145248       0.27336785 </v>
   <v>       0.73290551       0.49145240       0.45561323 </v>
   <v>       0.13290568       0.35811949       0.09112252 </v>
   <v>       0.93290555       0.25811928       0.27336785 </v>
   <v>       0.73290551       0.15811913       0.45561323 </v>
   <v>       0.13290568       0.02478614       0.09112252 </v>
   <v>       0.93290555       0.92478597       0.27336785 </v>
   <v>       0.73290551       0.82478583       0.45561323 </v>
   <v>       0.98717922       0.02564151       0.45561320 </v>
   <v>       0.83717918       0.32564157       0.67336804 </v>
   <v>       0.68717915       0.62564164       0.89112288 </v>
   <v>       0.48717925       0.02564151       0.45561320 </v>
   <v>       0.33717915       0.32564157       0.67336804 </v>
   <v>       0.18717913       0.62564164       0.89112288 </v>
   <v>       0.28717920       0.67564148       0.56449044 </v>
   <v>       0.13717918       0.97564149       0.78224522 </v>
   <v>       0.98717910       0.27564156       0.00000000 </v>
   <v>       0.78717935       0.67564148       0.56449044 </v>
   <v>       0.63717931       0.97564149       0.78224522 </v>
   <v>       0.48717925       0.27564156       0.00000000 </v>
   <v>       0.98717928       0.52564150       0.45561332 </v>
   <v>       0.83717918       0.82564151       0.67336804 </v>
   <v>       0.68717909       0.12564170       0.89112288 </v>
   <v>       0.48717925       0.52564150       0.45561332 </v>
   <v>       0.33717924       0.82564151       0.67336804 </v>
   <v>       0.18717912       0.12564170       0.89112288 </v>
   <v>       0.28717923       0.17564151       0.56449044 </v>
   <v>       0.13717917       0.47564155       0.78224522 </v>
   <v>       0.98717916       0.77564162       0.00000000 </v>
   <v>       0.78717929       0.17564151       0.56449044 </v>
   <v>       0.63717925       0.47564155       0.78224522 </v>
   <v>       0.48717916       0.77564162       0.00000000 </v>
  </varray>
 </structure>
</modeling>
