Si and Ge interface calculation         
           1
     8.001338    0.000000    0.000000
     0.000000   16.002676    0.000000
     0.000000    0.000000   13.264324
   Ge   Si
    48    24
Direct configuration=     1
   0.99145830  0.99572915  0.00000000
   0.74145830  0.87072915  0.21327132
   0.49145830  0.74572915  0.42654267
   0.99145824  0.49572909  0.00000000
   0.74145830  0.37072912  0.21327132
   0.49145830  0.24572912  0.42654267
   0.49145824  0.24572912  0.00000000
   0.24145827  0.12072913  0.21327132
   0.99145830  0.99572915  0.42654267
   0.49145824  0.74572909  0.00000000
   0.24145828  0.62072909  0.21327132
   0.99145824  0.49572909  0.42654267
   0.24145828  0.99572915  0.10663566
   0.99145830  0.87072915  0.31990701
   0.74145830  0.74572915  0.53317833
   0.24145824  0.49572909  0.10663566
   0.99145824  0.37072909  0.31990701
   0.74145824  0.24572909  0.53317833
   0.74145830  0.24572915  0.10663566
   0.49145830  0.12072915  0.31990701
   0.24145828  0.99572915  0.53317833
   0.74145830  0.74572909  0.10663566
   0.49145827  0.62072909  0.31990701
   0.24145827  0.49572912  0.53317833
   0.99145830  0.24572913  0.00000000
   0.74145830  0.12072913  0.21327132
   0.49145830  0.99572915  0.42654267
   0.49145827  0.99572915  0.00000000
   0.24145827  0.87072915  0.21327132
   0.99145830  0.74572915  0.42654267
   0.99145824  0.74572915  0.00000000
   0.74145830  0.62072915  0.21327132
   0.49145830  0.49572915  0.42654267
   0.49145827  0.49572912  0.00000000
   0.24145831  0.37072915  0.21327132
   0.99145830  0.24572915  0.42654267
   0.24145828  0.24572912  0.10663566
   0.99145830  0.12072913  0.31990701
   0.74145830  0.99572915  0.53317833
   0.74145824  0.99572915  0.10663566
   0.49145827  0.87072915  0.31990701
   0.24145825  0.74572909  0.53317833
   0.24145828  0.74572909  0.10663566
   0.99145830  0.62072909  0.31990701
   0.74145830  0.49572909  0.53317833
   0.74145824  0.49572909  0.10663566
   0.49145827  0.37072912  0.31990701
   0.24145825  0.24572909  0.53317833
   0.37389374  0.10081220  0.64595538
   0.12389374  0.71192324  0.69420886
   0.87389374  0.32303438  0.74246240
   0.62389368  0.93414533  0.79071581
   0.37389362  0.54525638  0.83896935
   0.12389350  0.15636706  0.88722277
   0.62389386  0.85081232  0.64595538
   0.37389374  0.46192327  0.69420886
   0.12389374  0.07303441  0.74246240
   0.87389362  0.68414533  0.79071587
   0.62389356  0.29525629  0.83896929
   0.37389350  0.90636718  0.88722289
   0.12389398  0.85081232  0.64595538
   0.87389380  0.46192324  0.69420886
   0.62389380  0.07303429  0.74246240
   0.37389374  0.68414533  0.79071587
   0.12389362  0.29525629  0.83896929
   0.87389356  0.90636718  0.88722283
   0.87389386  0.10081220  0.64595538
   0.62389374  0.71192324  0.69420886
   0.37389374  0.32303438  0.74246240
   0.12389374  0.93414533  0.79071581
   0.87389368  0.54525626  0.83896935
   0.62389344  0.15636730  0.88722289
