 168 168   0   0
  0.2743752E+02  0.1589523E-08  0.1946760E-08  0.2580094E-08  0.5000000E-15
  1.000000000000000E-004
  CAR 
 Si and Ge interface calculation         
      6.44699915     -9.84790231  301      3.46191781      1.00000000
     -9.848  0.0000E+00  0.0000E+00  0.0000E+00  0.0000E+00
     -9.794  0.0000E+00  0.0000E+00  0.0000E+00  0.0000E+00
     -9.739  0.0000E+00  0.0000E+00  0.0000E+00  0.0000E+00
     -9.685  0.0000E+00  0.0000E+00  0.0000E+00  0.0000E+00
     -9.631  0.0000E+00  0.0000E+00  0.0000E+00  0.0000E+00
     -9.576  0.0000E+00  0.0000E+00  0.0000E+00  0.0000E+00
     -9.522  0.0000E+00  0.0000E+00  0.0000E+00  0.0000E+00
     -9.468  0.0000E+00  0.0000E+00  0.0000E+00  0.0000E+00
     -9.413  0.0000E+00  0.0000E+00  0.0000E+00  0.0000E+00
     -9.359  0.0000E+00  0.0000E+00  0.0000E+00  0.0000E+00
     -9.305  0.0000E+00  0.0000E+00  0.0000E+00  0.0000E+00
     -9.250  0.0000E+00  0.0000E+00  0.0000E+00  0.0000E+00
     -9.196  0.0000E+00  0.0000E+00  0.0000E+00  0.0000E+00
     -9.142  0.2081E-05  0.3175E-07  0.1131E-06  0.1724E-08
     -9.087  0.4081E+01  0.4004E+01  0.2216E+00  0.2175E+00
     -9.033  0.8132E+01  0.7876E+01  0.6633E+00  0.6452E+00
     -8.979  0.8240E+01  0.8530E+01  0.1111E+01  0.1109E+01
     -8.925  0.1635E+02  0.1622E+02  0.1999E+01  0.1989E+01
     -8.870  0.7802E+01  0.6838E+01  0.2423E+01  0.2361E+01
     -8.816  0.5633E+00  0.1557E+01  0.2453E+01  0.2445E+01
     -8.762  0.2080E+02  0.2000E+02  0.3583E+01  0.3532E+01
     -8.707  0.1669E+02  0.1688E+02  0.4489E+01  0.4449E+01
     -8.653  0.2063E+02  0.1911E+02  0.5610E+01  0.5487E+01
     -8.599  0.2643E+02  0.2170E+02  0.7046E+01  0.6666E+01
     -8.544  0.2355E+02  0.2409E+02  0.8325E+01  0.7974E+01
     -8.490  0.2094E+02  0.2564E+02  0.9462E+01  0.9367E+01
     -8.436  0.3293E+02  0.3167E+02  0.1125E+02  0.1109E+02
     -8.381  0.2191E+02  0.2371E+02  0.1244E+02  0.1237E+02
     -8.327  0.3313E+02  0.3263E+02  0.1424E+02  0.1415E+02
     -8.273  0.2861E+02  0.2761E+02  0.1579E+02  0.1565E+02
     -8.218  0.3101E+02  0.3072E+02  0.1748E+02  0.1732E+02
     -8.164  0.2197E+02  0.2232E+02  0.1867E+02  0.1853E+02
     -8.110  0.2274E+02  0.2375E+02  0.1991E+02  0.1982E+02
     -8.055  0.4403E+02  0.4228E+02  0.2230E+02  0.2211E+02
     -8.001  0.2556E+02  0.2741E+02  0.2369E+02  0.2360E+02
     -7.947  0.1064E+02  0.1162E+02  0.2427E+02  0.2423E+02
     -7.893  0.1458E+02  0.1292E+02  0.2506E+02  0.2494E+02
     -7.838  0.2231E+02  0.2228E+02  0.2627E+02  0.2615E+02
     -7.784  0.2236E+02  0.2246E+02  0.2748E+02  0.2737E+02
     -7.730  0.2578E+02  0.2724E+02  0.2888E+02  0.2885E+02
     -7.675  0.1249E+02  0.1306E+02  0.2956E+02  0.2956E+02
     -7.621  0.3041E+02  0.2603E+02  0.3121E+02  0.3097E+02
     -7.567  0.4746E+02  0.4705E+02  0.3379E+02  0.3353E+02
     -7.512  0.3763E+02  0.3997E+02  0.3584E+02  0.3570E+02
     -7.458  0.3817E+02  0.3726E+02  0.3791E+02  0.3772E+02
     -7.404  0.3007E+02  0.3257E+02  0.3954E+02  0.3949E+02
     -7.349  0.2254E+02  0.1954E+02  0.4077E+02  0.4055E+02
     -7.295  0.1919E+02  0.2264E+02  0.4181E+02  0.4178E+02
     -7.241  0.3595E+02  0.2770E+02  0.4376E+02  0.4329E+02
     -7.186  0.3942E+02  0.4339E+02  0.4590E+02  0.4564E+02
     -7.132  0.4601E+02  0.4662E+02  0.4840E+02  0.4818E+02
     -7.078  0.4246E+02  0.4064E+02  0.5071E+02  0.5038E+02
     -7.023  0.6193E+02  0.5968E+02  0.5407E+02  0.5362E+02
     -6.969  0.3784E+02  0.3993E+02  0.5613E+02  0.5579E+02
     -6.915  0.2608E+02  0.3080E+02  0.5754E+02  0.5747E+02
     -6.861  0.4348E+02  0.4226E+02  0.5991E+02  0.5976E+02
     -6.806  0.3098E+02  0.3261E+02  0.6159E+02  0.6153E+02
     -6.752  0.4551E+02  0.3895E+02  0.6406E+02  0.6365E+02
     -6.698  0.5183E+02  0.5796E+02  0.6687E+02  0.6680E+02
     -6.643  0.3207E+02  0.2778E+02  0.6862E+02  0.6831E+02
     -6.589  0.6505E+02  0.6663E+02  0.7215E+02  0.7192E+02
     -6.535  0.4768E+02  0.4772E+02  0.7474E+02  0.7452E+02
     -6.480  0.3482E+02  0.3376E+02  0.7663E+02  0.7635E+02
     -6.426  0.3752E+02  0.3645E+02  0.7867E+02  0.7833E+02
     -6.372  0.3270E+02  0.3640E+02  0.8045E+02  0.8031E+02
     -6.317  0.6757E+02  0.6524E+02  0.8412E+02  0.8385E+02
     -6.263  0.2301E+02  0.2728E+02  0.8537E+02  0.8533E+02
     -6.209  0.5081E+02  0.4786E+02  0.8813E+02  0.8793E+02
     -6.154  0.6041E+02  0.6073E+02  0.9141E+02  0.9123E+02
     -6.100  0.5762E+02  0.5637E+02  0.9454E+02  0.9429E+02
     -6.046  0.4070E+02  0.4395E+02  0.9675E+02  0.9668E+02
     -5.991  0.3683E+02  0.3542E+02  0.9875E+02  0.9860E+02
     -5.937  0.6025E+02  0.5859E+02  0.1020E+03  0.1018E+03
     -5.883  0.3945E+02  0.4133E+02  0.1042E+03  0.1040E+03
     -5.828  0.4586E+02  0.4752E+02  0.1067E+03  0.1066E+03
     -5.774  0.3815E+02  0.3700E+02  0.1087E+03  0.1086E+03
     -5.720  0.1234E+02  0.1205E+02  0.1094E+03  0.1093E+03
     -5.666  0.2977E+02  0.2377E+02  0.1110E+03  0.1106E+03
     -5.611  0.2647E+02  0.3451E+02  0.1125E+03  0.1124E+03
     -5.557  0.2671E+02  0.1993E+02  0.1139E+03  0.1135E+03
     -5.503  0.5756E+02  0.6082E+02  0.1170E+03  0.1168E+03
     -5.448  0.6607E+02  0.6674E+02  0.1206E+03  0.1205E+03
     -5.394  0.3725E+02  0.3856E+02  0.1226E+03  0.1225E+03
     -5.340  0.7305E+02  0.7104E+02  0.1266E+03  0.1264E+03
     -5.285  0.5433E+02  0.5745E+02  0.1296E+03  0.1295E+03
     -5.231  0.3648E+02  0.3351E+02  0.1315E+03  0.1313E+03
     -5.177  0.6976E+02  0.6624E+02  0.1353E+03  0.1349E+03
     -5.122  0.4815E+02  0.4700E+02  0.1379E+03  0.1375E+03
     -5.068  0.7404E+02  0.7830E+02  0.1420E+03  0.1417E+03
     -5.014  0.4976E+02  0.5028E+02  0.1447E+03  0.1445E+03
     -4.959  0.3992E+02  0.3929E+02  0.1468E+03  0.1466E+03
     -4.905  0.2678E+02  0.2965E+02  0.1483E+03  0.1482E+03
     -4.851  0.6072E+02  0.5635E+02  0.1516E+03  0.1513E+03
     -4.796  0.5608E+02  0.5633E+02  0.1546E+03  0.1543E+03
     -4.742  0.6369E+02  0.6294E+02  0.1581E+03  0.1578E+03
     -4.688  0.6510E+02  0.6753E+02  0.1616E+03  0.1614E+03
     -4.634  0.3754E+02  0.3623E+02  0.1637E+03  0.1634E+03
     -4.579  0.4440E+02  0.4336E+02  0.1661E+03  0.1658E+03
     -4.525  0.4908E+02  0.5009E+02  0.1687E+03  0.1685E+03
     -4.471  0.5744E+02  0.5828E+02  0.1719E+03  0.1716E+03
     -4.416  0.4719E+02  0.4516E+02  0.1744E+03  0.1741E+03
     -4.362  0.6009E+02  0.5978E+02  0.1777E+03  0.1773E+03
     -4.308  0.5778E+02  0.5998E+02  0.1808E+03  0.1806E+03
     -4.253  0.4671E+02  0.4553E+02  0.1834E+03  0.1831E+03
     -4.199  0.2002E+02  0.2530E+02  0.1845E+03  0.1844E+03
     -4.145  0.4233E+02  0.3718E+02  0.1868E+03  0.1865E+03
     -4.090  0.5505E+02  0.4944E+02  0.1897E+03  0.1892E+03
     -4.036  0.5591E+02  0.6093E+02  0.1928E+03  0.1925E+03
     -3.982  0.6187E+02  0.6269E+02  0.1961E+03  0.1959E+03
     -3.927  0.5097E+02  0.5274E+02  0.1989E+03  0.1987E+03
     -3.873  0.5414E+02  0.4997E+02  0.2019E+03  0.2014E+03
     -3.819  0.6717E+02  0.6598E+02  0.2055E+03  0.2050E+03
     -3.764  0.5382E+02  0.6141E+02  0.2084E+03  0.2084E+03
     -3.710  0.3280E+02  0.2552E+02  0.2102E+03  0.2098E+03
     -3.656  0.4686E+02  0.4670E+02  0.2128E+03  0.2123E+03
     -3.602  0.5003E+02  0.5273E+02  0.2155E+03  0.2152E+03
     -3.547  0.5839E+02  0.6026E+02  0.2186E+03  0.2184E+03
     -3.493  0.5535E+02  0.5328E+02  0.2216E+03  0.2213E+03
     -3.439  0.2947E+02  0.2791E+02  0.2232E+03  0.2228E+03
     -3.384  0.5008E+02  0.5269E+02  0.2260E+03  0.2257E+03
     -3.330  0.5749E+02  0.6149E+02  0.2291E+03  0.2290E+03
     -3.276  0.4298E+02  0.3867E+02  0.2314E+03  0.2311E+03
     -3.221  0.4449E+02  0.4208E+02  0.2338E+03  0.2334E+03
     -3.167  0.7344E+02  0.7688E+02  0.2378E+03  0.2376E+03
     -3.113  0.3015E+02  0.3249E+02  0.2395E+03  0.2394E+03
     -3.058  0.3693E+02  0.3718E+02  0.2415E+03  0.2414E+03
     -3.004  0.3726E+02  0.3588E+02  0.2435E+03  0.2433E+03
     -2.950  0.4174E+02  0.3894E+02  0.2458E+03  0.2454E+03
     -2.895  0.3726E+02  0.4287E+02  0.2478E+03  0.2478E+03
     -2.841  0.3539E+02  0.3165E+02  0.2497E+03  0.2495E+03
     -2.787  0.5415E+02  0.5006E+02  0.2527E+03  0.2522E+03
     -2.732  0.2764E+02  0.3193E+02  0.2542E+03  0.2539E+03
     -2.678  0.7161E+02  0.6851E+02  0.2580E+03  0.2577E+03
     -2.624  0.7575E+02  0.7775E+02  0.2622E+03  0.2619E+03
     -2.570  0.5119E+02  0.5041E+02  0.2649E+03  0.2646E+03
     -2.515  0.6233E+02  0.6063E+02  0.2683E+03  0.2679E+03
     -2.461  0.3725E+02  0.4190E+02  0.2703E+03  0.2702E+03
     -2.407  0.6192E+02  0.6102E+02  0.2737E+03  0.2735E+03
     -2.352  0.2792E+02  0.2664E+02  0.2752E+03  0.2750E+03
     -2.298  0.6933E+02  0.6790E+02  0.2790E+03  0.2786E+03
     -2.244  0.4749E+02  0.5105E+02  0.2816E+03  0.2814E+03
     -2.189  0.3917E+02  0.3664E+02  0.2837E+03  0.2834E+03
     -2.135  0.3319E+02  0.3590E+02  0.2855E+03  0.2854E+03
     -2.081  0.1574E+02  0.1551E+02  0.2864E+03  0.2862E+03
     -2.026  0.2213E+02  0.2002E+02  0.2876E+03  0.2873E+03
     -1.972  0.2866E+02  0.3031E+02  0.2891E+03  0.2889E+03
     -1.918  0.3736E+02  0.3802E+02  0.2911E+03  0.2910E+03
     -1.863  0.6302E+02  0.6159E+02  0.2946E+03  0.2943E+03
     -1.809  0.3043E+02  0.3449E+02  0.2962E+03  0.2962E+03
     -1.755  0.1171E+02  0.7971E+01  0.2969E+03  0.2967E+03
     -1.700  0.2145E+02  0.2484E+02  0.2980E+03  0.2980E+03
     -1.646  0.6282E+02  0.5808E+02  0.3014E+03  0.3012E+03
     -1.592  0.4415E+02  0.4615E+02  0.3038E+03  0.3037E+03
     -1.538  0.2713E+02  0.2861E+02  0.3053E+03  0.3052E+03
     -1.483  0.1879E+02  0.1921E+02  0.3063E+03  0.3063E+03
     -1.429  0.2069E+02  0.1751E+02  0.3075E+03  0.3072E+03
     -1.375  0.3935E+02  0.4291E+02  0.3096E+03  0.3095E+03
     -1.320  0.3623E+02  0.3702E+02  0.3116E+03  0.3116E+03
     -1.266  0.1372E+02  0.9063E+01  0.3123E+03  0.3120E+03
     -1.212  0.2302E+02  0.2547E+02  0.3136E+03  0.3134E+03
     -1.157  0.2787E+02  0.2857E+02  0.3151E+03  0.3150E+03
     -1.103  0.9375E+01  0.1037E+02  0.3156E+03  0.3155E+03
     -1.049  0.1578E+02  0.1594E+02  0.3164E+03  0.3164E+03
     -0.994  0.1629E+02  0.1082E+02  0.3173E+03  0.3170E+03
     -0.940  0.3281E+02  0.3809E+02  0.3191E+03  0.3191E+03
     -0.886  0.1655E+02  0.1704E+02  0.3200E+03  0.3200E+03
     -0.831  0.1637E+02  0.1634E+02  0.3209E+03  0.3209E+03
     -0.777  0.1602E+00  0.1578E+00  0.3209E+03  0.3209E+03
     -0.723  0.4891E+02  0.4573E+02  0.3236E+03  0.3234E+03
     -0.668  0.2083E+02  0.2386E+02  0.3247E+03  0.3247E+03
     -0.614  0.4176E+02  0.3607E+02  0.3270E+03  0.3266E+03
     -0.560  0.6522E+02  0.6105E+02  0.3305E+03  0.3299E+03
     -0.505  0.6837E+02  0.7374E+02  0.3342E+03  0.3339E+03
     -0.451  0.5746E+02  0.5790E+02  0.3373E+03  0.3371E+03
     -0.397  0.4973E+02  0.4750E+02  0.3400E+03  0.3397E+03
     -0.343  0.7546E+02  0.7768E+02  0.3441E+03  0.3439E+03
     -0.288  0.7069E+02  0.6803E+02  0.3480E+03  0.3476E+03
     -0.234  0.7088E+02  0.7142E+02  0.3518E+03  0.3515E+03
     -0.180  0.1019E+03  0.1003E+03  0.3574E+03  0.3569E+03
     -0.125  0.5902E+02  0.5794E+02  0.3606E+03  0.3601E+03
     -0.071  0.4800E+02  0.5582E+02  0.3632E+03  0.3631E+03
     -0.017  0.8487E+02  0.7990E+02  0.3678E+03  0.3674E+03
      0.038  0.7253E+02  0.7417E+02  0.3717E+03  0.3715E+03
      0.092  0.6986E+02  0.6760E+02  0.3755E+03  0.3751E+03
      0.146  0.6783E+02  0.6332E+02  0.3792E+03  0.3786E+03
      0.201  0.9360E+02  0.9609E+02  0.3843E+03  0.3838E+03
      0.255  0.7341E+02  0.7587E+02  0.3883E+03  0.3879E+03
      0.309  0.7525E+02  0.7216E+02  0.3924E+03  0.3918E+03
      0.364  0.9850E+02  0.9909E+02  0.3977E+03  0.3972E+03
      0.418  0.1235E+03  0.1184E+03  0.4044E+03  0.4036E+03
      0.472  0.1207E+03  0.1234E+03  0.4110E+03  0.4104E+03
      0.527  0.8783E+02  0.9145E+02  0.4157E+03  0.4153E+03
      0.581  0.1249E+03  0.1219E+03  0.4225E+03  0.4219E+03
      0.635  0.1229E+03  0.1214E+03  0.4292E+03  0.4285E+03
      0.689  0.1090E+03  0.1099E+03  0.4351E+03  0.4345E+03
      0.744  0.1420E+03  0.1414E+03  0.4428E+03  0.4422E+03
      0.798  0.1116E+03  0.1130E+03  0.4489E+03  0.4483E+03
      0.852  0.1240E+03  0.1220E+03  0.4556E+03  0.4549E+03
      0.907  0.1176E+03  0.1148E+03  0.4620E+03  0.4612E+03
      0.961  0.7567E+02  0.7784E+02  0.4661E+03  0.4654E+03
      1.015  0.8201E+02  0.8375E+02  0.4706E+03  0.4700E+03
      1.070  0.9233E+02  0.9908E+02  0.4756E+03  0.4753E+03
      1.124  0.9537E+02  0.8379E+02  0.4808E+03  0.4799E+03
      1.178  0.1210E+03  0.1268E+03  0.4873E+03  0.4868E+03
      1.233  0.1152E+03  0.1170E+03  0.4936E+03  0.4931E+03
      1.287  0.1230E+03  0.1140E+03  0.5003E+03  0.4993E+03
      1.341  0.1351E+03  0.1341E+03  0.5076E+03  0.5066E+03
      1.396  0.1079E+03  0.1173E+03  0.5135E+03  0.5130E+03
      1.450  0.1104E+03  0.1088E+03  0.5195E+03  0.5189E+03
      1.504  0.1147E+03  0.1124E+03  0.5257E+03  0.5250E+03
      1.559  0.1231E+03  0.1237E+03  0.5324E+03  0.5317E+03
      1.613  0.9694E+02  0.9984E+02  0.5377E+03  0.5371E+03
      1.667  0.1127E+03  0.1107E+03  0.5438E+03  0.5432E+03
      1.721  0.1028E+03  0.1067E+03  0.5494E+03  0.5489E+03
      1.776  0.1105E+03  0.1075E+03  0.5554E+03  0.5548E+03
      1.830  0.1216E+03  0.1235E+03  0.5620E+03  0.5615E+03
      1.884  0.1070E+03  0.1082E+03  0.5678E+03  0.5674E+03
      1.939  0.9440E+02  0.9483E+02  0.5729E+03  0.5725E+03
      1.993  0.9227E+02  0.8858E+02  0.5779E+03  0.5773E+03
      2.047  0.8315E+02  0.8761E+02  0.5824E+03  0.5821E+03
      2.102  0.8907E+02  0.8856E+02  0.5873E+03  0.5869E+03
      2.156  0.8738E+02  0.8509E+02  0.5920E+03  0.5915E+03
      2.210  0.8720E+02  0.8997E+02  0.5968E+03  0.5964E+03
      2.265  0.9130E+02  0.9005E+02  0.6017E+03  0.6013E+03
      2.319  0.5535E+02  0.5416E+02  0.6047E+03  0.6042E+03
      2.373  0.6682E+02  0.6913E+02  0.6084E+03  0.6080E+03
      2.428  0.9614E+02  0.9391E+02  0.6136E+03  0.6131E+03
      2.482  0.7512E+02  0.7805E+02  0.6177E+03  0.6173E+03
      2.536  0.8353E+02  0.8589E+02  0.6222E+03  0.6220E+03
      2.591  0.9577E+02  0.9096E+02  0.6274E+03  0.6269E+03
      2.645  0.5536E+02  0.5461E+02  0.6304E+03  0.6299E+03
      2.699  0.5984E+02  0.6179E+02  0.6337E+03  0.6333E+03
      2.753  0.7583E+02  0.7533E+02  0.6378E+03  0.6374E+03
      2.808  0.7539E+02  0.7934E+02  0.6419E+03  0.6417E+03
      2.862  0.4884E+02  0.5030E+02  0.6445E+03  0.6444E+03
      2.916  0.7245E+02  0.6911E+02  0.6485E+03  0.6482E+03
      2.971  0.4393E+02  0.4287E+02  0.6508E+03  0.6505E+03
      3.025  0.4712E+02  0.5002E+02  0.6534E+03  0.6532E+03
      3.079  0.4283E+02  0.3570E+02  0.6557E+03  0.6551E+03
      3.134  0.3862E+02  0.4278E+02  0.6578E+03  0.6575E+03
      3.188  0.3587E+02  0.3445E+02  0.6598E+03  0.6593E+03
      3.242  0.3136E+02  0.3089E+02  0.6615E+03  0.6610E+03
      3.297  0.6259E+02  0.5893E+02  0.6649E+03  0.6642E+03
      3.351  0.5358E+02  0.5040E+02  0.6678E+03  0.6669E+03
      3.405  0.3635E+02  0.4772E+02  0.6698E+03  0.6695E+03
      3.460  0.3105E+02  0.2353E+02  0.6714E+03  0.6708E+03
      3.514  0.1804E+02  0.2477E+02  0.6724E+03  0.6722E+03
      3.568  0.2415E+02  0.2489E+02  0.6737E+03  0.6735E+03
      3.623  0.2842E+02  0.2778E+02  0.6753E+03  0.6750E+03
      3.677  0.4540E+02  0.4640E+02  0.6777E+03  0.6775E+03
      3.731  0.4180E+02  0.3247E+02  0.6800E+03  0.6793E+03
      3.785  0.4423E+02  0.5210E+02  0.6824E+03  0.6821E+03
      3.840  0.9745E+01  0.1128E+02  0.6829E+03  0.6827E+03
      3.894  0.1808E+02  0.1768E+02  0.6839E+03  0.6837E+03
      3.948  0.1189E+02  0.1436E+02  0.6846E+03  0.6845E+03
      4.003  0.2597E+02  0.2562E+02  0.6860E+03  0.6859E+03
      4.057  0.7832E+01  0.8161E+01  0.6864E+03  0.6863E+03
      4.111  0.1292E+02  0.1414E+02  0.6871E+03  0.6871E+03
      4.166  0.2631E+02  0.2477E+02  0.6885E+03  0.6884E+03
      4.220  0.4991E+02  0.4410E+02  0.6913E+03  0.6908E+03
      4.274  0.3501E+02  0.3996E+02  0.6932E+03  0.6930E+03
      4.329  0.3200E+02  0.2968E+02  0.6949E+03  0.6946E+03
      4.383  0.3211E+02  0.3125E+02  0.6966E+03  0.6963E+03
      4.437  0.4628E+02  0.4953E+02  0.6992E+03  0.6990E+03
      4.492  0.5543E+02  0.5201E+02  0.7022E+03  0.7018E+03
      4.546  0.4306E+02  0.4682E+02  0.7045E+03  0.7044E+03
      4.600  0.6482E+02  0.6102E+02  0.7080E+03  0.7077E+03
      4.655  0.7075E+02  0.7247E+02  0.7119E+03  0.7116E+03
      4.709  0.5102E+02  0.5139E+02  0.7146E+03  0.7144E+03
      4.763  0.8772E+02  0.9026E+02  0.7194E+03  0.7193E+03
      4.818  0.7474E+02  0.7126E+02  0.7235E+03  0.7232E+03
      4.872  0.7720E+02  0.7791E+02  0.7277E+03  0.7274E+03
      4.926  0.7312E+02  0.7172E+02  0.7316E+03  0.7313E+03
      4.980  0.9433E+02  0.9775E+02  0.7367E+03  0.7366E+03
      5.035  0.9577E+02  0.8825E+02  0.7420E+03  0.7414E+03
      5.089  0.9765E+02  0.1025E+03  0.7473E+03  0.7470E+03
      5.143  0.1055E+03  0.1015E+03  0.7530E+03  0.7525E+03
      5.198  0.1058E+03  0.1092E+03  0.7587E+03  0.7584E+03
      5.252  0.1162E+03  0.1145E+03  0.7650E+03  0.7646E+03
      5.306  0.9618E+02  0.9424E+02  0.7703E+03  0.7698E+03
      5.361  0.9516E+02  0.9497E+02  0.7754E+03  0.7749E+03
      5.415  0.1179E+03  0.1176E+03  0.7818E+03  0.7813E+03
      5.469  0.9894E+02  0.9986E+02  0.7872E+03  0.7867E+03
      5.524  0.1224E+03  0.1219E+03  0.7939E+03  0.7934E+03
      5.578  0.9332E+02  0.9298E+02  0.7989E+03  0.7984E+03
      5.632  0.1011E+03  0.9869E+02  0.8044E+03  0.8038E+03
      5.687  0.5709E+02  0.5341E+02  0.8075E+03  0.8067E+03
      5.741  0.8779E+01  0.2461E+02  0.8080E+03  0.8080E+03
      5.795  0.0000E+00  0.0000E+00  0.8080E+03  0.8080E+03
      5.850  0.0000E+00  0.0000E+00  0.8080E+03  0.8080E+03
      5.904  0.0000E+00  0.0000E+00  0.8080E+03  0.8080E+03
      5.958  0.0000E+00  0.0000E+00  0.8080E+03  0.8080E+03
      6.012  0.0000E+00  0.0000E+00  0.8080E+03  0.8080E+03
      6.067  0.0000E+00  0.0000E+00  0.8080E+03  0.8080E+03
      6.121  0.0000E+00  0.0000E+00  0.8080E+03  0.8080E+03
      6.175  0.0000E+00  0.0000E+00  0.8080E+03  0.8080E+03
      6.230  0.0000E+00  0.0000E+00  0.8080E+03  0.8080E+03
      6.284  0.0000E+00  0.0000E+00  0.8080E+03  0.8080E+03
      6.338  0.0000E+00  0.0000E+00  0.8080E+03  0.8080E+03
      6.393  0.0000E+00  0.0000E+00  0.8080E+03  0.8080E+03
      6.447  0.0000E+00  0.0000E+00  0.8080E+03  0.8080E+03
