 168 168   0   0
  0.2680331E+02  0.1600268E-08  0.1600268E-08  0.2030401E-08  0.5000000E-15
  1.000000000000000E-004
  CAR 
 Si and Ge interface calculation         
      6.61471820     -9.48787462  301      3.63473885      1.00000000
     -9.488  0.0000E+00  0.0000E+00  0.0000E+00  0.0000E+00
     -9.434  0.0000E+00  0.0000E+00  0.0000E+00  0.0000E+00
     -9.381  0.0000E+00  0.0000E+00  0.0000E+00  0.0000E+00
     -9.327  0.0000E+00  0.0000E+00  0.0000E+00  0.0000E+00
     -9.273  0.0000E+00  0.0000E+00  0.0000E+00  0.0000E+00
     -9.219  0.0000E+00  0.0000E+00  0.0000E+00  0.0000E+00
     -9.166  0.0000E+00  0.0000E+00  0.0000E+00  0.0000E+00
     -9.112  0.0000E+00  0.0000E+00  0.0000E+00  0.0000E+00
     -9.058  0.0000E+00  0.0000E+00  0.0000E+00  0.0000E+00
     -9.005  0.0000E+00  0.0000E+00  0.0000E+00  0.0000E+00
     -8.951  0.0000E+00  0.0000E+00  0.0000E+00  0.0000E+00
     -8.897  0.0000E+00  0.0000E+00  0.0000E+00  0.0000E+00
     -8.844  0.0000E+00  0.0000E+00  0.0000E+00  0.0000E+00
     -8.790  0.5785E-05  0.1339E-06  0.3105E-06  0.7189E-08
     -8.736  0.9287E+01  0.9123E+01  0.4985E+00  0.4897E+00
     -8.683  0.2856E-01  0.1923E+00  0.5000E+00  0.5000E+00
     -8.629  0.2559E-07  0.2548E-09  0.5000E+00  0.5000E+00
     -8.575  0.5191E+02  0.4355E+02  0.3286E+01  0.2838E+01
     -8.522  0.3986E+01  0.1234E+02  0.3500E+01  0.3500E+01
     -8.468  0.0000E+00  0.0000E+00  0.3500E+01  0.3500E+01
     -8.414  0.0000E+00  0.0000E+00  0.3500E+01  0.3500E+01
     -8.361  0.9206E-02  0.4122E-03  0.3500E+01  0.3500E+01
     -8.307  0.9306E+01  0.9314E+01  0.4000E+01  0.4000E+01
     -8.253  0.2206E+02  0.9533E+01  0.5184E+01  0.4512E+01
     -8.200  0.3383E+02  0.4636E+02  0.7000E+01  0.7000E+01
     -8.146  0.5582E+02  0.5510E+02  0.9996E+01  0.9958E+01
     -8.092  0.2555E+02  0.2221E+02  0.1137E+02  0.1115E+02
     -8.039  0.3041E+02  0.3447E+02  0.1300E+02  0.1300E+02
     -7.985  0.0000E+00  0.0000E+00  0.1300E+02  0.1300E+02
     -7.931  0.0000E+00  0.0000E+00  0.1300E+02  0.1300E+02
     -7.878  0.1858E-07  0.1023E-09  0.1300E+02  0.1300E+02
     -7.824  0.5129E+02  0.4082E+02  0.1575E+02  0.1519E+02
     -7.770  0.4605E+01  0.1507E+02  0.1600E+02  0.1600E+02
     -7.717  0.2450E-03  0.2580E-04  0.1600E+02  0.1600E+02
     -7.663  0.2843E+02  0.2754E+02  0.1753E+02  0.1748E+02
     -7.609  0.8321E+02  0.7872E+02  0.2199E+02  0.2170E+02
     -7.556  0.5604E+02  0.6141E+02  0.2500E+02  0.2500E+02
     -7.502  0.8297E+01  0.7079E+01  0.2545E+02  0.2538E+02
     -7.448  0.1018E+01  0.2236E+01  0.2550E+02  0.2550E+02
     -7.395  0.2274E-08  0.9430E-10  0.2550E+02  0.2550E+02
     -7.341  0.4045E+02  0.3149E+02  0.2767E+02  0.2719E+02
     -7.287  0.7133E+02  0.8028E+02  0.3150E+02  0.3150E+02
     -7.234  0.7928E-01  0.2138E-01  0.3150E+02  0.3150E+02
     -7.180  0.6427E+02  0.5730E+02  0.3495E+02  0.3458E+02
     -7.126  0.4743E+02  0.5446E+02  0.3750E+02  0.3750E+02
     -7.072  0.0000E+00  0.0000E+00  0.3750E+02  0.3750E+02
     -7.019  0.1145E+00  0.1348E-01  0.3751E+02  0.3750E+02
     -6.965  0.5578E+02  0.5586E+02  0.4050E+02  0.4050E+02
     -6.911  0.8243E+02  0.7833E+02  0.4492E+02  0.4470E+02
     -6.858  0.2788E+02  0.2200E+02  0.4642E+02  0.4588E+02
     -6.804  0.9008E+02  0.9596E+02  0.5126E+02  0.5104E+02
     -6.750  0.3279E+02  0.3188E+02  0.5302E+02  0.5275E+02
     -6.697  0.6491E+02  0.6994E+02  0.5650E+02  0.5650E+02
     -6.643  0.8098E+01  0.5170E+01  0.5693E+02  0.5678E+02
     -6.589  0.1463E+02  0.1234E+02  0.5772E+02  0.5744E+02
     -6.536  0.3232E+02  0.3124E+02  0.5945E+02  0.5912E+02
     -6.482  0.4638E+02  0.5088E+02  0.6194E+02  0.6185E+02
     -6.428  0.1980E+02  0.2115E+02  0.6301E+02  0.6298E+02
     -6.375  0.9396E+02  0.8610E+02  0.6805E+02  0.6760E+02
     -6.321  0.1129E+03  0.1025E+03  0.7411E+02  0.7310E+02
     -6.267  0.4455E+02  0.6327E+02  0.7650E+02  0.7650E+02
     -6.214  0.2152E+02  0.1377E+02  0.7766E+02  0.7724E+02
     -6.160  0.4378E+02  0.5146E+02  0.8001E+02  0.8000E+02
     -6.106  0.4578E+01  0.4636E+01  0.8025E+02  0.8025E+02
     -6.053  0.7668E+02  0.7088E+02  0.8437E+02  0.8405E+02
     -5.999  0.7657E+01  0.1311E+02  0.8478E+02  0.8476E+02
     -5.945  0.1056E+03  0.8465E+02  0.9045E+02  0.8930E+02
     -5.892  0.2444E+02  0.4564E+02  0.9176E+02  0.9175E+02
     -5.838  0.3208E+02  0.2886E+02  0.9348E+02  0.9330E+02
     -5.784  0.7983E+02  0.7273E+02  0.9776E+02  0.9720E+02
     -5.731  0.6027E+02  0.7071E+02  0.1010E+03  0.1010E+03
     -5.677  0.2162E+02  0.1532E+02  0.1022E+03  0.1018E+03
     -5.623  0.6330E+01  0.1263E+02  0.1025E+03  0.1025E+03
     -5.570  0.8074E+01  0.2569E+01  0.1029E+03  0.1026E+03
     -5.516  0.8549E+02  0.7655E+02  0.1075E+03  0.1067E+03
     -5.462  0.6884E+02  0.7386E+02  0.1112E+03  0.1107E+03
     -5.409  0.6723E+02  0.7039E+02  0.1148E+03  0.1145E+03
     -5.355  0.2207E+02  0.2298E+02  0.1160E+03  0.1157E+03
     -5.301  0.8024E+02  0.7395E+02  0.1203E+03  0.1197E+03
     -5.248  0.5424E+02  0.6346E+02  0.1232E+03  0.1231E+03
     -5.194  0.2376E+02  0.2614E+02  0.1245E+03  0.1245E+03
     -5.140  0.5581E+02  0.5490E+02  0.1275E+03  0.1274E+03
     -5.086  0.5688E+02  0.5465E+02  0.1306E+03  0.1304E+03
     -5.033  0.3812E+02  0.3820E+02  0.1326E+03  0.1324E+03
     -4.979  0.8227E+02  0.7196E+02  0.1370E+03  0.1363E+03
     -4.925  0.5957E+02  0.6583E+02  0.1402E+03  0.1398E+03
     -4.872  0.6549E+02  0.6365E+02  0.1437E+03  0.1432E+03
     -4.818  0.7124E+02  0.7486E+02  0.1476E+03  0.1473E+03
     -4.764  0.8950E+02  0.9202E+02  0.1524E+03  0.1522E+03
     -4.711  0.4185E+02  0.3711E+02  0.1546E+03  0.1542E+03
     -4.657  0.2685E+02  0.3381E+02  0.1560E+03  0.1560E+03
     -4.603  0.4112E+02  0.4174E+02  0.1583E+03  0.1582E+03
     -4.550  0.3757E+02  0.3341E+02  0.1603E+03  0.1600E+03
     -4.496  0.2385E+02  0.2580E+02  0.1615E+03  0.1614E+03
     -4.442  0.2652E+02  0.2554E+02  0.1630E+03  0.1628E+03
     -4.389  0.5045E+02  0.4539E+02  0.1657E+03  0.1652E+03
     -4.335  0.9400E+02  0.9821E+02  0.1707E+03  0.1705E+03
     -4.281  0.3661E+02  0.3347E+02  0.1727E+03  0.1723E+03
     -4.228  0.4846E+02  0.5189E+02  0.1753E+03  0.1751E+03
     -4.174  0.3187E+02  0.3565E+02  0.1770E+03  0.1770E+03
     -4.120  0.3109E+02  0.2403E+02  0.1787E+03  0.1783E+03
     -4.067  0.6526E+02  0.6230E+02  0.1822E+03  0.1816E+03
     -4.013  0.1544E+02  0.2545E+02  0.1830E+03  0.1830E+03
     -3.959  0.1400E+02  0.1383E+02  0.1838E+03  0.1837E+03
     -3.906  0.2889E+02  0.2792E+02  0.1853E+03  0.1852E+03
     -3.852  0.5988E+02  0.5782E+02  0.1885E+03  0.1883E+03
     -3.798  0.5983E+02  0.6043E+02  0.1917E+03  0.1916E+03
     -3.745  0.5585E+02  0.5052E+02  0.1947E+03  0.1943E+03
     -3.691  0.5960E+02  0.6155E+02  0.1979E+03  0.1976E+03
     -3.637  0.7153E+02  0.6542E+02  0.2018E+03  0.2011E+03
     -3.584  0.9053E+01  0.2114E+02  0.2023E+03  0.2023E+03
     -3.530  0.6140E+02  0.5107E+02  0.2055E+03  0.2050E+03
     -3.476  0.6281E+02  0.6899E+02  0.2089E+03  0.2087E+03
     -3.423  0.5738E+02  0.6128E+02  0.2120E+03  0.2120E+03
     -3.369  0.6451E+01  0.3212E+01  0.2123E+03  0.2122E+03
     -3.315  0.4950E+02  0.5299E+02  0.2150E+03  0.2150E+03
     -3.262  0.2004E+02  0.1583E+02  0.2161E+03  0.2158E+03
     -3.208  0.8880E+02  0.9204E+02  0.2208E+03  0.2208E+03
     -3.154  0.1088E+03  0.9814E+02  0.2267E+03  0.2261E+03
     -3.101  0.2918E+02  0.4069E+02  0.2282E+03  0.2282E+03
     -3.047  0.4435E+02  0.3162E+02  0.2306E+03  0.2299E+03
     -2.993  0.7291E+02  0.8425E+02  0.2345E+03  0.2345E+03
     -2.939  0.7572E+02  0.7558E+02  0.2386E+03  0.2385E+03
     -2.886  0.9111E+02  0.9254E+02  0.2435E+03  0.2435E+03
     -2.832  0.2793E+02  0.2770E+02  0.2450E+03  0.2450E+03
     -2.778  0.4652E+02  0.3932E+02  0.2475E+03  0.2471E+03
     -2.725  0.8880E+02  0.8633E+02  0.2523E+03  0.2517E+03
     -2.671  0.3599E+02  0.4063E+02  0.2542E+03  0.2539E+03
     -2.617  0.3835E+02  0.4384E+02  0.2562E+03  0.2562E+03
     -2.564  0.8887E-02  0.1039E-02  0.2563E+03  0.2563E+03
     -2.510  0.8291E+02  0.8100E+02  0.2607E+03  0.2606E+03
     -2.456  0.2915E+02  0.2999E+02  0.2623E+03  0.2622E+03
     -2.403  0.6852E+02  0.6349E+02  0.2659E+03  0.2656E+03
     -2.349  0.6145E+02  0.5551E+02  0.2692E+03  0.2686E+03
     -2.295  0.1061E+03  0.1095E+03  0.2749E+03  0.2745E+03
     -2.242  0.6055E+01  0.1453E+02  0.2753E+03  0.2753E+03
     -2.188  0.5566E+02  0.5576E+02  0.2783E+03  0.2782E+03
     -2.134  0.2790E+02  0.2794E+02  0.2797E+03  0.2797E+03
     -2.081  0.1171E+02  0.9955E+01  0.2804E+03  0.2803E+03
     -2.027  0.3022E+02  0.3205E+02  0.2820E+03  0.2820E+03
     -1.973  0.3976E+01  0.1506E+01  0.2822E+03  0.2821E+03
     -1.920  0.5259E+02  0.5444E+02  0.2850E+03  0.2850E+03
     -1.866  0.4796E+02  0.4307E+02  0.2876E+03  0.2873E+03
     -1.812  0.4917E+02  0.5469E+02  0.2903E+03  0.2902E+03
     -1.759  0.5533E+02  0.5352E+02  0.2932E+03  0.2931E+03
     -1.705  0.1694E+01  0.2654E+01  0.2933E+03  0.2933E+03
     -1.651  0.8210E+02  0.6144E+02  0.2977E+03  0.2966E+03
     -1.598  0.6806E+02  0.8534E+02  0.3014E+03  0.3011E+03
     -1.544  0.6277E+02  0.6662E+02  0.3047E+03  0.3047E+03
     -1.490  0.4833E+01  0.5222E+01  0.3050E+03  0.3050E+03
     -1.437  0.1485E+02  0.1048E+02  0.3058E+03  0.3056E+03
     -1.383  0.2705E+02  0.3132E+02  0.3072E+03  0.3072E+03
     -1.329  0.2311E-01  0.1176E+00  0.3072E+03  0.3072E+03
     -1.276  0.4601E+00  0.2505E-01  0.3073E+03  0.3073E+03
     -1.222  0.2823E+02  0.2812E+02  0.3088E+03  0.3088E+03
     -1.168  0.2720E+02  0.2775E+02  0.3102E+03  0.3102E+03
     -1.115  0.3558E-12  0.5171E-15  0.3102E+03  0.3102E+03
     -1.061  0.1361E+02  0.5848E+01  0.3110E+03  0.3106E+03
     -1.007  0.1434E+02  0.2210E+02  0.3117E+03  0.3117E+03
     -0.954  0.0000E+00  0.0000E+00  0.3118E+03  0.3118E+03
     -0.900  0.3960E-04  0.2510E-05  0.3118E+03  0.3118E+03
     -0.846  0.2340E+02  0.1945E+02  0.3130E+03  0.3128E+03
     -0.792  0.4381E+02  0.4213E+02  0.3154E+03  0.3151E+03
     -0.739  0.2968E+02  0.3403E+02  0.3170E+03  0.3169E+03
     -0.685  0.3334E+02  0.2761E+02  0.3187E+03  0.3184E+03
     -0.631  0.5956E+02  0.6083E+02  0.3219E+03  0.3216E+03
     -0.578  0.3124E+02  0.3068E+02  0.3236E+03  0.3233E+03
     -0.524  0.2539E+01  0.8837E+01  0.3238E+03  0.3238E+03
     -0.470  0.0000E+00  0.0000E+00  0.3238E+03  0.3238E+03
     -0.417  0.2781E+00  0.8696E-01  0.3238E+03  0.3238E+03
     -0.363  0.1420E+02  0.8788E+01  0.3245E+03  0.3242E+03
     -0.309  0.5076E+02  0.5632E+02  0.3273E+03  0.3272E+03
     -0.256  0.1361E+03  0.1181E+03  0.3346E+03  0.3336E+03
     -0.202  0.1062E+03  0.1177E+03  0.3403E+03  0.3399E+03
     -0.148  0.4133E+02  0.3331E+02  0.3425E+03  0.3417E+03
     -0.095  0.1025E+03  0.1101E+03  0.3480E+03  0.3476E+03
     -0.041  0.8786E+02  0.8920E+02  0.3527E+03  0.3524E+03
      0.013  0.1185E+03  0.1116E+03  0.3591E+03  0.3584E+03
      0.066  0.3364E+02  0.4396E+02  0.3609E+03  0.3607E+03
      0.120  0.3431E+02  0.3119E+02  0.3627E+03  0.3624E+03
      0.174  0.5305E+02  0.5169E+02  0.3655E+03  0.3652E+03
      0.227  0.1524E+03  0.1373E+03  0.3737E+03  0.3726E+03
      0.281  0.1063E+03  0.1218E+03  0.3794E+03  0.3791E+03
      0.335  0.1259E+03  0.1189E+03  0.3862E+03  0.3855E+03
      0.388  0.6888E+02  0.7218E+02  0.3899E+03  0.3894E+03
      0.442  0.1102E+03  0.1040E+03  0.3958E+03  0.3949E+03
      0.496  0.9293E+02  0.1075E+03  0.4008E+03  0.4007E+03
      0.549  0.4340E+02  0.4318E+02  0.4031E+03  0.4030E+03
      0.603  0.8015E+02  0.7627E+02  0.4074E+03  0.4071E+03
      0.657  0.3752E+02  0.3515E+02  0.4094E+03  0.4090E+03
      0.710  0.4678E+02  0.5170E+02  0.4119E+03  0.4118E+03
      0.764  0.1245E+03  0.1154E+03  0.4186E+03  0.4180E+03
      0.818  0.1229E+03  0.1172E+03  0.4252E+03  0.4243E+03
      0.871  0.1033E+03  0.1145E+03  0.4308E+03  0.4304E+03
      0.925  0.1775E+03  0.1731E+03  0.4403E+03  0.4397E+03
      0.979  0.1243E+03  0.1227E+03  0.4470E+03  0.4463E+03
      1.032  0.1116E+03  0.1141E+03  0.4530E+03  0.4524E+03
      1.086  0.8023E+02  0.8529E+02  0.4573E+03  0.4570E+03
      1.140  0.1507E+03  0.1464E+03  0.4654E+03  0.4649E+03
      1.194  0.9829E+02  0.8371E+02  0.4706E+03  0.4693E+03
      1.247  0.1033E+03  0.1224E+03  0.4762E+03  0.4759E+03
      1.301  0.1135E+03  0.1090E+03  0.4823E+03  0.4818E+03
      1.355  0.1015E+03  0.9924E+02  0.4877E+03  0.4871E+03
      1.408  0.1193E+03  0.1192E+03  0.4941E+03  0.4935E+03
      1.462  0.6215E+02  0.6821E+02  0.4975E+03  0.4972E+03
      1.516  0.1836E+03  0.1681E+03  0.5073E+03  0.5062E+03
      1.569  0.1217E+03  0.1381E+03  0.5138E+03  0.5136E+03
      1.623  0.1322E+03  0.1204E+03  0.5209E+03  0.5200E+03
      1.677  0.7188E+02  0.8772E+02  0.5248E+03  0.5248E+03
      1.730  0.1556E+03  0.1427E+03  0.5332E+03  0.5324E+03
      1.784  0.1030E+03  0.1045E+03  0.5387E+03  0.5380E+03
      1.838  0.8230E+02  0.8644E+02  0.5431E+03  0.5427E+03
      1.891  0.8137E+02  0.8484E+02  0.5475E+03  0.5472E+03
      1.945  0.9006E+02  0.8826E+02  0.5523E+03  0.5520E+03
      1.999  0.8376E+02  0.8186E+02  0.5568E+03  0.5564E+03
      2.052  0.6622E+02  0.6484E+02  0.5604E+03  0.5598E+03
      2.106  0.9706E+02  0.9271E+02  0.5656E+03  0.5648E+03
      2.160  0.1472E+03  0.1550E+03  0.5735E+03  0.5731E+03
      2.213  0.1031E+03  0.9480E+02  0.5790E+03  0.5782E+03
      2.267  0.8313E+02  0.8639E+02  0.5835E+03  0.5829E+03
      2.321  0.7702E+02  0.8481E+02  0.5876E+03  0.5874E+03
      2.374  0.5328E+02  0.5139E+02  0.5905E+03  0.5902E+03
      2.428  0.1048E+03  0.1052E+03  0.5961E+03  0.5958E+03
      2.482  0.5385E+02  0.5538E+02  0.5990E+03  0.5988E+03
      2.535  0.8149E+02  0.8053E+02  0.6033E+03  0.6031E+03
      2.589  0.4202E+02  0.4333E+02  0.6056E+03  0.6054E+03
      2.643  0.9164E+02  0.9089E+02  0.6105E+03  0.6103E+03
      2.696  0.1279E+03  0.1256E+03  0.6174E+03  0.6171E+03
      2.750  0.5735E+02  0.5125E+02  0.6205E+03  0.6198E+03
      2.804  0.1044E+03  0.1032E+03  0.6261E+03  0.6253E+03
      2.857  0.5793E+02  0.6238E+02  0.6292E+03  0.6287E+03
      2.911  0.5527E+02  0.6189E+02  0.6321E+03  0.6320E+03
      2.965  0.1192E+02  0.1382E+02  0.6328E+03  0.6328E+03
      3.018  0.8896E+02  0.7239E+02  0.6376E+03  0.6366E+03
      3.072  0.3630E+02  0.5322E+02  0.6395E+03  0.6395E+03
      3.126  0.3283E+02  0.2545E+02  0.6413E+03  0.6409E+03
      3.179  0.1092E+03  0.1113E+03  0.6471E+03  0.6468E+03
      3.233  0.5002E+02  0.5345E+02  0.6498E+03  0.6497E+03
      3.287  0.4743E+02  0.3824E+02  0.6524E+03  0.6518E+03
      3.341  0.8316E+02  0.5699E+02  0.6568E+03  0.6548E+03
      3.394  0.4571E+02  0.7896E+02  0.6593E+03  0.6591E+03
      3.448  0.5158E+02  0.5000E+02  0.6620E+03  0.6617E+03
      3.502  0.4178E+02  0.4228E+02  0.6643E+03  0.6640E+03
      3.555  0.4114E+02  0.2364E+02  0.6665E+03  0.6653E+03
      3.609  0.7176E+02  0.7208E+02  0.6703E+03  0.6691E+03
      3.663  0.4036E+02  0.6122E+02  0.6725E+03  0.6724E+03
      3.716  0.4162E+02  0.3738E+02  0.6747E+03  0.6744E+03
      3.770  0.2813E+02  0.7053E+01  0.6763E+03  0.6748E+03
      3.824  0.1848E+02  0.4519E+02  0.6772E+03  0.6772E+03
      3.877  0.3067E+02  0.1464E+02  0.6789E+03  0.6780E+03
      3.931  0.2004E+01  0.1810E+02  0.6790E+03  0.6790E+03
      3.985  0.1636E+02  0.1293E+02  0.6799E+03  0.6797E+03
      4.038  0.5344E+02  0.5679E+02  0.6827E+03  0.6827E+03
      4.092  0.2015E+02  0.1157E+02  0.6838E+03  0.6834E+03
      4.146  0.6537E+02  0.5988E+02  0.6873E+03  0.6866E+03
      4.199  0.4956E+02  0.6374E+02  0.6900E+03  0.6900E+03
      4.253  0.2627E+02  0.1748E+02  0.6914E+03  0.6909E+03
      4.307  0.5795E+02  0.6350E+02  0.6945E+03  0.6943E+03
      4.360  0.2820E+02  0.2717E+02  0.6960E+03  0.6958E+03
      4.414  0.4095E+02  0.4431E+02  0.6982E+03  0.6982E+03
      4.468  0.1452E+02  0.1041E+02  0.6990E+03  0.6987E+03
      4.521  0.8683E+02  0.7936E+02  0.7037E+03  0.7030E+03
      4.575  0.5734E+02  0.6974E+02  0.7067E+03  0.7067E+03
      4.629  0.1951E+02  0.1239E+02  0.7078E+03  0.7074E+03
      4.682  0.7289E+02  0.7202E+02  0.7117E+03  0.7113E+03
      4.736  0.8891E+02  0.9057E+02  0.7165E+03  0.7161E+03
      4.790  0.8563E+02  0.8894E+02  0.7211E+03  0.7209E+03
      4.843  0.8219E+02  0.7832E+02  0.7255E+03  0.7251E+03
      4.897  0.4065E+02  0.4365E+02  0.7277E+03  0.7275E+03
      4.951  0.3509E+02  0.3424E+02  0.7296E+03  0.7293E+03
      5.004  0.6668E+02  0.6555E+02  0.7331E+03  0.7328E+03
      5.058  0.4892E+02  0.5468E+02  0.7358E+03  0.7357E+03
      5.112  0.7657E+02  0.7038E+02  0.7399E+03  0.7395E+03
      5.165  0.1466E+03  0.1396E+03  0.7477E+03  0.7470E+03
      5.219  0.6962E+02  0.8147E+02  0.7515E+03  0.7514E+03
      5.273  0.1279E+03  0.1188E+03  0.7583E+03  0.7578E+03
      5.327  0.6144E+02  0.6269E+02  0.7616E+03  0.7611E+03
      5.380  0.7331E+02  0.7156E+02  0.7656E+03  0.7650E+03
      5.434  0.5720E+02  0.6539E+02  0.7686E+03  0.7685E+03
      5.488  0.1002E+03  0.1002E+03  0.7740E+03  0.7739E+03
      5.541  0.1275E+03  0.1179E+03  0.7809E+03  0.7802E+03
      5.595  0.7341E+02  0.7515E+02  0.7848E+03  0.7842E+03
      5.649  0.8962E+02  0.9446E+02  0.7896E+03  0.7893E+03
      5.702  0.1072E+03  0.1032E+03  0.7954E+03  0.7948E+03
      5.756  0.1024E+03  0.1099E+03  0.8009E+03  0.8007E+03
      5.810  0.8140E+02  0.7601E+02  0.8052E+03  0.8048E+03
      5.863  0.4825E+02  0.5169E+02  0.8078E+03  0.8076E+03
      5.917  0.3268E+01  0.7755E+01  0.8080E+03  0.8080E+03
      5.971  0.0000E+00  0.0000E+00  0.8080E+03  0.8080E+03
      6.024  0.0000E+00  0.0000E+00  0.8080E+03  0.8080E+03
      6.078  0.0000E+00  0.0000E+00  0.8080E+03  0.8080E+03
      6.132  0.0000E+00  0.0000E+00  0.8080E+03  0.8080E+03
      6.185  0.0000E+00  0.0000E+00  0.8080E+03  0.8080E+03
      6.239  0.0000E+00  0.0000E+00  0.8080E+03  0.8080E+03
      6.293  0.0000E+00  0.0000E+00  0.8080E+03  0.8080E+03
      6.346  0.0000E+00  0.0000E+00  0.8080E+03  0.8080E+03
      6.400  0.0000E+00  0.0000E+00  0.8080E+03  0.8080E+03
      6.454  0.0000E+00  0.0000E+00  0.8080E+03  0.8080E+03
      6.507  0.0000E+00  0.0000E+00  0.8080E+03  0.8080E+03
      6.561  0.0000E+00  0.0000E+00  0.8080E+03  0.8080E+03
      6.615  0.0000E+00  0.0000E+00  0.8080E+03  0.8080E+03
