 264 264   0   0
  0.2139018E+02  0.1946760E-08  0.1946760E-08  0.1490025E-08  0.5000000E-15
  1.000000000000000E-004
  CAR 
 Si and Ge interface calculation         
      9.45349217     -9.59209847  301      6.39557022      1.00000000
     -9.592  0.0000E+00  0.0000E+00  0.0000E+00  0.0000E+00
     -9.529  0.0000E+00  0.0000E+00  0.0000E+00  0.0000E+00
     -9.465  0.0000E+00  0.0000E+00  0.0000E+00  0.0000E+00
     -9.402  0.0000E+00  0.0000E+00  0.0000E+00  0.0000E+00
     -9.338  0.0000E+00  0.0000E+00  0.0000E+00  0.0000E+00
     -9.275  0.0000E+00  0.0000E+00  0.0000E+00  0.0000E+00
     -9.211  0.0000E+00  0.0000E+00  0.0000E+00  0.0000E+00
     -9.148  0.0000E+00  0.0000E+00  0.0000E+00  0.0000E+00
     -9.084  0.0000E+00  0.0000E+00  0.0000E+00  0.0000E+00
     -9.021  0.0000E+00  0.0000E+00  0.0000E+00  0.0000E+00
     -8.957  0.0000E+00  0.0000E+00  0.0000E+00  0.0000E+00
     -8.894  0.0000E+00  0.0000E+00  0.0000E+00  0.0000E+00
     -8.830  0.0000E+00  0.0000E+00  0.0000E+00  0.0000E+00
     -8.767  0.1367E-06  0.7803E-07  0.8680E-08  0.4954E-08
     -8.703  0.3148E+02  0.3148E+02  0.1999E+01  0.1998E+01
     -8.640  0.9439E+00  0.3464E-01  0.2060E+01  0.2002E+01
     -8.576  0.3056E+02  0.3147E+02  0.4000E+01  0.4000E+01
     -8.513  0.5387E-06  0.1063E-05  0.4000E+01  0.4000E+01
     -8.449  0.3149E+02  0.3150E+02  0.5999E+01  0.6000E+01
     -8.386  0.3136E+02  0.3036E+02  0.7991E+01  0.7928E+01
     -8.322  0.0000E+00  0.1139E+01  0.8000E+01  0.8000E+01
     -8.259  0.0000E+00  0.0000E+00  0.8000E+01  0.8000E+01
     -8.195  0.0000E+00  0.0000E+00  0.8000E+01  0.8000E+01
     -8.132  0.4317E+01  0.2665E+00  0.8274E+01  0.8017E+01
     -8.068  0.2747E+02  0.3127E+02  0.1002E+02  0.1000E+02
     -8.005  0.3905E+02  0.3325E+02  0.1250E+02  0.1212E+02
     -7.941  0.3918E+02  0.4218E+02  0.1499E+02  0.1479E+02
     -7.878  0.1591E+02  0.1899E+02  0.1600E+02  0.1600E+02
     -7.815  0.2741E-10  0.4609E-11  0.1600E+02  0.1600E+02
     -7.751  0.1546E+02  0.1509E+02  0.1698E+02  0.1696E+02
     -7.688  0.4701E+02  0.4607E+02  0.1997E+02  0.1988E+02
     -7.624  0.5427E+00  0.1840E+01  0.2000E+02  0.2000E+02
     -7.561  0.0000E+00  0.0000E+00  0.2000E+02  0.2000E+02
     -7.497  0.0000E+00  0.0000E+00  0.2000E+02  0.2000E+02
     -7.434  0.0000E+00  0.0000E+00  0.2000E+02  0.2000E+02
     -7.370  0.2602E+01  0.1165E+01  0.2017E+02  0.2007E+02
     -7.307  0.4448E+02  0.4059E+02  0.2299E+02  0.2265E+02
     -7.243  0.5181E+02  0.5312E+02  0.2628E+02  0.2602E+02
     -7.180  0.2713E+02  0.3114E+02  0.2800E+02  0.2800E+02
     -7.116  0.3117E+02  0.2886E+02  0.2998E+02  0.2983E+02
     -7.053  0.4860E+02  0.3900E+02  0.3306E+02  0.3231E+02
     -6.989  0.1463E+02  0.2663E+02  0.3400E+02  0.3400E+02
     -6.926  0.2955E+02  0.1719E+02  0.3588E+02  0.3509E+02
     -6.862  0.1950E+01  0.1432E+02  0.3600E+02  0.3600E+02
     -6.799  0.0000E+00  0.0000E+00  0.3600E+02  0.3600E+02
     -6.735  0.0000E+00  0.0000E+00  0.3600E+02  0.3600E+02
     -6.672  0.0000E+00  0.0000E+00  0.3600E+02  0.3600E+02
     -6.608  0.4591E-14  0.4809E-13  0.3600E+02  0.3600E+02
     -6.545  0.2425E+02  0.2670E+02  0.3754E+02  0.3769E+02
     -6.481  0.1108E+02  0.5955E+01  0.3824E+02  0.3807E+02
     -6.418  0.9154E+02  0.9295E+02  0.4405E+02  0.4397E+02
     -6.354  0.3060E+02  0.3141E+02  0.4600E+02  0.4597E+02
     -6.291  0.0000E+00  0.4045E+00  0.4600E+02  0.4600E+02
     -6.227  0.0000E+00  0.0000E+00  0.4600E+02  0.4600E+02
     -6.164  0.0000E+00  0.0000E+00  0.4600E+02  0.4600E+02
     -6.100  0.0000E+00  0.0000E+00  0.4600E+02  0.4600E+02
     -6.037  0.1574E-03  0.3903E-02  0.4600E+02  0.4600E+02
     -5.973  0.4105E+02  0.4666E+02  0.4861E+02  0.4896E+02
     -5.910  0.2858E+02  0.1731E+02  0.5042E+02  0.5006E+02
     -5.846  0.3553E+02  0.3675E+02  0.5268E+02  0.5240E+02
     -5.783  0.2090E+02  0.2530E+02  0.5400E+02  0.5400E+02
     -5.719  0.3135E+02  0.3133E+02  0.5600E+02  0.5599E+02
     -5.656  0.4007E-01  0.1361E+00  0.5600E+02  0.5600E+02
     -5.593  0.3150E+02  0.3120E+02  0.5800E+02  0.5798E+02
     -5.529  0.1549E+01  0.7236E+00  0.5810E+02  0.5803E+02
     -5.466  0.3025E+02  0.3528E+02  0.6002E+02  0.6027E+02
     -5.402  0.4703E+02  0.4204E+02  0.6300E+02  0.6294E+02
     -5.339  0.2476E+02  0.2246E+02  0.6458E+02  0.6436E+02
     -5.275  0.3526E+02  0.4132E+02  0.6682E+02  0.6699E+02
     -5.212  0.1966E+02  0.2001E+02  0.6806E+02  0.6826E+02
     -5.148  0.3906E+02  0.3537E+02  0.7054E+02  0.7050E+02
     -5.085  0.2203E+02  0.2136E+02  0.7194E+02  0.7186E+02
     -5.021  0.1686E+02  0.1782E+02  0.7301E+02  0.7299E+02
     -4.958  0.5544E+02  0.5474E+02  0.7654E+02  0.7647E+02
     -4.894  0.4914E+02  0.4867E+02  0.7966E+02  0.7956E+02
     -4.831  0.5315E+02  0.4621E+02  0.8303E+02  0.8249E+02
     -4.767  0.4171E+02  0.5202E+02  0.8568E+02  0.8579E+02
     -4.704  0.3043E+02  0.2748E+02  0.8762E+02  0.8754E+02
     -4.640  0.2376E+02  0.2118E+02  0.8912E+02  0.8889E+02
     -4.577  0.4685E+02  0.4739E+02  0.9210E+02  0.9190E+02
     -4.513  0.4480E+02  0.4364E+02  0.9495E+02  0.9467E+02
     -4.450  0.5719E+02  0.5633E+02  0.9858E+02  0.9824E+02
     -4.386  0.6204E+02  0.6594E+02  0.1025E+03  0.1024E+03
     -4.323  0.4201E+02  0.4290E+02  0.1052E+03  0.1052E+03
     -4.259  0.5775E+02  0.5543E+02  0.1089E+03  0.1087E+03
     -4.196  0.5128E+02  0.5411E+02  0.1121E+03  0.1121E+03
     -4.132  0.4409E+02  0.3990E+02  0.1149E+03  0.1146E+03
     -4.069  0.5562E+02  0.5674E+02  0.1184E+03  0.1182E+03
     -4.005  0.6647E+02  0.6578E+02  0.1227E+03  0.1224E+03
     -3.942  0.3909E+02  0.4020E+02  0.1251E+03  0.1250E+03
     -3.878  0.5244E+02  0.5300E+02  0.1285E+03  0.1283E+03
     -3.815  0.5402E+02  0.5443E+02  0.1319E+03  0.1318E+03
     -3.751  0.5872E+02  0.5483E+02  0.1356E+03  0.1353E+03
     -3.688  0.6160E+02  0.6343E+02  0.1395E+03  0.1393E+03
     -3.624  0.4562E+02  0.4693E+02  0.1424E+03  0.1423E+03
     -3.561  0.4282E+02  0.4260E+02  0.1452E+03  0.1450E+03
     -3.498  0.4742E+02  0.4904E+02  0.1482E+03  0.1481E+03
     -3.434  0.3808E+02  0.3833E+02  0.1506E+03  0.1505E+03
     -3.371  0.4509E+02  0.4198E+02  0.1535E+03  0.1532E+03
     -3.307  0.3836E+02  0.3839E+02  0.1559E+03  0.1556E+03
     -3.244  0.3816E+02  0.4097E+02  0.1583E+03  0.1582E+03
     -3.180  0.6678E+02  0.6269E+02  0.1626E+03  0.1622E+03
     -3.117  0.4561E+02  0.4442E+02  0.1655E+03  0.1650E+03
     -3.053  0.6124E+02  0.6207E+02  0.1693E+03  0.1690E+03
     -2.990  0.6467E+02  0.5899E+02  0.1735E+03  0.1727E+03
     -2.926  0.5061E+02  0.5415E+02  0.1767E+03  0.1762E+03
     -2.863  0.5737E+02  0.5671E+02  0.1803E+03  0.1798E+03
     -2.799  0.5486E+02  0.6019E+02  0.1838E+03  0.1836E+03
     -2.736  0.7611E+02  0.7082E+02  0.1886E+03  0.1881E+03
     -2.672  0.6721E+02  0.6511E+02  0.1929E+03  0.1922E+03
     -2.609  0.7136E+02  0.7185E+02  0.1974E+03  0.1968E+03
     -2.545  0.7083E+02  0.7325E+02  0.2019E+03  0.2014E+03
     -2.482  0.6143E+02  0.5744E+02  0.2058E+03  0.2051E+03
     -2.418  0.5202E+02  0.5760E+02  0.2091E+03  0.2088E+03
     -2.355  0.7185E+02  0.6682E+02  0.2137E+03  0.2130E+03
     -2.291  0.7136E+02  0.6957E+02  0.2182E+03  0.2174E+03
     -2.228  0.7074E+02  0.6807E+02  0.2227E+03  0.2217E+03
     -2.164  0.7293E+02  0.8312E+02  0.2274E+03  0.2270E+03
     -2.101  0.8160E+02  0.8167E+02  0.2325E+03  0.2322E+03
     -2.037  0.8031E+02  0.7443E+02  0.2376E+03  0.2369E+03
     -1.974  0.7192E+02  0.7282E+02  0.2422E+03  0.2416E+03
     -1.910  0.6827E+02  0.7215E+02  0.2465E+03  0.2461E+03
     -1.847  0.7226E+02  0.7012E+02  0.2511E+03  0.2506E+03
     -1.783  0.6698E+02  0.6928E+02  0.2554E+03  0.2550E+03
     -1.720  0.6877E+02  0.6530E+02  0.2598E+03  0.2591E+03
     -1.656  0.5980E+02  0.5971E+02  0.2636E+03  0.2629E+03
     -1.593  0.6358E+02  0.6769E+02  0.2676E+03  0.2672E+03
     -1.529  0.7397E+02  0.7093E+02  0.2723E+03  0.2717E+03
     -1.466  0.6672E+02  0.6942E+02  0.2765E+03  0.2761E+03
     -1.402  0.7748E+02  0.7633E+02  0.2814E+03  0.2810E+03
     -1.339  0.5895E+02  0.6387E+02  0.2852E+03  0.2850E+03
     -1.276  0.6374E+02  0.6114E+02  0.2892E+03  0.2889E+03
     -1.212  0.7508E+02  0.7490E+02  0.2940E+03  0.2937E+03
     -1.149  0.7771E+02  0.7634E+02  0.2989E+03  0.2985E+03
     -1.085  0.6849E+02  0.6758E+02  0.3033E+03  0.3028E+03
     -1.022  0.6875E+02  0.6700E+02  0.3077E+03  0.3071E+03
     -0.958  0.6409E+02  0.7037E+02  0.3117E+03  0.3115E+03
     -0.895  0.5896E+02  0.5348E+02  0.3155E+03  0.3149E+03
     -0.831  0.7728E+02  0.8016E+02  0.3204E+03  0.3200E+03
     -0.768  0.5925E+02  0.5676E+02  0.3241E+03  0.3236E+03
     -0.704  0.6134E+02  0.6091E+02  0.3280E+03  0.3275E+03
     -0.641  0.7081E+02  0.6799E+02  0.3325E+03  0.3318E+03
     -0.577  0.5780E+02  0.6264E+02  0.3362E+03  0.3358E+03
     -0.514  0.6656E+02  0.6647E+02  0.3404E+03  0.3400E+03
     -0.450  0.7021E+02  0.6855E+02  0.3449E+03  0.3444E+03
     -0.387  0.6029E+02  0.6516E+02  0.3487E+03  0.3485E+03
     -0.323  0.6563E+02  0.6227E+02  0.3529E+03  0.3525E+03
     -0.260  0.8712E+02  0.8930E+02  0.3584E+03  0.3582E+03
     -0.196  0.7950E+02  0.8007E+02  0.3635E+03  0.3632E+03
     -0.133  0.7939E+02  0.7915E+02  0.3685E+03  0.3683E+03
     -0.069  0.9320E+02  0.9615E+02  0.3744E+03  0.3744E+03
     -0.006  0.7468E+02  0.7202E+02  0.3792E+03  0.3789E+03
      0.058  0.8527E+02  0.8858E+02  0.3846E+03  0.3846E+03
      0.121  0.9735E+02  0.9493E+02  0.3908E+03  0.3906E+03
      0.185  0.7197E+02  0.6774E+02  0.3953E+03  0.3949E+03
      0.248  0.9192E+02  0.9617E+02  0.4012E+03  0.4010E+03
      0.312  0.6952E+02  0.6504E+02  0.4056E+03  0.4051E+03
      0.375  0.8947E+02  0.9001E+02  0.4113E+03  0.4109E+03
      0.439  0.6854E+02  0.7427E+02  0.4156E+03  0.4156E+03
      0.502  0.9327E+02  0.9045E+02  0.4215E+03  0.4213E+03
      0.566  0.8274E+02  0.8341E+02  0.4268E+03  0.4266E+03
      0.629  0.9191E+02  0.8945E+02  0.4326E+03  0.4323E+03
      0.693  0.7807E+02  0.7718E+02  0.4376E+03  0.4372E+03
      0.756  0.8742E+02  0.9141E+02  0.4431E+03  0.4430E+03
      0.819  0.1004E+03  0.9855E+02  0.4495E+03  0.4493E+03
      0.883  0.8024E+02  0.7930E+02  0.4546E+03  0.4543E+03
      0.946  0.8652E+02  0.8180E+02  0.4601E+03  0.4595E+03
      1.010  0.8141E+02  0.7818E+02  0.4653E+03  0.4645E+03
      1.073  0.9543E+02  0.1021E+03  0.4713E+03  0.4709E+03
      1.137  0.8713E+02  0.8616E+02  0.4769E+03  0.4764E+03
      1.200  0.8144E+02  0.7917E+02  0.4820E+03  0.4815E+03
      1.264  0.6723E+02  0.7570E+02  0.4863E+03  0.4863E+03
      1.327  0.8979E+02  0.7997E+02  0.4920E+03  0.4913E+03
      1.391  0.6780E+02  0.7274E+02  0.4963E+03  0.4960E+03
      1.454  0.8141E+02  0.7779E+02  0.5015E+03  0.5009E+03
      1.518  0.9261E+02  0.8980E+02  0.5074E+03  0.5066E+03
      1.581  0.9244E+02  0.9043E+02  0.5133E+03  0.5123E+03
      1.645  0.8953E+02  0.9411E+02  0.5189E+03  0.5183E+03
      1.708  0.8700E+02  0.8953E+02  0.5245E+03  0.5240E+03
      1.772  0.9866E+02  0.9310E+02  0.5307E+03  0.5299E+03
      1.835  0.1009E+03  0.1049E+03  0.5371E+03  0.5366E+03
      1.899  0.8335E+02  0.8384E+02  0.5424E+03  0.5419E+03
      1.962  0.9629E+02  0.8887E+02  0.5486E+03  0.5475E+03
      2.026  0.9558E+02  0.9676E+02  0.5546E+03  0.5537E+03
      2.089  0.9656E+02  0.9705E+02  0.5608E+03  0.5599E+03
      2.153  0.9576E+02  0.9904E+02  0.5668E+03  0.5661E+03
      2.216  0.9153E+02  0.9133E+02  0.5727E+03  0.5719E+03
      2.280  0.9469E+02  0.9740E+02  0.5787E+03  0.5781E+03
      2.343  0.1087E+03  0.1055E+03  0.5856E+03  0.5848E+03
      2.407  0.1019E+03  0.1002E+03  0.5920E+03  0.5912E+03
      2.470  0.8834E+02  0.9456E+02  0.5977E+03  0.5972E+03
      2.534  0.1092E+03  0.1061E+03  0.6046E+03  0.6039E+03
      2.597  0.1206E+03  0.1221E+03  0.6122E+03  0.6117E+03
      2.661  0.1095E+03  0.1120E+03  0.6192E+03  0.6188E+03
      2.724  0.9986E+02  0.1035E+03  0.6255E+03  0.6254E+03
      2.788  0.1275E+03  0.1267E+03  0.6336E+03  0.6334E+03
      2.851  0.1064E+03  0.1091E+03  0.6404E+03  0.6404E+03
      2.915  0.1170E+03  0.1206E+03  0.6478E+03  0.6480E+03
      2.978  0.1276E+03  0.1201E+03  0.6559E+03  0.6556E+03
      3.041  0.1202E+03  0.1325E+03  0.6636E+03  0.6640E+03
      3.105  0.1326E+03  0.1294E+03  0.6720E+03  0.6723E+03
      3.168  0.1183E+03  0.1231E+03  0.6795E+03  0.6801E+03
      3.232  0.1298E+03  0.1253E+03  0.6877E+03  0.6880E+03
      3.295  0.1133E+03  0.1102E+03  0.6949E+03  0.6950E+03
      3.359  0.1200E+03  0.1129E+03  0.7026E+03  0.7022E+03
      3.422  0.1134E+03  0.1351E+03  0.7098E+03  0.7108E+03
      3.486  0.1210E+03  0.1132E+03  0.7174E+03  0.7180E+03
      3.549  0.1276E+03  0.1344E+03  0.7255E+03  0.7265E+03
      3.613  0.1092E+03  0.1079E+03  0.7325E+03  0.7334E+03
      3.676  0.1317E+03  0.1337E+03  0.7409E+03  0.7419E+03
      3.740  0.1277E+03  0.1383E+03  0.7490E+03  0.7507E+03
      3.803  0.1243E+03  0.1230E+03  0.7569E+03  0.7585E+03
      3.867  0.1159E+03  0.1207E+03  0.7642E+03  0.7661E+03
      3.930  0.1207E+03  0.1213E+03  0.7719E+03  0.7738E+03
      3.994  0.1187E+03  0.1240E+03  0.7794E+03  0.7817E+03
      4.057  0.1176E+03  0.1263E+03  0.7869E+03  0.7897E+03
      4.121  0.1321E+03  0.1322E+03  0.7953E+03  0.7981E+03
      4.184  0.1137E+03  0.1193E+03  0.8025E+03  0.8057E+03
      4.248  0.1249E+03  0.1166E+03  0.8104E+03  0.8131E+03
      4.311  0.1184E+03  0.1285E+03  0.8179E+03  0.8213E+03
      4.375  0.1133E+03  0.1140E+03  0.8251E+03  0.8285E+03
      4.438  0.1216E+03  0.1168E+03  0.8329E+03  0.8359E+03
      4.502  0.1107E+03  0.1400E+03  0.8399E+03  0.8448E+03
      4.565  0.1200E+03  0.1399E+03  0.8475E+03  0.8537E+03
      4.629  0.1204E+03  0.1263E+03  0.8552E+03  0.8617E+03
      4.692  0.1025E+03  0.1136E+03  0.8617E+03  0.8689E+03
      4.756  0.1004E+03  0.1293E+03  0.8680E+03  0.8771E+03
      4.819  0.1194E+03  0.1227E+03  0.8756E+03  0.8849E+03
      4.883  0.1023E+03  0.1186E+03  0.8821E+03  0.8925E+03
      4.946  0.1127E+03  0.1076E+03  0.8893E+03  0.8993E+03
      5.010  0.9956E+02  0.1053E+03  0.8956E+03  0.9060E+03
      5.073  0.1081E+03  0.1185E+03  0.9025E+03  0.9135E+03
      5.136  0.1063E+03  0.1148E+03  0.9092E+03  0.9208E+03
      5.200  0.1155E+03  0.1115E+03  0.9166E+03  0.9279E+03
      5.263  0.9630E+02  0.1155E+03  0.9227E+03  0.9352E+03
      5.327  0.1043E+03  0.1114E+03  0.9293E+03  0.9423E+03
      5.390  0.1206E+03  0.1134E+03  0.9370E+03  0.9495E+03
      5.454  0.1043E+03  0.1124E+03  0.9436E+03  0.9566E+03
      5.517  0.1124E+03  0.1141E+03  0.9507E+03  0.9639E+03
      5.581  0.1093E+03  0.1135E+03  0.9577E+03  0.9711E+03
      5.644  0.9868E+02  0.1107E+03  0.9639E+03  0.9781E+03
      5.708  0.1103E+03  0.1048E+03  0.9709E+03  0.9848E+03
      5.771  0.1298E+03  0.1110E+03  0.9792E+03  0.9918E+03
      5.835  0.1050E+03  0.1153E+03  0.9859E+03  0.9991E+03
      5.898  0.1114E+03  0.9985E+02  0.9929E+03  0.1005E+04
      5.962  0.1202E+03  0.9706E+02  0.1001E+04  0.1012E+04
      6.025  0.1132E+03  0.1057E+03  0.1008E+04  0.1018E+04
      6.089  0.1217E+03  0.8446E+02  0.1015E+04  0.1024E+04
      6.152  0.1051E+03  0.9247E+02  0.1022E+04  0.1030E+04
      6.216  0.1260E+03  0.1061E+03  0.1030E+04  0.1036E+04
      6.279  0.1157E+03  0.1097E+03  0.1038E+04  0.1043E+04
      6.343  0.1236E+03  0.9750E+02  0.1045E+04  0.1049E+04
      6.406  0.1213E+03  0.1026E+03  0.1053E+04  0.1056E+04
      6.470  0.1416E+03  0.1001E+03  0.1062E+04  0.1062E+04
      6.533  0.1219E+03  0.1100E+03  0.1070E+04  0.1069E+04
      6.597  0.1191E+03  0.1121E+03  0.1077E+04  0.1076E+04
      6.660  0.1301E+03  0.1049E+03  0.1086E+04  0.1083E+04
      6.724  0.1107E+03  0.1050E+03  0.1093E+04  0.1090E+04
      6.787  0.1127E+03  0.1242E+03  0.1100E+04  0.1098E+04
      6.851  0.9569E+02  0.1090E+03  0.1106E+04  0.1105E+04
      6.914  0.1176E+03  0.1150E+03  0.1113E+04  0.1112E+04
      6.978  0.1129E+03  0.1134E+03  0.1121E+04  0.1119E+04
      7.041  0.1215E+03  0.1116E+03  0.1128E+04  0.1126E+04
      7.105  0.1226E+03  0.1118E+03  0.1136E+04  0.1133E+04
      7.168  0.1070E+03  0.1148E+03  0.1143E+04  0.1141E+04
      7.232  0.1160E+03  0.1094E+03  0.1150E+04  0.1148E+04
      7.295  0.1087E+03  0.1163E+03  0.1157E+04  0.1155E+04
      7.358  0.1073E+03  0.1188E+03  0.1164E+04  0.1162E+04
      7.422  0.1214E+03  0.1110E+03  0.1172E+04  0.1170E+04
      7.485  0.1062E+03  0.1180E+03  0.1178E+04  0.1177E+04
      7.549  0.1144E+03  0.1011E+03  0.1186E+04  0.1183E+04
      7.612  0.1146E+03  0.1111E+03  0.1193E+04  0.1191E+04
      7.676  0.9418E+02  0.1129E+03  0.1199E+04  0.1198E+04
      7.739  0.1105E+03  0.1022E+03  0.1206E+04  0.1204E+04
      7.803  0.1121E+03  0.1229E+03  0.1213E+04  0.1212E+04
      7.866  0.1024E+03  0.1009E+03  0.1220E+04  0.1218E+04
      7.930  0.1147E+03  0.1322E+03  0.1227E+04  0.1227E+04
      7.993  0.1327E+03  0.1213E+03  0.1235E+04  0.1234E+04
      8.057  0.1136E+03  0.1260E+03  0.1242E+04  0.1242E+04
      8.120  0.1157E+03  0.1106E+03  0.1250E+04  0.1250E+04
      8.184  0.9474E+02  0.9726E+02  0.1256E+04  0.1256E+04
      8.247  0.8963E+02  0.9482E+02  0.1262E+04  0.1262E+04
      8.311  0.7329E+02  0.6691E+02  0.1266E+04  0.1266E+04
      8.374  0.5185E+02  0.6249E+02  0.1269E+04  0.1270E+04
      8.438  0.1202E+02  0.1622E+02  0.1270E+04  0.1271E+04
      8.501  0.2206E+01  0.1639E+02  0.1270E+04  0.1272E+04
      8.565  0.1738E+02  0.0000E+00  0.1271E+04  0.1272E+04
      8.628  0.7975E+01  0.0000E+00  0.1272E+04  0.1272E+04
      8.692  0.0000E+00  0.0000E+00  0.1272E+04  0.1272E+04
      8.755  0.0000E+00  0.0000E+00  0.1272E+04  0.1272E+04
      8.819  0.0000E+00  0.0000E+00  0.1272E+04  0.1272E+04
      8.882  0.0000E+00  0.0000E+00  0.1272E+04  0.1272E+04
      8.946  0.0000E+00  0.0000E+00  0.1272E+04  0.1272E+04
      9.009  0.0000E+00  0.0000E+00  0.1272E+04  0.1272E+04
      9.073  0.0000E+00  0.0000E+00  0.1272E+04  0.1272E+04
      9.136  0.0000E+00  0.0000E+00  0.1272E+04  0.1272E+04
      9.200  0.0000E+00  0.0000E+00  0.1272E+04  0.1272E+04
      9.263  0.0000E+00  0.0000E+00  0.1272E+04  0.1272E+04
      9.327  0.0000E+00  0.0000E+00  0.1272E+04  0.1272E+04
      9.390  0.0000E+00  0.0000E+00  0.1272E+04  0.1272E+04
      9.453  0.0000E+00  0.0000E+00  0.1272E+04  0.1272E+04
