 120 120   0   0
  0.2471884E+02  0.1629300E-08  0.1717433E-08  0.1060055E-08  0.5000000E-15
  1.000000000000000E-004
  CAR 
 Si and Ge interface calculation         
      6.01343665     -9.40328190  301      3.44759795      1.00000000
     -9.403  0.0000E+00  0.0000E+00  0.0000E+00  0.0000E+00
     -9.352  0.0000E+00  0.0000E+00  0.0000E+00  0.0000E+00
     -9.301  0.0000E+00  0.0000E+00  0.0000E+00  0.0000E+00
     -9.249  0.0000E+00  0.0000E+00  0.0000E+00  0.0000E+00
     -9.198  0.0000E+00  0.0000E+00  0.0000E+00  0.0000E+00
     -9.146  0.0000E+00  0.0000E+00  0.0000E+00  0.0000E+00
     -9.095  0.0000E+00  0.0000E+00  0.0000E+00  0.0000E+00
     -9.044  0.0000E+00  0.0000E+00  0.0000E+00  0.0000E+00
     -8.992  0.0000E+00  0.0000E+00  0.0000E+00  0.0000E+00
     -8.941  0.0000E+00  0.0000E+00  0.0000E+00  0.0000E+00
     -8.889  0.0000E+00  0.0000E+00  0.0000E+00  0.0000E+00
     -8.838  0.0000E+00  0.0000E+00  0.0000E+00  0.0000E+00
     -8.787  0.0000E+00  0.0000E+00  0.0000E+00  0.0000E+00
     -8.735  0.6768E-05  0.2019E-06  0.3478E-06  0.1038E-07
     -8.684  0.6520E+01  0.6219E+01  0.3351E+00  0.3196E+00
     -8.632  0.2636E+02  0.2347E+02  0.1690E+01  0.1526E+01
     -8.581  0.6038E+01  0.9229E+01  0.2000E+01  0.2000E+01
     -8.530  0.6291E+01  0.5730E+01  0.2323E+01  0.2294E+01
     -8.478  0.1060E+02  0.7888E+01  0.2868E+01  0.2700E+01
     -8.427  0.2494E+02  0.2609E+02  0.4150E+01  0.4040E+01
     -8.376  0.3150E+02  0.2951E+02  0.5769E+01  0.5557E+01
     -8.324  0.4499E+01  0.8618E+01  0.6000E+01  0.6000E+01
     -8.273  0.1048E-02  0.4489E-04  0.6000E+01  0.6000E+01
     -8.221  0.1184E+02  0.8099E+01  0.6609E+01  0.6416E+01
     -8.170  0.2707E+02  0.3081E+02  0.8000E+01  0.7999E+01
     -8.119  0.5602E-03  0.1371E-01  0.8000E+01  0.8000E+01
     -8.067  0.1906E-01  0.1192E-02  0.8001E+01  0.8000E+01
     -8.016  0.6458E+01  0.6395E+01  0.8333E+01  0.8329E+01
     -7.964  0.2663E+02  0.2494E+02  0.9701E+01  0.9610E+01
     -7.913  0.1878E+02  0.1988E+02  0.1067E+02  0.1063E+02
     -7.862  0.2635E+02  0.2500E+02  0.1202E+02  0.1192E+02
     -7.810  0.2435E+02  0.2460E+02  0.1327E+02  0.1318E+02
     -7.759  0.1872E+02  0.1588E+02  0.1423E+02  0.1400E+02
     -7.707  0.2141E+02  0.2601E+02  0.1533E+02  0.1533E+02
     -7.656  0.9861E+01  0.9670E+01  0.1584E+02  0.1583E+02
     -7.605  0.1941E+02  0.1594E+02  0.1684E+02  0.1665E+02
     -7.553  0.2989E+02  0.3186E+02  0.1837E+02  0.1829E+02
     -7.502  0.2444E+02  0.2408E+02  0.1963E+02  0.1952E+02
     -7.450  0.3053E+02  0.3045E+02  0.2120E+02  0.2109E+02
     -7.399  0.1464E+02  0.1452E+02  0.2195E+02  0.2183E+02
     -7.348  0.3219E+02  0.3200E+02  0.2361E+02  0.2348E+02
     -7.296  0.3358E+02  0.3449E+02  0.2533E+02  0.2525E+02
     -7.245  0.3215E+02  0.2862E+02  0.2698E+02  0.2672E+02
     -7.194  0.2248E+02  0.2356E+02  0.2814E+02  0.2793E+02
     -7.142  0.3892E+02  0.4138E+02  0.3014E+02  0.3006E+02
     -7.091  0.2664E+02  0.2567E+02  0.3151E+02  0.3138E+02
     -7.039  0.3653E+02  0.2942E+02  0.3338E+02  0.3289E+02
     -6.988  0.2504E+02  0.3146E+02  0.3467E+02  0.3451E+02
     -6.937  0.5158E+02  0.4792E+02  0.3732E+02  0.3697E+02
     -6.885  0.3111E+02  0.3163E+02  0.3892E+02  0.3859E+02
     -6.834  0.2907E+02  0.3359E+02  0.4041E+02  0.4032E+02
     -6.782  0.2302E+02  0.2177E+02  0.4160E+02  0.4144E+02
     -6.731  0.2438E+02  0.2418E+02  0.4285E+02  0.4268E+02
     -6.680  0.4978E+02  0.4894E+02  0.4541E+02  0.4520E+02
     -6.628  0.3202E+02  0.3227E+02  0.4705E+02  0.4686E+02
     -6.577  0.3945E+02  0.4134E+02  0.4908E+02  0.4898E+02
     -6.525  0.3482E+02  0.3568E+02  0.5087E+02  0.5081E+02
     -6.474  0.2683E+02  0.2352E+02  0.5225E+02  0.5202E+02
     -6.423  0.4855E+02  0.4800E+02  0.5474E+02  0.5449E+02
     -6.371  0.3737E+02  0.3675E+02  0.5666E+02  0.5638E+02
     -6.320  0.4067E+02  0.4390E+02  0.5875E+02  0.5863E+02
     -6.269  0.2782E+02  0.2457E+02  0.6018E+02  0.5990E+02
     -6.217  0.2099E+02  0.2388E+02  0.6126E+02  0.6112E+02
     -6.166  0.1746E+02  0.1794E+02  0.6216E+02  0.6204E+02
     -6.114  0.4497E+02  0.4525E+02  0.6447E+02  0.6437E+02
     -6.063  0.3147E+02  0.2786E+02  0.6609E+02  0.6580E+02
     -6.012  0.3540E+02  0.3422E+02  0.6791E+02  0.6756E+02
     -5.960  0.4458E+02  0.4478E+02  0.7020E+02  0.6986E+02
     -5.909  0.3676E+02  0.3667E+02  0.7209E+02  0.7175E+02
     -5.857  0.4371E+02  0.4587E+02  0.7433E+02  0.7410E+02
     -5.806  0.3297E+02  0.3041E+02  0.7603E+02  0.7567E+02
     -5.755  0.5019E+02  0.4922E+02  0.7861E+02  0.7820E+02
     -5.703  0.3790E+02  0.4084E+02  0.8056E+02  0.8030E+02
     -5.652  0.3392E+02  0.3104E+02  0.8230E+02  0.8189E+02
     -5.600  0.4068E+02  0.3871E+02  0.8439E+02  0.8388E+02
     -5.549  0.3638E+02  0.4141E+02  0.8626E+02  0.8601E+02
     -5.498  0.3204E+02  0.3092E+02  0.8790E+02  0.8760E+02
     -5.446  0.2299E+02  0.2229E+02  0.8909E+02  0.8874E+02
     -5.395  0.4046E+02  0.4356E+02  0.9117E+02  0.9098E+02
     -5.344  0.3787E+02  0.3525E+02  0.9311E+02  0.9279E+02
     -5.292  0.4036E+02  0.4235E+02  0.9519E+02  0.9497E+02
     -5.241  0.3157E+02  0.3404E+02  0.9681E+02  0.9672E+02
     -5.189  0.3117E+02  0.2618E+02  0.9841E+02  0.9806E+02
     -5.138  0.3818E+02  0.3897E+02  0.1004E+03  0.1001E+03
     -5.087  0.3631E+02  0.3541E+02  0.1022E+03  0.1019E+03
     -5.035  0.2750E+02  0.3237E+02  0.1037E+03  0.1035E+03
     -4.984  0.3402E+02  0.3119E+02  0.1054E+03  0.1052E+03
     -4.932  0.2430E+02  0.2479E+02  0.1066E+03  0.1064E+03
     -4.881  0.3954E+02  0.3548E+02  0.1087E+03  0.1082E+03
     -4.830  0.3303E+02  0.3687E+02  0.1104E+03  0.1101E+03
     -4.778  0.3435E+02  0.3340E+02  0.1121E+03  0.1119E+03
     -4.727  0.2844E+02  0.2974E+02  0.1136E+03  0.1134E+03
     -4.675  0.3494E+02  0.3562E+02  0.1154E+03  0.1152E+03
     -4.624  0.2939E+02  0.2825E+02  0.1169E+03  0.1167E+03
     -4.573  0.2978E+02  0.2823E+02  0.1184E+03  0.1181E+03
     -4.521  0.4040E+02  0.4007E+02  0.1205E+03  0.1202E+03
     -4.470  0.3253E+02  0.3382E+02  0.1222E+03  0.1219E+03
     -4.419  0.1939E+02  0.1902E+02  0.1232E+03  0.1229E+03
     -4.367  0.4389E+02  0.4699E+02  0.1254E+03  0.1253E+03
     -4.316  0.3643E+02  0.3494E+02  0.1273E+03  0.1271E+03
     -4.264  0.2401E+02  0.2393E+02  0.1285E+03  0.1283E+03
     -4.213  0.3223E+02  0.3206E+02  0.1302E+03  0.1300E+03
     -4.162  0.6658E+01  0.8503E+01  0.1305E+03  0.1304E+03
     -4.110  0.2937E+02  0.2707E+02  0.1321E+03  0.1318E+03
     -4.059  0.8355E+01  0.1002E+02  0.1325E+03  0.1323E+03
     -4.007  0.3864E+02  0.3899E+02  0.1345E+03  0.1343E+03
     -3.956  0.1915E+02  0.1338E+02  0.1355E+03  0.1350E+03
     -3.905  0.2688E+02  0.2836E+02  0.1368E+03  0.1365E+03
     -3.853  0.2347E+02  0.2445E+02  0.1380E+03  0.1377E+03
     -3.802  0.1955E+02  0.2167E+02  0.1390E+03  0.1388E+03
     -3.750  0.2580E+02  0.2684E+02  0.1404E+03  0.1402E+03
     -3.699  0.2763E+02  0.2193E+02  0.1418E+03  0.1414E+03
     -3.648  0.3969E+02  0.4123E+02  0.1438E+03  0.1435E+03
     -3.596  0.2082E+02  0.2384E+02  0.1449E+03  0.1447E+03
     -3.545  0.2617E+02  0.2242E+02  0.1462E+03  0.1458E+03
     -3.494  0.2739E+02  0.3230E+02  0.1477E+03  0.1475E+03
     -3.442  0.3006E+02  0.2888E+02  0.1492E+03  0.1490E+03
     -3.391  0.3366E+02  0.2926E+02  0.1509E+03  0.1505E+03
     -3.339  0.3429E+02  0.3814E+02  0.1527E+03  0.1525E+03
     -3.288  0.3607E+02  0.3685E+02  0.1545E+03  0.1543E+03
     -3.237  0.3804E+02  0.3440E+02  0.1565E+03  0.1561E+03
     -3.185  0.4518E+02  0.4419E+02  0.1588E+03  0.1584E+03
     -3.134  0.5548E+02  0.5634E+02  0.1617E+03  0.1613E+03
     -3.082  0.2846E+02  0.3186E+02  0.1631E+03  0.1629E+03
     -3.031  0.3974E+02  0.3912E+02  0.1652E+03  0.1649E+03
     -2.980  0.3086E+02  0.3263E+02  0.1668E+03  0.1666E+03
     -2.928  0.1674E+02  0.1530E+02  0.1676E+03  0.1674E+03
     -2.877  0.3249E+02  0.3216E+02  0.1693E+03  0.1690E+03
     -2.825  0.4105E+02  0.4408E+02  0.1714E+03  0.1713E+03
     -2.774  0.2312E+02  0.2206E+02  0.1726E+03  0.1724E+03
     -2.723  0.3641E+02  0.3131E+02  0.1745E+03  0.1741E+03
     -2.671  0.4191E+02  0.4153E+02  0.1766E+03  0.1762E+03
     -2.620  0.2844E+02  0.3344E+02  0.1781E+03  0.1779E+03
     -2.569  0.4806E+02  0.4266E+02  0.1805E+03  0.1801E+03
     -2.517  0.2395E+02  0.2816E+02  0.1818E+03  0.1815E+03
     -2.466  0.3626E+02  0.3449E+02  0.1836E+03  0.1833E+03
     -2.414  0.3352E+02  0.3655E+02  0.1854E+03  0.1852E+03
     -2.363  0.3326E+02  0.3413E+02  0.1871E+03  0.1870E+03
     -2.312  0.4929E+02  0.3981E+02  0.1896E+03  0.1890E+03
     -2.260  0.2964E+02  0.3886E+02  0.1911E+03  0.1910E+03
     -2.209  0.3214E+02  0.2761E+02  0.1928E+03  0.1924E+03
     -2.157  0.3220E+02  0.3661E+02  0.1944E+03  0.1943E+03
     -2.106  0.3271E+02  0.2604E+02  0.1961E+03  0.1956E+03
     -2.055  0.4421E+02  0.4905E+02  0.1984E+03  0.1982E+03
     -2.003  0.3509E+02  0.3227E+02  0.2002E+03  0.1998E+03
     -1.952  0.2836E+02  0.3332E+02  0.2016E+03  0.2015E+03
     -1.900  0.3565E+02  0.3372E+02  0.2035E+03  0.2033E+03
     -1.849  0.3485E+02  0.3550E+02  0.2053E+03  0.2051E+03
     -1.798  0.2428E+02  0.2484E+02  0.2065E+03  0.2064E+03
     -1.746  0.1611E+02  0.1487E+02  0.2073E+03  0.2071E+03
     -1.695  0.3676E+02  0.3731E+02  0.2092E+03  0.2090E+03
     -1.644  0.1614E+02  0.1728E+02  0.2101E+03  0.2099E+03
     -1.592  0.2622E+02  0.2465E+02  0.2114E+03  0.2112E+03
     -1.541  0.2443E+02  0.2565E+02  0.2127E+03  0.2125E+03
     -1.489  0.3863E+02  0.3688E+02  0.2147E+03  0.2144E+03
     -1.438  0.2247E+02  0.2587E+02  0.2158E+03  0.2157E+03
     -1.387  0.3900E+02  0.3729E+02  0.2178E+03  0.2177E+03
     -1.335  0.2072E+02  0.2218E+02  0.2189E+03  0.2188E+03
     -1.284  0.3613E+02  0.3285E+02  0.2207E+03  0.2205E+03
     -1.232  0.3101E+02  0.3257E+02  0.2223E+03  0.2222E+03
     -1.181  0.2500E+02  0.2514E+02  0.2236E+03  0.2234E+03
     -1.130  0.2691E+02  0.2664E+02  0.2250E+03  0.2248E+03
     -1.078  0.3574E+02  0.3757E+02  0.2268E+03  0.2267E+03
     -1.027  0.1858E+02  0.1525E+02  0.2278E+03  0.2275E+03
     -0.975  0.1745E+02  0.2091E+02  0.2287E+03  0.2286E+03
     -0.924  0.9457E+01  0.1094E+02  0.2292E+03  0.2292E+03
     -0.873  0.9020E+01  0.6608E+01  0.2296E+03  0.2295E+03
     -0.821  0.1431E+02  0.1235E+02  0.2304E+03  0.2301E+03
     -0.770  0.2448E+02  0.2541E+02  0.2316E+03  0.2314E+03
     -0.719  0.8715E+01  0.1100E+02  0.2321E+03  0.2320E+03
     -0.667  0.2439E+02  0.2317E+02  0.2333E+03  0.2332E+03
     -0.616  0.1018E+02  0.1156E+02  0.2338E+03  0.2338E+03
     -0.564  0.2109E+02  0.2012E+02  0.2349E+03  0.2348E+03
     -0.513  0.1360E+02  0.1159E+02  0.2356E+03  0.2354E+03
     -0.462  0.4520E+02  0.4441E+02  0.2380E+03  0.2377E+03
     -0.410  0.3075E+02  0.3375E+02  0.2395E+03  0.2394E+03
     -0.359  0.5267E+02  0.4780E+02  0.2422E+03  0.2419E+03
     -0.307  0.5811E+02  0.5244E+02  0.2452E+03  0.2446E+03
     -0.256  0.5646E+02  0.6158E+02  0.2481E+03  0.2478E+03
     -0.205  0.6802E+02  0.6486E+02  0.2516E+03  0.2511E+03
     -0.153  0.5789E+02  0.5894E+02  0.2546E+03  0.2541E+03
     -0.102  0.6277E+02  0.6661E+02  0.2578E+03  0.2575E+03
     -0.050  0.5953E+02  0.5634E+02  0.2609E+03  0.2604E+03
      0.001  0.7220E+02  0.7018E+02  0.2646E+03  0.2640E+03
      0.052  0.6818E+02  0.7053E+02  0.2681E+03  0.2677E+03
      0.104  0.6657E+02  0.6862E+02  0.2715E+03  0.2712E+03
      0.155  0.6277E+02  0.5867E+02  0.2747E+03  0.2742E+03
      0.206  0.6877E+02  0.7038E+02  0.2783E+03  0.2778E+03
      0.258  0.5902E+02  0.5800E+02  0.2813E+03  0.2808E+03
      0.309  0.6187E+02  0.6052E+02  0.2845E+03  0.2839E+03
      0.361  0.7011E+02  0.7093E+02  0.2881E+03  0.2876E+03
      0.412  0.7090E+02  0.7109E+02  0.2917E+03  0.2912E+03
      0.463  0.7156E+02  0.7336E+02  0.2954E+03  0.2950E+03
      0.515  0.5783E+02  0.6007E+02  0.2984E+03  0.2981E+03
      0.566  0.7363E+02  0.6706E+02  0.3022E+03  0.3015E+03
      0.618  0.7579E+02  0.7773E+02  0.3061E+03  0.3055E+03
      0.669  0.7764E+02  0.7554E+02  0.3101E+03  0.3094E+03
      0.720  0.6159E+02  0.6770E+02  0.3132E+03  0.3129E+03
      0.772  0.6120E+02  0.5808E+02  0.3164E+03  0.3159E+03
      0.823  0.6411E+02  0.6418E+02  0.3197E+03  0.3192E+03
      0.875  0.6338E+02  0.6024E+02  0.3229E+03  0.3223E+03
      0.926  0.7815E+02  0.8410E+02  0.3269E+03  0.3266E+03
      0.977  0.6294E+02  0.6308E+02  0.3302E+03  0.3298E+03
      1.029  0.6477E+02  0.6246E+02  0.3335E+03  0.3330E+03
      1.080  0.6957E+02  0.6826E+02  0.3371E+03  0.3365E+03
      1.131  0.6261E+02  0.6175E+02  0.3403E+03  0.3397E+03
      1.183  0.6837E+02  0.6949E+02  0.3438E+03  0.3433E+03
      1.234  0.8124E+02  0.8404E+02  0.3480E+03  0.3476E+03
      1.286  0.6362E+02  0.5766E+02  0.3512E+03  0.3506E+03
      1.337  0.6359E+02  0.6836E+02  0.3545E+03  0.3541E+03
      1.388  0.6207E+02  0.6064E+02  0.3577E+03  0.3572E+03
      1.440  0.7786E+02  0.7643E+02  0.3617E+03  0.3611E+03
      1.491  0.7024E+02  0.7085E+02  0.3653E+03  0.3648E+03
      1.543  0.6623E+02  0.6424E+02  0.3687E+03  0.3681E+03
      1.594  0.5980E+02  0.6543E+02  0.3718E+03  0.3714E+03
      1.645  0.6517E+02  0.6739E+02  0.3751E+03  0.3749E+03
      1.697  0.6667E+02  0.6100E+02  0.3786E+03  0.3780E+03
      1.748  0.6011E+02  0.6496E+02  0.3817E+03  0.3814E+03
      1.800  0.5792E+02  0.5339E+02  0.3846E+03  0.3841E+03
      1.851  0.6808E+02  0.7053E+02  0.3881E+03  0.3877E+03
      1.902  0.6265E+02  0.6191E+02  0.3914E+03  0.3909E+03
      1.954  0.5231E+02  0.4936E+02  0.3940E+03  0.3934E+03
      2.005  0.7219E+02  0.7486E+02  0.3977E+03  0.3973E+03
      2.056  0.6694E+02  0.6570E+02  0.4012E+03  0.4007E+03
      2.108  0.6473E+02  0.6141E+02  0.4045E+03  0.4038E+03
      2.159  0.5948E+02  0.5838E+02  0.4076E+03  0.4068E+03
      2.211  0.6208E+02  0.6534E+02  0.4108E+03  0.4102E+03
      2.262  0.7180E+02  0.7012E+02  0.4145E+03  0.4138E+03
      2.313  0.6431E+02  0.6716E+02  0.4178E+03  0.4172E+03
      2.365  0.4743E+02  0.4355E+02  0.4202E+03  0.4195E+03
      2.416  0.7240E+02  0.6920E+02  0.4239E+03  0.4230E+03
      2.468  0.4417E+02  0.5297E+02  0.4262E+03  0.4258E+03
      2.519  0.6459E+02  0.6113E+02  0.4295E+03  0.4289E+03
      2.570  0.5080E+02  0.5336E+02  0.4321E+03  0.4316E+03
      2.622  0.5443E+02  0.5253E+02  0.4349E+03  0.4343E+03
      2.673  0.6318E+02  0.5974E+02  0.4382E+03  0.4374E+03
      2.725  0.2025E+02  0.3075E+02  0.4392E+03  0.4390E+03
      2.776  0.6472E+02  0.5592E+02  0.4425E+03  0.4419E+03
      2.827  0.5039E+02  0.5647E+02  0.4451E+03  0.4448E+03
      2.879  0.5707E+02  0.5681E+02  0.4480E+03  0.4477E+03
      2.930  0.4714E+02  0.4407E+02  0.4505E+03  0.4499E+03
      2.981  0.6777E+02  0.6133E+02  0.4540E+03  0.4531E+03
      3.033  0.4937E+02  0.5779E+02  0.4565E+03  0.4561E+03
      3.084  0.5503E+02  0.4828E+02  0.4593E+03  0.4585E+03
      3.136  0.6119E+02  0.5958E+02  0.4625E+03  0.4616E+03
      3.187  0.5237E+02  0.5004E+02  0.4652E+03  0.4642E+03
      3.238  0.5579E+02  0.6925E+02  0.4680E+03  0.4677E+03
      3.290  0.5660E+02  0.4108E+02  0.4709E+03  0.4698E+03
      3.341  0.5931E+02  0.6163E+02  0.4740E+03  0.4730E+03
      3.393  0.6586E+02  0.6906E+02  0.4774E+03  0.4766E+03
      3.444  0.5306E+02  0.4179E+02  0.4801E+03  0.4787E+03
      3.495  0.6594E+02  0.7209E+02  0.4835E+03  0.4824E+03
      3.547  0.4936E+02  0.5735E+02  0.4860E+03  0.4854E+03
      3.598  0.7060E+02  0.6217E+02  0.4896E+03  0.4886E+03
      3.650  0.5389E+02  0.6385E+02  0.4924E+03  0.4918E+03
      3.701  0.5099E+02  0.5047E+02  0.4950E+03  0.4944E+03
      3.752  0.4696E+02  0.4697E+02  0.4974E+03  0.4968E+03
      3.804  0.6379E+02  0.5520E+02  0.5007E+03  0.4997E+03
      3.855  0.5198E+02  0.5604E+02  0.5034E+03  0.5026E+03
      3.906  0.5679E+02  0.6650E+02  0.5063E+03  0.5060E+03
      3.958  0.5215E+02  0.4513E+02  0.5090E+03  0.5083E+03
      4.009  0.5096E+02  0.4877E+02  0.5116E+03  0.5108E+03
      4.061  0.4411E+02  0.5278E+02  0.5139E+03  0.5135E+03
      4.112  0.5953E+02  0.5311E+02  0.5169E+03  0.5162E+03
      4.163  0.5591E+02  0.5795E+02  0.5198E+03  0.5192E+03
      4.215  0.4832E+02  0.4364E+02  0.5223E+03  0.5215E+03
      4.266  0.6464E+02  0.7126E+02  0.5256E+03  0.5251E+03
      4.318  0.3868E+02  0.3711E+02  0.5276E+03  0.5270E+03
      4.369  0.5432E+02  0.5568E+02  0.5304E+03  0.5299E+03
      4.420  0.4968E+02  0.5054E+02  0.5329E+03  0.5325E+03
      4.472  0.6078E+02  0.5389E+02  0.5361E+03  0.5353E+03
      4.523  0.4492E+02  0.5108E+02  0.5384E+03  0.5379E+03
      4.575  0.4508E+02  0.4702E+02  0.5407E+03  0.5403E+03
      4.626  0.5891E+02  0.5339E+02  0.5437E+03  0.5431E+03
      4.677  0.5047E+02  0.5116E+02  0.5463E+03  0.5457E+03
      4.729  0.6401E+02  0.6307E+02  0.5496E+03  0.5489E+03
      4.780  0.4820E+02  0.5174E+02  0.5521E+03  0.5516E+03
      4.831  0.4365E+02  0.4533E+02  0.5543E+03  0.5539E+03
      4.883  0.5152E+02  0.4681E+02  0.5570E+03  0.5563E+03
      4.934  0.4743E+02  0.4450E+02  0.5594E+03  0.5586E+03
      4.986  0.4345E+02  0.5464E+02  0.5616E+03  0.5614E+03
      5.037  0.5219E+02  0.4935E+02  0.5643E+03  0.5639E+03
      5.088  0.3753E+02  0.3379E+02  0.5663E+03  0.5657E+03
      5.140  0.4935E+02  0.4659E+02  0.5688E+03  0.5681E+03
      5.191  0.5965E+02  0.6242E+02  0.5719E+03  0.5713E+03
      5.243  0.3427E+02  0.4131E+02  0.5736E+03  0.5734E+03
      5.294  0.3296E+02  0.3591E+02  0.5753E+03  0.5753E+03
      5.345  0.1341E+02  0.1453E+02  0.5760E+03  0.5760E+03
      5.397  0.0000E+00  0.0000E+00  0.5760E+03  0.5760E+03
      5.448  0.0000E+00  0.0000E+00  0.5760E+03  0.5760E+03
      5.500  0.0000E+00  0.0000E+00  0.5760E+03  0.5760E+03
      5.551  0.0000E+00  0.0000E+00  0.5760E+03  0.5760E+03
      5.602  0.0000E+00  0.0000E+00  0.5760E+03  0.5760E+03
      5.654  0.0000E+00  0.0000E+00  0.5760E+03  0.5760E+03
      5.705  0.0000E+00  0.0000E+00  0.5760E+03  0.5760E+03
      5.756  0.0000E+00  0.0000E+00  0.5760E+03  0.5760E+03
      5.808  0.0000E+00  0.0000E+00  0.5760E+03  0.5760E+03
      5.859  0.0000E+00  0.0000E+00  0.5760E+03  0.5760E+03
      5.911  0.0000E+00  0.0000E+00  0.5760E+03  0.5760E+03
      5.962  0.0000E+00  0.0000E+00  0.5760E+03  0.5760E+03
      6.013  0.0000E+00  0.0000E+00  0.5760E+03  0.5760E+03
