Si and Ge interface calculation         
           1
    16.293001    0.000000    0.000000
     0.000000   17.174330    0.000000
     0.000000    0.000000   10.600553
   Si   Ge
    72    48
Direct configuration=     1
   0.13037890  0.82620466  0.40503448
   0.96371245  0.07620391  0.00000006
   0.79704571  0.42620403  0.08100694
   0.63037908  0.77620417  0.16201378
   0.46371227  0.12620449  0.24302071
   0.29704553  0.47620463  0.32402760
   0.46371227  0.82620466  0.40503448
   0.29704580  0.07620391  0.00000006
   0.13037908  0.42620403  0.08100694
   0.96371239  0.77620417  0.16201378
   0.79704559  0.12620449  0.24302071
   0.63037884  0.47620463  0.32402760
   0.79704559  0.82620466  0.40503448
   0.63037914  0.07620391  0.00000006
   0.46371242  0.42620403  0.08100694
   0.29704577  0.77620417  0.16201378
   0.13037898  0.12620449  0.24302071
   0.96371222  0.47620463  0.32402760
   0.21371222  0.57620478  0.40503442
   0.04704577  0.82620400  0.00000000
   0.88037908  0.17620420  0.08100692
   0.71371233  0.52620447  0.16201374
   0.54704559  0.87620461  0.24302065
   0.38037896  0.22620463  0.32402751
   0.54704559  0.57620478  0.40503442
   0.38037908  0.82620400  0.00000000
   0.21371238  0.17620420  0.08100692
   0.04704569  0.52620447  0.16201374
   0.88037896  0.87620461  0.24302065
   0.71371233  0.22620463  0.32402751
   0.88037890  0.57620478  0.40503442
   0.71371239  0.82620400  0.00000000
   0.54704571  0.17620420  0.08100692
   0.38037899  0.52620447  0.16201374
   0.21371223  0.87620461  0.24302065
   0.04704558  0.22620463  0.32402751
   0.13037890  0.32620478  0.40503448
   0.96371239  0.57620400  0.00000002
   0.79704571  0.92620414  0.08100689
   0.63037902  0.27620423  0.16201374
   0.46371227  0.62620449  0.24302071
   0.29704565  0.97620463  0.32402751
   0.46371227  0.32620478  0.40503448
   0.29704577  0.57620400  0.00000002
   0.13037905  0.92620414  0.08100689
   0.96371239  0.27620423  0.16201374
   0.79704559  0.62620449  0.24302071
   0.63037896  0.97620463  0.32402751
   0.79704559  0.32620478  0.40503448
   0.63037914  0.57620400  0.00000002
   0.46371239  0.92620414  0.08100689
   0.29704574  0.27620423  0.16201374
   0.13037898  0.62620449  0.24302071
   0.96371233  0.97620463  0.32402751
   0.21371222  0.07620478  0.40503439
   0.04704577  0.32620391  0.00000006
   0.88037908  0.67620403  0.08100690
   0.71371239  0.02620423  0.16201375
   0.54704559  0.37620449  0.24302065
   0.38037884  0.72620475  0.32402751
   0.54704559  0.07620478  0.40503439
   0.38037911  0.32620391  0.00000006
   0.21371241  0.67620403  0.08100690
   0.04704573  0.02620423  0.16201375
   0.88037896  0.37620449  0.24302065
   0.71371222  0.72620475  0.32402751
   0.88037896  0.07620478  0.40503439
   0.71371245  0.32620391  0.00000006
   0.54704577  0.67620403  0.08100690
   0.38037908  0.02620423  0.16201375
   0.21371229  0.37620449  0.24302065
   0.04704554  0.72620475  0.32402751
   0.22187972  0.98604769  0.54526609
   0.84687972  0.59715879  0.60816652
   0.47187978  0.20826989  0.67106700
   0.09687972  0.81938082  0.73396748
   0.72187978  0.43049198  0.79686791
   0.34687966  0.04160285  0.85976833
   0.72187966  0.98604769  0.54526609
   0.34687969  0.59715873  0.60816652
   0.97187972  0.20826984  0.67106700
   0.59687966  0.81938082  0.73396742
   0.22187972  0.43049187  0.79686791
   0.84687978  0.04160309  0.85976845
   0.34687969  0.73604763  0.54526609
   0.97187972  0.34715870  0.60816652
   0.59687978  0.95826977  0.67106700
   0.22187972  0.56938082  0.73396742
   0.84687966  0.18049181  0.79686785
   0.47187966  0.79160303  0.85976833
   0.84687966  0.73604763  0.54526609
   0.47187966  0.34715870  0.60816652
   0.09687972  0.95826977  0.67106700
   0.72187966  0.56938088  0.73396742
   0.34687972  0.18049187  0.79686791
   0.97187966  0.79160303  0.85976833
   0.59687972  0.73604763  0.54526609
   0.22187972  0.34715870  0.60816652
   0.84687978  0.95826977  0.67106700
   0.47187978  0.56938082  0.73396742
   0.09687972  0.18049187  0.79686785
   0.72187978  0.79160291  0.85976833
   0.09687972  0.73604757  0.54526609
   0.72187972  0.34715870  0.60816652
   0.34687975  0.95826977  0.67106700
   0.97187972  0.56938082  0.73396742
   0.59687966  0.18049187  0.79686785
   0.22187972  0.79160303  0.85976833
   0.47187969  0.98604769  0.54526609
   0.09687972  0.59715873  0.60816652
   0.72187978  0.20826989  0.67106700
   0.34687972  0.81938082  0.73396748
   0.97187978  0.43049198  0.79686779
   0.59687966  0.04160285  0.85976833
   0.97187966  0.98604769  0.54526615
   0.59687972  0.59715873  0.60816652
   0.22187972  0.20826989  0.67106700
   0.84687978  0.81938082  0.73396748
   0.47187966  0.43049187  0.79686779
   0.09687972  0.04160309  0.85976833
