 120 120   0   0
  0.2190039E+02  0.7680595E-09  0.1629300E-08  0.2100086E-08  0.5000000E-15
  1.000000000000000E-004
  CAR 
 Si and Ge interface calculation         
      7.79782263     -8.58731315  301      4.75005515      1.00000000
     -8.587  0.0000E+00  0.0000E+00  0.0000E+00  0.0000E+00
     -8.533  0.0000E+00  0.0000E+00  0.0000E+00  0.0000E+00
     -8.478  0.0000E+00  0.0000E+00  0.0000E+00  0.0000E+00
     -8.423  0.0000E+00  0.0000E+00  0.0000E+00  0.0000E+00
     -8.369  0.0000E+00  0.0000E+00  0.0000E+00  0.0000E+00
     -8.314  0.0000E+00  0.0000E+00  0.0000E+00  0.0000E+00
     -8.260  0.0000E+00  0.0000E+00  0.0000E+00  0.0000E+00
     -8.205  0.0000E+00  0.0000E+00  0.0000E+00  0.0000E+00
     -8.150  0.0000E+00  0.0000E+00  0.0000E+00  0.0000E+00
     -8.096  0.0000E+00  0.0000E+00  0.0000E+00  0.0000E+00
     -8.041  0.0000E+00  0.0000E+00  0.0000E+00  0.0000E+00
     -7.987  0.0000E+00  0.0000E+00  0.0000E+00  0.0000E+00
     -7.932  0.0000E+00  0.0000E+00  0.0000E+00  0.0000E+00
     -7.877  0.2029E-05  0.1527E-07  0.1108E-06  0.8338E-09
     -7.823  0.4566E+01  0.4453E+01  0.2494E+00  0.2432E+00
     -7.768  0.1152E-01  0.1241E+00  0.2500E+00  0.2500E+00
     -7.713  0.1018E+02  0.9286E+01  0.8058E+00  0.7572E+00
     -7.659  0.8133E+01  0.9023E+01  0.1250E+01  0.1250E+01
     -7.604  0.5628E+01  0.1565E+01  0.1557E+01  0.1335E+01
     -7.550  0.1699E+02  0.2075E+02  0.2485E+01  0.2469E+01
     -7.495  0.4846E+01  0.5150E+01  0.2750E+01  0.2750E+01
     -7.440  0.8266E+01  0.7152E+01  0.3201E+01  0.3141E+01
     -7.386  0.1495E+02  0.1336E+02  0.4018E+01  0.3870E+01
     -7.331  0.9769E+01  0.1162E+02  0.4551E+01  0.4505E+01
     -7.277  0.2497E+02  0.2429E+02  0.5915E+01  0.5832E+01
     -7.222  0.2165E+02  0.1979E+02  0.7098E+01  0.6913E+01
     -7.167  0.1653E+02  0.1988E+02  0.8001E+01  0.7998E+01
     -7.113  0.1736E+02  0.1368E+02  0.8950E+01  0.8745E+01
     -7.058  0.2837E+02  0.3206E+02  0.1050E+02  0.1050E+02
     -7.003  0.1713E+02  0.1576E+02  0.1143E+02  0.1136E+02
     -6.949  0.2452E+02  0.2481E+02  0.1277E+02  0.1271E+02
     -6.894  0.2207E+02  0.2187E+02  0.1398E+02  0.1391E+02
     -6.840  0.1865E+02  0.1967E+02  0.1500E+02  0.1498E+02
     -6.785  0.1793E+02  0.1508E+02  0.1598E+02  0.1580E+02
     -6.730  0.2303E+02  0.2332E+02  0.1724E+02  0.1708E+02
     -6.676  0.2451E+02  0.2351E+02  0.1857E+02  0.1836E+02
     -6.621  0.2075E+02  0.2381E+02  0.1971E+02  0.1966E+02
     -6.566  0.1887E+02  0.1676E+02  0.2074E+02  0.2058E+02
     -6.512  0.4938E+02  0.4507E+02  0.2344E+02  0.2304E+02
     -6.457  0.1528E+02  0.2218E+02  0.2427E+02  0.2425E+02
     -6.403  0.3785E+02  0.2786E+02  0.2634E+02  0.2577E+02
     -6.348  0.3601E+02  0.4182E+02  0.2830E+02  0.2806E+02
     -6.293  0.5197E+02  0.5227E+02  0.3114E+02  0.3091E+02
     -6.239  0.2681E+02  0.2609E+02  0.3261E+02  0.3234E+02
     -6.184  0.3194E+02  0.3183E+02  0.3435E+02  0.3407E+02
     -6.130  0.4800E+02  0.4884E+02  0.3697E+02  0.3674E+02
     -6.075  0.1997E+02  0.1864E+02  0.3806E+02  0.3776E+02
     -6.020  0.2755E+02  0.2719E+02  0.3957E+02  0.3925E+02
     -5.966  0.2900E+02  0.3284E+02  0.4115E+02  0.4104E+02
     -5.911  0.3651E+02  0.3483E+02  0.4315E+02  0.4294E+02
     -5.856  0.4574E+02  0.4792E+02  0.4565E+02  0.4556E+02
     -5.802  0.1713E+02  0.1669E+02  0.4658E+02  0.4647E+02
     -5.747  0.4391E+02  0.4287E+02  0.4898E+02  0.4881E+02
     -5.693  0.4463E+02  0.4401E+02  0.5142E+02  0.5121E+02
     -5.638  0.4900E+02  0.4795E+02  0.5409E+02  0.5383E+02
     -5.583  0.3858E+02  0.4029E+02  0.5620E+02  0.5603E+02
     -5.529  0.3822E+02  0.3677E+02  0.5829E+02  0.5804E+02
     -5.474  0.3764E+02  0.3333E+02  0.6034E+02  0.5986E+02
     -5.420  0.3094E+02  0.3942E+02  0.6203E+02  0.6202E+02
     -5.365  0.3290E+02  0.3004E+02  0.6383E+02  0.6366E+02
     -5.310  0.5111E+02  0.4953E+02  0.6662E+02  0.6636E+02
     -5.256  0.2112E+02  0.2324E+02  0.6777E+02  0.6763E+02
     -5.201  0.5030E+02  0.4922E+02  0.7052E+02  0.7032E+02
     -5.146  0.6556E+02  0.5711E+02  0.7410E+02  0.7344E+02
     -5.092  0.5078E+02  0.6065E+02  0.7688E+02  0.7675E+02
     -5.037  0.4045E+02  0.3994E+02  0.7909E+02  0.7893E+02
     -4.983  0.2929E+02  0.2964E+02  0.8068E+02  0.8055E+02
     -4.928  0.4968E+02  0.4398E+02  0.8340E+02  0.8295E+02
     -4.873  0.3583E+02  0.4252E+02  0.8536E+02  0.8528E+02
     -4.819  0.3333E+02  0.2808E+02  0.8718E+02  0.8681E+02
     -4.764  0.5810E+02  0.6070E+02  0.9035E+02  0.9012E+02
     -4.709  0.1606E+02  0.1626E+02  0.9123E+02  0.9101E+02
     -4.655  0.3975E+02  0.3946E+02  0.9340E+02  0.9317E+02
     -4.600  0.4304E+02  0.4705E+02  0.9575E+02  0.9574E+02
     -4.546  0.1680E+02  0.1141E+02  0.9667E+02  0.9636E+02
     -4.491  0.5214E+02  0.5366E+02  0.9951E+02  0.9929E+02
     -4.436  0.2682E+02  0.2734E+02  0.1010E+03  0.1008E+03
     -4.382  0.4451E+02  0.4153E+02  0.1034E+03  0.1031E+03
     -4.327  0.2463E+02  0.3110E+02  0.1048E+03  0.1048E+03
     -4.273  0.3215E+02  0.2973E+02  0.1065E+03  0.1064E+03
     -4.218  0.2723E+02  0.2734E+02  0.1080E+03  0.1079E+03
     -4.163  0.1897E+02  0.1690E+02  0.1090E+03  0.1088E+03
     -4.109  0.1513E+02  0.1661E+02  0.1099E+03  0.1097E+03
     -4.054  0.1641E+02  0.1845E+02  0.1108E+03  0.1107E+03
     -3.999  0.9495E+01  0.6218E+01  0.1113E+03  0.1110E+03
     -3.945  0.3505E+02  0.3712E+02  0.1132E+03  0.1131E+03
     -3.890  0.1796E+02  0.1659E+02  0.1142E+03  0.1140E+03
     -3.836  0.1876E+01  0.4937E+01  0.1143E+03  0.1143E+03
     -3.781  0.2160E+02  0.2066E+02  0.1155E+03  0.1154E+03
     -3.726  0.2578E+02  0.2140E+02  0.1169E+03  0.1165E+03
     -3.672  0.1234E+02  0.1390E+02  0.1175E+03  0.1173E+03
     -3.617  0.3783E+02  0.3740E+02  0.1196E+03  0.1193E+03
     -3.563  0.7306E+01  0.1192E+02  0.1200E+03  0.1200E+03
     -3.508  0.1401E+02  0.1079E+02  0.1208E+03  0.1206E+03
     -3.453  0.2261E+02  0.2560E+02  0.1220E+03  0.1220E+03
     -3.399  0.1805E+02  0.1733E+02  0.1230E+03  0.1229E+03
     -3.344  0.1619E+02  0.1281E+02  0.1239E+03  0.1236E+03
     -3.289  0.2343E+02  0.2584E+02  0.1251E+03  0.1250E+03
     -3.235  0.8756E+01  0.5178E+01  0.1256E+03  0.1253E+03
     -3.180  0.4121E+02  0.4410E+02  0.1279E+03  0.1277E+03
     -3.126  0.1513E+02  0.1421E+02  0.1287E+03  0.1285E+03
     -3.071  0.2250E+02  0.2342E+02  0.1299E+03  0.1298E+03
     -3.016  0.5825E+01  0.8403E+01  0.1303E+03  0.1302E+03
     -2.962  0.2372E+02  0.1991E+02  0.1315E+03  0.1313E+03
     -2.907  0.2966E+02  0.3010E+02  0.1332E+03  0.1330E+03
     -2.853  0.2945E+02  0.2720E+02  0.1348E+03  0.1345E+03
     -2.798  0.3346E+02  0.3594E+02  0.1366E+03  0.1364E+03
     -2.743  0.3905E+02  0.3216E+02  0.1387E+03  0.1382E+03
     -2.689  0.5001E+02  0.5309E+02  0.1415E+03  0.1411E+03
     -2.634  0.4870E+02  0.4692E+02  0.1441E+03  0.1436E+03
     -2.579  0.5297E+02  0.5557E+02  0.1470E+03  0.1467E+03
     -2.525  0.6385E+02  0.6050E+02  0.1505E+03  0.1500E+03
     -2.470  0.5355E+02  0.5262E+02  0.1534E+03  0.1529E+03
     -2.416  0.7050E+02  0.7500E+02  0.1573E+03  0.1570E+03
     -2.361  0.5737E+02  0.5893E+02  0.1604E+03  0.1602E+03
     -2.306  0.3997E+02  0.3701E+02  0.1626E+03  0.1622E+03
     -2.252  0.4760E+02  0.5011E+02  0.1652E+03  0.1649E+03
     -2.197  0.4645E+02  0.4127E+02  0.1677E+03  0.1672E+03
     -2.142  0.4565E+02  0.5131E+02  0.1702E+03  0.1700E+03
     -2.088  0.6243E+02  0.5718E+02  0.1736E+03  0.1731E+03
     -2.033  0.3518E+02  0.4169E+02  0.1756E+03  0.1754E+03
     -1.979  0.6702E+02  0.5753E+02  0.1792E+03  0.1785E+03
     -1.924  0.1426E+02  0.2673E+02  0.1800E+03  0.1800E+03
     -1.869  0.1168E+02  0.1016E+02  0.1806E+03  0.1805E+03
     -1.815  0.2263E+02  0.1917E+02  0.1819E+03  0.1816E+03
     -1.760  0.3005E+02  0.2916E+02  0.1835E+03  0.1832E+03
     -1.706  0.4034E+02  0.3758E+02  0.1857E+03  0.1852E+03
     -1.651  0.4628E+02  0.4589E+02  0.1882E+03  0.1877E+03
     -1.596  0.5953E+02  0.6193E+02  0.1915E+03  0.1911E+03
     -1.542  0.2075E+02  0.2298E+02  0.1926E+03  0.1924E+03
     -1.487  0.1957E+02  0.1961E+02  0.1937E+03  0.1935E+03
     -1.432  0.2659E+02  0.2848E+02  0.1952E+03  0.1950E+03
     -1.378  0.3473E+02  0.3202E+02  0.1970E+03  0.1968E+03
     -1.323  0.1338E+02  0.1814E+02  0.1978E+03  0.1978E+03
     -1.269  0.3103E+02  0.3052E+02  0.1995E+03  0.1994E+03
     -1.214  0.5007E+01  0.5605E+01  0.1997E+03  0.1997E+03
     -1.159  0.8137E+01  0.6239E+01  0.2002E+03  0.2001E+03
     -1.105  0.1575E+02  0.1406E+02  0.2011E+03  0.2008E+03
     -1.050  0.2408E+02  0.2261E+02  0.2024E+03  0.2021E+03
     -0.996  0.3938E+02  0.4284E+02  0.2045E+03  0.2044E+03
     -0.941  0.1611E+02  0.1651E+02  0.2054E+03  0.2053E+03
     -0.886  0.1561E+02  0.1720E+02  0.2063E+03  0.2062E+03
     -0.832  0.8784E+01  0.7628E+01  0.2067E+03  0.2067E+03
     -0.777  0.1664E+02  0.1040E+02  0.2076E+03  0.2072E+03
     -0.722  0.1427E+02  0.1912E+02  0.2084E+03  0.2083E+03
     -0.668  0.2872E+02  0.2974E+02  0.2100E+03  0.2099E+03
     -0.613  0.2939E+02  0.2209E+02  0.2116E+03  0.2111E+03
     -0.559  0.4749E+02  0.4802E+02  0.2142E+03  0.2137E+03
     -0.504  0.4277E+02  0.4374E+02  0.2165E+03  0.2161E+03
     -0.449  0.1347E+02  0.1823E+02  0.2173E+03  0.2171E+03
     -0.395  0.2807E+02  0.2167E+02  0.2188E+03  0.2183E+03
     -0.340  0.2215E+02  0.3108E+02  0.2200E+03  0.2200E+03
     -0.286  0.4307E+01  0.1053E+01  0.2202E+03  0.2201E+03
     -0.231  0.1654E+02  0.1526E+02  0.2211E+03  0.2209E+03
     -0.176  0.3383E+02  0.3606E+02  0.2230E+03  0.2229E+03
     -0.122  0.1069E+01  0.2870E+01  0.2230E+03  0.2230E+03
     -0.067  0.8827E+01  0.8888E+01  0.2235E+03  0.2235E+03
     -0.012  0.2559E+02  0.2161E+02  0.2249E+03  0.2247E+03
      0.042  0.1054E+02  0.1501E+02  0.2255E+03  0.2255E+03
      0.097  0.4566E+01  0.4380E+01  0.2257E+03  0.2257E+03
      0.151  0.2245E+02  0.1770E+02  0.2270E+03  0.2267E+03
      0.206  0.4869E+02  0.4693E+02  0.2296E+03  0.2293E+03
      0.261  0.8036E+02  0.7253E+02  0.2340E+03  0.2332E+03
      0.315  0.3628E+02  0.4916E+02  0.2360E+03  0.2359E+03
      0.370  0.4339E+02  0.4188E+02  0.2384E+03  0.2382E+03
      0.425  0.4112E+02  0.3803E+02  0.2406E+03  0.2403E+03
      0.479  0.4032E+02  0.4518E+02  0.2428E+03  0.2427E+03
      0.534  0.5170E+02  0.4751E+02  0.2456E+03  0.2453E+03
      0.588  0.3381E+02  0.3359E+02  0.2475E+03  0.2472E+03
      0.643  0.7459E+02  0.7348E+02  0.2516E+03  0.2512E+03
      0.698  0.3107E+02  0.3124E+02  0.2533E+03  0.2529E+03
      0.752  0.1117E+03  0.1058E+03  0.2594E+03  0.2587E+03
      0.807  0.8713E+02  0.9143E+02  0.2641E+03  0.2637E+03
      0.861  0.5648E+02  0.5763E+02  0.2672E+03  0.2668E+03
      0.916  0.5724E+02  0.5633E+02  0.2703E+03  0.2699E+03
      0.971  0.5112E+02  0.5373E+02  0.2731E+03  0.2728E+03
      1.025  0.4403E+02  0.4558E+02  0.2755E+03  0.2753E+03
      1.080  0.9951E+02  0.9515E+02  0.2810E+03  0.2805E+03
      1.135  0.5409E+02  0.5546E+02  0.2839E+03  0.2835E+03
      1.189  0.7753E+02  0.6851E+02  0.2882E+03  0.2873E+03
      1.244  0.6788E+02  0.7833E+02  0.2919E+03  0.2916E+03
      1.298  0.7509E+02  0.6858E+02  0.2960E+03  0.2953E+03
      1.353  0.9078E+02  0.9378E+02  0.3009E+03  0.3004E+03
      1.408  0.6165E+02  0.6467E+02  0.3043E+03  0.3040E+03
      1.462  0.9240E+02  0.8199E+02  0.3093E+03  0.3084E+03
      1.517  0.4326E+02  0.5380E+02  0.3117E+03  0.3114E+03
      1.571  0.5605E+02  0.5587E+02  0.3148E+03  0.3144E+03
      1.626  0.8247E+02  0.7795E+02  0.3193E+03  0.3187E+03
      1.681  0.8161E+02  0.8532E+02  0.3237E+03  0.3233E+03
      1.735  0.7429E+02  0.7250E+02  0.3278E+03  0.3273E+03
      1.790  0.9843E+02  0.9592E+02  0.3332E+03  0.3325E+03
      1.845  0.9583E+02  0.8770E+02  0.3384E+03  0.3373E+03
      1.899  0.8284E+02  0.9333E+02  0.3429E+03  0.3424E+03
      1.954  0.8072E+02  0.8103E+02  0.3473E+03  0.3469E+03
      2.008  0.4492E+02  0.4606E+02  0.3498E+03  0.3494E+03
      2.063  0.6295E+02  0.6565E+02  0.3532E+03  0.3530E+03
      2.118  0.7404E+02  0.6634E+02  0.3573E+03  0.3566E+03
      2.172  0.5245E+02  0.5449E+02  0.3601E+03  0.3596E+03
      2.227  0.7886E+02  0.7990E+02  0.3644E+03  0.3639E+03
      2.281  0.6330E+02  0.6412E+02  0.3679E+03  0.3674E+03
      2.336  0.9677E+02  0.9644E+02  0.3732E+03  0.3727E+03
      2.391  0.5439E+02  0.5346E+02  0.3761E+03  0.3756E+03
      2.445  0.7675E+02  0.7683E+02  0.3803E+03  0.3798E+03
      2.500  0.7413E+02  0.7000E+02  0.3844E+03  0.3836E+03
      2.555  0.6591E+02  0.7369E+02  0.3880E+03  0.3877E+03
      2.609  0.7117E+02  0.6918E+02  0.3919E+03  0.3914E+03
      2.664  0.5497E+02  0.5416E+02  0.3949E+03  0.3944E+03
      2.718  0.7740E+02  0.8022E+02  0.3991E+03  0.3988E+03
      2.773  0.6125E+02  0.6200E+02  0.4024E+03  0.4022E+03
      2.828  0.3995E+02  0.3959E+02  0.4046E+03  0.4043E+03
      2.882  0.5906E+02  0.5250E+02  0.4079E+03  0.4072E+03
      2.937  0.8061E+02  0.8508E+02  0.4123E+03  0.4118E+03
      2.992  0.5332E+02  0.5271E+02  0.4152E+03  0.4147E+03
      3.046  0.4867E+02  0.4189E+02  0.4178E+03  0.4170E+03
      3.101  0.9277E+02  0.9750E+02  0.4229E+03  0.4223E+03
      3.155  0.5754E+02  0.5386E+02  0.4260E+03  0.4253E+03
      3.210  0.7072E+02  0.7134E+02  0.4299E+03  0.4292E+03
      3.265  0.8400E+02  0.8469E+02  0.4345E+03  0.4338E+03
      3.319  0.6171E+02  0.6396E+02  0.4379E+03  0.4373E+03
      3.374  0.6800E+02  0.6792E+02  0.4416E+03  0.4410E+03
      3.428  0.5809E+02  0.5825E+02  0.4447E+03  0.4442E+03
      3.483  0.5972E+02  0.6382E+02  0.4480E+03  0.4477E+03
      3.538  0.2088E+02  0.2010E+02  0.4491E+03  0.4488E+03
      3.592  0.6095E+02  0.5867E+02  0.4525E+03  0.4520E+03
      3.647  0.2354E+02  0.3047E+02  0.4538E+03  0.4536E+03
      3.702  0.3544E+02  0.3000E+02  0.4557E+03  0.4553E+03
      3.756  0.3081E+02  0.3536E+02  0.4574E+03  0.4572E+03
      3.811  0.3424E+02  0.2954E+02  0.4592E+03  0.4588E+03
      3.865  0.1855E+02  0.2625E+02  0.4603E+03  0.4603E+03
      3.920  0.3564E+02  0.2811E+02  0.4622E+03  0.4618E+03
      3.975  0.3675E+02  0.3216E+02  0.4642E+03  0.4635E+03
      4.029  0.2712E+02  0.3708E+02  0.4657E+03  0.4656E+03
      4.084  0.2548E+02  0.2626E+02  0.4671E+03  0.4670E+03
      4.138  0.2573E+02  0.1773E+02  0.4685E+03  0.4680E+03
      4.193  0.1519E+02  0.2076E+02  0.4693E+03  0.4691E+03
      4.248  0.2820E+02  0.1924E+02  0.4709E+03  0.4702E+03
      4.302  0.1381E+02  0.2319E+02  0.4716E+03  0.4714E+03
      4.357  0.1612E+02  0.1975E+02  0.4725E+03  0.4725E+03
      4.412  0.1599E+02  0.4482E+01  0.4734E+03  0.4727E+03
      4.466  0.2546E+02  0.1467E+02  0.4748E+03  0.4735E+03
      4.521  0.2381E+02  0.3255E+02  0.4761E+03  0.4753E+03
      4.575  0.1250E+02  0.1593E+02  0.4767E+03  0.4762E+03
      4.630  0.2073E+01  0.9469E+01  0.4769E+03  0.4767E+03
      4.685  0.2087E+02  0.8210E+01  0.4780E+03  0.4772E+03
      4.739  0.4537E+02  0.2129E+02  0.4805E+03  0.4783E+03
      4.794  0.3709E+02  0.4585E+02  0.4825E+03  0.4808E+03
      4.848  0.1447E+02  0.3513E+02  0.4833E+03  0.4827E+03
      4.903  0.3081E+02  0.1704E+02  0.4850E+03  0.4837E+03
      4.958  0.2726E+02  0.4157E+02  0.4865E+03  0.4859E+03
      5.012  0.3855E+02  0.1119E+02  0.4886E+03  0.4866E+03
      5.067  0.3337E+02  0.5023E+02  0.4904E+03  0.4893E+03
      5.122  0.2770E+02  0.2937E+02  0.4919E+03  0.4909E+03
      5.176  0.2875E+02  0.2826E+02  0.4935E+03  0.4924E+03
      5.231  0.3005E+02  0.3427E+02  0.4951E+03  0.4943E+03
      5.285  0.5016E+02  0.4428E+02  0.4979E+03  0.4967E+03
      5.340  0.2733E+02  0.3721E+02  0.4994E+03  0.4988E+03
      5.395  0.5719E+02  0.4689E+02  0.5025E+03  0.5013E+03
      5.449  0.2517E+02  0.3482E+02  0.5038E+03  0.5032E+03
      5.504  0.2564E+02  0.2701E+02  0.5052E+03  0.5047E+03
      5.559  0.5142E+02  0.5615E+02  0.5081E+03  0.5078E+03
      5.613  0.4083E+02  0.3323E+02  0.5103E+03  0.5096E+03
      5.668  0.6435E+02  0.5747E+02  0.5138E+03  0.5127E+03
      5.722  0.5615E+02  0.5950E+02  0.5169E+03  0.5160E+03
      5.777  0.3247E+02  0.4474E+02  0.5186E+03  0.5184E+03
      5.832  0.4691E+02  0.4451E+02  0.5212E+03  0.5209E+03
      5.886  0.6560E+02  0.5540E+02  0.5248E+03  0.5239E+03
      5.941  0.6179E+02  0.6299E+02  0.5282E+03  0.5273E+03
      5.995  0.3677E+02  0.4760E+02  0.5302E+03  0.5299E+03
      6.050  0.4562E+02  0.4556E+02  0.5327E+03  0.5324E+03
      6.105  0.5496E+02  0.4542E+02  0.5357E+03  0.5349E+03
      6.159  0.5604E+02  0.5741E+02  0.5387E+03  0.5380E+03
      6.214  0.6556E+02  0.7251E+02  0.5423E+03  0.5420E+03
      6.269  0.3533E+02  0.3583E+02  0.5442E+03  0.5439E+03
      6.323  0.1860E+02  0.2060E+02  0.5453E+03  0.5451E+03
      6.378  0.6007E+02  0.5431E+02  0.5485E+03  0.5480E+03
      6.432  0.6612E+02  0.6479E+02  0.5521E+03  0.5516E+03
      6.487  0.6202E+02  0.6519E+02  0.5555E+03  0.5551E+03
      6.542  0.6799E+02  0.6303E+02  0.5592E+03  0.5586E+03
      6.596  0.3013E+02  0.3842E+02  0.5609E+03  0.5607E+03
      6.651  0.3627E+02  0.3454E+02  0.5629E+03  0.5626E+03
      6.705  0.4605E+02  0.4872E+02  0.5654E+03  0.5652E+03
      6.760  0.5268E+02  0.5190E+02  0.5683E+03  0.5681E+03
      6.815  0.3815E+02  0.3286E+02  0.5703E+03  0.5698E+03
      6.869  0.5322E+02  0.5764E+02  0.5733E+03  0.5730E+03
      6.924  0.2279E+02  0.2740E+02  0.5745E+03  0.5745E+03
      6.979  0.1914E+01  0.6186E+00  0.5746E+03  0.5745E+03
      7.033  0.1317E+02  0.1021E+02  0.5753E+03  0.5751E+03
      7.088  0.1238E+02  0.1676E+02  0.5760E+03  0.5760E+03
      7.142  0.0000E+00  0.0000E+00  0.5760E+03  0.5760E+03
      7.197  0.0000E+00  0.0000E+00  0.5760E+03  0.5760E+03
      7.252  0.0000E+00  0.0000E+00  0.5760E+03  0.5760E+03
      7.306  0.0000E+00  0.0000E+00  0.5760E+03  0.5760E+03
      7.361  0.0000E+00  0.0000E+00  0.5760E+03  0.5760E+03
      7.416  0.0000E+00  0.0000E+00  0.5760E+03  0.5760E+03
      7.470  0.0000E+00  0.0000E+00  0.5760E+03  0.5760E+03
      7.525  0.0000E+00  0.0000E+00  0.5760E+03  0.5760E+03
      7.579  0.0000E+00  0.0000E+00  0.5760E+03  0.5760E+03
      7.634  0.0000E+00  0.0000E+00  0.5760E+03  0.5760E+03
      7.689  0.0000E+00  0.0000E+00  0.5760E+03  0.5760E+03
      7.743  0.0000E+00  0.0000E+00  0.5760E+03  0.5760E+03
      7.798  0.0000E+00  0.0000E+00  0.5760E+03  0.5760E+03
