Si and Ge interface calculation         
           1
    11.239624    0.000000    0.000000
     0.000000   15.895229    0.000000
     0.000000    0.000000   25.800941
   Sn   Ge
    72    96
Direct configuration=     1
   0.00000000  0.01797952  0.00000000
   0.99999994  0.26797959  0.08892229
   0.99999988  0.51797974  0.17784460
   0.99999982  0.76797992  0.26676691
   0.99999982  0.01797998  0.35568920
   0.99999976  0.26798010  0.44461155
   0.33333337  0.35131288  0.00000000
   0.33333331  0.60131288  0.08892229
   0.33333331  0.85131305  0.17784460
   0.33333322  0.10131323  0.26676691
   0.33333322  0.35131335  0.35568920
   0.33333316  0.60131347  0.44461155
   0.66666675  0.68464625  0.00000000
   0.66666669  0.93464625  0.08892229
   0.66666681  0.18464649  0.17784460
   0.66666651  0.43464649  0.26676691
   0.66666657  0.68464661  0.35568920
   0.66666657  0.93464685  0.44461155
   0.00000003  0.51797956  0.00000000
   0.99999994  0.76797962  0.08892229
   0.99999988  0.01797974  0.17784460
   0.99999988  0.26797986  0.26676688
   0.99999982  0.51797998  0.35568920
   0.99999976  0.76798010  0.44461155
   0.33333337  0.85131288  0.00000000
   0.33333334  0.10131300  0.08892229
   0.33333337  0.35131323  0.17784460
   0.33333325  0.60131323  0.26676688
   0.33333328  0.85131335  0.35568920
   0.33333311  0.10131359  0.44461155
   0.66666681  0.18464620  0.00000000
   0.66666663  0.43464625  0.08892229
   0.66666669  0.68464643  0.17784460
   0.66666663  0.93464649  0.26676688
   0.66666651  0.18464661  0.35568920
   0.66666657  0.43464673  0.44461152
   0.08333332  0.35131285  0.00000000
   0.08333325  0.60131288  0.08892229
   0.08333329  0.85131305  0.17784460
   0.08333313  0.10131311  0.26676691
   0.08333313  0.35131323  0.35568920
   0.08333313  0.60131335  0.44461152
   0.41666672  0.68464619  0.00000000
   0.41666663  0.93464625  0.08892229
   0.41666666  0.18464649  0.17784460
   0.41666660  0.43464661  0.26676688
   0.41666639  0.68464661  0.35568920
   0.41666651  0.93464673  0.44461152
   0.75000000  0.01797955  0.00000001
   0.75000000  0.26797959  0.08892230
   0.74999994  0.51797974  0.17784460
   0.74999982  0.76797986  0.26676688
   0.74999982  0.01797998  0.35568920
   0.74999982  0.26798010  0.44461152
   0.08333334  0.85131294  0.00000000
   0.08333328  0.10131300  0.08892231
   0.08333322  0.35131311  0.17784458
   0.08333325  0.60131347  0.26676691
   0.08333313  0.85131335  0.35568923
   0.08333307  0.10131359  0.44461152
   0.41666672  0.18464620  0.00000000
   0.41666666  0.43464625  0.08892229
   0.41666657  0.68464643  0.17784460
   0.41666657  0.93464655  0.26676691
   0.41666657  0.18464661  0.35568920
   0.41666645  0.43464673  0.44461152
   0.75000000  0.51797950  0.00000000
   0.74999994  0.76797962  0.08892229
   0.75000000  0.01797974  0.17784460
   0.74999988  0.26797986  0.26676691
   0.74999982  0.51797986  0.35568920
   0.74999976  0.76798010  0.44461152
   0.08777988  0.98763978  0.52848196
   0.83777982  0.61263973  0.60601157
   0.58777988  0.23763967  0.68354106
   0.33778000  0.86263984  0.76107049
   0.08777988  0.48763967  0.83860004
   0.83777982  0.11263967  0.91612953
   0.58777988  0.98763978  0.52848196
   0.33777988  0.61263973  0.60601157
   0.08777988  0.23763967  0.68354106
   0.83777994  0.86263984  0.76107049
   0.58777994  0.48763967  0.83860004
   0.33777988  0.11263967  0.91612953
   0.08777988  0.48763967  0.52848196
   0.83777982  0.11263967  0.60601157
   0.58777988  0.73763973  0.68354106
   0.33778000  0.36263990  0.76107049
   0.08777988  0.98763973  0.83860010
   0.83777982  0.61263973  0.91612953
   0.58777988  0.48763967  0.52848196
   0.33777988  0.11263967  0.60601157
   0.08777988  0.73763973  0.68354106
   0.83777994  0.36263990  0.76107049
   0.58777994  0.98763973  0.83860010
   0.33777988  0.61263973  0.91612953
   0.08777988  0.23763967  0.52848196
   0.83777982  0.86263973  0.60601157
   0.58777988  0.48763967  0.68354106
   0.33778000  0.11263990  0.76107049
   0.08777988  0.73763978  0.83860010
   0.83777982  0.36263967  0.91612953
   0.58777988  0.23763967  0.52848196
   0.33777988  0.86263973  0.60601157
   0.08777988  0.48763967  0.68354106
   0.83777994  0.11263990  0.76107049
   0.58777994  0.73763978  0.83860010
   0.33777988  0.36263967  0.91612953
   0.08777988  0.73763973  0.52848196
   0.83777982  0.36263967  0.60601157
   0.58777988  0.98763973  0.68354106
   0.33778000  0.61263984  0.76107049
   0.08777988  0.23763990  0.83860004
   0.83777982  0.86263973  0.91612953
   0.58777988  0.73763973  0.52848196
   0.33777988  0.36263967  0.60601157
   0.08777988  0.98763973  0.68354106
   0.83777994  0.61263984  0.76107049
   0.58777994  0.23763990  0.83860004
   0.33777988  0.86263973  0.91612953
   0.46277985  0.11263978  0.52848196
   0.21277988  0.73763978  0.60601157
   0.96277988  0.36263967  0.68354106
   0.71277994  0.98763984  0.76107049
   0.46277988  0.61263978  0.83860010
   0.21277982  0.23763967  0.91612953
   0.96277994  0.11263978  0.52848196
   0.71277988  0.73763978  0.60601157
   0.46277991  0.36263967  0.68354106
   0.21278000  0.98763984  0.76107049
   0.96277994  0.61263978  0.83860010
   0.71277988  0.23763967  0.91612953
   0.46277985  0.61263973  0.52848196
   0.21277988  0.23763967  0.60601157
   0.96277988  0.86263973  0.68354106
   0.71277994  0.48763990  0.76107049
   0.46277988  0.11263990  0.83860004
   0.21277982  0.73763961  0.91612953
   0.96277994  0.61263973  0.52848196
   0.71277988  0.23763967  0.60601157
   0.46277991  0.86263973  0.68354106
   0.21278000  0.48763990  0.76107049
   0.96277994  0.11263990  0.83860004
   0.71277988  0.73763961  0.91612953
   0.46277985  0.36263978  0.52848196
   0.21277988  0.98763978  0.60601157
   0.96277988  0.61263978  0.68354106
   0.71277994  0.23763990  0.76107049
   0.46277988  0.86263984  0.83860004
   0.21277982  0.48763967  0.91612953
   0.96277994  0.36263978  0.52848196
   0.71277988  0.98763978  0.60601157
   0.46277991  0.61263978  0.68354106
   0.21278000  0.23763990  0.76107049
   0.96277994  0.86263984  0.83860004
   0.71277988  0.48763967  0.91612953
   0.46277985  0.86263973  0.52848196
   0.21277988  0.48763967  0.60601157
   0.96277988  0.11263967  0.68354106
   0.71277994  0.73763984  0.76107049
   0.46277988  0.36263967  0.83860004
   0.21277982  0.98763973  0.91612953
   0.96277994  0.86263973  0.52848196
   0.71277988  0.48763967  0.60601157
   0.46277991  0.11263967  0.68354106
   0.21278000  0.73763984  0.76107049
   0.96277994  0.36263967  0.83860004
   0.71277988  0.98763973  0.91612953
