       N       E                     dE             d eps       ncg     rms          rms(c)
DAV:   1     0.378692733650E+04    0.37869E+04   -0.40106E+05 17536   0.172E+03
DAV:   2    -0.638723576734E+03   -0.44257E+04   -0.42721E+04 20448   0.212E+02
DAV:   3    -0.106542884628E+04   -0.42671E+03   -0.41269E+03 21704   0.582E+01
DAV:   4    -0.108204587530E+04   -0.16617E+02   -0.16302E+02 20680   0.120E+01
DAV:   5    -0.108273014881E+04   -0.68427E+00   -0.67937E+00 23888   0.233E+00    0.410E+01
DAV:   6    -0.106535513058E+04    0.17375E+02   -0.38769E+01 21656   0.894E+00    0.184E+01
DAV:   7    -0.106494641467E+04    0.40872E+00   -0.29357E+01 20992   0.733E+00    0.935E+00
DAV:   8    -0.106406682091E+04    0.87959E+00   -0.64327E+00 20544   0.379E+00    0.228E+00
DAV:   9    -0.106407146375E+04   -0.46428E-02   -0.14218E+00 21352   0.121E+00    0.130E+00
DAV:  10    -0.106405577005E+04    0.15694E-01   -0.20212E-01 21088   0.592E-01    0.747E-01
DAV:  11    -0.106405539444E+04    0.37561E-03   -0.67686E-02 21496   0.365E-01    0.388E-01
DAV:  12    -0.106405234916E+04    0.30453E-02   -0.20585E-02 21632   0.214E-01    0.194E-01
DAV:  13    -0.106405251830E+04   -0.16915E-03   -0.37501E-03 19608   0.688E-02    0.126E-01
DAV:  14    -0.106405260798E+04   -0.89675E-04   -0.69609E-04 19952   0.323E-02    0.537E-02
DAV:  15    -0.106405262178E+04   -0.13804E-04   -0.26078E-04 20192   0.178E-02    0.371E-02
DAV:  16    -0.106405262940E+04   -0.76174E-05   -0.61130E-05 19904   0.103E-02    0.199E-02
DAV:  17    -0.106405263093E+04   -0.15330E-05   -0.13189E-05 20000   0.412E-03    0.948E-03
DAV:  18    -0.106405263296E+04   -0.20300E-05   -0.26510E-06 19360   0.220E-03    0.607E-03
DAV:  19    -0.106405263522E+04   -0.22578E-05   -0.70949E-07 20336   0.111E-03    0.310E-03
DAV:  20    -0.106405263651E+04   -0.12905E-05   -0.30961E-07 13232   0.675E-04    0.129E-03
DAV:  21    -0.106405263683E+04   -0.32340E-06   -0.95168E-08 10328   0.382E-04    0.661E-04
DAV:  22    -0.106405263704E+04   -0.20058E-06   -0.36415E-08 10232   0.217E-04    0.330E-04
DAV:  23    -0.106405263715E+04   -0.11210E-06   -0.14279E-08 10096   0.145E-04    0.210E-04
DAV:  24    -0.106405263717E+04   -0.21559E-07   -0.48708E-09 10008   0.790E-05
   1 F= -.10640526E+04 E0= -.10640516E+04  d E =-.211156E-02  mag=     1.0000
