<?xml version="1.0" encoding="ISO-8859-1"?>
<modeling>
 <generator>
  <i name="program" type="string">vasp </i>
  <i name="version" type="string">6.4.3  </i>
  <i name="subversion" type="string">19Mar24 (build Oct 22 2024 11:23:12) complex                          parallel </i>
  <i name="platform" type="string">LinuxIFC </i>
  <i name="date" type="string">2025 06 09 </i>
  <i name="time" type="string">18:24:23 </i>
 </generator>
 <incar>
  <i type="string" name="SYSTEM">Si and Ge interface calculation</i>
  <i type="int" name="ISTART">     0</i>
  <i type="logical" name="ADDGRID"> T  </i>
  <i type="int" name="ISPIN">     2</i>
  <i name="AMIX">      0.60000000</i>
  <i type="int" name="ICHARG">     2</i>
  <i type="int" name="NELM">   100</i>
  <i name="EDIFF">      0.00000010</i>
  <i name="ENCUT">    700.00000000</i>
  <i name="ENAUG">    900.00000000</i>
  <i type="int" name="NBANDS">   548</i>
  <i name="NUPDOWN">      1.00000000</i>
  <i name="NELECT">    912.00000000</i>
  <i type="string" name="LREAL">AUTO</i>
  <i type="int" name="ISMEAR">     0</i>
  <i name="SIGMA">      0.01000000</i>
  <i type="int" name="LMAXMIX">     6</i>
  <i type="logical" name="LWAVE"> F  </i>
  <i type="logical" name="LVTOT"> F  </i>
  <i type="logical" name="LVHAR"> T  </i>
  <i type="logical" name="LASPH"> T  </i>
  <i type="logical" name="LMIXTAU"> T  </i>
 </incar>
 <primitive_cell>
  <structure name="primitive_cell" >
   <crystal>
    <varray name="basis" >
     <v>       8.58716583      -8.58716514       0.00000000 </v>
     <v>       8.58716583       8.58716462       0.00000000 </v>
     <v>       0.00000000       0.00000000      17.86100006 </v>
    </varray>
    <i name="volume">   2634.11917183 </i>
    <varray name="rec_basis" >
     <v>       0.05822643      -0.05822644       0.00000000 </v>
     <v>       0.05822643       0.05822644       0.00000000 </v>
     <v>       0.00000000       0.00000000       0.05598791 </v>
    </varray>
   </crystal>
   <varray name="positions" >
    <v>       0.02157363       0.97123507       0.00000000 </v>
    <v>       0.32157371       0.57123497       0.15203516 </v>
    <v>       0.62157378       0.17123475       0.30407038 </v>
    <v>       0.42157367       0.77123514       0.00000000 </v>
    <v>       0.72157368       0.37123499       0.15203516 </v>
    <v>       0.02157369       0.97123477       0.30407038 </v>
    <v>       0.82157371       0.57123532       0.00000000 </v>
    <v>       0.12157374       0.17123494       0.15203516 </v>
    <v>       0.42157382       0.77123470       0.30407038 </v>
    <v>       0.22157372       0.37123506       0.00000000 </v>
    <v>       0.52157371       0.97123499       0.15203516 </v>
    <v>       0.82157377       0.57123478       0.30407038 </v>
    <v>       0.62157378       0.17123523       0.00000000 </v>
    <v>       0.92157379       0.77123507       0.15203516 </v>
    <v>       0.22157384       0.37123477       0.30407038 </v>
    <v>       0.77157371       0.22123511       0.07601761 </v>
    <v>       0.07157371       0.82123485       0.22805277 </v>
    <v>       0.37157382       0.42123489       0.38008791 </v>
    <v>       0.17157375       0.02123498       0.07601761 </v>
    <v>       0.47157375       0.62123482       0.22805277 </v>
    <v>       0.77157381       0.22123465       0.38008791 </v>
    <v>       0.57157383       0.82123520       0.07601761 </v>
    <v>       0.87157379       0.42123490       0.22805277 </v>
    <v>       0.17157376       0.02123476       0.38008791 </v>
    <v>       0.97157375       0.62123522       0.07601761 </v>
    <v>       0.27157382       0.22123485       0.22805277 </v>
    <v>       0.57157383       0.82123484       0.38008791 </v>
    <v>       0.37157376       0.42123507       0.07601761 </v>
    <v>       0.67157381       0.02123494       0.22805277 </v>
    <v>       0.97157381       0.62123480       0.38008791 </v>
    <v>       0.52157377       0.47123505       0.00000000 </v>
    <v>       0.82157371       0.07123497       0.15203516 </v>
    <v>       0.12157378       0.67123475       0.30407038 </v>
    <v>       0.92157372       0.27123504       0.00000000 </v>
    <v>       0.22157372       0.87123491       0.15203516 </v>
    <v>       0.52157375       0.47123471       0.30407038 </v>
    <v>       0.32157374       0.07123508       0.00000000 </v>
    <v>       0.62157375       0.67123491       0.15203516 </v>
    <v>       0.92157382       0.27123470       0.30407038 </v>
    <v>       0.72157376       0.87123508       0.00000000 </v>
    <v>       0.02157371       0.47123493       0.15203516 </v>
    <v>       0.32157376       0.07123474       0.30407038 </v>
    <v>       0.12157378       0.67123523       0.00000000 </v>
    <v>       0.42157375       0.27123500       0.15203516 </v>
    <v>       0.72157386       0.87123487       0.30407038 </v>
    <v>       0.27157357       0.72123513       0.07601761 </v>
    <v>       0.57157365       0.32123491       0.22805277 </v>
    <v>       0.87157370       0.92123483       0.38008791 </v>
    <v>       0.67157374       0.52123513       0.07601761 </v>
    <v>       0.97157374       0.12123488       0.22805277 </v>
    <v>       0.27157369       0.72123477       0.38008791 </v>
    <v>       0.07157375       0.32123507       0.07601761 </v>
    <v>       0.37157376       0.92123493       0.22805277 </v>
    <v>       0.67157374       0.52123489       0.38008791 </v>
    <v>       0.47157367       0.12123511       0.07601761 </v>
    <v>       0.77157376       0.72123482       0.22805277 </v>
    <v>       0.07157376       0.32123474       0.38008791 </v>
    <v>       0.87157373       0.92123504       0.07601761 </v>
    <v>       0.17157373       0.52123490       0.22805277 </v>
    <v>       0.47157367       0.12123487       0.38008791 </v>
    <v>       0.12296042       0.45629373       0.49206373 </v>
    <v>       0.95629368       0.28962697       0.65044791 </v>
    <v>       0.78962703       0.12296037       0.80883211 </v>
    <v>       0.45629387       0.12296028       0.49206373 </v>
    <v>       0.28962713       0.95629353       0.65044791 </v>
    <v>       0.12296048       0.78962692       0.80883211 </v>
    <v>       0.78962705       0.78962710       0.49206373 </v>
    <v>       0.62296055       0.62296059       0.65044791 </v>
    <v>       0.45629381       0.45629383       0.80883211 </v>
    <v>       0.45629388       0.78962702       0.49206373 </v>
    <v>       0.28962723       0.62296042       0.65044791 </v>
    <v>       0.12296042       0.45629373       0.80883211 </v>
    <v>       0.78962716       0.45629374       0.49206373 </v>
    <v>       0.62296051       0.28962713       0.65044791 </v>
    <v>       0.45629387       0.12296028       0.80883211 </v>
    <v>       0.12296044       0.12296045       0.49206373 </v>
    <v>       0.95629379       0.95629385       0.65044791 </v>
    <v>       0.78962705       0.78962710       0.80883211 </v>
    <v>       0.78962715       0.12296049       0.49206373 </v>
    <v>       0.62296041       0.95629374       0.65044791 </v>
    <v>       0.45629376       0.78962690       0.80883211 </v>
    <v>       0.12296060       0.78962704       0.49206373 </v>
    <v>       0.95629386       0.62296029       0.65044791 </v>
    <v>       0.78962704       0.45629362       0.80883211 </v>
    <v>       0.45629381       0.45629383       0.49206373 </v>
    <v>       0.28962707       0.28962708       0.65044791 </v>
    <v>       0.12296033       0.12296033       0.80883211 </v>
    <v>       0.95629391       0.78962710       0.57125580 </v>
    <v>       0.78962723       0.62296041       0.72964001 </v>
    <v>       0.62296045       0.45629370       0.88802415 </v>
    <v>       0.28962723       0.45629391       0.57125580 </v>
    <v>       0.12296049       0.28962716       0.72964001 </v>
    <v>       0.95629375       0.12296040       0.88802415 </v>
    <v>       0.62296053       0.12296049       0.57125580 </v>
    <v>       0.45629393       0.95629371       0.72964001 </v>
    <v>       0.28962719       0.78962696       0.88802415 </v>
    <v>       0.28962713       0.12296028       0.57125580 </v>
    <v>       0.12296051       0.95629364       0.72964001 </v>
    <v>       0.95629380       0.78962698       0.88802415 </v>
    <v>       0.62296047       0.78962717       0.57125580 </v>
    <v>       0.45629376       0.62296039       0.72964001 </v>
    <v>       0.28962699       0.45629367       0.88802415 </v>
    <v>       0.95629374       0.45629366       0.57125580 </v>
    <v>       0.78962712       0.28962703       0.72964001 </v>
    <v>       0.62296041       0.12296037       0.88802415 </v>
    <v>       0.62296045       0.45629370       0.57125580 </v>
    <v>       0.45629375       0.28962691       0.72964001 </v>
    <v>       0.28962713       0.12296028       0.88802415 </v>
    <v>       0.95629375       0.12296040       0.57125580 </v>
    <v>       0.78962709       0.95629380       0.72964001 </v>
    <v>       0.62296047       0.78962717       0.88802415 </v>
    <v>       0.28962719       0.78962696       0.57125580 </v>
    <v>       0.12296054       0.62296036       0.72964001 </v>
    <v>       0.95629374       0.45629366       0.88802415 </v>
   </varray>
  </structure>
  <varray name="primitive_index" >
   <v type="int" >        1 </v>
   <v type="int" >        2 </v>
   <v type="int" >        3 </v>
   <v type="int" >        4 </v>
   <v type="int" >        5 </v>
   <v type="int" >        6 </v>
   <v type="int" >       22 </v>
   <v type="int" >        8 </v>
   <v type="int" >        9 </v>
   <v type="int" >       10 </v>
   <v type="int" >       26 </v>
   <v type="int" >       27 </v>
   <v type="int" >       28 </v>
   <v type="int" >       29 </v>
   <v type="int" >       15 </v>
   <v type="int" >       31 </v>
   <v type="int" >       32 </v>
   <v type="int" >       48 </v>
   <v type="int" >       34 </v>
   <v type="int" >       35 </v>
   <v type="int" >       36 </v>
   <v type="int" >       52 </v>
   <v type="int" >       38 </v>
   <v type="int" >       39 </v>
   <v type="int" >       55 </v>
   <v type="int" >       41 </v>
   <v type="int" >       57 </v>
   <v type="int" >       43 </v>
   <v type="int" >       59 </v>
   <v type="int" >       60 </v>
   <v type="int" >       76 </v>
   <v type="int" >       62 </v>
   <v type="int" >       63 </v>
   <v type="int" >       64 </v>
   <v type="int" >       65 </v>
   <v type="int" >       66 </v>
   <v type="int" >       67 </v>
   <v type="int" >       83 </v>
   <v type="int" >       69 </v>
   <v type="int" >       85 </v>
   <v type="int" >       71 </v>
   <v type="int" >       72 </v>
   <v type="int" >       88 </v>
   <v type="int" >       74 </v>
   <v type="int" >       90 </v>
   <v type="int" >       91 </v>
   <v type="int" >       92 </v>
   <v type="int" >       93 </v>
   <v type="int" >      109 </v>
   <v type="int" >       95 </v>
   <v type="int" >       96 </v>
   <v type="int" >       97 </v>
   <v type="int" >       98 </v>
   <v type="int" >      114 </v>
   <v type="int" >      100 </v>
   <v type="int" >      116 </v>
   <v type="int" >      102 </v>
   <v type="int" >      118 </v>
   <v type="int" >      119 </v>
   <v type="int" >      105 </v>
   <v type="int" >      190 </v>
   <v type="int" >      191 </v>
   <v type="int" >      192 </v>
   <v type="int" >      184 </v>
   <v type="int" >      185 </v>
   <v type="int" >      186 </v>
   <v type="int" >      127 </v>
   <v type="int" >      128 </v>
   <v type="int" >      129 </v>
   <v type="int" >      130 </v>
   <v type="int" >      131 </v>
   <v type="int" >      201 </v>
   <v type="int" >      133 </v>
   <v type="int" >      134 </v>
   <v type="int" >      195 </v>
   <v type="int" >      136 </v>
   <v type="int" >      137 </v>
   <v type="int" >      138 </v>
   <v type="int" >      181 </v>
   <v type="int" >      182 </v>
   <v type="int" >      141 </v>
   <v type="int" >      175 </v>
   <v type="int" >      176 </v>
   <v type="int" >      144 </v>
   <v type="int" >      145 </v>
   <v type="int" >      146 </v>
   <v type="int" >      147 </v>
   <v type="int" >      148 </v>
   <v type="int" >      149 </v>
   <v type="int" >      216 </v>
   <v type="int" >      217 </v>
   <v type="int" >      218 </v>
   <v type="int" >      219 </v>
   <v type="int" >      154 </v>
   <v type="int" >      212 </v>
   <v type="int" >      213 </v>
   <v type="int" >      157 </v>
   <v type="int" >      158 </v>
   <v type="int" >      159 </v>
   <v type="int" >      226 </v>
   <v type="int" >      161 </v>
   <v type="int" >      228 </v>
   <v type="int" >      163 </v>
   <v type="int" >      164 </v>
   <v type="int" >      165 </v>
   <v type="int" >      205 </v>
   <v type="int" >      167 </v>
   <v type="int" >      168 </v>
   <v type="int" >      208 </v>
   <v type="int" >      209 </v>
   <v type="int" >      210 </v>
   <v type="int" >      202 </v>
   <v type="int" >      203 </v>
   <v type="int" >      174 </v>
  </varray>
 </primitive_cell>
 <kpoints>
  <generation param="Gamma">
   <v type="int" name="divisions">       2        2        2 </v>
   <v name="usershift">      0.00000000       0.00000000       0.00000000 </v>
   <v name="genvec1">      0.50000000       0.00000000       0.00000000 </v>
   <v name="genvec2">      0.00000000       0.50000000       0.00000000 </v>
   <v name="genvec3">      0.00000000       0.00000000       0.50000000 </v>
   <v name="shift">      0.00000000       0.00000000       0.00000000 </v>
  </generation>
  <varray name="kpointlist" >
   <v>       0.00000000       0.00000000       0.00000000 </v>
   <v>       0.50000000       0.00000000       0.00000000 </v>
   <v>       0.00000000       0.50000000       0.00000000 </v>
   <v>       0.50000000       0.50000000       0.00000000 </v>
   <v>       0.00000000       0.00000000       0.50000000 </v>
   <v>       0.50000000       0.00000000       0.50000000 </v>
   <v>       0.00000000       0.50000000       0.50000000 </v>
   <v>       0.50000000       0.50000000       0.50000000 </v>
  </varray>
  <varray name="weights" >
   <v>       0.12500000 </v>
   <v>       0.12500000 </v>
   <v>       0.12500000 </v>
   <v>       0.12500000 </v>
   <v>       0.12500000 </v>
   <v>       0.12500000 </v>
   <v>       0.12500000 </v>
   <v>       0.12500000 </v>
  </varray>
 </kpoints>
 <parameters>
  <separator name="general" >
   <i type="string" name="SYSTEM">Si and Ge interface calculation</i>
   <i type="logical" name="LCOMPAT"> F  </i>
  </separator>
  <separator name="electronic" >
   <i type="string" name="PREC">normal</i>
   <i name="ENMAX">    700.00000000</i>
   <i name="ENAUG">    900.00000000</i>
   <i name="EDIFF">      0.00000010</i>
   <i type="int" name="IALGO">    38</i>
   <i type="int" name="IWAVPR">    10</i>
   <i type="int" name="NBANDS">   548</i>
   <i type="int" name="NBANDSLOW">    -1</i>
   <i type="int" name="NBANDSHIGH">    -1</i>
   <i name="NELECT">    912.00000000</i>
   <i type="int" name="TURBO">     0</i>
   <i type="int" name="IRESTART">     0</i>
   <i type="int" name="NREBOOT">     0</i>
   <i type="int" name="NMIN">     0</i>
   <i name="EREF">      0.00000000</i>
   <separator name="electronic smearing" >
    <i type="int" name="ISMEAR">     0</i>
    <i name="SIGMA">      0.01000000</i>
    <i name="KSPACING">      0.50000000</i>
    <i type="logical" name="KGAMMA"> T  </i>
    <i type="logical" name="KBLOWUP"> T  </i>
   </separator>
   <separator name="electronic projectors" >
    <i type="logical" name="LREAL"> T  </i>
    <v name="ROPT">     -0.00050000     -0.00050000</v>
    <i type="int" name="LMAXPAW">  -100</i>
    <i type="int" name="LMAXMIX">     6</i>
    <i type="logical" name="NLSPLINE"> F  </i>
   </separator>
   <separator name="electronic startup" >
    <i type="int" name="ISTART">     0</i>
    <i type="int" name="ICHARG">     2</i>
    <i type="int" name="INIWAV">     1</i>
   </separator>
   <separator name="electronic spin" >
    <i type="int" name="ISPIN">     2</i>
    <i type="logical" name="LNONCOLLINEAR"> F  </i>
    <v name="MAGMOM">      0.00438596      0.00438596      0.00438596      0.00438596      0.00438596      0.00438596      0.00438596      0.00438596      0.00438596      0.00438596      0.00438596      0.00438596      0.00438596      0.00438596      0.00438596      0.00438596      0.00438596      0.00438596      0.00438596      0.00438596
      0.00438596      0.00438596      0.00438596      0.00438596      0.00438596      0.00438596      0.00438596      0.00438596      0.00438596      0.00438596      0.00438596      0.00438596      0.00438596      0.00438596      0.00438596      0.00438596      0.00438596      0.00438596      0.00438596      0.00438596
      0.00438596      0.00438596      0.00438596      0.00438596      0.00438596      0.00438596      0.00438596      0.00438596      0.00438596      0.00438596      0.00438596      0.00438596      0.00438596      0.00438596      0.00438596      0.00438596      0.00438596      0.00438596      0.00438596      0.00438596
      0.00438596      0.00438596      0.00438596      0.00438596      0.00438596      0.00438596      0.00438596      0.00438596      0.00438596      0.00438596      0.00438596      0.00438596      0.00438596      0.00438596      0.00438596      0.00438596      0.00438596      0.00438596      0.00438596      0.00438596
      0.00438596      0.00438596      0.00438596      0.00438596      0.00438596      0.00438596      0.00438596      0.00438596      0.00438596      0.00438596      0.00438596      0.00438596      0.00438596      0.00438596      0.00438596      0.00438596      0.00438596      0.00438596      0.00438596      0.00438596
      0.00438596      0.00438596      0.00438596      0.00438596      0.00438596      0.00438596      0.00438596      0.00438596      0.00438596      0.00438596      0.00438596      0.00438596      0.00438596      0.00438596      0.00438596      0.00438596      0.00438596      0.00438596      0.00438596      0.00438596
      0.00438596      0.00438596      0.00438596      0.00438596      0.00438596      0.00438596      0.00438596      0.00438596      0.00438596      0.00438596      0.00438596      0.00438596      0.00438596      0.00438596      0.00438596      0.00438596      0.00438596      0.00438596      0.00438596      0.00438596
      0.00438596      0.00438596      0.00438596      0.00438596      0.00438596      0.00438596      0.00438596      0.00438596      0.00438596      0.00438596      0.00438596      0.00438596      0.00438596      0.00438596      0.00438596      0.00438596      0.00438596      0.00438596      0.00438596      0.00438596
      0.00438596      0.00438596      0.00438596      0.00438596      0.00438596      0.00438596      0.00438596      0.00438596      0.00438596      0.00438596      0.00438596      0.00438596      0.00438596      0.00438596      0.00438596      0.00438596      0.00438596      0.00438596      0.00438596      0.00438596
      0.00438596      0.00438596      0.00438596      0.00438596      0.00438596      0.00438596      0.00438596      0.00438596      0.00438596      0.00438596      0.00438596      0.00438596      0.00438596      0.00438596      0.00438596      0.00438596      0.00438596      0.00438596      0.00438596      0.00438596
      0.00438596      0.00438596      0.00438596      0.00438596      0.00438596      0.00438596      0.00438596      0.00438596      0.00438596      0.00438596      0.00438596      0.00438596      0.00438596      0.00438596      0.00438596      0.00438596      0.00438596      0.00438596      0.00438596      0.00438596
      0.00438596      0.00438596      0.00438596      0.00438596      0.00438596      0.00438596      0.00438596      0.00438596</v>
    <i name="NUPDOWN">      1.00000000</i>
    <i type="logical" name="LSORBIT"> F  </i>
    <v name="SAXIS">      0.00000000      0.00000000      1.00000000</v>
    <i type="logical" name="LSPIRAL"> F  </i>
    <v name="QSPIRAL">      0.00000000      0.00000000      0.00000000</v>
    <i type="logical" name="LZEROZ"> F  </i>
   </separator>
   <separator name="electronic exchange-correlation" >
    <i type="logical" name="LASPH"> T  </i>
   </separator>
   <separator name="electronic convergence" >
    <i type="int" name="NELM">   100</i>
    <i type="int" name="NELMDL">    -5</i>
    <i type="int" name="NELMIN">     2</i>
    <i name="ENINI">    700.00000000</i>
    <separator name="electronic convergence detail" >
     <i type="logical" name="LDIAG"> T  </i>
     <i type="logical" name="LSUBROT"> F  </i>
     <i name="WEIMIN">      0.00000000</i>
     <i name="EBREAK">      0.00000000</i>
     <i name="DEPER">      0.30000000</i>
     <i type="int" name="NRMM">     4</i>
     <i name="TIME">      0.40000000</i>
    </separator>
   </separator>
   <separator name="electronic mixer" >
    <i name="AMIX">      0.60000000</i>
    <i name="BMIX">      1.00000000</i>
    <i name="AMIN">      0.10000000</i>
    <i name="AMIX_MAG">      2.40000000</i>
    <i name="BMIX_MAG">      1.00000000</i>
    <separator name="electronic mixer details" >
     <i type="int" name="IMIX">     4</i>
     <i type="logical" name="MIXFIRST"> F  </i>
     <i type="int" name="MAXMIX">   -45</i>
     <i name="WC">    100.00000000</i>
     <i type="int" name="INIMIX">     1</i>
     <i type="int" name="MIXPRE">     1</i>
     <i type="int" name="MREMOVE">     5</i>
    </separator>
   </separator>
   <separator name="electronic dipolcorrection" >
    <i type="logical" name="LDIPOL"> F  </i>
    <i type="logical" name="LMONO"> F  </i>
    <i type="int" name="IDIPOL">     0</i>
    <i name="EPSILON">      1.00000000</i>
    <v name="DIPOL">   -100.00000000   -100.00000000   -100.00000000</v>
    <i name="EFIELD">      0.00000000</i>
    <i type="logical" name="LVACPOTAV"> F  </i>
   </separator>
  </separator>
  <separator name="grids" >
   <i type="int" name="NGX">   112</i>
   <i type="int" name="NGY">   112</i>
   <i type="int" name="NGZ">   120</i>
   <i type="int" name="NGXF">   224</i>
   <i type="int" name="NGYF">   224</i>
   <i type="int" name="NGZF">   240</i>
   <i type="logical" name="ADDGRID"> T  </i>
  </separator>
  <separator name="ionic" >
   <i type="int" name="NSW">     0</i>
   <i type="int" name="IBRION">    -1</i>
   <i type="int" name="MDALGO">     0</i>
   <i type="int" name="ISIF">     2</i>
   <i name="PSTRESS">      0.00000000</i>
   <i name="EDIFFG">      0.00000100</i>
   <i type="int" name="NFREE">     0</i>
   <i name="POTIM">      0.50000000</i>
   <i name="SMASS">     -3.00000000</i>
   <i name="SCALEE">      1.00000000</i>
  </separator>
  <separator name="ionic md" >
   <i name="TEBEG">      0.00010000</i>
   <i name="TEEND">      0.00010000</i>
   <i type="int" name="NBLOCK">     1</i>
   <i type="int" name="KBLOCK">     1</i>
   <i type="int" name="NPACO">   256</i>
   <i name="APACO">     10.00000000</i>
  </separator>
  <separator name="symmetry" >
   <i type="int" name="ISYM">     2</i>
   <i name="SYMPREC">      0.00001000</i>
  </separator>
  <separator name="dos" >
   <i type="int" name="LORBIT">     0</i>
   <v name="RWIGS">     -1.00000000     -1.00000000</v>
   <i type="int" name="NEDOS">   301</i>
   <i name="EMIN">     10.00000000</i>
   <i name="EMAX">    -10.00000000</i>
   <i name="EFERMI">      0.00000000</i>
  </separator>
  <separator name="writing" >
   <i type="int" name="NWRITE">     2</i>
   <i type="logical" name="LWAVE"> F  </i>
   <i type="logical" name="LDOWNSAMPLE"> F  </i>
   <i type="logical" name="LCHARG"> T  </i>
   <i type="logical" name="LPARD"> F  </i>
   <i type="logical" name="LVTOT"> F  </i>
   <i type="logical" name="LVHAR"> T  </i>
   <i type="logical" name="LELF"> F  </i>
   <i type="logical" name="LOPTICS"> F  </i>
   <v name="STM">      0.00000000      0.00000000      0.00000000      0.00000000      0.00000000      0.00000000      0.00000000</v>
  </separator>
  <separator name="performance" >
   <i type="int" name="NPAR">     4</i>
   <i type="int" name="NSIM">     4</i>
   <i type="int" name="NBLK">    -1</i>
   <i type="logical" name="LPLANE"> T  </i>
   <i type="logical" name="LSCALAPACK"> T  </i>
   <i type="logical" name="LSCAAWARE"> F  </i>
   <i type="logical" name="LSCALU"> F  </i>
   <i type="logical" name="LASYNC"> F  </i>
   <i type="logical" name="LORBITALREAL"> F  </i>
  </separator>
  <separator name="miscellaneous" >
   <i type="int" name="IDIOT">     3</i>
   <i type="int" name="PHON_NSTRUCT">    -1</i>
   <i type="logical" name="LMUSIC"> F  </i>
   <v name="POMASS">     28.08500000     72.61000000</v>
   <v name="DARWINR">      0.00000000      0.00000000</v>
   <v name="DARWINV">      1.00000000      1.00000000</v>
   <i type="logical" name="LCORR"> T  </i>
  </separator>
  <i type="logical" name="GGA_COMPAT"> T  </i>
  <i type="logical" name="LBERRY"> F  </i>
  <i type="int" name="ICORELEVEL">     0</i>
  <i type="logical" name="LDAU"> F  </i>
  <i type="int" name="I_CONSTRAINED_M">     0</i>
  <separator name="electronic exchange-correlation" >
   <i type="string" name="GGA    ">PE</i>
   <i type="string" name="XC_C">1</i>
   <i type="int" name="VOSKOWN">     0</i>
   <i type="logical" name="LHFCALC"> F  </i>
   <i type="string" name="PRECFOCK"></i>
   <i type="logical" name="LSYMGRAD"> F  </i>
   <i type="logical" name="LHFONE"> F  </i>
   <i type="logical" name="LRHFCALC"> F  </i>
   <i type="logical" name="LTHOMAS"> F  </i>
   <i type="logical" name="LMODELHF"> F  </i>
   <i type="logical" name="LFOCKACE"> F  </i>
   <i name="ENCUT4O">     -1.00000000</i>
   <i type="int" name="EXXOEP">     0</i>
   <i type="int" name="FOURORBIT">     0</i>
   <i name="AEXX">      0.00000000</i>
   <i name="HFALPHA">      0.00000000</i>
   <i name="MCALPHA">      0.00000000</i>
   <i name="ALDAX">      1.00000000</i>
   <i name="AGGAX">      1.00000000</i>
   <i name="AMGGAX">      1.00000000</i>
   <i name="ALDAC">      1.00000000</i>
   <i name="AGGAC">      1.00000000</i>
   <i name="AMGGAC">      1.00000000</i>
   <i type="int" name="NKREDX">     1</i>
   <i type="int" name="NKREDY">     1</i>
   <i type="int" name="NKREDZ">     1</i>
   <i type="logical" name="SHIFTRED"> F  </i>
   <i type="logical" name="ODDONLY"> F  </i>
   <i type="logical" name="EVENONLY"> F  </i>
   <i type="int" name="LMAXFOCK">     0</i>
   <i type="int" name="NMAXFOCKAE">     0</i>
   <i type="logical" name="LFOCKAEDFT"> F  </i>
   <i name="HFSCREEN">      0.00000000</i>
   <i name="HFSCREENC">      0.00000000</i>
   <i type="int" name="NBANDSGWLOW">     0</i>
  </separator>
  <separator name="vdW DFT" >
   <i type="logical" name="LUSE_VDW"> F  </i>
   <i type="int" name="IVDW_NL">    -1</i>
   <i type="logical" name="LSPIN_VDW"> F  </i>
   <i name="ZAB_VDW">     -0.84910000</i>
   <i name="GAMMA_VDW">      1.39626340</i>
   <i name="ALPHA_VDW">      0.00000000</i>
   <i name="PARAM1">      0.12340000</i>
   <i name="PARAM2">      1.00000000</i>
   <i name="BPARAM">      6.30000000</i>
   <i name="CPARAM">      0.00930000</i>
  </separator>
  <separator name="model GW" >
   <i type="int" name="MODEL_GW">     0</i>
   <i name="MODEL_EPS0">     13.86378511</i>
   <i name="MODEL_ALPHA">      1.00000000</i>
  </separator>
  <separator name="linear response parameters" >
   <i type="logical" name="LEPSILON"> F  </i>
   <i type="logical" name="LRPA"> F  </i>
   <i type="logical" name="LNABLA"> F  </i>
   <i type="logical" name="LVEL"> F  </i>
   <i name="CSHIFT">      0.10000000</i>
   <i name="OMEGAMAX">     -1.00000000</i>
   <i name="DEG_THRESHOLD">      0.00200000</i>
   <i name="RTIME">     -0.10000000</i>
   <i name="WPLASMAI">      0.00000000</i>
   <v name="DFIELD">      0.00000000      0.00000000      0.00000000</v>
   <v name="WPLASMA">      0.00000000      0.00000000      0.00000000      0.00000000      0.00000000      0.00000000      0.00000000      0.00000000      0.00000000</v>
  </separator>
  <separator name="orbital magnetization" >
   <i type="logical" name="NUCIND"> F  </i>
   <v name="MAGPOS">      0.00000000      0.00000000      0.00000000</v>
   <i type="logical" name="LNICSALL"> T  </i>
   <i type="logical" name="ORBITALMAG"> F  </i>
   <i type="logical" name="LMAGBLOCH"> F  </i>
   <i type="logical" name="LCHIMAG"> F  </i>
   <i type="logical" name="LGAUGE"> T  </i>
   <i type="int" name="MAGATOM">     0</i>
   <v name="MAGDIPOL">      0.00000000      0.00000000      0.00000000</v>
   <v name="AVECCONST">      0.00000000      0.00000000      0.00000000</v>
  </separator>
  <separator name="response functions" >
   <i type="logical" name="LALL_IN_ONE"> F  </i>
   <i type="int" name="IALL_IN_ONE">    -1</i>
   <i type="int" name="NBANDS_WAVE">    -1</i>
   <i type="logical" name="LFINITE_TEMPERATURE"> F  </i>
   <i type="logical" name="LADDER"> F  </i>
   <i type="logical" name="LRPAFORCE"> F  </i>
   <i type="logical" name="LFXC"> F  </i>
   <i type="logical" name="LHARTREE"> T  </i>
   <i type="int" name="IBSE">     0</i>
   <v type="int" name="KPOINT">    -1     0     0     0</v>
   <i type="logical" name="LTCTC"> F  </i>
   <i type="logical" name="LTCTE"> F  </i>
   <i type="logical" name="LTETE"> F  </i>
   <i type="logical" name="LTRIPLET"> F  </i>
   <i type="logical" name="LFXCEPS"> F  </i>
   <i type="logical" name="LFXHEG"> F  </i>
   <i type="int" name="NATURALO">     2</i>
   <i type="logical" name="LHOLEGF"> F  </i>
   <i type="logical" name="L2ORDER"> F  </i>
   <i type="logical" name="LDMP1"> F  </i>
   <i type="logical" name="LMP2LT"> F  </i>
   <i type="logical" name="LSMP2LT"> F  </i>
   <i type="logical" name="LGWLF"> F  </i>
   <i name="ENCUTGW">     -1.60000002</i>
   <i name="ENCUTGWSOFT">     -1.60000002</i>
   <i name="ENCUTLF">     -1.00000000</i>
   <i type="logical" name="ESF_SPLINES"> F  </i>
   <i name="ESF_CONV">      0.01000000</i>
   <i type="int" name="ESF_NINTER">    15</i>
   <i type="int" name="LMAXMP2">    -1</i>
   <i name="SCISSOR">      0.00000000</i>
   <i type="int" name="NOMEGA">     0</i>
   <i type="int" name="NOMEGAR">     0</i>
   <i type="int" name="NBANDSGW">    -1</i>
   <i type="int" name="NBANDSO">    -1</i>
   <i type="int" name="NBANDSV">    -1</i>
   <i type="int" name="NELMGW">     1</i>
   <i type="int" name="NELMHF">     1</i>
   <i type="int" name="DIM">     3</i>
   <i type="int" name="IESPILON">     4</i>
   <i type="int" name="ANTIRES">     0</i>
   <i name="OMEGAMAX">    -30.00000000</i>
   <i name="OMEGAMIN">    -30.00000000</i>
   <i name="OMEGATL">   -200.00000000</i>
   <i type="int" name="OMEGAGRID">     0</i>
   <i name="CSHIFT">     -0.10000000</i>
   <i type="logical" name="LSELFENERGY"> F  </i>
   <i type="logical" name="LSPECTRAL"> F  </i>
   <i type="logical" name="LSPECTRALGW"> F  </i>
   <i type="logical" name="LSINGLES"> F  </i>
   <i type="logical" name="LFERMIGW"> F  </i>
   <i type="logical" name="ODDONLYGW"> F  </i>
   <i type="logical" name="EVENONLYGW"> F  </i>
   <i type="int" name="NKREDLFX">     1</i>
   <i type="int" name="NKREDLFY">     1</i>
   <i type="int" name="NKREDLFZ">     1</i>
   <i type="int" name="MAXMEM">  2800</i>
   <i type="int" name="TELESCOPE">     0</i>
   <i type="int" name="NTAUPAR">    -1</i>
   <i type="int" name="NOMEGAPAR">    -1</i>
   <i name="DAMP_NEWTON">      0.80000001</i>
   <i name="LAMBDA">      1.00000000</i>
  </separator>
  <separator name="External order field" >
   <i name="OFIELD_KAPPA">      0.00000000</i>
   <v name="OFIELD_K">      0.00000000      0.00000000      0.00000000</v>
   <i name="OFIELD_Q6_NEAR">      0.00000000</i>
   <i name="OFIELD_Q6_FAR">      0.00000000</i>
   <i name="OFIELD_A">      0.00000000</i>
  </separator>
  <separator name="optional k-points parameters" >
   <i type="int" name="KPOINTS_OPT_MODE">     1</i>
   <i type="logical" name="LKPOINTS_OPT"> F  </i>
  </separator>
 </parameters>
 <atominfo>
  <atoms>     228 </atoms>
  <types>       2 </types>
  <array name="atoms" >
   <dimension dim="1">ion</dimension>
   <field type="string">element</field>
   <field type="int">atomtype</field>
   <set>
    <rc><c>Si</c><c>   1</c></rc>
    <rc><c>Si</c><c>   1</c></rc>
    <rc><c>Si</c><c>   1</c></rc>
    <rc><c>Si</c><c>   1</c></rc>
    <rc><c>Si</c><c>   1</c></rc>
    <rc><c>Si</c><c>   1</c></rc>
    <rc><c>Si</c><c>   1</c></rc>
    <rc><c>Si</c><c>   1</c></rc>
    <rc><c>Si</c><c>   1</c></rc>
    <rc><c>Si</c><c>   1</c></rc>
    <rc><c>Si</c><c>   1</c></rc>
    <rc><c>Si</c><c>   1</c></rc>
    <rc><c>Si</c><c>   1</c></rc>
    <rc><c>Si</c><c>   1</c></rc>
    <rc><c>Si</c><c>   1</c></rc>
    <rc><c>Si</c><c>   1</c></rc>
    <rc><c>Si</c><c>   1</c></rc>
    <rc><c>Si</c><c>   1</c></rc>
    <rc><c>Si</c><c>   1</c></rc>
    <rc><c>Si</c><c>   1</c></rc>
    <rc><c>Si</c><c>   1</c></rc>
    <rc><c>Si</c><c>   1</c></rc>
    <rc><c>Si</c><c>   1</c></rc>
    <rc><c>Si</c><c>   1</c></rc>
    <rc><c>Si</c><c>   1</c></rc>
    <rc><c>Si</c><c>   1</c></rc>
    <rc><c>Si</c><c>   1</c></rc>
    <rc><c>Si</c><c>   1</c></rc>
    <rc><c>Si</c><c>   1</c></rc>
    <rc><c>Si</c><c>   1</c></rc>
    <rc><c>Si</c><c>   1</c></rc>
    <rc><c>Si</c><c>   1</c></rc>
    <rc><c>Si</c><c>   1</c></rc>
    <rc><c>Si</c><c>   1</c></rc>
    <rc><c>Si</c><c>   1</c></rc>
    <rc><c>Si</c><c>   1</c></rc>
    <rc><c>Si</c><c>   1</c></rc>
    <rc><c>Si</c><c>   1</c></rc>
    <rc><c>Si</c><c>   1</c></rc>
    <rc><c>Si</c><c>   1</c></rc>
    <rc><c>Si</c><c>   1</c></rc>
    <rc><c>Si</c><c>   1</c></rc>
    <rc><c>Si</c><c>   1</c></rc>
    <rc><c>Si</c><c>   1</c></rc>
    <rc><c>Si</c><c>   1</c></rc>
    <rc><c>Si</c><c>   1</c></rc>
    <rc><c>Si</c><c>   1</c></rc>
    <rc><c>Si</c><c>   1</c></rc>
    <rc><c>Si</c><c>   1</c></rc>
    <rc><c>Si</c><c>   1</c></rc>
    <rc><c>Si</c><c>   1</c></rc>
    <rc><c>Si</c><c>   1</c></rc>
    <rc><c>Si</c><c>   1</c></rc>
    <rc><c>Si</c><c>   1</c></rc>
    <rc><c>Si</c><c>   1</c></rc>
    <rc><c>Si</c><c>   1</c></rc>
    <rc><c>Si</c><c>   1</c></rc>
    <rc><c>Si</c><c>   1</c></rc>
    <rc><c>Si</c><c>   1</c></rc>
    <rc><c>Si</c><c>   1</c></rc>
    <rc><c>Si</c><c>   1</c></rc>
    <rc><c>Si</c><c>   1</c></rc>
    <rc><c>Si</c><c>   1</c></rc>
    <rc><c>Si</c><c>   1</c></rc>
    <rc><c>Si</c><c>   1</c></rc>
    <rc><c>Si</c><c>   1</c></rc>
    <rc><c>Si</c><c>   1</c></rc>
    <rc><c>Si</c><c>   1</c></rc>
    <rc><c>Si</c><c>   1</c></rc>
    <rc><c>Si</c><c>   1</c></rc>
    <rc><c>Si</c><c>   1</c></rc>
    <rc><c>Si</c><c>   1</c></rc>
    <rc><c>Si</c><c>   1</c></rc>
    <rc><c>Si</c><c>   1</c></rc>
    <rc><c>Si</c><c>   1</c></rc>
    <rc><c>Si</c><c>   1</c></rc>
    <rc><c>Si</c><c>   1</c></rc>
    <rc><c>Si</c><c>   1</c></rc>
    <rc><c>Si</c><c>   1</c></rc>
    <rc><c>Si</c><c>   1</c></rc>
    <rc><c>Si</c><c>   1</c></rc>
    <rc><c>Si</c><c>   1</c></rc>
    <rc><c>Si</c><c>   1</c></rc>
    <rc><c>Si</c><c>   1</c></rc>
    <rc><c>Si</c><c>   1</c></rc>
    <rc><c>Si</c><c>   1</c></rc>
    <rc><c>Si</c><c>   1</c></rc>
    <rc><c>Si</c><c>   1</c></rc>
    <rc><c>Si</c><c>   1</c></rc>
    <rc><c>Si</c><c>   1</c></rc>
    <rc><c>Si</c><c>   1</c></rc>
    <rc><c>Si</c><c>   1</c></rc>
    <rc><c>Si</c><c>   1</c></rc>
    <rc><c>Si</c><c>   1</c></rc>
    <rc><c>Si</c><c>   1</c></rc>
    <rc><c>Si</c><c>   1</c></rc>
    <rc><c>Si</c><c>   1</c></rc>
    <rc><c>Si</c><c>   1</c></rc>
    <rc><c>Si</c><c>   1</c></rc>
    <rc><c>Si</c><c>   1</c></rc>
    <rc><c>Si</c><c>   1</c></rc>
    <rc><c>Si</c><c>   1</c></rc>
    <rc><c>Si</c><c>   1</c></rc>
    <rc><c>Si</c><c>   1</c></rc>
    <rc><c>Si</c><c>   1</c></rc>
    <rc><c>Si</c><c>   1</c></rc>
    <rc><c>Si</c><c>   1</c></rc>
    <rc><c>Si</c><c>   1</c></rc>
    <rc><c>Si</c><c>   1</c></rc>
    <rc><c>Si</c><c>   1</c></rc>
    <rc><c>Si</c><c>   1</c></rc>
    <rc><c>Si</c><c>   1</c></rc>
    <rc><c>Si</c><c>   1</c></rc>
    <rc><c>Si</c><c>   1</c></rc>
    <rc><c>Si</c><c>   1</c></rc>
    <rc><c>Si</c><c>   1</c></rc>
    <rc><c>Si</c><c>   1</c></rc>
    <rc><c>Si</c><c>   1</c></rc>
    <rc><c>Si</c><c>   1</c></rc>
    <rc><c>Si</c><c>   1</c></rc>
    <rc><c>Ge</c><c>   2</c></rc>
    <rc><c>Ge</c><c>   2</c></rc>
    <rc><c>Ge</c><c>   2</c></rc>
    <rc><c>Ge</c><c>   2</c></rc>
    <rc><c>Ge</c><c>   2</c></rc>
    <rc><c>Ge</c><c>   2</c></rc>
    <rc><c>Ge</c><c>   2</c></rc>
    <rc><c>Ge</c><c>   2</c></rc>
    <rc><c>Ge</c><c>   2</c></rc>
    <rc><c>Ge</c><c>   2</c></rc>
    <rc><c>Ge</c><c>   2</c></rc>
    <rc><c>Ge</c><c>   2</c></rc>
    <rc><c>Ge</c><c>   2</c></rc>
    <rc><c>Ge</c><c>   2</c></rc>
    <rc><c>Ge</c><c>   2</c></rc>
    <rc><c>Ge</c><c>   2</c></rc>
    <rc><c>Ge</c><c>   2</c></rc>
    <rc><c>Ge</c><c>   2</c></rc>
    <rc><c>Ge</c><c>   2</c></rc>
    <rc><c>Ge</c><c>   2</c></rc>
    <rc><c>Ge</c><c>   2</c></rc>
    <rc><c>Ge</c><c>   2</c></rc>
    <rc><c>Ge</c><c>   2</c></rc>
    <rc><c>Ge</c><c>   2</c></rc>
    <rc><c>Ge</c><c>   2</c></rc>
    <rc><c>Ge</c><c>   2</c></rc>
    <rc><c>Ge</c><c>   2</c></rc>
    <rc><c>Ge</c><c>   2</c></rc>
    <rc><c>Ge</c><c>   2</c></rc>
    <rc><c>Ge</c><c>   2</c></rc>
    <rc><c>Ge</c><c>   2</c></rc>
    <rc><c>Ge</c><c>   2</c></rc>
    <rc><c>Ge</c><c>   2</c></rc>
    <rc><c>Ge</c><c>   2</c></rc>
    <rc><c>Ge</c><c>   2</c></rc>
    <rc><c>Ge</c><c>   2</c></rc>
    <rc><c>Ge</c><c>   2</c></rc>
    <rc><c>Ge</c><c>   2</c></rc>
    <rc><c>Ge</c><c>   2</c></rc>
    <rc><c>Ge</c><c>   2</c></rc>
    <rc><c>Ge</c><c>   2</c></rc>
    <rc><c>Ge</c><c>   2</c></rc>
    <rc><c>Ge</c><c>   2</c></rc>
    <rc><c>Ge</c><c>   2</c></rc>
    <rc><c>Ge</c><c>   2</c></rc>
    <rc><c>Ge</c><c>   2</c></rc>
    <rc><c>Ge</c><c>   2</c></rc>
    <rc><c>Ge</c><c>   2</c></rc>
    <rc><c>Ge</c><c>   2</c></rc>
    <rc><c>Ge</c><c>   2</c></rc>
    <rc><c>Ge</c><c>   2</c></rc>
    <rc><c>Ge</c><c>   2</c></rc>
    <rc><c>Ge</c><c>   2</c></rc>
    <rc><c>Ge</c><c>   2</c></rc>
    <rc><c>Ge</c><c>   2</c></rc>
    <rc><c>Ge</c><c>   2</c></rc>
    <rc><c>Ge</c><c>   2</c></rc>
    <rc><c>Ge</c><c>   2</c></rc>
    <rc><c>Ge</c><c>   2</c></rc>
    <rc><c>Ge</c><c>   2</c></rc>
    <rc><c>Ge</c><c>   2</c></rc>
    <rc><c>Ge</c><c>   2</c></rc>
    <rc><c>Ge</c><c>   2</c></rc>
    <rc><c>Ge</c><c>   2</c></rc>
    <rc><c>Ge</c><c>   2</c></rc>
    <rc><c>Ge</c><c>   2</c></rc>
    <rc><c>Ge</c><c>   2</c></rc>
    <rc><c>Ge</c><c>   2</c></rc>
    <rc><c>Ge</c><c>   2</c></rc>
    <rc><c>Ge</c><c>   2</c></rc>
    <rc><c>Ge</c><c>   2</c></rc>
    <rc><c>Ge</c><c>   2</c></rc>
    <rc><c>Ge</c><c>   2</c></rc>
    <rc><c>Ge</c><c>   2</c></rc>
    <rc><c>Ge</c><c>   2</c></rc>
    <rc><c>Ge</c><c>   2</c></rc>
    <rc><c>Ge</c><c>   2</c></rc>
    <rc><c>Ge</c><c>   2</c></rc>
    <rc><c>Ge</c><c>   2</c></rc>
    <rc><c>Ge</c><c>   2</c></rc>
    <rc><c>Ge</c><c>   2</c></rc>
    <rc><c>Ge</c><c>   2</c></rc>
    <rc><c>Ge</c><c>   2</c></rc>
    <rc><c>Ge</c><c>   2</c></rc>
    <rc><c>Ge</c><c>   2</c></rc>
    <rc><c>Ge</c><c>   2</c></rc>
    <rc><c>Ge</c><c>   2</c></rc>
    <rc><c>Ge</c><c>   2</c></rc>
    <rc><c>Ge</c><c>   2</c></rc>
    <rc><c>Ge</c><c>   2</c></rc>
    <rc><c>Ge</c><c>   2</c></rc>
    <rc><c>Ge</c><c>   2</c></rc>
    <rc><c>Ge</c><c>   2</c></rc>
    <rc><c>Ge</c><c>   2</c></rc>
    <rc><c>Ge</c><c>   2</c></rc>
    <rc><c>Ge</c><c>   2</c></rc>
    <rc><c>Ge</c><c>   2</c></rc>
    <rc><c>Ge</c><c>   2</c></rc>
    <rc><c>Ge</c><c>   2</c></rc>
    <rc><c>Ge</c><c>   2</c></rc>
    <rc><c>Ge</c><c>   2</c></rc>
    <rc><c>Ge</c><c>   2</c></rc>
    <rc><c>Ge</c><c>   2</c></rc>
    <rc><c>Ge</c><c>   2</c></rc>
    <rc><c>Ge</c><c>   2</c></rc>
    <rc><c>Ge</c><c>   2</c></rc>
    <rc><c>Ge</c><c>   2</c></rc>
    <rc><c>Ge</c><c>   2</c></rc>
   </set>
  </array>
  <array name="atomtypes" >
   <dimension dim="1">type</dimension>
   <field type="int">atomspertype</field>
   <field type="string">element</field>
   <field>mass</field>
   <field>valence</field>
   <field type="string">pseudopotential</field>
   <set>
    <rc><c> 120</c><c>Si</c><c>     28.08500000</c><c>      4.00000000</c><c>  PAW_PBE Si 05Jan2001                  </c></rc>
    <rc><c> 108</c><c>Ge</c><c>     72.61000000</c><c>      4.00000000</c><c>  PAW_PBE Ge 05Jan2001                  </c></rc>
   </set>
  </array>
 </atominfo>
 <structure name="initialpos" >
  <crystal>
   <varray name="basis" >
    <v>      17.17433167       0.00000000       0.00000000 </v>
    <v>       0.00000000      17.17432976       0.00000000 </v>
    <v>       0.00000000       0.00000000      17.86100006 </v>
   </varray>
   <i name="volume">   5268.23834366 </i>
   <varray name="rec_basis" >
    <v>       0.05822643       0.00000000       0.00000000 </v>
    <v>       0.00000000       0.05822644       0.00000000 </v>
    <v>       0.00000000       0.00000000       0.05598791 </v>
   </varray>
  </crystal>
  <varray name="positions" >
   <v>       0.99640435       0.97483069       0.00000000 </v>
   <v>       0.94640434       0.62483060       0.15203516 </v>
   <v>       0.89640427       0.27483046       0.30407038 </v>
   <v>       0.09640440       0.67483074       0.00000000 </v>
   <v>       0.04640434       0.32483065       0.15203516 </v>
   <v>       0.99640423       0.97483051       0.30407038 </v>
   <v>       0.19640441       0.37483066       0.00000000 </v>
   <v>       0.14640434       0.02483060       0.15203516 </v>
   <v>       0.09640426       0.67483044       0.30407038 </v>
   <v>       0.29640439       0.07483066       0.00000000 </v>
   <v>       0.24640430       0.72483063       0.15203516 </v>
   <v>       0.19640423       0.37483042       0.30407038 </v>
   <v>       0.39640445       0.77483070       0.00000000 </v>
   <v>       0.34640437       0.42483059       0.15203516 </v>
   <v>       0.29640430       0.07483046       0.30407038 </v>
   <v>       0.49640438       0.47483069       0.00000000 </v>
   <v>       0.44640431       0.12483060       0.15203516 </v>
   <v>       0.39640424       0.77483046       0.30407038 </v>
   <v>       0.59640437       0.17483065       0.00000000 </v>
   <v>       0.54640430       0.82483059       0.15203516 </v>
   <v>       0.49640426       0.47483045       0.30407038 </v>
   <v>       0.69640452       0.87483078       0.00000000 </v>
   <v>       0.64640445       0.52483064       0.15203516 </v>
   <v>       0.59640437       0.17483054       0.30407038 </v>
   <v>       0.79640442       0.57483071       0.00000000 </v>
   <v>       0.74640435       0.22483061       0.15203516 </v>
   <v>       0.69640428       0.87483048       0.30407038 </v>
   <v>       0.89640450       0.27483070       0.00000000 </v>
   <v>       0.84640443       0.92483062       0.15203516 </v>
   <v>       0.79640436       0.57483047       0.30407038 </v>
   <v>       0.99640441       0.22483067       0.07601761 </v>
   <v>       0.94640428       0.87483054       0.22805277 </v>
   <v>       0.89640427       0.52483046       0.38008791 </v>
   <v>       0.09640437       0.92483062       0.07601761 </v>
   <v>       0.04640429       0.57483053       0.22805277 </v>
   <v>       0.99640423       0.22483039       0.38008791 </v>
   <v>       0.19640441       0.62483066       0.07601761 </v>
   <v>       0.14640434       0.27483055       0.22805277 </v>
   <v>       0.09640426       0.92483050       0.38008791 </v>
   <v>       0.29640442       0.32483062       0.07601761 </v>
   <v>       0.24640434       0.97483051       0.22805277 </v>
   <v>       0.19640426       0.62483048       0.38008791 </v>
   <v>       0.39640441       0.02483064       0.07601761 </v>
   <v>       0.34640431       0.67483056       0.22805277 </v>
   <v>       0.29640424       0.32483047       0.38008791 </v>
   <v>       0.49640450       0.72483069       0.07601761 </v>
   <v>       0.44640443       0.37483057       0.22805277 </v>
   <v>       0.39640436       0.02483052       0.38008791 </v>
   <v>       0.59640437       0.42483059       0.07601761 </v>
   <v>       0.54640430       0.07483050       0.22805277 </v>
   <v>       0.49640426       0.72483045       0.38008791 </v>
   <v>       0.69640452       0.12483066       0.07601761 </v>
   <v>       0.64640439       0.77483058       0.22805277 </v>
   <v>       0.59640437       0.42483050       0.38008791 </v>
   <v>       0.79640448       0.82483071       0.07601761 </v>
   <v>       0.74640441       0.47483057       0.22805277 </v>
   <v>       0.69640434       0.12483048       0.38008791 </v>
   <v>       0.89640445       0.52483064       0.07601761 </v>
   <v>       0.84640437       0.17483054       0.22805277 </v>
   <v>       0.79640430       0.82483047       0.38008791 </v>
   <v>       0.99640441       0.47483069       0.00000000 </v>
   <v>       0.94640434       0.12483060       0.15203516 </v>
   <v>       0.89640427       0.77483046       0.30407038 </v>
   <v>       0.09640438       0.17483066       0.00000000 </v>
   <v>       0.04640431       0.82483059       0.15203516 </v>
   <v>       0.99640423       0.47483045       0.30407038 </v>
   <v>       0.19640441       0.87483066       0.00000000 </v>
   <v>       0.14640433       0.52483058       0.15203516 </v>
   <v>       0.09640426       0.17483044       0.30407038 </v>
   <v>       0.29640442       0.57483065       0.00000000 </v>
   <v>       0.24640432       0.22483060       0.15203516 </v>
   <v>       0.19640425       0.87483048       0.30407038 </v>
   <v>       0.39640445       0.27483067       0.00000000 </v>
   <v>       0.34640437       0.92483062       0.15203516 </v>
   <v>       0.29640430       0.57483047       0.30407038 </v>
   <v>       0.49640441       0.97483063       0.00000000 </v>
   <v>       0.44640434       0.62483054       0.15203516 </v>
   <v>       0.39640424       0.27483040       0.30407038 </v>
   <v>       0.59640437       0.67483068       0.00000000 </v>
   <v>       0.54640430       0.32483059       0.15203516 </v>
   <v>       0.49640423       0.97483045       0.30407038 </v>
   <v>       0.69640440       0.37483063       0.00000000 </v>
   <v>       0.64640433       0.02483056       0.15203516 </v>
   <v>       0.59640425       0.67483044       0.30407038 </v>
   <v>       0.79640442       0.07483064       0.00000000 </v>
   <v>       0.74640435       0.72483051       0.15203516 </v>
   <v>       0.69640428       0.37483042       0.30407038 </v>
   <v>       0.89640450       0.77483070       0.00000000 </v>
   <v>       0.84640443       0.42483062       0.15203516 </v>
   <v>       0.79640436       0.07483048       0.30407038 </v>
   <v>       0.99640435       0.72483075       0.07601761 </v>
   <v>       0.94640428       0.37483060       0.22805277 </v>
   <v>       0.89640427       0.02483054       0.38008791 </v>
   <v>       0.09640439       0.42483068       0.07601761 </v>
   <v>       0.04640431       0.07483057       0.22805277 </v>
   <v>       0.99640423       0.72483051       0.38008791 </v>
   <v>       0.19640441       0.12483066       0.07601761 </v>
   <v>       0.14640434       0.77483058       0.22805277 </v>
   <v>       0.09640427       0.42483050       0.38008791 </v>
   <v>       0.29640439       0.82483071       0.07601761 </v>
   <v>       0.24640432       0.47483057       0.22805277 </v>
   <v>       0.19640425       0.12483048       0.38008791 </v>
   <v>       0.39640441       0.52483076       0.07601761 </v>
   <v>       0.34640434       0.17483065       0.22805277 </v>
   <v>       0.29640427       0.82483059       0.38008791 </v>
   <v>       0.49640441       0.22483064       0.07601761 </v>
   <v>       0.44640434       0.87483054       0.22805277 </v>
   <v>       0.39640424       0.52483046       0.38008791 </v>
   <v>       0.59640443       0.92483068       0.07601761 </v>
   <v>       0.54640436       0.57483059       0.22805277 </v>
   <v>       0.49640429       0.22483051       0.38008791 </v>
   <v>       0.69640446       0.62483072       0.07601761 </v>
   <v>       0.64640439       0.27483058       0.22805277 </v>
   <v>       0.59640431       0.92483056       0.38008791 </v>
   <v>       0.79640436       0.32483062       0.07601761 </v>
   <v>       0.74640429       0.97483051       0.22805277 </v>
   <v>       0.69640422       0.62483048       0.38008791 </v>
   <v>       0.89640439       0.02483063       0.07601761 </v>
   <v>       0.84640431       0.67483056       0.22805277 </v>
   <v>       0.79640424       0.32483041       0.38008791 </v>
   <v>       0.78962707       0.66666657       0.49206373 </v>
   <v>       0.62296057       0.66666657       0.65044791 </v>
   <v>       0.45629382       0.66666657       0.80883211 </v>
   <v>       0.78962707       0.33333328       0.49206373 </v>
   <v>       0.62296057       0.33333328       0.65044791 </v>
   <v>       0.45629382       0.33333328       0.80883211 </v>
   <v>       0.78962707       0.00000000       0.49206373 </v>
   <v>       0.62296057       0.00000000       0.65044791 </v>
   <v>       0.45629382       0.00000000       0.80883211 </v>
   <v>       0.12296045       0.66666657       0.49206373 </v>
   <v>       0.95629382       0.66666657       0.65044791 </v>
   <v>       0.78962707       0.66666657       0.80883211 </v>
   <v>       0.12296045       0.33333328       0.49206373 </v>
   <v>       0.95629382       0.33333328       0.65044791 </v>
   <v>       0.78962707       0.33333328       0.80883211 </v>
   <v>       0.12296045       0.00000000       0.49206373 </v>
   <v>       0.95629382       0.00000000       0.65044791 </v>
   <v>       0.78962707       0.00000000       0.80883211 </v>
   <v>       0.45629382       0.66666657       0.49206373 </v>
   <v>       0.28962707       0.66666657       0.65044791 </v>
   <v>       0.12296033       0.66666657       0.80883211 </v>
   <v>       0.45629382       0.33333328       0.49206373 </v>
   <v>       0.28962707       0.33333328       0.65044791 </v>
   <v>       0.12296033       0.33333328       0.80883211 </v>
   <v>       0.45629382       0.00000000       0.49206373 </v>
   <v>       0.28962707       0.00000000       0.65044791 </v>
   <v>       0.12296033       0.00000000       0.80883211 </v>
   <v>       0.87296051       0.91666657       0.57125580 </v>
   <v>       0.70629382       0.91666657       0.72964001 </v>
   <v>       0.53962707       0.91666657       0.88802415 </v>
   <v>       0.87296051       0.58333331       0.57125580 </v>
   <v>       0.70629382       0.58333331       0.72964001 </v>
   <v>       0.53962707       0.58333331       0.88802415 </v>
   <v>       0.87296051       0.24999995       0.57125580 </v>
   <v>       0.70629382       0.24999995       0.72964001 </v>
   <v>       0.53962707       0.24999995       0.88802415 </v>
   <v>       0.20629370       0.91666657       0.57125580 </v>
   <v>       0.03962707       0.91666657       0.72964001 </v>
   <v>       0.87296039       0.91666657       0.88802415 </v>
   <v>       0.20629370       0.58333331       0.57125580 </v>
   <v>       0.03962707       0.58333331       0.72964001 </v>
   <v>       0.87296039       0.58333331       0.88802415 </v>
   <v>       0.20629370       0.24999995       0.57125580 </v>
   <v>       0.03962707       0.24999995       0.72964001 </v>
   <v>       0.87296039       0.24999995       0.88802415 </v>
   <v>       0.53962707       0.91666657       0.57125580 </v>
   <v>       0.37296033       0.91666657       0.72964001 </v>
   <v>       0.20629370       0.91666657       0.88802415 </v>
   <v>       0.53962707       0.58333331       0.57125580 </v>
   <v>       0.37296033       0.58333331       0.72964001 </v>
   <v>       0.20629370       0.58333331       0.88802415 </v>
   <v>       0.53962707       0.24999995       0.57125580 </v>
   <v>       0.37296033       0.24999995       0.72964001 </v>
   <v>       0.20629370       0.24999995       0.88802415 </v>
   <v>       0.95629382       0.83333319       0.49206373 </v>
   <v>       0.78962707       0.83333319       0.65044791 </v>
   <v>       0.62296045       0.83333319       0.80883211 </v>
   <v>       0.95629382       0.49999991       0.49206373 </v>
   <v>       0.78962707       0.49999991       0.65044791 </v>
   <v>       0.62296045       0.49999991       0.80883211 </v>
   <v>       0.95629382       0.16666664       0.49206373 </v>
   <v>       0.78962707       0.16666664       0.65044791 </v>
   <v>       0.62296045       0.16666664       0.80883211 </v>
   <v>       0.28962707       0.83333319       0.49206373 </v>
   <v>       0.12296033       0.83333319       0.65044791 </v>
   <v>       0.95629370       0.83333319       0.80883211 </v>
   <v>       0.28962707       0.49999991       0.49206373 </v>
   <v>       0.12296033       0.49999991       0.65044791 </v>
   <v>       0.95629370       0.49999991       0.80883211 </v>
   <v>       0.28962707       0.16666664       0.49206373 </v>
   <v>       0.12296033       0.16666664       0.65044791 </v>
   <v>       0.95629370       0.16666664       0.80883211 </v>
   <v>       0.62296045       0.83333319       0.49206373 </v>
   <v>       0.45629382       0.83333319       0.65044791 </v>
   <v>       0.28962707       0.83333319       0.80883211 </v>
   <v>       0.62296045       0.49999991       0.49206373 </v>
   <v>       0.45629382       0.49999991       0.65044791 </v>
   <v>       0.28962707       0.49999991       0.80883211 </v>
   <v>       0.62296045       0.16666664       0.49206373 </v>
   <v>       0.45629382       0.16666664       0.65044791 </v>
   <v>       0.28962707       0.16666664       0.80883211 </v>
   <v>       0.03962707       0.74999988       0.57125580 </v>
   <v>       0.87296045       0.74999988       0.72964001 </v>
   <v>       0.70629382       0.74999988       0.88802415 </v>
   <v>       0.03962707       0.41666663       0.57125580 </v>
   <v>       0.87296045       0.41666663       0.72964001 </v>
   <v>       0.70629382       0.41666663       0.88802415 </v>
   <v>       0.03962707       0.08333333       0.57125580 </v>
   <v>       0.87296045       0.08333333       0.72964001 </v>
   <v>       0.70629382       0.08333333       0.88802415 </v>
   <v>       0.37296057       0.74999988       0.57125580 </v>
   <v>       0.20629382       0.74999988       0.72964001 </v>
   <v>       0.03962707       0.74999988       0.88802415 </v>
   <v>       0.37296057       0.41666663       0.57125580 </v>
   <v>       0.20629382       0.41666663       0.72964001 </v>
   <v>       0.03962707       0.41666663       0.88802415 </v>
   <v>       0.37296057       0.08333333       0.57125580 </v>
   <v>       0.20629382       0.08333333       0.72964001 </v>
   <v>       0.03962707       0.08333333       0.88802415 </v>
   <v>       0.70629382       0.74999988       0.57125580 </v>
   <v>       0.53962707       0.74999988       0.72964001 </v>
   <v>       0.37296033       0.74999988       0.88802415 </v>
   <v>       0.70629382       0.41666663       0.57125580 </v>
   <v>       0.53962707       0.41666663       0.72964001 </v>
   <v>       0.37296033       0.41666663       0.88802415 </v>
   <v>       0.70629382       0.08333333       0.57125580 </v>
   <v>       0.53962707       0.08333333       0.72964001 </v>
   <v>       0.37296033       0.08333333       0.88802415 </v>
  </varray>
 </structure>
 <calculation>
  <scstep>
   <time name="dav">  114.46  115.47</time>
   <time name="total">  117.02  118.04</time>
   <energy>
    <i name="alphaZ">   1068.18732198 </i>
    <i name="ewald"> -23896.67880263 </i>
    <i name="hartreedc">  -2313.66534579 </i>
    <i name="XCdc">  -1955.76781978 </i>
    <i name="pawpsdc">  20094.53666134 </i>
    <i name="pawaedc"> -16418.68521354 </i>
    <i name="eentropy">     -0.00200913 </i>
    <i name="bandstr">   3501.44943884 </i>
    <i name="atom">  23707.55310521 </i>
    <i name="e_fr_energy">   3786.92733650 </i>
    <i name="e_wo_entrp">   3786.92934563 </i>
    <i name="e_0_energy">   3786.92834107 </i>
   </energy>
  </scstep>
  <scstep>
   <time name="dav">  129.24  130.37</time>
   <time name="total">  129.24  130.37</time>
   <energy>
    <i name="e_fr_energy">   -638.72357673 </i>
    <i name="e_wo_entrp">   -638.72076749 </i>
    <i name="e_0_energy">   -638.72217211 </i>
   </energy>
  </scstep>
  <scstep>
   <time name="dav">  135.56  136.74</time>
   <time name="total">  135.56  136.74</time>
   <energy>
    <i name="e_fr_energy">  -1065.42884628 </i>
    <i name="e_wo_entrp">  -1065.42477467 </i>
    <i name="e_0_energy">  -1065.42681047 </i>
   </energy>
  </scstep>
  <scstep>
   <time name="dav">  130.68  132.08</time>
   <time name="total">  130.68  132.08</time>
   <energy>
    <i name="e_fr_energy">  -1082.04587530 </i>
    <i name="e_wo_entrp">  -1082.04126170 </i>
    <i name="e_0_energy">  -1082.04356850 </i>
   </energy>
  </scstep>
  <scstep>
   <time name="dav">  146.54  147.82</time>
   <time name="total">  151.11  152.44</time>
   <energy>
    <i name="e_fr_energy">  -1082.73014881 </i>
    <i name="e_wo_entrp">  -1082.72555520 </i>
    <i name="e_0_energy">  -1082.72785201 </i>
   </energy>
  </scstep>
  <scstep>
   <time name="dav">  134.92  136.08</time>
   <time name="total">  142.03  143.25</time>
   <energy>
    <i name="e_fr_energy">  -1065.35513058 </i>
    <i name="e_wo_entrp">  -1065.35123798 </i>
    <i name="e_0_energy">  -1065.35318428 </i>
   </energy>
  </scstep>
  <scstep>
   <time name="dav">  131.80  132.93</time>
   <time name="total">  138.93  140.11</time>
   <energy>
    <i name="e_fr_energy">  -1064.94641467 </i>
    <i name="e_wo_entrp">  -1064.94294800 </i>
    <i name="e_0_energy">  -1064.94468134 </i>
   </energy>
  </scstep>
  <scstep>
   <time name="dav">  129.48  130.61</time>
   <time name="total">  136.61  137.79</time>
   <energy>
    <i name="e_fr_energy">  -1064.06682091 </i>
    <i name="e_wo_entrp">  -1064.06486928 </i>
    <i name="e_0_energy">  -1064.06584510 </i>
   </energy>
  </scstep>
  <scstep>
   <time name="dav">  133.60  134.75</time>
   <time name="total">  140.73  141.93</time>
   <energy>
    <i name="e_fr_energy">  -1064.07146375 </i>
    <i name="e_wo_entrp">  -1064.06964263 </i>
    <i name="e_0_energy">  -1064.07055319 </i>
   </energy>
  </scstep>
  <scstep>
   <time name="dav">  132.33  133.45</time>
   <time name="total">  139.51  140.69</time>
   <energy>
    <i name="e_fr_energy">  -1064.05577005 </i>
    <i name="e_wo_entrp">  -1064.05332950 </i>
    <i name="e_0_energy">  -1064.05454977 </i>
   </energy>
  </scstep>
  <scstep>
   <time name="dav">  134.45  135.61</time>
   <time name="total">  141.64  142.86</time>
   <energy>
    <i name="e_fr_energy">  -1064.05539444 </i>
    <i name="e_wo_entrp">  -1064.05329685 </i>
    <i name="e_0_energy">  -1064.05434564 </i>
   </energy>
  </scstep>
  <scstep>
   <time name="dav">  135.15  136.32</time>
   <time name="total">  142.34  143.58</time>
   <energy>
    <i name="e_fr_energy">  -1064.05234916 </i>
    <i name="e_wo_entrp">  -1064.05025186 </i>
    <i name="e_0_energy">  -1064.05130051 </i>
   </energy>
  </scstep>
  <scstep>
   <time name="dav">  124.92  126.03</time>
   <time name="total">  132.14  133.30</time>
   <energy>
    <i name="e_fr_energy">  -1064.05251830 </i>
    <i name="e_wo_entrp">  -1064.05039691 </i>
    <i name="e_0_energy">  -1064.05145761 </i>
   </energy>
  </scstep>
  <scstep>
   <time name="dav">  126.64  127.75</time>
   <time name="total">  133.79  134.95</time>
   <energy>
    <i name="e_fr_energy">  -1064.05260798 </i>
    <i name="e_wo_entrp">  -1064.05049699 </i>
    <i name="e_0_energy">  -1064.05155248 </i>
   </energy>
  </scstep>
  <scstep>
   <time name="dav">  127.62  128.77</time>
   <time name="total">  134.79  135.99</time>
   <energy>
    <i name="e_fr_energy">  -1064.05262178 </i>
    <i name="e_wo_entrp">  -1064.05051708 </i>
    <i name="e_0_energy">  -1064.05156943 </i>
   </energy>
  </scstep>
  <scstep>
   <time name="dav">  126.44  127.55</time>
   <time name="total">  133.60  134.77</time>
   <energy>
    <i name="e_fr_energy">  -1064.05262940 </i>
    <i name="e_wo_entrp">  -1064.05051677 </i>
    <i name="e_0_energy">  -1064.05157309 </i>
   </energy>
  </scstep>
  <scstep>
   <time name="dav">  126.97  128.11</time>
   <time name="total">  134.15  135.34</time>
   <energy>
    <i name="e_fr_energy">  -1064.05263093 </i>
    <i name="e_wo_entrp">  -1064.05051872 </i>
    <i name="e_0_energy">  -1064.05157483 </i>
   </energy>
  </scstep>
  <scstep>
   <time name="dav">  123.77  124.85</time>
   <time name="total">  130.96  132.10</time>
   <energy>
    <i name="e_fr_energy">  -1064.05263296 </i>
    <i name="e_wo_entrp">  -1064.05052075 </i>
    <i name="e_0_energy">  -1064.05157686 </i>
   </energy>
  </scstep>
  <scstep>
   <time name="dav">  128.70  129.84</time>
   <time name="total">  135.89  137.09</time>
   <energy>
    <i name="e_fr_energy">  -1064.05263522 </i>
    <i name="e_wo_entrp">  -1064.05052338 </i>
    <i name="e_0_energy">  -1064.05157930 </i>
   </energy>
  </scstep>
  <scstep>
   <time name="dav">   93.66   94.48</time>
   <time name="total">  100.85  101.72</time>
   <energy>
    <i name="e_fr_energy">  -1064.05263651 </i>
    <i name="e_wo_entrp">  -1064.05052491 </i>
    <i name="e_0_energy">  -1064.05158071 </i>
   </energy>
  </scstep>
  <scstep>
   <time name="dav">   79.29   80.00</time>
   <time name="total">   86.46   87.22</time>
   <energy>
    <i name="e_fr_energy">  -1064.05263683 </i>
    <i name="e_wo_entrp">  -1064.05052512 </i>
    <i name="e_0_energy">  -1064.05158098 </i>
   </energy>
  </scstep>
  <scstep>
   <time name="dav">   78.36   79.05</time>
   <time name="total">   85.55   86.29</time>
   <energy>
    <i name="e_fr_energy">  -1064.05263704 </i>
    <i name="e_wo_entrp">  -1064.05052534 </i>
    <i name="e_0_energy">  -1064.05158119 </i>
   </energy>
  </scstep>
  <scstep>
   <time name="dav">   77.78   78.46</time>
   <time name="total">   84.96   85.70</time>
   <energy>
    <i name="e_fr_energy">  -1064.05263715 </i>
    <i name="e_wo_entrp">  -1064.05052554 </i>
    <i name="e_0_energy">  -1064.05158134 </i>
   </energy>
  </scstep>
  <scstep>
   <time name="dav">   77.82   78.50</time>
   <time name="total">   80.34   81.03</time>
   <energy>
    <i name="alphaZ">   1068.18732198 </i>
    <i name="ewald"> -23896.67880263 </i>
    <i name="hartreedc">  -2667.83268934 </i>
    <i name="XCdc">  -1897.11669673 </i>
    <i name="pawpsdc">  67694.13486155 </i>
    <i name="pawaedc"> -64044.40710431 </i>
    <i name="eentropy">     -0.00211156 </i>
    <i name="bandstr">  -1027.89052135 </i>
    <i name="atom">  23707.55310521 </i>
    <i name="e_fr_energy">  -1064.05263717 </i>
    <i name="e_wo_entrp">  -1064.05052561 </i>
    <i name="e_0_energy">  -1064.05158139 </i>
   </energy>
  </scstep>
  <structure>
   <crystal>
    <varray name="basis" >
     <v>      17.17433167       0.00000000       0.00000000 </v>
     <v>       0.00000000      17.17432976       0.00000000 </v>
     <v>       0.00000000       0.00000000      17.86100006 </v>
    </varray>
    <i name="volume">   5268.23834366 </i>
    <varray name="rec_basis" >
     <v>       0.05822643       0.00000000       0.00000000 </v>
     <v>       0.00000000       0.05822644       0.00000000 </v>
     <v>       0.00000000       0.00000000       0.05598791 </v>
    </varray>
   </crystal>
   <varray name="positions" >
    <v>       0.99640435       0.97483069       0.00000000 </v>
    <v>       0.94640434       0.62483060       0.15203516 </v>
    <v>       0.89640427       0.27483046       0.30407038 </v>
    <v>       0.09640440       0.67483074       0.00000000 </v>
    <v>       0.04640434       0.32483065       0.15203516 </v>
    <v>       0.99640423       0.97483051       0.30407038 </v>
    <v>       0.19640441       0.37483066       0.00000000 </v>
    <v>       0.14640434       0.02483060       0.15203516 </v>
    <v>       0.09640426       0.67483044       0.30407038 </v>
    <v>       0.29640439       0.07483066       0.00000000 </v>
    <v>       0.24640430       0.72483063       0.15203516 </v>
    <v>       0.19640423       0.37483042       0.30407038 </v>
    <v>       0.39640445       0.77483070       0.00000000 </v>
    <v>       0.34640437       0.42483059       0.15203516 </v>
    <v>       0.29640430       0.07483046       0.30407038 </v>
    <v>       0.49640438       0.47483069       0.00000000 </v>
    <v>       0.44640431       0.12483060       0.15203516 </v>
    <v>       0.39640424       0.77483046       0.30407038 </v>
    <v>       0.59640437       0.17483065       0.00000000 </v>
    <v>       0.54640430       0.82483059       0.15203516 </v>
    <v>       0.49640426       0.47483045       0.30407038 </v>
    <v>       0.69640452       0.87483078       0.00000000 </v>
    <v>       0.64640445       0.52483064       0.15203516 </v>
    <v>       0.59640437       0.17483054       0.30407038 </v>
    <v>       0.79640442       0.57483071       0.00000000 </v>
    <v>       0.74640435       0.22483061       0.15203516 </v>
    <v>       0.69640428       0.87483048       0.30407038 </v>
    <v>       0.89640450       0.27483070       0.00000000 </v>
    <v>       0.84640443       0.92483062       0.15203516 </v>
    <v>       0.79640436       0.57483047       0.30407038 </v>
    <v>       0.99640441       0.22483067       0.07601761 </v>
    <v>       0.94640428       0.87483054       0.22805277 </v>
    <v>       0.89640427       0.52483046       0.38008791 </v>
    <v>       0.09640437       0.92483062       0.07601761 </v>
    <v>       0.04640429       0.57483053       0.22805277 </v>
    <v>       0.99640423       0.22483039       0.38008791 </v>
    <v>       0.19640441       0.62483066       0.07601761 </v>
    <v>       0.14640434       0.27483055       0.22805277 </v>
    <v>       0.09640426       0.92483050       0.38008791 </v>
    <v>       0.29640442       0.32483062       0.07601761 </v>
    <v>       0.24640434       0.97483051       0.22805277 </v>
    <v>       0.19640426       0.62483048       0.38008791 </v>
    <v>       0.39640441       0.02483064       0.07601761 </v>
    <v>       0.34640431       0.67483056       0.22805277 </v>
    <v>       0.29640424       0.32483047       0.38008791 </v>
    <v>       0.49640450       0.72483069       0.07601761 </v>
    <v>       0.44640443       0.37483057       0.22805277 </v>
    <v>       0.39640436       0.02483052       0.38008791 </v>
    <v>       0.59640437       0.42483059       0.07601761 </v>
    <v>       0.54640430       0.07483050       0.22805277 </v>
    <v>       0.49640426       0.72483045       0.38008791 </v>
    <v>       0.69640452       0.12483066       0.07601761 </v>
    <v>       0.64640439       0.77483058       0.22805277 </v>
    <v>       0.59640437       0.42483050       0.38008791 </v>
    <v>       0.79640448       0.82483071       0.07601761 </v>
    <v>       0.74640441       0.47483057       0.22805277 </v>
    <v>       0.69640434       0.12483048       0.38008791 </v>
    <v>       0.89640445       0.52483064       0.07601761 </v>
    <v>       0.84640437       0.17483054       0.22805277 </v>
    <v>       0.79640430       0.82483047       0.38008791 </v>
    <v>       0.99640441       0.47483069       0.00000000 </v>
    <v>       0.94640434       0.12483060       0.15203516 </v>
    <v>       0.89640427       0.77483046       0.30407038 </v>
    <v>       0.09640438       0.17483066       0.00000000 </v>
    <v>       0.04640431       0.82483059       0.15203516 </v>
    <v>       0.99640423       0.47483045       0.30407038 </v>
    <v>       0.19640441       0.87483066       0.00000000 </v>
    <v>       0.14640433       0.52483058       0.15203516 </v>
    <v>       0.09640426       0.17483044       0.30407038 </v>
    <v>       0.29640442       0.57483065       0.00000000 </v>
    <v>       0.24640432       0.22483060       0.15203516 </v>
    <v>       0.19640425       0.87483048       0.30407038 </v>
    <v>       0.39640445       0.27483067       0.00000000 </v>
    <v>       0.34640437       0.92483062       0.15203516 </v>
    <v>       0.29640430       0.57483047       0.30407038 </v>
    <v>       0.49640441       0.97483063       0.00000000 </v>
    <v>       0.44640434       0.62483054       0.15203516 </v>
    <v>       0.39640424       0.27483040       0.30407038 </v>
    <v>       0.59640437       0.67483068       0.00000000 </v>
    <v>       0.54640430       0.32483059       0.15203516 </v>
    <v>       0.49640423       0.97483045       0.30407038 </v>
    <v>       0.69640440       0.37483063       0.00000000 </v>
    <v>       0.64640433       0.02483056       0.15203516 </v>
    <v>       0.59640425       0.67483044       0.30407038 </v>
    <v>       0.79640442       0.07483064       0.00000000 </v>
    <v>       0.74640435       0.72483051       0.15203516 </v>
    <v>       0.69640428       0.37483042       0.30407038 </v>
    <v>       0.89640450       0.77483070       0.00000000 </v>
    <v>       0.84640443       0.42483062       0.15203516 </v>
    <v>       0.79640436       0.07483048       0.30407038 </v>
    <v>       0.99640435       0.72483075       0.07601761 </v>
    <v>       0.94640428       0.37483060       0.22805277 </v>
    <v>       0.89640427       0.02483054       0.38008791 </v>
    <v>       0.09640439       0.42483068       0.07601761 </v>
    <v>       0.04640431       0.07483057       0.22805277 </v>
    <v>       0.99640423       0.72483051       0.38008791 </v>
    <v>       0.19640441       0.12483066       0.07601761 </v>
    <v>       0.14640434       0.77483058       0.22805277 </v>
    <v>       0.09640427       0.42483050       0.38008791 </v>
    <v>       0.29640439       0.82483071       0.07601761 </v>
    <v>       0.24640432       0.47483057       0.22805277 </v>
    <v>       0.19640425       0.12483048       0.38008791 </v>
    <v>       0.39640441       0.52483076       0.07601761 </v>
    <v>       0.34640434       0.17483065       0.22805277 </v>
    <v>       0.29640427       0.82483059       0.38008791 </v>
    <v>       0.49640441       0.22483064       0.07601761 </v>
    <v>       0.44640434       0.87483054       0.22805277 </v>
    <v>       0.39640424       0.52483046       0.38008791 </v>
    <v>       0.59640443       0.92483068       0.07601761 </v>
    <v>       0.54640436       0.57483059       0.22805277 </v>
    <v>       0.49640429       0.22483051       0.38008791 </v>
    <v>       0.69640446       0.62483072       0.07601761 </v>
    <v>       0.64640439       0.27483058       0.22805277 </v>
    <v>       0.59640431       0.92483056       0.38008791 </v>
    <v>       0.79640436       0.32483062       0.07601761 </v>
    <v>       0.74640429       0.97483051       0.22805277 </v>
    <v>       0.69640422       0.62483048       0.38008791 </v>
    <v>       0.89640439       0.02483063       0.07601761 </v>
    <v>       0.84640431       0.67483056       0.22805277 </v>
    <v>       0.79640424       0.32483041       0.38008791 </v>
    <v>       0.78962707       0.66666657       0.49206373 </v>
    <v>       0.62296057       0.66666657       0.65044791 </v>
    <v>       0.45629382       0.66666657       0.80883211 </v>
    <v>       0.78962707       0.33333328       0.49206373 </v>
    <v>       0.62296057       0.33333328       0.65044791 </v>
    <v>       0.45629382       0.33333328       0.80883211 </v>
    <v>       0.78962707       0.00000000       0.49206373 </v>
    <v>       0.62296057       0.00000000       0.65044791 </v>
    <v>       0.45629382       0.00000000       0.80883211 </v>
    <v>       0.12296045       0.66666657       0.49206373 </v>
    <v>       0.95629382       0.66666657       0.65044791 </v>
    <v>       0.78962707       0.66666657       0.80883211 </v>
    <v>       0.12296045       0.33333328       0.49206373 </v>
    <v>       0.95629382       0.33333328       0.65044791 </v>
    <v>       0.78962707       0.33333328       0.80883211 </v>
    <v>       0.12296045       0.00000000       0.49206373 </v>
    <v>       0.95629382       0.00000000       0.65044791 </v>
    <v>       0.78962707       0.00000000       0.80883211 </v>
    <v>       0.45629382       0.66666657       0.49206373 </v>
    <v>       0.28962707       0.66666657       0.65044791 </v>
    <v>       0.12296033       0.66666657       0.80883211 </v>
    <v>       0.45629382       0.33333328       0.49206373 </v>
    <v>       0.28962707       0.33333328       0.65044791 </v>
    <v>       0.12296033       0.33333328       0.80883211 </v>
    <v>       0.45629382       0.00000000       0.49206373 </v>
    <v>       0.28962707       0.00000000       0.65044791 </v>
    <v>       0.12296033       0.00000000       0.80883211 </v>
    <v>       0.87296051       0.91666657       0.57125580 </v>
    <v>       0.70629382       0.91666657       0.72964001 </v>
    <v>       0.53962707       0.91666657       0.88802415 </v>
    <v>       0.87296051       0.58333331       0.57125580 </v>
    <v>       0.70629382       0.58333331       0.72964001 </v>
    <v>       0.53962707       0.58333331       0.88802415 </v>
    <v>       0.87296051       0.24999995       0.57125580 </v>
    <v>       0.70629382       0.24999995       0.72964001 </v>
    <v>       0.53962707       0.24999995       0.88802415 </v>
    <v>       0.20629370       0.91666657       0.57125580 </v>
    <v>       0.03962707       0.91666657       0.72964001 </v>
    <v>       0.87296039       0.91666657       0.88802415 </v>
    <v>       0.20629370       0.58333331       0.57125580 </v>
    <v>       0.03962707       0.58333331       0.72964001 </v>
    <v>       0.87296039       0.58333331       0.88802415 </v>
    <v>       0.20629370       0.24999995       0.57125580 </v>
    <v>       0.03962707       0.24999995       0.72964001 </v>
    <v>       0.87296039       0.24999995       0.88802415 </v>
    <v>       0.53962707       0.91666657       0.57125580 </v>
    <v>       0.37296033       0.91666657       0.72964001 </v>
    <v>       0.20629370       0.91666657       0.88802415 </v>
    <v>       0.53962707       0.58333331       0.57125580 </v>
    <v>       0.37296033       0.58333331       0.72964001 </v>
    <v>       0.20629370       0.58333331       0.88802415 </v>
    <v>       0.53962707       0.24999995       0.57125580 </v>
    <v>       0.37296033       0.24999995       0.72964001 </v>
    <v>       0.20629370       0.24999995       0.88802415 </v>
    <v>       0.95629382       0.83333319       0.49206373 </v>
    <v>       0.78962707       0.83333319       0.65044791 </v>
    <v>       0.62296045       0.83333319       0.80883211 </v>
    <v>       0.95629382       0.49999991       0.49206373 </v>
    <v>       0.78962707       0.49999991       0.65044791 </v>
    <v>       0.62296045       0.49999991       0.80883211 </v>
    <v>       0.95629382       0.16666664       0.49206373 </v>
    <v>       0.78962707       0.16666664       0.65044791 </v>
    <v>       0.62296045       0.16666664       0.80883211 </v>
    <v>       0.28962707       0.83333319       0.49206373 </v>
    <v>       0.12296033       0.83333319       0.65044791 </v>
    <v>       0.95629370       0.83333319       0.80883211 </v>
    <v>       0.28962707       0.49999991       0.49206373 </v>
    <v>       0.12296033       0.49999991       0.65044791 </v>
    <v>       0.95629370       0.49999991       0.80883211 </v>
    <v>       0.28962707       0.16666664       0.49206373 </v>
    <v>       0.12296033       0.16666664       0.65044791 </v>
    <v>       0.95629370       0.16666664       0.80883211 </v>
    <v>       0.62296045       0.83333319       0.49206373 </v>
    <v>       0.45629382       0.83333319       0.65044791 </v>
    <v>       0.28962707       0.83333319       0.80883211 </v>
    <v>       0.62296045       0.49999991       0.49206373 </v>
    <v>       0.45629382       0.49999991       0.65044791 </v>
    <v>       0.28962707       0.49999991       0.80883211 </v>
    <v>       0.62296045       0.16666664       0.49206373 </v>
    <v>       0.45629382       0.16666664       0.65044791 </v>
    <v>       0.28962707       0.16666664       0.80883211 </v>
    <v>       0.03962707       0.74999988       0.57125580 </v>
    <v>       0.87296045       0.74999988       0.72964001 </v>
    <v>       0.70629382       0.74999988       0.88802415 </v>
    <v>       0.03962707       0.41666663       0.57125580 </v>
    <v>       0.87296045       0.41666663       0.72964001 </v>
    <v>       0.70629382       0.41666663       0.88802415 </v>
    <v>       0.03962707       0.08333333       0.57125580 </v>
    <v>       0.87296045       0.08333333       0.72964001 </v>
    <v>       0.70629382       0.08333333       0.88802415 </v>
    <v>       0.37296057       0.74999988       0.57125580 </v>
    <v>       0.20629382       0.74999988       0.72964001 </v>
    <v>       0.03962707       0.74999988       0.88802415 </v>
    <v>       0.37296057       0.41666663       0.57125580 </v>
    <v>       0.20629382       0.41666663       0.72964001 </v>
    <v>       0.03962707       0.41666663       0.88802415 </v>
    <v>       0.37296057       0.08333333       0.57125580 </v>
    <v>       0.20629382       0.08333333       0.72964001 </v>
    <v>       0.03962707       0.08333333       0.88802415 </v>
    <v>       0.70629382       0.74999988       0.57125580 </v>
    <v>       0.53962707       0.74999988       0.72964001 </v>
    <v>       0.37296033       0.74999988       0.88802415 </v>
    <v>       0.70629382       0.41666663       0.57125580 </v>
    <v>       0.53962707       0.41666663       0.72964001 </v>
    <v>       0.37296033       0.41666663       0.88802415 </v>
    <v>       0.70629382       0.08333333       0.57125580 </v>
    <v>       0.53962707       0.08333333       0.72964001 </v>
    <v>       0.37296033       0.08333333       0.88802415 </v>
   </varray>
  </structure>
  <varray name="forces" >
   <v>      -0.79777262       0.46749530      -1.42132939 </v>
   <v>       0.10372507      -0.01275825       0.04155471 </v>
   <v>       0.02459394      -0.03050722       0.52255672 </v>
   <v>      -0.77760953       0.07058595      -0.24381160 </v>
   <v>       0.00490191      -0.01974135       0.05583731 </v>
   <v>       0.16989875      -0.09182376       0.35800124 </v>
   <v>       0.71459684      -0.19879422      -0.80346598 </v>
   <v>       0.09633428      -0.01893374       0.00544640 </v>
   <v>       0.25323415      -0.00756839      -0.10295192 </v>
   <v>       0.62570404      -0.45751622      -0.09527179 </v>
   <v>      -0.08109988      -0.01009354       0.07406647 </v>
   <v>      -0.05650541       0.09235232       0.04035230 </v>
   <v>       0.72251741       0.86940797       3.60660060 </v>
   <v>      -0.02303767       0.02052898       0.05749916 </v>
   <v>      -0.36357032      -0.02109323       0.35287882 </v>
   <v>      -0.79777262       0.46749530      -1.42132939 </v>
   <v>       0.10372507      -0.01275825       0.04155471 </v>
   <v>       0.02459394      -0.03050722       0.52255672 </v>
   <v>      -0.77760953       0.07058595      -0.24381160 </v>
   <v>       0.00490191      -0.01974135       0.05583731 </v>
   <v>       0.16989875      -0.09182376       0.35800124 </v>
   <v>       0.71459684      -0.19879422      -0.80346598 </v>
   <v>       0.09633428      -0.01893374       0.00544640 </v>
   <v>       0.25323415      -0.00756839      -0.10295192 </v>
   <v>       0.62570404      -0.45751622      -0.09527179 </v>
   <v>      -0.08109988      -0.01009354       0.07406647 </v>
   <v>      -0.05650541       0.09235232       0.04035230 </v>
[...]
       <r>     1.6896   155.0985   680.8913 </r>
       <r>     1.7422   136.8916   688.0970 </r>
       <r>     1.7949   135.6873   695.2394 </r>
       <r>     1.8475   115.6719   701.3282 </r>
       <r>     1.9002    99.6616   706.5742 </r>
       <r>     1.9528   105.0437   712.1035 </r>
       <r>     2.0054   184.0511   721.7917 </r>
       <r>     2.0581   157.0240   730.0572 </r>
       <r>     2.1107   130.1601   736.9086 </r>
       <r>     2.1634    92.6275   741.7844 </r>
       <r>     2.2160   164.6760   750.4527 </r>
       <r>     2.2686   121.1768   756.8312 </r>
       <r>     2.3213   133.2460   763.8451 </r>
       <r>     2.3739   110.4898   769.6611 </r>
       <r>     2.4265   137.8089   776.9151 </r>
       <r>     2.4792   101.4841   782.2571 </r>
       <r>     2.5318   110.2182   788.0588 </r>
       <r>     2.5845   122.7168   794.5184 </r>
       <r>     2.6371   156.8045   802.7724 </r>
       <r>     2.6897   147.6951   810.5468 </r>
       <r>     2.7424    97.0213   815.6538 </r>
       <r>     2.7950   117.3787   821.8325 </r>
       <r>     2.8477    98.6581   827.0257 </r>
       <r>     2.9003    87.7936   831.6470 </r>
       <r>     2.9529    75.8620   835.6402 </r>
       <r>     3.0056    72.8280   839.4738 </r>
       <r>     3.0582    80.6165   843.7173 </r>
       <r>     3.1108    63.4041   847.0548 </r>
       <r>     3.1635    96.5528   852.1371 </r>
       <r>     3.2161    92.9408   857.0294 </r>
       <r>     3.2688   106.8758   862.6552 </r>
       <r>     3.3214    76.4852   866.6812 </r>
       <r>     3.3740    75.4454   870.6525 </r>
       <r>     3.4267    84.1848   875.0839 </r>
       <r>     3.4793    35.9041   876.9738 </r>
       <r>     3.5320    47.2017   879.4584 </r>
       <r>     3.5846    76.4934   883.4849 </r>
       <r>     3.6372    67.0661   887.0152 </r>
       <r>     3.6899    56.6693   889.9982 </r>
       <r>     3.7425    22.9160   891.2044 </r>
       <r>     3.7951    53.3014   894.0101 </r>
       <r>     3.8478    73.3883   897.8732 </r>
       <r>     3.9004    29.6209   899.4324 </r>
       <r>     3.9531    27.5338   900.8817 </r>
       <r>     4.0057    45.9847   903.3022 </r>
       <r>     4.0583    52.4605   906.0637 </r>
       <r>     4.1110    93.2340   910.9714 </r>
       <r>     4.1636    42.1924   913.1923 </r>
       <r>     4.2162    90.2438   917.9426 </r>
       <r>     4.2689    44.4351   920.2816 </r>
       <r>     4.3215    68.1927   923.8711 </r>
       <r>     4.3742    48.3579   926.4166 </r>
       <r>     4.4268    77.3623   930.4888 </r>
       <r>     4.4794    70.4161   934.1954 </r>
       <r>     4.5321    88.2711   938.8419 </r>
       <r>     4.5847    62.2340   942.1177 </r>
       <r>     4.6374    90.9492   946.9052 </r>
       <r>     4.6900    81.7335   951.2075 </r>
       <r>     4.7426    61.9784   954.4699 </r>
       <r>     4.7953    98.3076   959.6447 </r>
       <r>     4.8479    99.1482   964.8637 </r>
       <r>     4.9005    97.0421   969.9718 </r>
       <r>     4.9532   109.3819   975.7295 </r>
       <r>     5.0058    90.9226   980.5155 </r>
       <r>     5.0585    70.5443   984.2288 </r>
       <r>     5.1111    80.6232   988.4727 </r>
       <r>     5.1637   101.2021   993.7998 </r>
       <r>     5.2164    95.8640   998.8459 </r>
       <r>     5.2690   115.3429  1004.9174 </r>
       <r>     5.3217   118.2113  1011.1399 </r>
       <r>     5.3743    92.3143  1015.9991 </r>
       <r>     5.4269   128.8928  1022.7838 </r>
       <r>     5.4796   106.1625  1028.3721 </r>
       <r>     5.5322    82.4117  1032.7101 </r>
       <r>     5.5848   104.6466  1038.2185 </r>
       <r>     5.6375   105.6539  1043.7800 </r>
       <r>     5.6901   126.4408  1050.4356 </r>
       <r>     5.7428   141.9251  1057.9063 </r>
       <r>     5.7954   100.1684  1063.1790 </r>
       <r>     5.8480    95.9500  1068.2296 </r>
       <r>     5.9007    97.7257  1073.3738 </r>
       <r>     5.9533    93.7357  1078.3079 </r>
       <r>     6.0060    95.4692  1083.3332 </r>
       <r>     6.0586   103.2464  1088.7679 </r>
       <r>     6.1112    72.2495  1092.5710 </r>
       <r>     6.1639    53.8829  1095.4073 </r>
       <r>     6.2165    11.2589  1096.0000 </r>
       <r>     6.2691     0.0000  1096.0000 </r>
       <r>     6.3218     0.0000  1096.0000 </r>
       <r>     6.3744     0.0000  1096.0000 </r>
       <r>     6.4271     0.0000  1096.0000 </r>
       <r>     6.4797     0.0000  1096.0000 </r>
       <r>     6.5323     0.0000  1096.0000 </r>
       <r>     6.5850     0.0000  1096.0000 </r>
       <r>     6.6376     0.0000  1096.0000 </r>
       <r>     6.6902     0.0000  1096.0000 </r>
       <r>     6.7429     0.0000  1096.0000 </r>
       <r>     6.7955     0.0000  1096.0000 </r>
       <r>     6.8482     0.0000  1096.0000 </r>
       <r>     6.9008     0.0000  1096.0000 </r>
      </set>
     </set>
    </array>
   </total>
  </dos>
 </calculation>
 <structure name="finalpos" >
  <crystal>
   <varray name="basis" >
    <v>      17.17433167       0.00000000       0.00000000 </v>
    <v>       0.00000000      17.17432976       0.00000000 </v>
    <v>       0.00000000       0.00000000      17.86100006 </v>
   </varray>
   <i name="volume">   5268.23834366 </i>
   <varray name="rec_basis" >
    <v>       0.05822643       0.00000000       0.00000000 </v>
    <v>       0.00000000       0.05822644       0.00000000 </v>
    <v>       0.00000000       0.00000000       0.05598791 </v>
   </varray>
  </crystal>
  <varray name="positions" >
   <v>       0.99640435       0.97483069       0.00000000 </v>
   <v>       0.94640434       0.62483060       0.15203516 </v>
   <v>       0.89640427       0.27483046       0.30407038 </v>
   <v>       0.09640440       0.67483074       0.00000000 </v>
   <v>       0.04640434       0.32483065       0.15203516 </v>
   <v>       0.99640423       0.97483051       0.30407038 </v>
   <v>       0.19640441       0.37483066       0.00000000 </v>
   <v>       0.14640434       0.02483060       0.15203516 </v>
   <v>       0.09640426       0.67483044       0.30407038 </v>
   <v>       0.29640439       0.07483066       0.00000000 </v>
   <v>       0.24640430       0.72483063       0.15203516 </v>
   <v>       0.19640423       0.37483042       0.30407038 </v>
   <v>       0.39640445       0.77483070       0.00000000 </v>
   <v>       0.34640437       0.42483059       0.15203516 </v>
   <v>       0.29640430       0.07483046       0.30407038 </v>
   <v>       0.49640438       0.47483069       0.00000000 </v>
   <v>       0.44640431       0.12483060       0.15203516 </v>
   <v>       0.39640424       0.77483046       0.30407038 </v>
   <v>       0.59640437       0.17483065       0.00000000 </v>
   <v>       0.54640430       0.82483059       0.15203516 </v>
   <v>       0.49640426       0.47483045       0.30407038 </v>
   <v>       0.69640452       0.87483078       0.00000000 </v>
   <v>       0.64640445       0.52483064       0.15203516 </v>
   <v>       0.59640437       0.17483054       0.30407038 </v>
   <v>       0.79640442       0.57483071       0.00000000 </v>
   <v>       0.74640435       0.22483061       0.15203516 </v>
   <v>       0.69640428       0.87483048       0.30407038 </v>
   <v>       0.89640450       0.27483070       0.00000000 </v>
   <v>       0.84640443       0.92483062       0.15203516 </v>
   <v>       0.79640436       0.57483047       0.30407038 </v>
   <v>       0.99640441       0.22483067       0.07601761 </v>
   <v>       0.94640428       0.87483054       0.22805277 </v>
   <v>       0.89640427       0.52483046       0.38008791 </v>
   <v>       0.09640437       0.92483062       0.07601761 </v>
   <v>       0.04640429       0.57483053       0.22805277 </v>
   <v>       0.99640423       0.22483039       0.38008791 </v>
   <v>       0.19640441       0.62483066       0.07601761 </v>
   <v>       0.14640434       0.27483055       0.22805277 </v>
   <v>       0.09640426       0.92483050       0.38008791 </v>
   <v>       0.29640442       0.32483062       0.07601761 </v>
   <v>       0.24640434       0.97483051       0.22805277 </v>
   <v>       0.19640426       0.62483048       0.38008791 </v>
   <v>       0.39640441       0.02483064       0.07601761 </v>
   <v>       0.34640431       0.67483056       0.22805277 </v>
   <v>       0.29640424       0.32483047       0.38008791 </v>
   <v>       0.49640450       0.72483069       0.07601761 </v>
   <v>       0.44640443       0.37483057       0.22805277 </v>
   <v>       0.39640436       0.02483052       0.38008791 </v>
   <v>       0.59640437       0.42483059       0.07601761 </v>
   <v>       0.54640430       0.07483050       0.22805277 </v>
   <v>       0.49640426       0.72483045       0.38008791 </v>
   <v>       0.69640452       0.12483066       0.07601761 </v>
   <v>       0.64640439       0.77483058       0.22805277 </v>
   <v>       0.59640437       0.42483050       0.38008791 </v>
   <v>       0.79640448       0.82483071       0.07601761 </v>
   <v>       0.74640441       0.47483057       0.22805277 </v>
   <v>       0.69640434       0.12483048       0.38008791 </v>
   <v>       0.89640445       0.52483064       0.07601761 </v>
   <v>       0.84640437       0.17483054       0.22805277 </v>
   <v>       0.79640430       0.82483047       0.38008791 </v>
   <v>       0.99640441       0.47483069       0.00000000 </v>
   <v>       0.94640434       0.12483060       0.15203516 </v>
   <v>       0.89640427       0.77483046       0.30407038 </v>
   <v>       0.09640438       0.17483066       0.00000000 </v>
   <v>       0.04640431       0.82483059       0.15203516 </v>
   <v>       0.99640423       0.47483045       0.30407038 </v>
   <v>       0.19640441       0.87483066       0.00000000 </v>
   <v>       0.14640433       0.52483058       0.15203516 </v>
   <v>       0.09640426       0.17483044       0.30407038 </v>
   <v>       0.29640442       0.57483065       0.00000000 </v>
   <v>       0.24640432       0.22483060       0.15203516 </v>
   <v>       0.19640425       0.87483048       0.30407038 </v>
   <v>       0.39640445       0.27483067       0.00000000 </v>
   <v>       0.34640437       0.92483062       0.15203516 </v>
   <v>       0.29640430       0.57483047       0.30407038 </v>
   <v>       0.49640441       0.97483063       0.00000000 </v>
   <v>       0.44640434       0.62483054       0.15203516 </v>
   <v>       0.39640424       0.27483040       0.30407038 </v>
   <v>       0.59640437       0.67483068       0.00000000 </v>
   <v>       0.54640430       0.32483059       0.15203516 </v>
   <v>       0.49640423       0.97483045       0.30407038 </v>
   <v>       0.69640440       0.37483063       0.00000000 </v>
   <v>       0.64640433       0.02483056       0.15203516 </v>
   <v>       0.59640425       0.67483044       0.30407038 </v>
   <v>       0.79640442       0.07483064       0.00000000 </v>
   <v>       0.74640435       0.72483051       0.15203516 </v>
   <v>       0.69640428       0.37483042       0.30407038 </v>
   <v>       0.89640450       0.77483070       0.00000000 </v>
   <v>       0.84640443       0.42483062       0.15203516 </v>
   <v>       0.79640436       0.07483048       0.30407038 </v>
   <v>       0.99640435       0.72483075       0.07601761 </v>
   <v>       0.94640428       0.37483060       0.22805277 </v>
   <v>       0.89640427       0.02483054       0.38008791 </v>
   <v>       0.09640439       0.42483068       0.07601761 </v>
   <v>       0.04640431       0.07483057       0.22805277 </v>
   <v>       0.99640423       0.72483051       0.38008791 </v>
   <v>       0.19640441       0.12483066       0.07601761 </v>
   <v>       0.14640434       0.77483058       0.22805277 </v>
   <v>       0.09640427       0.42483050       0.38008791 </v>
   <v>       0.29640439       0.82483071       0.07601761 </v>
   <v>       0.24640432       0.47483057       0.22805277 </v>
   <v>       0.19640425       0.12483048       0.38008791 </v>
   <v>       0.39640441       0.52483076       0.07601761 </v>
   <v>       0.34640434       0.17483065       0.22805277 </v>
   <v>       0.29640427       0.82483059       0.38008791 </v>
   <v>       0.49640441       0.22483064       0.07601761 </v>
   <v>       0.44640434       0.87483054       0.22805277 </v>
   <v>       0.39640424       0.52483046       0.38008791 </v>
   <v>       0.59640443       0.92483068       0.07601761 </v>
   <v>       0.54640436       0.57483059       0.22805277 </v>
   <v>       0.49640429       0.22483051       0.38008791 </v>
   <v>       0.69640446       0.62483072       0.07601761 </v>
   <v>       0.64640439       0.27483058       0.22805277 </v>
   <v>       0.59640431       0.92483056       0.38008791 </v>
   <v>       0.79640436       0.32483062       0.07601761 </v>
   <v>       0.74640429       0.97483051       0.22805277 </v>
   <v>       0.69640422       0.62483048       0.38008791 </v>
   <v>       0.89640439       0.02483063       0.07601761 </v>
   <v>       0.84640431       0.67483056       0.22805277 </v>
   <v>       0.79640424       0.32483041       0.38008791 </v>
   <v>       0.78962707       0.66666657       0.49206373 </v>
   <v>       0.62296057       0.66666657       0.65044791 </v>
   <v>       0.45629382       0.66666657       0.80883211 </v>
   <v>       0.78962707       0.33333328       0.49206373 </v>
   <v>       0.62296057       0.33333328       0.65044791 </v>
   <v>       0.45629382       0.33333328       0.80883211 </v>
   <v>       0.78962707       0.00000000       0.49206373 </v>
   <v>       0.62296057       0.00000000       0.65044791 </v>
   <v>       0.45629382       0.00000000       0.80883211 </v>
   <v>       0.12296045       0.66666657       0.49206373 </v>
   <v>       0.95629382       0.66666657       0.65044791 </v>
   <v>       0.78962707       0.66666657       0.80883211 </v>
   <v>       0.12296045       0.33333328       0.49206373 </v>
   <v>       0.95629382       0.33333328       0.65044791 </v>
   <v>       0.78962707       0.33333328       0.80883211 </v>
   <v>       0.12296045       0.00000000       0.49206373 </v>
   <v>       0.95629382       0.00000000       0.65044791 </v>
   <v>       0.78962707       0.00000000       0.80883211 </v>
   <v>       0.45629382       0.66666657       0.49206373 </v>
   <v>       0.28962707       0.66666657       0.65044791 </v>
   <v>       0.12296033       0.66666657       0.80883211 </v>
   <v>       0.45629382       0.33333328       0.49206373 </v>
   <v>       0.28962707       0.33333328       0.65044791 </v>
   <v>       0.12296033       0.33333328       0.80883211 </v>
   <v>       0.45629382       0.00000000       0.49206373 </v>
   <v>       0.28962707       0.00000000       0.65044791 </v>
   <v>       0.12296033       0.00000000       0.80883211 </v>
   <v>       0.87296051       0.91666657       0.57125580 </v>
   <v>       0.70629382       0.91666657       0.72964001 </v>
   <v>       0.53962707       0.91666657       0.88802415 </v>
   <v>       0.87296051       0.58333331       0.57125580 </v>
   <v>       0.70629382       0.58333331       0.72964001 </v>
   <v>       0.53962707       0.58333331       0.88802415 </v>
   <v>       0.87296051       0.24999995       0.57125580 </v>
   <v>       0.70629382       0.24999995       0.72964001 </v>
   <v>       0.53962707       0.24999995       0.88802415 </v>
   <v>       0.20629370       0.91666657       0.57125580 </v>
   <v>       0.03962707       0.91666657       0.72964001 </v>
   <v>       0.87296039       0.91666657       0.88802415 </v>
   <v>       0.20629370       0.58333331       0.57125580 </v>
   <v>       0.03962707       0.58333331       0.72964001 </v>
   <v>       0.87296039       0.58333331       0.88802415 </v>
   <v>       0.20629370       0.24999995       0.57125580 </v>
   <v>       0.03962707       0.24999995       0.72964001 </v>
   <v>       0.87296039       0.24999995       0.88802415 </v>
   <v>       0.53962707       0.91666657       0.57125580 </v>
   <v>       0.37296033       0.91666657       0.72964001 </v>
   <v>       0.20629370       0.91666657       0.88802415 </v>
   <v>       0.53962707       0.58333331       0.57125580 </v>
   <v>       0.37296033       0.58333331       0.72964001 </v>
   <v>       0.20629370       0.58333331       0.88802415 </v>
   <v>       0.53962707       0.24999995       0.57125580 </v>
   <v>       0.37296033       0.24999995       0.72964001 </v>
   <v>       0.20629370       0.24999995       0.88802415 </v>
   <v>       0.95629382       0.83333319       0.49206373 </v>
   <v>       0.78962707       0.83333319       0.65044791 </v>
   <v>       0.62296045       0.83333319       0.80883211 </v>
   <v>       0.95629382       0.49999991       0.49206373 </v>
   <v>       0.78962707       0.49999991       0.65044791 </v>
   <v>       0.62296045       0.49999991       0.80883211 </v>
   <v>       0.95629382       0.16666664       0.49206373 </v>
   <v>       0.78962707       0.16666664       0.65044791 </v>
   <v>       0.62296045       0.16666664       0.80883211 </v>
   <v>       0.28962707       0.83333319       0.49206373 </v>
   <v>       0.12296033       0.83333319       0.65044791 </v>
   <v>       0.95629370       0.83333319       0.80883211 </v>
   <v>       0.28962707       0.49999991       0.49206373 </v>
   <v>       0.12296033       0.49999991       0.65044791 </v>
   <v>       0.95629370       0.49999991       0.80883211 </v>
   <v>       0.28962707       0.16666664       0.49206373 </v>
   <v>       0.12296033       0.16666664       0.65044791 </v>
   <v>       0.95629370       0.16666664       0.80883211 </v>
   <v>       0.62296045       0.83333319       0.49206373 </v>
   <v>       0.45629382       0.83333319       0.65044791 </v>
   <v>       0.28962707       0.83333319       0.80883211 </v>
   <v>       0.62296045       0.49999991       0.49206373 </v>
   <v>       0.45629382       0.49999991       0.65044791 </v>
   <v>       0.28962707       0.49999991       0.80883211 </v>
   <v>       0.62296045       0.16666664       0.49206373 </v>
   <v>       0.45629382       0.16666664       0.65044791 </v>
   <v>       0.28962707       0.16666664       0.80883211 </v>
   <v>       0.03962707       0.74999988       0.57125580 </v>
   <v>       0.87296045       0.74999988       0.72964001 </v>
   <v>       0.70629382       0.74999988       0.88802415 </v>
   <v>       0.03962707       0.41666663       0.57125580 </v>
   <v>       0.87296045       0.41666663       0.72964001 </v>
   <v>       0.70629382       0.41666663       0.88802415 </v>
   <v>       0.03962707       0.08333333       0.57125580 </v>
   <v>       0.87296045       0.08333333       0.72964001 </v>
   <v>       0.70629382       0.08333333       0.88802415 </v>
   <v>       0.37296057       0.74999988       0.57125580 </v>
   <v>       0.20629382       0.74999988       0.72964001 </v>
   <v>       0.03962707       0.74999988       0.88802415 </v>
   <v>       0.37296057       0.41666663       0.57125580 </v>
   <v>       0.20629382       0.41666663       0.72964001 </v>
   <v>       0.03962707       0.41666663       0.88802415 </v>
   <v>       0.37296057       0.08333333       0.57125580 </v>
   <v>       0.20629382       0.08333333       0.72964001 </v>
   <v>       0.03962707       0.08333333       0.88802415 </v>
   <v>       0.70629382       0.74999988       0.57125580 </v>
   <v>       0.53962707       0.74999988       0.72964001 </v>
   <v>       0.37296033       0.74999988       0.88802415 </v>
   <v>       0.70629382       0.41666663       0.57125580 </v>
   <v>       0.53962707       0.41666663       0.72964001 </v>
   <v>       0.37296033       0.41666663       0.88802415 </v>
   <v>       0.70629382       0.08333333       0.57125580 </v>
   <v>       0.53962707       0.08333333       0.72964001 </v>
   <v>       0.37296033       0.08333333       0.88802415 </v>
  </varray>
 </structure>
</modeling>
