  24  24   0   0
  0.2233347E+02  0.5657800E-09  0.5657800E-09  0.1674450E-08  0.5000000E-15
  1.000000000000000E-004
  CAR 
 Si and Ge interface calculation         
      7.42809040    -10.23467953  301      3.65196164      1.00000000
    -10.235  0.0000E+00  0.0000E+00  0.0000E+00  0.0000E+00
    -10.176  0.0000E+00  0.0000E+00  0.0000E+00  0.0000E+00
    -10.117  0.0000E+00  0.0000E+00  0.0000E+00  0.0000E+00
    -10.058  0.0000E+00  0.0000E+00  0.0000E+00  0.0000E+00
     -9.999  0.0000E+00  0.0000E+00  0.0000E+00  0.0000E+00
     -9.940  0.0000E+00  0.0000E+00  0.0000E+00  0.0000E+00
     -9.881  0.0000E+00  0.0000E+00  0.0000E+00  0.0000E+00
     -9.823  0.0000E+00  0.0000E+00  0.0000E+00  0.0000E+00
     -9.764  0.0000E+00  0.0000E+00  0.0000E+00  0.0000E+00
     -9.705  0.0000E+00  0.0000E+00  0.0000E+00  0.0000E+00
     -9.646  0.0000E+00  0.0000E+00  0.0000E+00  0.0000E+00
     -9.587  0.0000E+00  0.0000E+00  0.0000E+00  0.0000E+00
     -9.528  0.0000E+00  0.0000E+00  0.0000E+00  0.0000E+00
     -9.469  0.2753E-07  0.0000E+00  0.1621E-08  0.0000E+00
     -9.410  0.4712E+00  0.2438E-02  0.2774E-01  0.1436E-03
     -9.352  0.3332E-01  0.4694E+00  0.2974E-01  0.2778E-01
     -9.293  0.2827E+01  0.1627E+01  0.1962E+00  0.1236E+00
     -9.234  0.4005E+01  0.1961E+01  0.4320E+00  0.2390E+00
     -9.175  0.3962E+01  0.3967E+01  0.6653E+00  0.4726E+00
     -9.116  0.3916E-01  0.3295E+01  0.6677E+00  0.6667E+00
     -9.057  0.4866E+01  0.1787E+01  0.9542E+00  0.7719E+00
     -8.998  0.3618E+01  0.5322E+01  0.1167E+01  0.1085E+01
     -8.939  0.8057E+01  0.2973E+01  0.1642E+01  0.1260E+01
     -8.881  0.2878E+01  0.7134E+01  0.1811E+01  0.1680E+01
     -8.822  0.5569E+01  0.4233E+01  0.2139E+01  0.1930E+01
     -8.763  0.2275E+01  0.4826E+01  0.2273E+01  0.2214E+01
     -8.704  0.2969E+01  0.3826E+01  0.2448E+01  0.2439E+01
     -8.645  0.9686E+01  0.1830E+01  0.3018E+01  0.2547E+01
     -8.586  0.7243E+01  0.9784E+01  0.3444E+01  0.3123E+01
     -8.527  0.4245E+01  0.5750E+01  0.3694E+01  0.3461E+01
     -8.468  0.4664E+01  0.3960E+01  0.3969E+01  0.3695E+01
     -8.410  0.4817E+01  0.5169E+01  0.4253E+01  0.3999E+01
     -8.351  0.4704E+01  0.6485E+01  0.4530E+01  0.4381E+01
     -8.292  0.3744E+01  0.4062E+01  0.4750E+01  0.4620E+01
     -8.233  0.2375E+01  0.2210E+01  0.4890E+01  0.4750E+01
     -8.174  0.4204E+01  0.4688E+01  0.5137E+01  0.5026E+01
     -8.115  0.7747E+01  0.5026E+01  0.5593E+01  0.5322E+01
     -8.056  0.6153E+01  0.6690E+01  0.5956E+01  0.5716E+01
     -7.997  0.3924E+01  0.5012E+01  0.6187E+01  0.6011E+01
     -7.939  0.4960E+01  0.4793E+01  0.6479E+01  0.6293E+01
     -7.880  0.3304E+01  0.5320E+01  0.6673E+01  0.6606E+01
     -7.821  0.7067E+01  0.5430E+01  0.7089E+01  0.6926E+01
     -7.762  0.5638E+01  0.4250E+01  0.7421E+01  0.7176E+01
     -7.703  0.5729E+01  0.5025E+01  0.7759E+01  0.7472E+01
     -7.644  0.8463E+01  0.6620E+01  0.8257E+01  0.7862E+01
     -7.585  0.4178E+01  0.7674E+01  0.8503E+01  0.8314E+01
     -7.526  0.5998E+01  0.3649E+01  0.8856E+01  0.8529E+01
     -7.468  0.3471E+01  0.5656E+01  0.9060E+01  0.8862E+01
     -7.409  0.6026E+01  0.5597E+01  0.9415E+01  0.9191E+01
     -7.350  0.6376E+01  0.6875E+01  0.9791E+01  0.9596E+01
     -7.291  0.2576E+01  0.4027E+01  0.9942E+01  0.9833E+01
     -7.232  0.9165E+01  0.4398E+01  0.1048E+02  0.1009E+02
     -7.173  0.1532E+02  0.1429E+02  0.1138E+02  0.1093E+02
     -7.114  0.1260E+02  0.1464E+02  0.1213E+02  0.1180E+02
     -7.055  0.6826E+01  0.1138E+02  0.1253E+02  0.1247E+02
     -6.997  0.1449E-04  0.1057E+01  0.1253E+02  0.1253E+02
     -6.938  0.7210E+01  0.5103E+00  0.1295E+02  0.1256E+02
     -6.879  0.7863E+01  0.1002E+02  0.1342E+02  0.1315E+02
     -6.820  0.4216E+01  0.7257E+01  0.1366E+02  0.1357E+02
     -6.761  0.4724E+01  0.2133E+01  0.1394E+02  0.1370E+02
     -6.702  0.1460E+02  0.1222E+02  0.1480E+02  0.1442E+02
     -6.643  0.8940E+01  0.6588E+01  0.1533E+02  0.1481E+02
     -6.584  0.1533E+01  0.9432E+01  0.1542E+02  0.1536E+02
     -6.525  0.3002E+01  0.1732E+01  0.1559E+02  0.1546E+02
     -6.467  0.4228E+01  0.3962E+01  0.1584E+02  0.1570E+02
     -6.408  0.7130E+01  0.4151E+01  0.1626E+02  0.1594E+02
     -6.349  0.1187E+01  0.5924E+01  0.1633E+02  0.1629E+02
     -6.290  0.2843E+01  0.1144E+01  0.1650E+02  0.1636E+02
     -6.231  0.5072E+01  0.2813E+01  0.1680E+02  0.1652E+02
     -6.172  0.7905E+01  0.6970E+01  0.1726E+02  0.1693E+02
     -6.113  0.6984E+01  0.9156E+01  0.1768E+02  0.1747E+02
     -6.054  0.1255E+02  0.6635E+01  0.1841E+02  0.1786E+02
     -5.996  0.9472E+01  0.1831E+02  0.1897E+02  0.1894E+02
     -5.937  0.1026E+02  0.2339E+01  0.1958E+02  0.1908E+02
     -5.878  0.9400E+01  0.1166E+02  0.2013E+02  0.1977E+02
     -5.819  0.1886E+01  0.6317E+01  0.2024E+02  0.2014E+02
     -5.760  0.9488E+01  0.3994E+01  0.2080E+02  0.2037E+02
     -5.701  0.1056E+02  0.1161E+02  0.2142E+02  0.2106E+02
     -5.642  0.6925E+01  0.1080E+02  0.2183E+02  0.2169E+02
     -5.583  0.4315E+01  0.6471E+01  0.2208E+02  0.2207E+02
     -5.525  0.3903E+01  0.7608E+00  0.2231E+02  0.2212E+02
     -5.466  0.9465E+01  0.4098E+01  0.2287E+02  0.2236E+02
     -5.407  0.3621E+01  0.1198E+02  0.2308E+02  0.2307E+02
     -5.348  0.8476E+01  0.1660E+01  0.2358E+02  0.2316E+02
     -5.289  0.6628E+01  0.8819E+01  0.2397E+02  0.2368E+02
     -5.230  0.3772E+01  0.6712E+01  0.2420E+02  0.2408E+02
     -5.171  0.2816E+01  0.3049E+01  0.2436E+02  0.2426E+02
     -5.112  0.2031E+01  0.2877E+01  0.2448E+02  0.2443E+02
     -5.054  0.5198E+01  0.4240E+01  0.2479E+02  0.2468E+02
     -4.995  0.9558E+01  0.5004E+01  0.2535E+02  0.2497E+02
     -4.936  0.4999E+00  0.6612E+01  0.2538E+02  0.2536E+02
     -4.877  0.3260E+01  0.1867E+01  0.2557E+02  0.2547E+02
     -4.818  0.4149E+01  0.2202E+01  0.2582E+02  0.2560E+02
     -4.759  0.3982E+01  0.5353E+01  0.2605E+02  0.2592E+02
     -4.700  0.7749E+01  0.5385E+01  0.2651E+02  0.2623E+02
     -4.641  0.5081E+01  0.6892E+01  0.2681E+02  0.2664E+02
     -4.583  0.3862E+01  0.4879E+01  0.2703E+02  0.2693E+02
     -4.524  0.5874E+01  0.3519E+01  0.2738E+02  0.2713E+02
     -4.465  0.3482E+01  0.7177E+01  0.2758E+02  0.2756E+02
     -4.406  0.1117E-09  0.4688E+00  0.2758E+02  0.2758E+02
     -4.347  0.7683E+01  0.2079E-03  0.2804E+02  0.2758E+02
     -4.288  0.6842E+01  0.1154E+02  0.2844E+02  0.2826E+02
     -4.229  0.6412E+01  0.6467E+01  0.2882E+02  0.2864E+02
     -4.170  0.7655E+00  0.3671E+01  0.2886E+02  0.2886E+02
     -4.112  0.3774E+01  0.7106E+00  0.2908E+02  0.2890E+02
     -4.053  0.4207E-01  0.3089E+01  0.2909E+02  0.2908E+02
     -3.994  0.6920E+01  0.4241E+01  0.2949E+02  0.2933E+02
     -3.935  0.3714E+01  0.2873E+01  0.2971E+02  0.2950E+02
     -3.876  0.1672E+02  0.3846E+01  0.3070E+02  0.2973E+02
     -3.817  0.9649E+01  0.1973E+02  0.3126E+02  0.3089E+02
     -3.758  0.1152E+02  0.9400E+01  0.3194E+02  0.3144E+02
     -3.699  0.1234E+02  0.1109E+02  0.3267E+02  0.3210E+02
     -3.641  0.1646E+02  0.1223E+02  0.3364E+02  0.3282E+02
     -3.582  0.8852E+01  0.1754E+02  0.3416E+02  0.3385E+02
     -3.523  0.1124E+02  0.1189E+02  0.3482E+02  0.3455E+02
     -3.464  0.8930E+01  0.6842E+01  0.3535E+02  0.3495E+02
     -3.405  0.1195E+02  0.1031E+02  0.3605E+02  0.3556E+02
     -3.346  0.1062E+02  0.1078E+02  0.3668E+02  0.3619E+02
     -3.287  0.3606E+01  0.1005E+02  0.3689E+02  0.3679E+02
     -3.228  0.3879E+01  0.1764E+01  0.3712E+02  0.3689E+02
     -3.170  0.7549E+01  0.5828E+01  0.3756E+02  0.3723E+02
     -3.111  0.3620E+01  0.6540E+01  0.3777E+02  0.3762E+02
     -3.052  0.4058E+01  0.4126E+01  0.3801E+02  0.3786E+02
     -2.993  0.9667E+01  0.7366E+01  0.3858E+02  0.3829E+02
     -2.934  0.2836E+01  0.6146E+01  0.3875E+02  0.3866E+02
     -2.875  0.2911E+00  0.1590E+01  0.3877E+02  0.3875E+02
     -2.816  0.4427E+01  0.3987E+01  0.3903E+02  0.3898E+02
     -2.757  0.4985E+01  0.7529E+00  0.3932E+02  0.3903E+02
     -2.699  0.5330E+01  0.8197E+01  0.3964E+02  0.3951E+02
     -2.640  0.5082E+01  0.5640E+01  0.3993E+02  0.3984E+02
     -2.581  0.6642E+01  0.4138E+01  0.4033E+02  0.4009E+02
     -2.522  0.2493E+01  0.5778E+01  0.4047E+02  0.4043E+02
     -2.463  0.6905E+01  0.1432E+01  0.4088E+02  0.4051E+02
     -2.404  0.1093E+02  0.9008E+01  0.4152E+02  0.4104E+02
     -2.345  0.3758E+01  0.9862E+01  0.4174E+02  0.4162E+02
     -2.286  0.5305E+01  0.3096E+01  0.4206E+02  0.4181E+02
     -2.228  0.3725E+01  0.6115E+01  0.4227E+02  0.4217E+02
     -2.169  0.2880E+01  0.2326E+01  0.4244E+02  0.4230E+02
     -2.110  0.1885E+01  0.2484E+01  0.4256E+02  0.4245E+02
     -2.051  0.4715E+01  0.2222E+01  0.4283E+02  0.4258E+02
     -1.992  0.3707E+00  0.4316E+01  0.4286E+02  0.4283E+02
     -1.933  0.1629E+01  0.1878E+01  0.4295E+02  0.4294E+02
     -1.874  0.8840E+01  0.3468E+01  0.4347E+02  0.4315E+02
     -1.815  0.3885E+01  0.8581E+01  0.4370E+02  0.4365E+02
     -1.757  0.3676E+01  0.3967E+01  0.4392E+02  0.4389E+02
     -1.698  0.4205E+01  0.5064E+00  0.4416E+02  0.4392E+02
     -1.639  0.1928E+01  0.6116E+01  0.4428E+02  0.4428E+02
     -1.580  0.7446E+00  0.1621E-01  0.4432E+02  0.4428E+02
     -1.521  0.1990E+00  0.9433E+00  0.4433E+02  0.4433E+02
     -1.462  0.0000E+00  0.0000E+00  0.4433E+02  0.4433E+02
     -1.403  0.9043E-07  0.0000E+00  0.4433E+02  0.4433E+02
     -1.344  0.3244E+01  0.1156E-02  0.4452E+02  0.4433E+02
     -1.286  0.1041E+02  0.1083E+02  0.4514E+02  0.4497E+02
     -1.227  0.2467E+01  0.3372E+01  0.4528E+02  0.4517E+02
     -1.168  0.5582E+01  0.4437E+01  0.4561E+02  0.4543E+02
     -1.109  0.2544E+00  0.3066E+01  0.4563E+02  0.4561E+02
     -1.050  0.4262E+01  0.1801E+01  0.4588E+02  0.4572E+02
     -0.991  0.3030E+01  0.3883E+01  0.4606E+02  0.4595E+02
     -0.932  0.6992E+01  0.2417E+01  0.4647E+02  0.4609E+02
     -0.873  0.2999E+01  0.7578E+01  0.4664E+02  0.4653E+02
     -0.815  0.7558E+01  0.3554E+01  0.4709E+02  0.4674E+02
     -0.756  0.1334E+02  0.7020E+01  0.4787E+02  0.4716E+02
     -0.697  0.1748E+01  0.1246E+02  0.4798E+02  0.4789E+02
     -0.638  0.1572E+02  0.4725E+01  0.4890E+02  0.4817E+02
     -0.579  0.1296E+02  0.1702E+02  0.4967E+02  0.4917E+02
     -0.520  0.9381E+01  0.1048E+02  0.5022E+02  0.4979E+02
     -0.461  0.1150E+02  0.8742E+01  0.5090E+02  0.5030E+02
     -0.402  0.1363E+02  0.1259E+02  0.5170E+02  0.5104E+02
     -0.344  0.5477E+01  0.1578E+02  0.5202E+02  0.5197E+02
     -0.285  0.1969E+02  0.4923E+01  0.5318E+02  0.5226E+02
     -0.226  0.1633E+02  0.2017E+02  0.5414E+02  0.5345E+02
     -0.167  0.8470E+01  0.1401E+02  0.5464E+02  0.5428E+02
     -0.108  0.1583E+02  0.1156E+02  0.5557E+02  0.5496E+02
     -0.049  0.1994E+02  0.1394E+02  0.5675E+02  0.5578E+02
      0.010  0.6487E+01  0.1926E+02  0.5713E+02  0.5691E+02
      0.069  0.1552E+02  0.1119E+02  0.5804E+02  0.5757E+02
      0.127  0.1249E+02  0.1266E+02  0.5878E+02  0.5832E+02
      0.186  0.1121E+02  0.9731E+01  0.5944E+02  0.5889E+02
      0.245  0.9453E+01  0.1369E+02  0.5999E+02  0.5970E+02
      0.304  0.9633E+01  0.1067E+02  0.6056E+02  0.6032E+02
      0.363  0.1889E+02  0.7440E+01  0.6167E+02  0.6076E+02
      0.422  0.1819E+02  0.2312E+02  0.6274E+02  0.6212E+02
      0.481  0.6976E+01  0.1425E+02  0.6316E+02  0.6296E+02
      0.540  0.2479E+02  0.1123E+02  0.6461E+02  0.6362E+02
      0.598  0.5666E+01  0.1914E+02  0.6495E+02  0.6475E+02
      0.657  0.8307E+01  0.7778E+01  0.6544E+02  0.6521E+02
      0.716  0.6468E+01  0.8672E+01  0.6582E+02  0.6572E+02
      0.775  0.1069E+02  0.4374E+01  0.6645E+02  0.6598E+02
      0.834  0.1278E+02  0.1057E+02  0.6720E+02  0.6660E+02
      0.893  0.1977E+02  0.1321E+02  0.6836E+02  0.6738E+02
      0.952  0.2243E+02  0.3005E+02  0.6969E+02  0.6915E+02
      1.011  0.8924E+01  0.1343E+02  0.7021E+02  0.6994E+02
      1.069  0.4350E+01  0.6307E+01  0.7047E+02  0.7031E+02
      1.128  0.9995E+01  0.9531E+01  0.7106E+02  0.7087E+02
      1.187  0.5668E+01  0.7825E+01  0.7139E+02  0.7133E+02
      1.246  0.3582E+01  0.1117E+01  0.7160E+02  0.7140E+02
      1.305  0.1291E+02  0.8490E+01  0.7236E+02  0.7189E+02
      1.364  0.1153E+02  0.1523E+02  0.7304E+02  0.7279E+02
      1.423  0.5477E+01  0.6139E+01  0.7336E+02  0.7315E+02
      1.482  0.9440E+01  0.6245E+01  0.7392E+02  0.7352E+02
      1.541  0.1741E+02  0.8745E+01  0.7494E+02  0.7404E+02
      1.599  0.3766E+01  0.1616E+02  0.7516E+02  0.7499E+02
      1.658  0.7566E+01  0.3119E+01  0.7561E+02  0.7517E+02
      1.717  0.8713E+01  0.1427E+02  0.7612E+02  0.7601E+02
      1.776  0.1072E+02  0.2643E+01  0.7675E+02  0.7617E+02
      1.835  0.6459E+01  0.1261E+02  0.7713E+02  0.7691E+02
      1.894  0.1566E+02  0.8466E+01  0.7806E+02  0.7741E+02
      1.953  0.1120E+02  0.1346E+02  0.7872E+02  0.7820E+02
      2.012  0.1071E+02  0.1145E+02  0.7935E+02  0.7887E+02
      2.070  0.9740E+01  0.9942E+01  0.7992E+02  0.7946E+02
      2.129  0.3353E+01  0.9316E+01  0.8012E+02  0.8001E+02
      2.188  0.1437E+02  0.2401E+01  0.8096E+02  0.8015E+02
      2.247  0.1195E+02  0.1870E+02  0.8167E+02  0.8125E+02
      2.306  0.8139E+01  0.9469E+01  0.8215E+02  0.8181E+02
      2.365  0.7381E+01  0.6082E+01  0.8258E+02  0.8217E+02
      2.424  0.7757E+01  0.1204E+02  0.8304E+02  0.8288E+02
      2.483  0.9271E+01  0.4097E+01  0.8358E+02  0.8312E+02
      2.541  0.6427E+01  0.9385E+01  0.8396E+02  0.8367E+02
      2.600  0.9419E+01  0.7057E+01  0.8452E+02  0.8408E+02
      2.659  0.1006E+02  0.7713E+01  0.8511E+02  0.8454E+02
      2.718  0.3360E+01  0.1015E+02  0.8531E+02  0.8514E+02
      2.777  0.7849E+01  0.4266E+01  0.8577E+02  0.8539E+02
      2.836  0.6034E+01  0.8550E+01  0.8612E+02  0.8589E+02
      2.895  0.1296E+02  0.8211E+01  0.8689E+02  0.8637E+02
      2.954  0.1421E+02  0.1264E+02  0.8772E+02  0.8712E+02
      3.012  0.8709E+01  0.1293E+02  0.8824E+02  0.8788E+02
      3.071  0.2703E+01  0.6435E+01  0.8840E+02  0.8826E+02
      3.130  0.8507E+01  0.3338E+01  0.8890E+02  0.8845E+02
      3.189  0.1743E+02  0.9454E+01  0.8992E+02  0.8901E+02
      3.248  0.1684E+02  0.1833E+02  0.9091E+02  0.9009E+02
      3.307  0.1287E+02  0.1671E+02  0.9167E+02  0.9107E+02
      3.366  0.1304E+02  0.1370E+02  0.9244E+02  0.9188E+02
      3.425  0.5125E+01  0.1104E+02  0.9274E+02  0.9253E+02
      3.483  0.1719E+02  0.7173E+01  0.9375E+02  0.9295E+02
      3.542  0.1483E+02  0.1784E+02  0.9463E+02  0.9400E+02
      3.601  0.5802E+01  0.1321E+02  0.9497E+02  0.9478E+02
      3.660  0.8973E+01  0.4207E+01  0.9550E+02  0.9503E+02
      3.719  0.1098E+02  0.9933E+01  0.9614E+02  0.9561E+02
      3.778  0.1111E+02  0.1110E+02  0.9680E+02  0.9627E+02
      3.837  0.1916E+02  0.1073E+02  0.9793E+02  0.9690E+02
      3.896  0.1203E+02  0.1995E+02  0.9863E+02  0.9807E+02
      3.954  0.2935E+01  0.9581E+01  0.9881E+02  0.9864E+02
      4.013  0.1562E+02  0.3823E+01  0.9973E+02  0.9886E+02
      4.072  0.7471E+01  0.1691E+02  0.1002E+03  0.9986E+02
      4.131  0.1379E+02  0.6949E+01  0.1010E+03  0.1003E+03
      4.190  0.1769E+02  0.1755E+02  0.1020E+03  0.1013E+03
      4.249  0.6730E+01  0.1341E+02  0.1024E+03  0.1021E+03
      4.308  0.7854E+01  0.5542E+01  0.1029E+03  0.1024E+03
      4.367  0.1546E+02  0.1366E+02  0.1038E+03  0.1032E+03
      4.425  0.9332E+01  0.1169E+02  0.1043E+03  0.1039E+03
      4.484  0.4696E+01  0.7944E+01  0.1046E+03  0.1044E+03
      4.543  0.5985E+01  0.6135E+01  0.1050E+03  0.1047E+03
      4.602  0.1030E+02  0.7158E+01  0.1056E+03  0.1052E+03
      4.661  0.1332E+02  0.1134E+02  0.1064E+03  0.1058E+03
      4.720  0.3540E+01  0.9859E+01  0.1066E+03  0.1064E+03
      4.779  0.1699E+01  0.3746E+01  0.1067E+03  0.1066E+03
      4.838  0.2637E+01  0.2268E+01  0.1068E+03  0.1068E+03
      4.896  0.7731E+01  0.2679E+01  0.1073E+03  0.1069E+03
      4.955  0.1748E+02  0.1193E+02  0.1083E+03  0.1076E+03
      5.014  0.7100E+01  0.1252E+02  0.1087E+03  0.1084E+03
      5.073  0.1015E+02  0.9309E+01  0.1093E+03  0.1089E+03
      5.132  0.1390E+02  0.9023E+01  0.1101E+03  0.1094E+03
      5.191  0.7786E+01  0.1615E+02  0.1106E+03  0.1104E+03
      5.250  0.4929E+01  0.5347E+01  0.1109E+03  0.1107E+03
      5.309  0.5877E+01  0.3131E+01  0.1112E+03  0.1109E+03
      5.367  0.4776E+01  0.8776E+01  0.1115E+03  0.1114E+03
      5.426  0.8391E+01  0.2929E+01  0.1120E+03  0.1116E+03
      5.485  0.1001E+02  0.1198E+02  0.1126E+03  0.1123E+03
      5.544  0.2400E+01  0.5991E+01  0.1127E+03  0.1126E+03
      5.603  0.1052E+02  0.6653E+01  0.1134E+03  0.1130E+03
      5.662  0.6436E+01  0.7739E+01  0.1137E+03  0.1135E+03
      5.721  0.8521E+01  0.7111E+01  0.1142E+03  0.1139E+03
      5.780  0.1151E+02  0.1173E+02  0.1149E+03  0.1146E+03
      5.838  0.1020E+02  0.1042E+02  0.1155E+03  0.1152E+03
      5.897  0.1450E+02  0.7249E+01  0.1164E+03  0.1156E+03
      5.956  0.5355E+01  0.1484E+02  0.1167E+03  0.1165E+03
      6.015  0.8000E+01  0.5065E+01  0.1172E+03  0.1168E+03
      6.074  0.7834E+01  0.6436E+01  0.1176E+03  0.1172E+03
      6.133  0.7394E+01  0.9487E+01  0.1181E+03  0.1177E+03
      6.192  0.4778E+01  0.5425E+01  0.1183E+03  0.1181E+03
      6.251  0.5623E+01  0.8325E+01  0.1187E+03  0.1186E+03
      6.309  0.8973E+01  0.2518E+01  0.1192E+03  0.1187E+03
      6.368  0.4215E+01  0.1087E+02  0.1194E+03  0.1193E+03
      6.427  0.3719E-03  0.1758E+01  0.1194E+03  0.1194E+03
      6.486  0.3760E+01  0.1169E+00  0.1197E+03  0.1195E+03
      6.545  0.1904E+01  0.3658E+01  0.1198E+03  0.1197E+03
      6.604  0.3755E+01  0.3226E+01  0.1200E+03  0.1199E+03
      6.663  0.1692E-01  0.2435E+01  0.1200E+03  0.1200E+03
      6.722  0.0000E+00  0.0000E+00  0.1200E+03  0.1200E+03
      6.780  0.0000E+00  0.0000E+00  0.1200E+03  0.1200E+03
      6.839  0.0000E+00  0.0000E+00  0.1200E+03  0.1200E+03
      6.898  0.0000E+00  0.0000E+00  0.1200E+03  0.1200E+03
      6.957  0.0000E+00  0.0000E+00  0.1200E+03  0.1200E+03
      7.016  0.0000E+00  0.0000E+00  0.1200E+03  0.1200E+03
      7.075  0.0000E+00  0.0000E+00  0.1200E+03  0.1200E+03
      7.134  0.0000E+00  0.0000E+00  0.1200E+03  0.1200E+03
      7.193  0.0000E+00  0.0000E+00  0.1200E+03  0.1200E+03
      7.251  0.0000E+00  0.0000E+00  0.1200E+03  0.1200E+03
      7.310  0.0000E+00  0.0000E+00  0.1200E+03  0.1200E+03
      7.369  0.0000E+00  0.0000E+00  0.1200E+03  0.1200E+03
      7.428  0.0000E+00  0.0000E+00  0.1200E+03  0.1200E+03
