Si and Ge interface calculation         
           1
     5.657800    0.000000    0.000000
     0.000000    5.657800    0.000000
     0.000000    0.000000   16.744503
   Ge
    24
Direct configuration=     1
   0.01708345  0.00000000  0.00000000
   0.51708341  0.00000000  0.16894500
   0.01708341  0.00000000  0.33789003
   0.26708344  0.75000000  0.08447250
   0.76708341  0.75000000  0.25341749
   0.26708341  0.75000000  0.42236254
   0.51708341  0.49999997  0.00000000
   0.01708329  0.49999997  0.16894500
   0.51708329  0.49999997  0.33789003
   0.76708341  0.24999999  0.08447250
   0.26708341  0.24999999  0.25341749
   0.76708341  0.24999999  0.42236254
   0.44565490  0.42857143  0.49999994
   0.94565487  0.42857143  0.66894496
   0.44565484  0.42857143  0.83789003
   0.69565487  0.17857146  0.58447248
   0.19565487  0.17857146  0.75341749
   0.69565487  0.17857146  0.92236257
   0.94565487  0.92857140  0.49999994
   0.44565472  0.92857140  0.66894496
   0.94565475  0.92857140  0.83789003
   0.19565487  0.67857140  0.58447248
   0.69565487  0.67857140  0.75341749
   0.19565487  0.67857140  0.92236257
