 156 156   0   0
  0.2363382E+02  0.1629300E-08  0.1629300E-08  0.1388853E-08  0.5000000E-15
  1.000000000000000E-004
  CAR 
 Si and Ge interface calculation         
      6.74327141     -8.76146046  301      3.96389165      1.00000000
     -8.761  0.0000E+00  0.0000E+00  0.0000E+00  0.0000E+00
     -8.710  0.0000E+00  0.0000E+00  0.0000E+00  0.0000E+00
     -8.658  0.0000E+00  0.0000E+00  0.0000E+00  0.0000E+00
     -8.606  0.0000E+00  0.0000E+00  0.0000E+00  0.0000E+00
     -8.555  0.0000E+00  0.0000E+00  0.0000E+00  0.0000E+00
     -8.503  0.0000E+00  0.0000E+00  0.0000E+00  0.0000E+00
     -8.451  0.0000E+00  0.0000E+00  0.0000E+00  0.0000E+00
     -8.400  0.0000E+00  0.0000E+00  0.0000E+00  0.0000E+00
     -8.348  0.0000E+00  0.0000E+00  0.0000E+00  0.0000E+00
     -8.296  0.0000E+00  0.0000E+00  0.0000E+00  0.0000E+00
     -8.245  0.0000E+00  0.0000E+00  0.0000E+00  0.0000E+00
     -8.193  0.0000E+00  0.0000E+00  0.0000E+00  0.0000E+00
     -8.141  0.0000E+00  0.0000E+00  0.0000E+00  0.0000E+00
     -8.090  0.7982E-05  0.2621E-06  0.4126E-06  0.1355E-07
     -8.038  0.8543E+01  0.7299E+01  0.4415E+00  0.3772E+00
     -7.986  0.1184E+02  0.9480E+01  0.1054E+01  0.8672E+00
     -7.935  0.1363E+02  0.1506E+02  0.1758E+01  0.1646E+01
     -7.883  0.1268E+02  0.1336E+02  0.2413E+01  0.2336E+01
     -7.831  0.3975E+01  0.3890E+01  0.2618E+01  0.2537E+01
     -7.779  0.1222E+02  0.1380E+02  0.3250E+01  0.3250E+01
     -7.728  0.4786E+01  0.4642E+01  0.3497E+01  0.3490E+01
     -7.676  0.1769E+02  0.1679E+02  0.4412E+01  0.4358E+01
     -7.624  0.2131E+02  0.2172E+02  0.5513E+01  0.5480E+01
     -7.573  0.3588E+02  0.3428E+02  0.7367E+01  0.7252E+01
     -7.521  0.2472E+02  0.2507E+02  0.8644E+01  0.8548E+01
     -7.469  0.1049E+02  0.1106E+02  0.9187E+01  0.9120E+01
     -7.418  0.1681E+02  0.1634E+02  0.1006E+02  0.9964E+01
     -7.366  0.1976E+02  0.1981E+02  0.1108E+02  0.1099E+02
     -7.314  0.3209E+02  0.3111E+02  0.1274E+02  0.1260E+02
     -7.263  0.3607E+02  0.3560E+02  0.1460E+02  0.1444E+02
     -7.211  0.3004E+02  0.2875E+02  0.1615E+02  0.1592E+02
     -7.159  0.4753E+02  0.4912E+02  0.1861E+02  0.1846E+02
     -7.108  0.2632E+02  0.2642E+02  0.1997E+02  0.1983E+02
     -7.056  0.3538E+02  0.3381E+02  0.2180E+02  0.2157E+02
     -7.004  0.3731E+02  0.3796E+02  0.2373E+02  0.2353E+02
     -6.953  0.3218E+02  0.3259E+02  0.2539E+02  0.2522E+02
     -6.901  0.3835E+02  0.3870E+02  0.2737E+02  0.2722E+02
     -6.849  0.3842E+02  0.3967E+02  0.2936E+02  0.2927E+02
     -6.798  0.2375E+02  0.2174E+02  0.3058E+02  0.3039E+02
     -6.746  0.2621E+02  0.2738E+02  0.3194E+02  0.3181E+02
     -6.694  0.3229E+02  0.2851E+02  0.3361E+02  0.3328E+02
     -6.642  0.6384E+02  0.6483E+02  0.3691E+02  0.3663E+02
     -6.591  0.3412E+02  0.3538E+02  0.3867E+02  0.3846E+02
     -6.539  0.5138E+02  0.5336E+02  0.4133E+02  0.4122E+02
     -6.487  0.4291E+02  0.4123E+02  0.4354E+02  0.4335E+02
     -6.436  0.4051E+02  0.3789E+02  0.4564E+02  0.4531E+02
     -6.384  0.5651E+02  0.5641E+02  0.4856E+02  0.4822E+02
     -6.332  0.3047E+02  0.3260E+02  0.5013E+02  0.4991E+02
     -6.281  0.6649E+02  0.6338E+02  0.5357E+02  0.5318E+02
     -6.229  0.4097E+02  0.4635E+02  0.5569E+02  0.5558E+02
     -6.177  0.4607E+02  0.4614E+02  0.5807E+02  0.5796E+02
     -6.126  0.5071E+02  0.4769E+02  0.6069E+02  0.6043E+02
     -6.074  0.3928E+02  0.3635E+02  0.6272E+02  0.6231E+02
     -6.022  0.4061E+02  0.4471E+02  0.6482E+02  0.6462E+02
     -5.971  0.4492E+02  0.4616E+02  0.6714E+02  0.6700E+02
     -5.919  0.4868E+02  0.4496E+02  0.6965E+02  0.6933E+02
     -5.867  0.5569E+02  0.5348E+02  0.7253E+02  0.7209E+02
     -5.816  0.7210E+02  0.7871E+02  0.7626E+02  0.7616E+02
     -5.764  0.5100E+02  0.5117E+02  0.7889E+02  0.7880E+02
     -5.712  0.3435E+02  0.3120E+02  0.8067E+02  0.8042E+02
     -5.661  0.9079E+02  0.8886E+02  0.8536E+02  0.8501E+02
     -5.609  0.7746E+02  0.7949E+02  0.8937E+02  0.8912E+02
     -5.557  0.4733E+02  0.4640E+02  0.9181E+02  0.9152E+02
     -5.505  0.5017E+02  0.5325E+02  0.9440E+02  0.9427E+02
     -5.454  0.3630E+02  0.3356E+02  0.9628E+02  0.9600E+02
     -5.402  0.2196E+02  0.2597E+02  0.9742E+02  0.9734E+02
     -5.350  0.2479E+02  0.2072E+02  0.9870E+02  0.9842E+02
     -5.299  0.4079E+02  0.4434E+02  0.1008E+03  0.1007E+03
     -5.247  0.3500E+02  0.3403E+02  0.1026E+03  0.1025E+03
     -5.195  0.4515E+02  0.4378E+02  0.1049E+03  0.1047E+03
     -5.144  0.4104E+02  0.4191E+02  0.1071E+03  0.1069E+03
     -5.092  0.5771E+02  0.5516E+02  0.1101E+03  0.1097E+03
     -5.040  0.5756E+02  0.6097E+02  0.1130E+03  0.1129E+03
     -4.989  0.6236E+02  0.5898E+02  0.1162E+03  0.1159E+03
     -4.937  0.9540E+02  0.9212E+02  0.1212E+03  0.1207E+03
     -4.885  0.4408E+02  0.5064E+02  0.1235E+03  0.1233E+03
     -4.834  0.3340E+02  0.2985E+02  0.1252E+03  0.1249E+03
     -4.782  0.2295E+02  0.2580E+02  0.1264E+03  0.1262E+03
     -4.730  0.4485E+02  0.4154E+02  0.1287E+03  0.1283E+03
     -4.679  0.3894E+02  0.4124E+02  0.1307E+03  0.1305E+03
     -4.627  0.3314E+02  0.3344E+02  0.1324E+03  0.1322E+03
     -4.575  0.2951E+02  0.3135E+02  0.1339E+03  0.1338E+03
     -4.524  0.2450E+02  0.2473E+02  0.1352E+03  0.1351E+03
     -4.472  0.3029E+02  0.3060E+02  0.1368E+03  0.1367E+03
     -4.420  0.2615E+02  0.2325E+02  0.1381E+03  0.1379E+03
     -4.368  0.4438E+02  0.4528E+02  0.1404E+03  0.1402E+03
     -4.317  0.3032E+02  0.3106E+02  0.1420E+03  0.1418E+03
     -4.265  0.4218E+02  0.4156E+02  0.1442E+03  0.1440E+03
     -4.213  0.2247E+02  0.2487E+02  0.1453E+03  0.1453E+03
     -4.162  0.3389E+02  0.3116E+02  0.1471E+03  0.1469E+03
     -4.110  0.2274E+02  0.2651E+02  0.1483E+03  0.1482E+03
     -4.058  0.2508E+02  0.2140E+02  0.1495E+03  0.1494E+03
     -4.007  0.3986E+02  0.3789E+02  0.1516E+03  0.1513E+03
     -3.955  0.6097E+02  0.5863E+02  0.1548E+03  0.1543E+03
     -3.903  0.6574E+02  0.6613E+02  0.1582E+03  0.1578E+03
     -3.852  0.5186E+02  0.5108E+02  0.1608E+03  0.1604E+03
     -3.800  0.4291E+02  0.4754E+02  0.1631E+03  0.1629E+03
     -3.748  0.3675E+02  0.3850E+02  0.1650E+03  0.1648E+03
     -3.697  0.2331E+02  0.2130E+02  0.1662E+03  0.1659E+03
     -3.645  0.3400E+02  0.3529E+02  0.1679E+03  0.1678E+03
     -3.593  0.4870E+02  0.4599E+02  0.1704E+03  0.1701E+03
     -3.542  0.3503E+02  0.3726E+02  0.1722E+03  0.1721E+03
     -3.490  0.3235E+02  0.2816E+02  0.1739E+03  0.1735E+03
     -3.438  0.3901E+02  0.3871E+02  0.1759E+03  0.1755E+03
     -3.386  0.3152E+02  0.3830E+02  0.1776E+03  0.1775E+03
     -3.335  0.3469E+02  0.3066E+02  0.1794E+03  0.1791E+03
     -3.283  0.4239E+02  0.4312E+02  0.1815E+03  0.1813E+03
     -3.231  0.4506E+02  0.4576E+02  0.1839E+03  0.1837E+03
     -3.180  0.4226E+02  0.4039E+02  0.1861E+03  0.1858E+03
     -3.128  0.2124E+02  0.2451E+02  0.1872E+03  0.1870E+03
     -3.076  0.2091E+02  0.2098E+02  0.1882E+03  0.1881E+03
     -3.025  0.3306E+02  0.3072E+02  0.1899E+03  0.1897E+03
     -2.973  0.6084E+02  0.5996E+02  0.1931E+03  0.1928E+03
     -2.921  0.3803E+02  0.4036E+02  0.1951E+03  0.1949E+03
     -2.870  0.3490E+02  0.3450E+02  0.1969E+03  0.1967E+03
     -2.818  0.5334E+02  0.5052E+02  0.1996E+03  0.1993E+03
     -2.766  0.4119E+02  0.4273E+02  0.2017E+03  0.2015E+03
     -2.715  0.4887E+02  0.4886E+02  0.2043E+03  0.2040E+03
     -2.663  0.4072E+02  0.4199E+02  0.2064E+03  0.2062E+03
     -2.611  0.5330E+02  0.5183E+02  0.2091E+03  0.2089E+03
     -2.560  0.8120E+02  0.7908E+02  0.2133E+03  0.2130E+03
     -2.508  0.8263E+02  0.8014E+02  0.2176E+03  0.2171E+03
     -2.456  0.5196E+02  0.5513E+02  0.2203E+03  0.2199E+03
     -2.405  0.5970E+02  0.5751E+02  0.2234E+03  0.2229E+03
     -2.353  0.5211E+02  0.5801E+02  0.2261E+03  0.2259E+03
     -2.301  0.4571E+02  0.4508E+02  0.2284E+03  0.2282E+03
     -2.249  0.4182E+02  0.4251E+02  0.2306E+03  0.2304E+03
     -2.198  0.4626E+02  0.4481E+02  0.2330E+03  0.2328E+03
     -2.146  0.5196E+02  0.5148E+02  0.2357E+03  0.2354E+03
     -2.094  0.6773E+02  0.6459E+02  0.2392E+03  0.2388E+03
     -2.043  0.5111E+02  0.4816E+02  0.2418E+03  0.2412E+03
     -1.991  0.3775E+02  0.4516E+02  0.2438E+03  0.2436E+03
     -1.939  0.2759E+02  0.2751E+02  0.2452E+03  0.2450E+03
     -1.888  0.2319E+02  0.1984E+02  0.2464E+03  0.2460E+03
     -1.836  0.3772E+02  0.4098E+02  0.2483E+03  0.2481E+03
     -1.784  0.4471E+02  0.4459E+02  0.2506E+03  0.2505E+03
     -1.733  0.4474E+02  0.4620E+02  0.2529E+03  0.2528E+03
     -1.681  0.3784E+02  0.3351E+02  0.2549E+03  0.2546E+03
     -1.629  0.5177E+02  0.5429E+02  0.2576E+03  0.2574E+03
     -1.578  0.3354E+02  0.3279E+02  0.2593E+03  0.2591E+03
     -1.526  0.4191E+02  0.4016E+02  0.2615E+03  0.2611E+03
     -1.474  0.3041E+02  0.3327E+02  0.2631E+03  0.2629E+03
     -1.423  0.3807E+02  0.3619E+02  0.2650E+03  0.2647E+03
     -1.371  0.4231E+02  0.4424E+02  0.2672E+03  0.2670E+03
     -1.319  0.3523E+02  0.3653E+02  0.2690E+03  0.2689E+03
     -1.268  0.3589E+02  0.3158E+02  0.2709E+03  0.2705E+03
     -1.216  0.3419E+02  0.3871E+02  0.2726E+03  0.2725E+03
     -1.164  0.3712E+02  0.3737E+02  0.2746E+03  0.2745E+03
     -1.112  0.1590E+02  0.1526E+02  0.2754E+03  0.2753E+03
     -1.061  0.2573E+02  0.2666E+02  0.2767E+03  0.2766E+03
     -1.009  0.7987E+01  0.7442E+01  0.2771E+03  0.2770E+03
     -0.957  0.4983E+02  0.4861E+02  0.2797E+03  0.2795E+03
     -0.906  0.2967E+02  0.2948E+02  0.2812E+03  0.2811E+03
     -0.854  0.1945E+02  0.1940E+02  0.2822E+03  0.2821E+03
     -0.802  0.3432E+02  0.3241E+02  0.2840E+03  0.2837E+03
     -0.751  0.3094E+02  0.3395E+02  0.2856E+03  0.2855E+03
     -0.699  0.4401E+02  0.3871E+02  0.2879E+03  0.2875E+03
     -0.647  0.4153E+02  0.4527E+02  0.2900E+03  0.2898E+03
     -0.596  0.4274E+02  0.4207E+02  0.2922E+03  0.2920E+03
     -0.544  0.2429E+02  0.2602E+02  0.2935E+03  0.2934E+03
     -0.492  0.2283E+02  0.2373E+02  0.2947E+03  0.2946E+03
     -0.441  0.1155E+02  0.1045E+02  0.2953E+03  0.2951E+03
     -0.389  0.2819E+02  0.2378E+02  0.2967E+03  0.2964E+03
     -0.337  0.1999E+02  0.2410E+02  0.2978E+03  0.2976E+03
     -0.286  0.3625E+02  0.3708E+02  0.2996E+03  0.2995E+03
     -0.234  0.2562E+02  0.2623E+02  0.3010E+03  0.3009E+03
     -0.182  0.3030E+02  0.2717E+02  0.3025E+03  0.3023E+03
     -0.130  0.5034E+02  0.4883E+02  0.3051E+03  0.3048E+03
     -0.079  0.3073E+02  0.3267E+02  0.3067E+03  0.3065E+03
     -0.027  0.4271E+02  0.4419E+02  0.3089E+03  0.3088E+03
      0.025  0.5816E+02  0.5471E+02  0.3119E+03  0.3116E+03
      0.076  0.8465E+02  0.8417E+02  0.3163E+03  0.3159E+03
      0.128  0.9185E+02  0.9339E+02  0.3211E+03  0.3208E+03
      0.180  0.7855E+02  0.7668E+02  0.3251E+03  0.3247E+03
      0.231  0.8588E+02  0.8419E+02  0.3296E+03  0.3291E+03
      0.283  0.9838E+02  0.1007E+03  0.3346E+03  0.3343E+03
      0.335  0.5928E+02  0.6101E+02  0.3377E+03  0.3374E+03
      0.386  0.1007E+03  0.9360E+02  0.3429E+03  0.3423E+03
      0.438  0.9822E+02  0.1031E+03  0.3480E+03  0.3476E+03
      0.490  0.6814E+02  0.6882E+02  0.3515E+03  0.3512E+03
      0.541  0.7836E+02  0.7978E+02  0.3556E+03  0.3553E+03
      0.593  0.8540E+02  0.8170E+02  0.3600E+03  0.3595E+03
      0.645  0.7439E+02  0.7245E+02  0.3638E+03  0.3633E+03
      0.696  0.6924E+02  0.6968E+02  0.3674E+03  0.3669E+03
      0.748  0.8908E+02  0.8855E+02  0.3720E+03  0.3714E+03
      0.800  0.9385E+02  0.9422E+02  0.3768E+03  0.3763E+03
      0.851  0.9682E+02  0.9772E+02  0.3819E+03  0.3814E+03
      0.903  0.8506E+02  0.8577E+02  0.3862E+03  0.3858E+03
      0.955  0.9488E+02  0.9667E+02  0.3912E+03  0.3908E+03
      1.007  0.9187E+02  0.9036E+02  0.3959E+03  0.3955E+03
      1.058  0.1049E+03  0.1044E+03  0.4013E+03  0.4009E+03
      1.110  0.1139E+03  0.1121E+03  0.4072E+03  0.4066E+03
      1.162  0.7939E+02  0.8350E+02  0.4113E+03  0.4110E+03
      1.213  0.8439E+02  0.8431E+02  0.4157E+03  0.4153E+03
      1.265  0.9245E+02  0.8756E+02  0.4205E+03  0.4198E+03
      1.317  0.8425E+02  0.8674E+02  0.4248E+03  0.4243E+03
      1.368  0.1100E+03  0.1119E+03  0.4305E+03  0.4301E+03
      1.420  0.8479E+02  0.8458E+02  0.4349E+03  0.4345E+03
      1.472  0.8113E+02  0.7744E+02  0.4391E+03  0.4385E+03
      1.523  0.1026E+03  0.1015E+03  0.4444E+03  0.4437E+03
      1.575  0.9712E+02  0.9932E+02  0.4494E+03  0.4489E+03
      1.627  0.8582E+02  0.8661E+02  0.4538E+03  0.4533E+03
      1.678  0.8639E+02  0.8701E+02  0.4583E+03  0.4578E+03
      1.730  0.7826E+02  0.8054E+02  0.4623E+03  0.4620E+03
      1.782  0.6581E+02  0.6852E+02  0.4657E+03  0.4655E+03
      1.833  0.8709E+02  0.8046E+02  0.4702E+03  0.4697E+03
      1.885  0.8813E+02  0.8975E+02  0.4748E+03  0.4743E+03
      1.937  0.9049E+02  0.8531E+02  0.4795E+03  0.4787E+03
      1.988  0.9111E+02  0.9575E+02  0.4842E+03  0.4837E+03
      2.040  0.9995E+02  0.9928E+02  0.4893E+03  0.4888E+03
      2.092  0.8486E+02  0.8530E+02  0.4937E+03  0.4932E+03
      2.144  0.9479E+02  0.9241E+02  0.4986E+03  0.4980E+03
      2.195  0.7999E+02  0.8111E+02  0.5028E+03  0.5022E+03
      2.247  0.1068E+03  0.1080E+03  0.5083E+03  0.5078E+03
      2.299  0.7685E+02  0.7433E+02  0.5123E+03  0.5116E+03
      2.350  0.1033E+03  0.1028E+03  0.5176E+03  0.5169E+03
      2.402  0.8065E+02  0.8181E+02  0.5218E+03  0.5212E+03
      2.454  0.9115E+02  0.9133E+02  0.5265E+03  0.5259E+03
      2.505  0.8169E+02  0.8535E+02  0.5307E+03  0.5303E+03
      2.557  0.9633E+02  0.8992E+02  0.5357E+03  0.5349E+03
      2.609  0.9844E+02  0.1030E+03  0.5408E+03  0.5403E+03
      2.660  0.8761E+02  0.7972E+02  0.5453E+03  0.5444E+03
      2.712  0.7250E+02  0.7616E+02  0.5490E+03  0.5483E+03
      2.764  0.8715E+02  0.9233E+02  0.5535E+03  0.5531E+03
      2.815  0.7032E+02  0.6962E+02  0.5572E+03  0.5567E+03
      2.867  0.6428E+02  0.5937E+02  0.5605E+03  0.5598E+03
      2.919  0.7268E+02  0.7578E+02  0.5643E+03  0.5637E+03
      2.970  0.7408E+02  0.7253E+02  0.5681E+03  0.5674E+03
      3.022  0.5468E+02  0.5535E+02  0.5709E+03  0.5703E+03
      3.074  0.6357E+02  0.6448E+02  0.5742E+03  0.5736E+03
      3.126  0.7487E+02  0.6885E+02  0.5781E+03  0.5772E+03
      3.177  0.6667E+02  0.6972E+02  0.5815E+03  0.5808E+03
      3.229  0.5334E+02  0.5727E+02  0.5843E+03  0.5837E+03
      3.281  0.5690E+02  0.5161E+02  0.5872E+03  0.5864E+03
      3.332  0.4812E+02  0.5827E+02  0.5897E+03  0.5894E+03
      3.384  0.4816E+02  0.4441E+02  0.5922E+03  0.5917E+03
      3.436  0.4945E+02  0.5038E+02  0.5947E+03  0.5943E+03
      3.487  0.4915E+02  0.4725E+02  0.5973E+03  0.5968E+03
      3.539  0.4005E+02  0.3445E+02  0.5993E+03  0.5985E+03
      3.591  0.6015E+02  0.6388E+02  0.6025E+03  0.6018E+03
      3.642  0.4980E+02  0.5053E+02  0.6050E+03  0.6045E+03
      3.694  0.5339E+02  0.4988E+02  0.6078E+03  0.6070E+03
      3.746  0.5498E+02  0.5597E+02  0.6106E+03  0.6099E+03
      3.797  0.5530E+02  0.6331E+02  0.6135E+03  0.6132E+03
      3.849  0.6942E+02  0.6035E+02  0.6171E+03  0.6163E+03
      3.901  0.4346E+02  0.5111E+02  0.6193E+03  0.6190E+03
      3.952  0.7525E+02  0.5989E+02  0.6232E+03  0.6221E+03
      4.004  0.5132E+02  0.4738E+02  0.6259E+03  0.6245E+03
      4.056  0.6069E+02  0.7570E+02  0.6290E+03  0.6284E+03
      4.107  0.4269E+02  0.4437E+02  0.6312E+03  0.6307E+03
      4.159  0.6867E+02  0.6404E+02  0.6348E+03  0.6340E+03
      4.211  0.6898E+02  0.7326E+02  0.6383E+03  0.6378E+03
      4.263  0.5575E+02  0.4780E+02  0.6412E+03  0.6403E+03
      4.314  0.6963E+02  0.7280E+02  0.6448E+03  0.6440E+03
      4.366  0.5736E+02  0.5682E+02  0.6478E+03  0.6470E+03
      4.418  0.6444E+02  0.6843E+02  0.6511E+03  0.6505E+03
      4.469  0.5332E+02  0.5279E+02  0.6538E+03  0.6532E+03
      4.521  0.4746E+02  0.4695E+02  0.6563E+03  0.6557E+03
      4.573  0.5392E+02  0.5115E+02  0.6591E+03  0.6583E+03
      4.624  0.5035E+02  0.5405E+02  0.6617E+03  0.6611E+03
      4.676  0.6545E+02  0.6498E+02  0.6651E+03  0.6645E+03
      4.728  0.4922E+02  0.4942E+02  0.6676E+03  0.6670E+03
      4.779  0.4258E+02  0.4658E+02  0.6698E+03  0.6694E+03
      4.831  0.8322E+02  0.7434E+02  0.6741E+03  0.6733E+03
      4.883  0.5754E+02  0.6316E+02  0.6771E+03  0.6765E+03
      4.934  0.4991E+02  0.4930E+02  0.6797E+03  0.6791E+03
      4.986  0.6956E+02  0.6992E+02  0.6833E+03  0.6827E+03
      5.038  0.5604E+02  0.5628E+02  0.6862E+03  0.6856E+03
      5.089  0.7532E+02  0.6911E+02  0.6901E+03  0.6892E+03
      5.141  0.4228E+02  0.5054E+02  0.6922E+03  0.6918E+03
      5.193  0.7673E+02  0.7413E+02  0.6962E+03  0.6956E+03
      5.244  0.6373E+02  0.6319E+02  0.6995E+03  0.6989E+03
      5.296  0.8733E+02  0.8713E+02  0.7040E+03  0.7034E+03
      5.348  0.7325E+02  0.7285E+02  0.7078E+03  0.7071E+03
      5.400  0.5599E+02  0.6182E+02  0.7107E+03  0.7103E+03
      5.451  0.7853E+02  0.7601E+02  0.7148E+03  0.7143E+03
      5.503  0.7124E+02  0.6784E+02  0.7184E+03  0.7178E+03
      5.555  0.8874E+02  0.8800E+02  0.7230E+03  0.7223E+03
      5.606  0.7061E+02  0.6967E+02  0.7267E+03  0.7259E+03
      5.658  0.5980E+02  0.6307E+02  0.7298E+03  0.7292E+03
      5.710  0.7262E+02  0.7108E+02  0.7335E+03  0.7329E+03
      5.761  0.6832E+02  0.7326E+02  0.7370E+03  0.7366E+03
      5.813  0.8247E+02  0.7761E+02  0.7413E+03  0.7407E+03
      5.865  0.8524E+02  0.8899E+02  0.7457E+03  0.7453E+03
      5.916  0.6317E+02  0.5676E+02  0.7490E+03  0.7482E+03
      5.968  0.4051E+02  0.5162E+02  0.7511E+03  0.7509E+03
      6.020  0.1797E+02  0.1685E+02  0.7520E+03  0.7517E+03
      6.071  0.4079E-02  0.5266E+01  0.7520E+03  0.7520E+03
      6.123  0.0000E+00  0.0000E+00  0.7520E+03  0.7520E+03
      6.175  0.0000E+00  0.0000E+00  0.7520E+03  0.7520E+03
      6.226  0.0000E+00  0.0000E+00  0.7520E+03  0.7520E+03
      6.278  0.0000E+00  0.0000E+00  0.7520E+03  0.7520E+03
      6.330  0.0000E+00  0.0000E+00  0.7520E+03  0.7520E+03
      6.381  0.0000E+00  0.0000E+00  0.7520E+03  0.7520E+03
      6.433  0.0000E+00  0.0000E+00  0.7520E+03  0.7520E+03
      6.485  0.0000E+00  0.0000E+00  0.7520E+03  0.7520E+03
      6.537  0.0000E+00  0.0000E+00  0.7520E+03  0.7520E+03
      6.588  0.0000E+00  0.0000E+00  0.7520E+03  0.7520E+03
      6.640  0.0000E+00  0.0000E+00  0.7520E+03  0.7520E+03
      6.692  0.0000E+00  0.0000E+00  0.7520E+03  0.7520E+03
      6.743  0.0000E+00  0.0000E+00  0.7520E+03  0.7520E+03
