 264 264   0   0
  0.2139018E+02  0.1946760E-08  0.1946760E-08  0.1490025E-08  0.5000000E-15
  1.000000000000000E-004
  CAR 
 Si and Ge interface calculation         
      9.25385040     -9.03531344  301      6.65258790      1.00000000
     -9.035  0.0000E+00  0.0000E+00  0.0000E+00  0.0000E+00
     -8.974  0.0000E+00  0.0000E+00  0.0000E+00  0.0000E+00
     -8.913  0.0000E+00  0.0000E+00  0.0000E+00  0.0000E+00
     -8.852  0.0000E+00  0.0000E+00  0.0000E+00  0.0000E+00
     -8.791  0.0000E+00  0.0000E+00  0.0000E+00  0.0000E+00
     -8.730  0.0000E+00  0.0000E+00  0.0000E+00  0.0000E+00
     -8.670  0.0000E+00  0.0000E+00  0.0000E+00  0.0000E+00
     -8.609  0.0000E+00  0.0000E+00  0.0000E+00  0.0000E+00
     -8.548  0.0000E+00  0.0000E+00  0.0000E+00  0.0000E+00
     -8.487  0.0000E+00  0.0000E+00  0.0000E+00  0.0000E+00
     -8.426  0.0000E+00  0.0000E+00  0.0000E+00  0.0000E+00
     -8.365  0.0000E+00  0.0000E+00  0.0000E+00  0.0000E+00
     -8.304  0.0000E+00  0.0000E+00  0.0000E+00  0.0000E+00
     -8.243  0.1062E-06  0.1927E-06  0.6473E-08  0.1175E-07
     -8.182  0.3278E+02  0.3287E+02  0.1998E+01  0.2004E+01
     -8.121  0.3281E+02  0.3272E+02  0.4000E+01  0.4000E+01
     -8.060  0.3312E+01  0.3033E+01  0.4202E+01  0.4185E+01
     -7.999  0.6230E+02  0.6258E+02  0.8000E+01  0.8000E+01
     -7.938  0.0000E+00  0.0000E+00  0.8000E+01  0.8000E+01
     -7.877  0.4727E+01  0.4373E+01  0.8288E+01  0.8267E+01
     -7.816  0.6089E+02  0.6124E+02  0.1200E+02  0.1200E+02
     -7.755  0.2303E-06  0.1339E-06  0.1200E+02  0.1200E+02
     -7.694  0.2710E+02  0.2651E+02  0.1365E+02  0.1362E+02
     -7.633  0.3849E+02  0.3908E+02  0.1600E+02  0.1600E+02
     -7.572  0.0000E+00  0.0000E+00  0.1600E+02  0.1600E+02
     -7.511  0.0000E+00  0.0000E+00  0.1600E+02  0.1600E+02
     -7.450  0.0000E+00  0.0000E+00  0.1600E+02  0.1600E+02
     -7.389  0.1152E-02  0.7495E-03  0.1600E+02  0.1600E+02
     -7.328  0.7272E+02  0.7306E+02  0.2043E+02  0.2045E+02
     -7.267  0.9007E+02  0.8969E+02  0.2593E+02  0.2592E+02
     -7.206  0.3403E+02  0.3408E+02  0.2800E+02  0.2800E+02
     -7.145  0.0000E+00  0.0000E+00  0.2800E+02  0.2800E+02
     -7.084  0.0000E+00  0.0000E+00  0.2800E+02  0.2800E+02
     -7.024  0.4062E-05  0.3189E-05  0.2800E+02  0.2800E+02
     -6.963  0.3259E+02  0.3249E+02  0.2999E+02  0.2998E+02
     -6.902  0.3302E+02  0.3312E+02  0.3200E+02  0.3200E+02
     -6.841  0.3229E+02  0.3284E+02  0.3397E+02  0.3400E+02
     -6.780  0.3553E+02  0.3628E+02  0.3614E+02  0.3621E+02
     -6.719  0.3058E+02  0.2929E+02  0.3800E+02  0.3800E+02
     -6.658  0.2806E+01  0.1650E+01  0.3817E+02  0.3810E+02
     -6.597  0.3000E+02  0.3116E+02  0.4000E+02  0.4000E+02
     -6.536  0.1735E-04  0.9784E-05  0.4000E+02  0.4000E+02
     -6.475  0.3284E+02  0.3285E+02  0.4200E+02  0.4200E+02
     -6.414  0.3276E+02  0.3275E+02  0.4400E+02  0.4400E+02
     -6.353  0.0000E+00  0.0000E+00  0.4400E+02  0.4400E+02
     -6.292  0.0000E+00  0.0000E+00  0.4400E+02  0.4400E+02
     -6.231  0.0000E+00  0.0000E+00  0.4400E+02  0.4400E+02
     -6.170  0.0000E+00  0.0000E+00  0.4400E+02  0.4400E+02
     -6.109  0.0000E+00  0.0000E+00  0.4400E+02  0.4400E+02
     -6.048  0.4358E-06  0.1238E-05  0.4400E+02  0.4400E+02
     -5.987  0.3266E+02  0.3272E+02  0.4599E+02  0.4599E+02
     -5.926  0.2619E+02  0.2432E+02  0.4759E+02  0.4748E+02
     -5.865  0.3956E+02  0.4136E+02  0.5000E+02  0.5000E+02
     -5.804  0.3104E+02  0.3086E+02  0.5189E+02  0.5188E+02
     -5.743  0.1763E+01  0.1941E+01  0.5200E+02  0.5200E+02
     -5.682  0.1382E+02  0.1357E+02  0.5284E+02  0.5283E+02
     -5.621  0.5651E+02  0.5653E+02  0.5629E+02  0.5627E+02
     -5.560  0.3128E+02  0.3088E+02  0.5819E+02  0.5816E+02
     -5.499  0.4595E+02  0.4659E+02  0.6100E+02  0.6100E+02
     -5.438  0.1646E+02  0.1645E+02  0.6200E+02  0.6200E+02
     -5.377  0.1660E+02  0.1648E+02  0.6301E+02  0.6300E+02
     -5.317  0.1705E+02  0.1688E+02  0.6405E+02  0.6403E+02
     -5.256  0.4471E+02  0.4595E+02  0.6678E+02  0.6684E+02
     -5.195  0.2708E+02  0.2522E+02  0.6843E+02  0.6837E+02
     -5.134  0.2343E+02  0.2415E+02  0.6986E+02  0.6985E+02
     -5.073  0.1938E+02  0.1894E+02  0.7104E+02  0.7100E+02
     -5.012  0.4937E+02  0.5010E+02  0.7405E+02  0.7406E+02
     -4.951  0.3538E+02  0.3474E+02  0.7621E+02  0.7617E+02
     -4.890  0.4787E+02  0.4782E+02  0.7912E+02  0.7909E+02
     -4.829  0.1929E+02  0.1957E+02  0.8030E+02  0.8028E+02
     -4.768  0.3002E+02  0.3045E+02  0.8213E+02  0.8214E+02
     -4.707  0.2690E+02  0.2692E+02  0.8377E+02  0.8378E+02
     -4.646  0.3306E+02  0.3241E+02  0.8579E+02  0.8576E+02
     -4.585  0.5574E+02  0.5506E+02  0.8918E+02  0.8911E+02
     -4.524  0.2766E+02  0.2861E+02  0.9087E+02  0.9086E+02
     -4.463  0.5218E+02  0.5263E+02  0.9405E+02  0.9407E+02
     -4.402  0.3601E+02  0.3569E+02  0.9625E+02  0.9624E+02
     -4.341  0.4770E+02  0.4790E+02  0.9916E+02  0.9916E+02
     -4.280  0.5100E+02  0.5090E+02  0.1023E+03  0.1023E+03
     -4.219  0.6009E+02  0.6021E+02  0.1059E+03  0.1059E+03
     -4.158  0.4911E+02  0.4899E+02  0.1089E+03  0.1089E+03
     -4.097  0.5737E+02  0.5727E+02  0.1124E+03  0.1124E+03
     -4.036  0.6493E+02  0.6532E+02  0.1164E+03  0.1164E+03
     -3.975  0.6650E+02  0.6605E+02  0.1204E+03  0.1204E+03
     -3.914  0.7139E+02  0.7131E+02  0.1248E+03  0.1248E+03
     -3.853  0.5227E+02  0.5238E+02  0.1280E+03  0.1280E+03
     -3.792  0.5358E+02  0.5305E+02  0.1312E+03  0.1312E+03
     -3.731  0.6191E+02  0.6247E+02  0.1350E+03  0.1350E+03
     -3.670  0.6730E+02  0.6743E+02  0.1391E+03  0.1391E+03
     -3.610  0.5491E+02  0.5484E+02  0.1425E+03  0.1425E+03
     -3.549  0.5668E+02  0.5664E+02  0.1459E+03  0.1459E+03
     -3.488  0.4826E+02  0.4835E+02  0.1489E+03  0.1489E+03
     -3.427  0.5331E+02  0.5313E+02  0.1521E+03  0.1521E+03
     -3.366  0.6009E+02  0.5992E+02  0.1558E+03  0.1558E+03
     -3.305  0.3644E+02  0.3673E+02  0.1580E+03  0.1580E+03
     -3.244  0.5965E+02  0.5972E+02  0.1616E+03  0.1616E+03
     -3.183  0.3879E+02  0.3847E+02  0.1640E+03  0.1640E+03
     -3.122  0.5963E+02  0.5957E+02  0.1676E+03  0.1676E+03
     -3.061  0.5303E+02  0.5323E+02  0.1709E+03  0.1709E+03
     -3.000  0.4320E+02  0.4323E+02  0.1735E+03  0.1735E+03
     -2.939  0.4207E+02  0.4239E+02  0.1761E+03  0.1761E+03
     -2.878  0.4681E+02  0.4677E+02  0.1789E+03  0.1789E+03
     -2.817  0.5228E+02  0.5217E+02  0.1821E+03  0.1821E+03
     -2.756  0.5849E+02  0.5820E+02  0.1857E+03  0.1857E+03
     -2.695  0.5092E+02  0.5117E+02  0.1888E+03  0.1888E+03
     -2.634  0.5198E+02  0.5135E+02  0.1920E+03  0.1919E+03
     -2.573  0.7221E+02  0.7237E+02  0.1964E+03  0.1963E+03
     -2.512  0.8740E+02  0.8709E+02  0.2017E+03  0.2016E+03
     -2.451  0.7498E+02  0.7521E+02  0.2063E+03  0.2062E+03
     -2.390  0.5725E+02  0.5742E+02  0.2098E+03  0.2097E+03
     -2.329  0.6513E+02  0.6537E+02  0.2137E+03  0.2137E+03
     -2.268  0.7117E+02  0.7106E+02  0.2181E+03  0.2180E+03
     -2.207  0.6795E+02  0.6798E+02  0.2222E+03  0.2222E+03
     -2.146  0.5210E+02  0.5176E+02  0.2254E+03  0.2253E+03
     -2.085  0.8739E+02  0.8726E+02  0.2307E+03  0.2307E+03
     -2.024  0.7173E+02  0.7209E+02  0.2351E+03  0.2351E+03
     -1.964  0.7071E+02  0.7053E+02  0.2394E+03  0.2394E+03
     -1.903  0.9294E+02  0.9263E+02  0.2451E+03  0.2450E+03
     -1.842  0.7365E+02  0.7395E+02  0.2495E+03  0.2495E+03
     -1.781  0.8345E+02  0.8311E+02  0.2546E+03  0.2546E+03
     -1.720  0.6175E+02  0.6224E+02  0.2584E+03  0.2584E+03
     -1.659  0.8323E+02  0.8299E+02  0.2635E+03  0.2634E+03
     -1.598  0.6049E+02  0.6029E+02  0.2672E+03  0.2671E+03
     -1.537  0.6880E+02  0.6961E+02  0.2714E+03  0.2714E+03
     -1.476  0.6561E+02  0.6539E+02  0.2754E+03  0.2753E+03
     -1.415  0.8170E+02  0.8163E+02  0.2803E+03  0.2803E+03
     -1.354  0.5525E+02  0.5562E+02  0.2837E+03  0.2837E+03
     -1.293  0.8915E+02  0.8869E+02  0.2891E+03  0.2891E+03
     -1.232  0.6025E+02  0.6063E+02  0.2928E+03  0.2928E+03
     -1.171  0.8157E+02  0.8142E+02  0.2978E+03  0.2978E+03
     -1.110  0.6779E+02  0.6712E+02  0.3019E+03  0.3019E+03
     -1.049  0.6250E+02  0.6313E+02  0.3057E+03  0.3057E+03
     -0.988  0.7248E+02  0.7224E+02  0.3102E+03  0.3101E+03
     -0.927  0.7130E+02  0.7087E+02  0.3145E+03  0.3145E+03
     -0.866  0.6121E+02  0.6121E+02  0.3182E+03  0.3182E+03
     -0.805  0.7348E+02  0.7362E+02  0.3227E+03  0.3227E+03
     -0.744  0.6028E+02  0.6059E+02  0.3264E+03  0.3264E+03
     -0.683  0.6297E+02  0.6225E+02  0.3302E+03  0.3302E+03
     -0.622  0.5925E+02  0.5971E+02  0.3338E+03  0.3338E+03
     -0.561  0.4314E+02  0.4339E+02  0.3365E+03  0.3364E+03
     -0.500  0.7292E+02  0.7291E+02  0.3409E+03  0.3409E+03
     -0.439  0.4905E+02  0.4882E+02  0.3439E+03  0.3439E+03
     -0.378  0.9207E+02  0.9252E+02  0.3495E+03  0.3495E+03
     -0.317  0.5995E+02  0.5940E+02  0.3532E+03  0.3531E+03
     -0.257  0.5746E+02  0.5757E+02  0.3567E+03  0.3566E+03
     -0.196  0.7765E+02  0.7744E+02  0.3614E+03  0.3614E+03
     -0.135  0.7529E+02  0.7540E+02  0.3660E+03  0.3660E+03
     -0.074  0.8575E+02  0.8584E+02  0.3712E+03  0.3712E+03
     -0.013  0.7585E+02  0.7541E+02  0.3759E+03  0.3758E+03
      0.048  0.9924E+02  0.9992E+02  0.3819E+03  0.3819E+03
      0.109  0.7566E+02  0.7553E+02  0.3865E+03  0.3865E+03
      0.170  0.1092E+03  0.1091E+03  0.3932E+03  0.3931E+03
      0.231  0.9064E+02  0.9100E+02  0.3987E+03  0.3987E+03
      0.292  0.1063E+03  0.1060E+03  0.4052E+03  0.4052E+03
      0.353  0.8402E+02  0.8393E+02  0.4103E+03  0.4103E+03
      0.414  0.8578E+02  0.8484E+02  0.4155E+03  0.4154E+03
      0.475  0.9367E+02  0.9482E+02  0.4213E+03  0.4212E+03
      0.536  0.6309E+02  0.6269E+02  0.4251E+03  0.4250E+03
      0.597  0.8248E+02  0.8261E+02  0.4301E+03  0.4301E+03
      0.658  0.8756E+02  0.8630E+02  0.4355E+03  0.4353E+03
      0.719  0.7939E+02  0.8059E+02  0.4403E+03  0.4403E+03
      0.780  0.8182E+02  0.8189E+02  0.4453E+03  0.4453E+03
      0.841  0.9167E+02  0.8981E+02  0.4509E+03  0.4507E+03
      0.902  0.8788E+02  0.8909E+02  0.4562E+03  0.4562E+03
      0.963  0.9656E+02  0.9668E+02  0.4621E+03  0.4621E+03
      1.024  0.8596E+02  0.8640E+02  0.4674E+03  0.4673E+03
      1.085  0.8698E+02  0.8619E+02  0.4727E+03  0.4726E+03
      1.146  0.9730E+02  0.9763E+02  0.4786E+03  0.4785E+03
      1.207  0.7643E+02  0.7572E+02  0.4833E+03  0.4832E+03
      1.268  0.7664E+02  0.7659E+02  0.4879E+03  0.4878E+03
      1.329  0.6541E+02  0.6647E+02  0.4919E+03  0.4919E+03
      1.390  0.7281E+02  0.7273E+02  0.4964E+03  0.4963E+03
      1.450  0.8506E+02  0.8433E+02  0.5016E+03  0.5014E+03
      1.511  0.8082E+02  0.8169E+02  0.5065E+03  0.5064E+03
      1.572  0.8240E+02  0.8066E+02  0.5115E+03  0.5113E+03
      1.633  0.7092E+02  0.7090E+02  0.5158E+03  0.5157E+03
      1.694  0.8494E+02  0.8464E+02  0.5210E+03  0.5208E+03
      1.755  0.8744E+02  0.8657E+02  0.5263E+03  0.5261E+03
      1.816  0.9635E+02  0.9591E+02  0.5322E+03  0.5320E+03
      1.877  0.9974E+02  0.1006E+03  0.5383E+03  0.5381E+03
      1.938  0.9583E+02  0.9622E+02  0.5441E+03  0.5440E+03
      1.999  0.1038E+03  0.1048E+03  0.5505E+03  0.5503E+03
      2.060  0.9447E+02  0.9493E+02  0.5562E+03  0.5561E+03
      2.121  0.9373E+02  0.9300E+02  0.5619E+03  0.5618E+03
      2.182  0.8460E+02  0.8479E+02  0.5671E+03  0.5670E+03
      2.243  0.8727E+02  0.8614E+02  0.5724E+03  0.5722E+03
      2.304  0.9732E+02  0.9866E+02  0.5784E+03  0.5782E+03
      2.365  0.1079E+03  0.1078E+03  0.5849E+03  0.5848E+03
      2.426  0.9347E+02  0.9233E+02  0.5906E+03  0.5904E+03
      2.487  0.9701E+02  0.9750E+02  0.5966E+03  0.5964E+03
      2.548  0.9738E+02  0.9803E+02  0.6025E+03  0.6024E+03
      2.609  0.1141E+03  0.1126E+03  0.6095E+03  0.6092E+03
      2.670  0.1056E+03  0.1047E+03  0.6159E+03  0.6156E+03
      2.731  0.9132E+02  0.9057E+02  0.6215E+03  0.6211E+03
      2.792  0.1236E+03  0.1245E+03  0.6290E+03  0.6287E+03
      2.853  0.1130E+03  0.1132E+03  0.6359E+03  0.6356E+03
      2.914  0.1214E+03  0.1210E+03  0.6433E+03  0.6430E+03
      2.975  0.1193E+03  0.1204E+03  0.6506E+03  0.6504E+03
      3.036  0.1442E+03  0.1423E+03  0.6594E+03  0.6590E+03
      3.096  0.1264E+03  0.1300E+03  0.6671E+03  0.6669E+03
      3.157  0.1226E+03  0.1213E+03  0.6745E+03  0.6743E+03
      3.218  0.1191E+03  0.1186E+03  0.6818E+03  0.6816E+03
      3.279  0.1416E+03  0.1398E+03  0.6904E+03  0.6901E+03
      3.340  0.1023E+03  0.1039E+03  0.6967E+03  0.6964E+03
      3.401  0.1309E+03  0.1318E+03  0.7047E+03  0.7045E+03
      3.462  0.1263E+03  0.1235E+03  0.7124E+03  0.7120E+03
      3.523  0.1168E+03  0.1168E+03  0.7195E+03  0.7191E+03
      3.584  0.1318E+03  0.1269E+03  0.7275E+03  0.7269E+03
      3.645  0.1028E+03  0.1060E+03  0.7338E+03  0.7333E+03
      3.706  0.1220E+03  0.1224E+03  0.7412E+03  0.7408E+03
      3.767  0.1081E+03  0.1080E+03  0.7478E+03  0.7474E+03
      3.828  0.1244E+03  0.1272E+03  0.7554E+03  0.7551E+03
      3.889  0.1232E+03  0.1202E+03  0.7629E+03  0.7624E+03
      3.950  0.1182E+03  0.1209E+03  0.7701E+03  0.7698E+03
      4.011  0.1195E+03  0.1197E+03  0.7774E+03  0.7771E+03
      4.072  0.1241E+03  0.1256E+03  0.7850E+03  0.7848E+03
      4.133  0.1057E+03  0.1039E+03  0.7914E+03  0.7911E+03
      4.194  0.1104E+03  0.1087E+03  0.7981E+03  0.7977E+03
      4.255  0.1234E+03  0.1263E+03  0.8057E+03  0.8054E+03
      4.316  0.1160E+03  0.1146E+03  0.8127E+03  0.8124E+03
      4.377  0.1284E+03  0.1286E+03  0.8206E+03  0.8203E+03
      4.438  0.1160E+03  0.1167E+03  0.8276E+03  0.8274E+03
      4.499  0.1162E+03  0.1144E+03  0.8347E+03  0.8344E+03
      4.560  0.1097E+03  0.1127E+03  0.8414E+03  0.8412E+03
      4.621  0.1122E+03  0.1107E+03  0.8483E+03  0.8480E+03
      4.682  0.1065E+03  0.1069E+03  0.8548E+03  0.8545E+03
      4.743  0.1185E+03  0.1163E+03  0.8620E+03  0.8616E+03
      4.803  0.9920E+02  0.1016E+03  0.8680E+03  0.8678E+03
      4.864  0.1171E+03  0.1163E+03  0.8752E+03  0.8749E+03
      4.925  0.1237E+03  0.1247E+03  0.8827E+03  0.8825E+03
      4.986  0.1082E+03  0.1083E+03  0.8893E+03  0.8891E+03
      5.047  0.9760E+02  0.9493E+02  0.8953E+03  0.8949E+03
      5.108  0.9956E+02  0.1023E+03  0.9013E+03  0.9011E+03
      5.169  0.9615E+02  0.9539E+02  0.9072E+03  0.9069E+03
      5.230  0.8984E+02  0.8315E+02  0.9127E+03  0.9120E+03
      5.291  0.1038E+03  0.1091E+03  0.9190E+03  0.9186E+03
      5.352  0.1020E+03  0.9903E+02  0.9252E+03  0.9247E+03
      5.413  0.1012E+03  0.1025E+03  0.9314E+03  0.9309E+03
      5.474  0.9508E+02  0.9627E+02  0.9372E+03  0.9368E+03
      5.535  0.1031E+03  0.1019E+03  0.9435E+03  0.9430E+03
      5.596  0.9751E+02  0.9835E+02  0.9494E+03  0.9490E+03
      5.657  0.9122E+02  0.9132E+02  0.9550E+03  0.9546E+03
      5.718  0.1002E+03  0.9688E+02  0.9611E+03  0.9605E+03
      5.779  0.9316E+02  0.9424E+02  0.9668E+03  0.9662E+03
      5.840  0.9075E+02  0.9247E+02  0.9723E+03  0.9719E+03
      5.901  0.9942E+02  0.9542E+02  0.9783E+03  0.9777E+03
      5.962  0.8955E+02  0.8955E+02  0.9838E+03  0.9831E+03
      6.023  0.8436E+02  0.8683E+02  0.9890E+03  0.9884E+03
      6.084  0.1024E+03  0.9203E+02  0.9952E+03  0.9941E+03
      6.145  0.1040E+03  0.9821E+02  0.1002E+04  0.1000E+04
      6.206  0.1076E+03  0.1049E+03  0.1008E+04  0.1006E+04
      6.267  0.9507E+02  0.9133E+02  0.1014E+04  0.1012E+04
      6.328  0.1016E+03  0.1015E+03  0.1020E+04  0.1018E+04
      6.389  0.1050E+03  0.1052E+03  0.1026E+04  0.1025E+04
      6.450  0.1129E+03  0.9926E+02  0.1033E+04  0.1031E+04
      6.510  0.1243E+03  0.1155E+03  0.1041E+04  0.1038E+04
      6.571  0.1155E+03  0.1292E+03  0.1048E+04  0.1046E+04
      6.632  0.1144E+03  0.1221E+03  0.1055E+04  0.1053E+04
      6.693  0.1261E+03  0.1129E+03  0.1063E+04  0.1060E+04
      6.754  0.1094E+03  0.1162E+03  0.1069E+04  0.1067E+04
      6.815  0.1198E+03  0.1215E+03  0.1077E+04  0.1074E+04
      6.876  0.1243E+03  0.1341E+03  0.1084E+04  0.1083E+04
      6.937  0.1314E+03  0.1236E+03  0.1092E+04  0.1090E+04
      6.998  0.1199E+03  0.1282E+03  0.1100E+04  0.1098E+04
      7.059  0.1171E+03  0.1093E+03  0.1107E+04  0.1105E+04
      7.120  0.1112E+03  0.1264E+03  0.1113E+04  0.1112E+04
      7.181  0.1108E+03  0.1183E+03  0.1120E+04  0.1120E+04
      7.242  0.1042E+03  0.1008E+03  0.1127E+04  0.1126E+04
      7.303  0.1245E+03  0.1206E+03  0.1134E+04  0.1133E+04
      7.364  0.1147E+03  0.1134E+03  0.1141E+04  0.1140E+04
      7.425  0.1056E+03  0.1146E+03  0.1148E+04  0.1147E+04
      7.486  0.1169E+03  0.1172E+03  0.1155E+04  0.1154E+04
      7.547  0.1238E+03  0.1252E+03  0.1162E+04  0.1162E+04
      7.608  0.9522E+02  0.8981E+02  0.1168E+04  0.1167E+04
      7.669  0.1316E+03  0.1340E+03  0.1176E+04  0.1175E+04
      7.730  0.1060E+03  0.1081E+03  0.1183E+04  0.1182E+04
      7.791  0.1247E+03  0.1271E+03  0.1190E+04  0.1190E+04
      7.852  0.1375E+03  0.1337E+03  0.1199E+04  0.1198E+04
      7.913  0.1198E+03  0.1169E+03  0.1206E+04  0.1205E+04
      7.974  0.1353E+03  0.1355E+03  0.1214E+04  0.1213E+04
      8.035  0.1394E+03  0.1433E+03  0.1223E+04  0.1222E+04
      8.096  0.1235E+03  0.1210E+03  0.1230E+04  0.1229E+04
      8.157  0.1463E+03  0.1455E+03  0.1239E+04  0.1238E+04
      8.217  0.1124E+03  0.1165E+03  0.1246E+04  0.1245E+04
      8.278  0.1486E+03  0.1478E+03  0.1255E+04  0.1254E+04
      8.339  0.1307E+03  0.1353E+03  0.1263E+04  0.1263E+04
      8.400  0.1246E+03  0.1277E+03  0.1271E+04  0.1270E+04
      8.461  0.2453E+02  0.2685E+02  0.1272E+04  0.1272E+04
      8.522  0.0000E+00  0.0000E+00  0.1272E+04  0.1272E+04
      8.583  0.0000E+00  0.0000E+00  0.1272E+04  0.1272E+04
      8.644  0.0000E+00  0.0000E+00  0.1272E+04  0.1272E+04
      8.705  0.0000E+00  0.0000E+00  0.1272E+04  0.1272E+04
      8.766  0.0000E+00  0.0000E+00  0.1272E+04  0.1272E+04
      8.827  0.0000E+00  0.0000E+00  0.1272E+04  0.1272E+04
      8.888  0.0000E+00  0.0000E+00  0.1272E+04  0.1272E+04
      8.949  0.0000E+00  0.0000E+00  0.1272E+04  0.1272E+04
      9.010  0.0000E+00  0.0000E+00  0.1272E+04  0.1272E+04
      9.071  0.0000E+00  0.0000E+00  0.1272E+04  0.1272E+04
      9.132  0.0000E+00  0.0000E+00  0.1272E+04  0.1272E+04
      9.193  0.0000E+00  0.0000E+00  0.1272E+04  0.1272E+04
      9.254  0.0000E+00  0.0000E+00  0.1272E+04  0.1272E+04
