Si Bulk DFT energetics calculations using VASP\n
This script is running on comp120.cluster.local in /lustre/home/ah1365/projects/127870/upgrade_report/case_studies/common/structures/interfaces/120_Si36C84_012_012_a0.123457_b0.617284_c1.482413_interface1shift5\n
Job started on: Sat  7 Jun 21:56:08 UTC 2025\n
 running   64 mpi-ranks, on    4 nodes
 distrk:  each k-point on   64 cores,    1 groups
 distr:  one band on   16 cores,    4 groups
 vasp.6.4.3 19Mar24 (build Oct 22 2024 11:23:12) complex                        
  
 POSCAR found type information on POSCAR SiC 
 POSCAR found :  2 types and     120 ions
 -----------------------------------------------------------------------------
|                                                                             |
|           W    W    AA    RRRRR   N    N  II  N    N   GGGG   !!!           |
|           W    W   A  A   R    R  NN   N  II  NN   N  G    G  !!!           |
|           W    W  A    A  R    R  N N  N  II  N N  N  G       !!!           |
|           W WW W  AAAAAA  RRRRR   N  N N  II  N  N N  G  GGG   !            |
|           WW  WW  A    A  R   R   N   NN  II  N   NN  G    G                |
|           W    W  A    A  R    R  N    N  II  N    N   GGGG   !!!           |
|                                                                             |
|     You use a magnetic or noncollinear calculation, but did not specify     |
|     the initial magnetic moment with the MAGMOM tag. Note that a            |
|     default of 8.333e-3 will be used for all atoms. This ferromagnetic      |
|     setup may break the symmetry of the crystal, in particular it may       |
|     rule out finding an antiferromagnetic solution. Thence, we              |
|     recommend setting the initial magnetic moment manually or verifying     |
|     carefully that this magnetic setup is desired.                          |
|                                                                             |
 -----------------------------------------------------------------------------

 scaLAPACK will be used
 LDA part: xc-table for (Slater+PW92), standard interpolation
 POSCAR, INCAR and KPOINTS ok, starting setup
 FFT: planning ... GRIDC
 FFT: planning ... GRID_SOFT
 FFT: planning ... GRID
 WAVECAR not read
 entering main loop
       N       E                     dE             d eps       ncg     rms          rms(c)
DAV:   1     0.235331272054E+04    0.23533E+04   -0.25531E+05 21888   0.186E+03
DAV:   2    -0.511936847449E+03   -0.28652E+04   -0.27343E+04 26880   0.291E+02
DAV:   3    -0.820021186009E+03   -0.30808E+03   -0.29345E+03 27344   0.891E+01
DAV:   4    -0.836761497128E+03   -0.16740E+02   -0.16140E+02 29472   0.202E+01
DAV:   5    -0.837633747281E+03   -0.87225E+00   -0.85765E+00 31640   0.406E+00    0.388E+01
DAV:   6    -0.834750398697E+03    0.28833E+01   -0.39781E+02 29944   0.364E+01    0.346E+01
DAV:   7    -0.790875228314E+03    0.43875E+02   -0.19121E+02 31600   0.266E+01    0.123E+01
DAV:   8    -0.795864176003E+03   -0.49889E+01   -0.38486E+01 29128   0.126E+01    0.976E+00
DAV:   9    -0.792689258609E+03    0.31749E+01   -0.10761E+01 28320   0.927E+00    0.413E+00
DAV:  10    -0.792455664663E+03    0.23359E+00   -0.30702E+00 29608   0.356E+00    0.224E+00
DAV:  11    -0.792438001606E+03    0.17663E-01   -0.81849E-01 28768   0.199E+00    0.150E+00
DAV:  12    -0.792431763775E+03    0.62378E-02   -0.21180E-01 27824   0.112E+00    0.102E+00
DAV:  13    -0.792426764560E+03    0.49992E-02   -0.85261E-02 28928   0.783E-01    0.665E-01
DAV:  14    -0.792420482843E+03    0.62817E-02   -0.32424E-02 28976   0.452E-01    0.271E-01
DAV:  15    -0.792420095077E+03    0.38777E-03   -0.12222E-02 30952   0.259E-01    0.164E-01
DAV:  16    -0.792419524945E+03    0.57013E-03   -0.44750E-03 30432   0.150E-01    0.723E-02
DAV:  17    -0.792419543125E+03   -0.18180E-04   -0.11704E-03 29584   0.613E-02    0.470E-02
DAV:  18    -0.792419537764E+03    0.53614E-05   -0.21990E-04 28560   0.314E-02    0.271E-02
DAV:  19    -0.792419534763E+03    0.30007E-05   -0.85335E-05 28192   0.192E-02    0.126E-02
DAV:  20    -0.792419536552E+03   -0.17894E-05   -0.31697E-05 29952   0.113E-02    0.795E-03
DAV:  21    -0.792419536413E+03    0.13953E-06   -0.10567E-05 30272   0.695E-03    0.451E-03
DAV:  22    -0.792419536838E+03   -0.42471E-06   -0.38419E-06 28624   0.392E-03    0.322E-03
DAV:  23    -0.792419537137E+03   -0.29925E-06   -0.18172E-06 29536   0.253E-03    0.234E-03
DAV:  24    -0.792419537352E+03   -0.21479E-06   -0.12657E-06 29432   0.194E-03    0.174E-03
DAV:  25    -0.792419537364E+03   -0.12053E-07   -0.60211E-07 23888   0.145E-03
   1 F= -.79241954E+03 E0= -.79241826E+03  d E =-.256413E-02  mag=     1.0000
Job ended on: Sat  7 Jun 22:19:49 UTC 2025\n
