Si and Ge interface calculation         
           1
    16.293001    0.000000    0.000000
   -10.862000   12.144086    0.000000
     0.000000    0.000000    7.994749
   Si   C 
    36    84
Direct configuration=     1
   0.97435850  0.98290563  0.00000000
   0.67435843  0.78290558  0.15190083
   0.37435842  0.58290553  0.30380166
   0.30769178  0.98290563  0.00000000
   0.00769173  0.78290558  0.15190083
   0.70769167  0.58290553  0.30380166
   0.64102507  0.98290563  0.00000000
   0.34102503  0.78290558  0.15190083
   0.04102499  0.58290553  0.30380166
   0.15769197  0.63290560  0.07595027
   0.85769194  0.43290553  0.22785109
   0.55769193  0.23290551  0.37975192
   0.49102521  0.63290560  0.07595027
   0.19102515  0.43290553  0.22785109
   0.89102519  0.23290551  0.37975192
   0.82435846  0.63290560  0.07595027
   0.52435839  0.43290553  0.22785109
   0.22435850  0.23290551  0.37975192
   0.14102516  0.48290560  0.00000000
   0.84102511  0.28290549  0.15190083
   0.54102510  0.08290543  0.30380166
   0.47435844  0.48290560  0.00000000
   0.17435838  0.28290549  0.15190083
   0.87435836  0.08290543  0.30380166
   0.80769169  0.48290560  0.00000000
   0.50769168  0.28290549  0.15190083
   0.20769163  0.08290543  0.30380166
   0.99102521  0.13290566  0.07595027
   0.69102514  0.93290561  0.22785109
   0.39102519  0.73290557  0.37975192
   0.32435846  0.13290566  0.07595027
   0.02435841  0.93290561  0.22785109
   0.72435844  0.73290557  0.37975192
   0.65769166  0.13290566  0.07595027
   0.35769162  0.93290561  0.22785109
   0.05769165  0.73290557  0.37975192
   0.73899537  0.32818735  0.76469636
   0.96756679  0.38532996  0.56517523
   0.85328108  0.85675871  0.66493583
   0.59613818  0.04247308  0.76469636
   0.82470965  0.09961569  0.56517523
   0.71042389  0.57104444  0.66493583
   0.45328104  0.75675881  0.76469636
   0.68185246  0.81390142  0.56517523
   0.56756669  0.28533018  0.66493583
   0.31042397  0.47104454  0.76469636
   0.53899538  0.52818704  0.56517523
   0.42470968  0.99961591  0.66493583
   0.16756684  0.18533027  0.76469636
   0.39613825  0.24247289  0.56517523
   0.28185254  0.71390164  0.66493583
   0.02470970  0.89961600  0.76469636
   0.25328112  0.95675856  0.56517523
   0.13899536  0.42818737  0.66493583
   0.88185257  0.61390162  0.76469636
   0.11042404  0.67104429  0.56517523
   0.99613827  0.14247298  0.66493583
   0.78899544  0.77818739  0.81457663
   0.01756692  0.83532989  0.61505544
   0.90328121  0.30675876  0.71481603
   0.64613825  0.49247312  0.81457663
   0.87470961  0.54961574  0.61505544
   0.76042390  0.02104437  0.71481603
   0.50328118  0.20675838  0.81457663
   0.73185253  0.26390111  0.61505550
   0.61756688  0.73532987  0.71481603
   0.36042401  0.92104435  0.81457663
   0.58899540  0.97818696  0.61505550
   0.47470969  0.44961572  0.71481603
   0.21756682  0.63533008  0.81457663
   0.44613826  0.69247282  0.61505544
   0.33185250  0.16390145  0.71481603
   0.07470977  0.34961605  0.81457663
   0.30328122  0.40675867  0.61505544
   0.18899551  0.87818730  0.71481603
   0.93185252  0.06390131  0.81457663
   0.16042401  0.12104404  0.61505544
   0.04613829  0.59247279  0.71481603
   0.81042385  0.97104454  0.76469636
   0.03899538  0.02818716  0.56517523
   0.92470956  0.49961591  0.66493583
   0.66756666  0.68533027  0.76469636
   0.89613813  0.74247289  0.56517530
   0.78185236  0.21390152  0.66493583
   0.52470958  0.39961588  0.76469636
   0.75328106  0.45675850  0.56517523
   0.63899535  0.92818737  0.66493583
   0.38185245  0.11390162  0.76469636
   0.61042398  0.17104435  0.56517523
   0.49613822  0.64247298  0.66493583
   0.23899540  0.82818747  0.76469636
   0.46756685  0.88532996  0.56517523
   0.35328108  0.35675871  0.66493583
   0.09613824  0.54247296  0.76469636
   0.32470965  0.59961557  0.56517530
   0.21042399  0.07104444  0.66493583
   0.95328111  0.25675869  0.76469636
   0.18185253  0.31390142  0.56517530
   0.06756699  0.78533030  0.66493583
   0.86042398  0.42104435  0.81457663
   0.08899546  0.47818708  0.61505544
   0.97470969  0.94961560  0.71481603
   0.71756685  0.13533032  0.81457663
   0.94613814  0.19247270  0.61505544
   0.83185250  0.66390157  0.71481603
   0.57470971  0.84961557  0.81457663
   0.80328107  0.90675819  0.61505544
   0.68899536  0.37818694  0.71481603
   0.43185258  0.56390142  0.81457663
   0.66042399  0.62104404  0.61505544
   0.54613835  0.09247279  0.71481603
   0.28899542  0.27818728  0.81457663
   0.51756686  0.33532989  0.61505544
   0.40328115  0.80675852  0.71481603
   0.14613827  0.99247312  0.81457663
   0.37470973  0.04961574  0.61505544
   0.26042402  0.52104449  0.71481603
   0.00328124  0.70675862  0.81457663
   0.23185265  0.76390111  0.61505544
   0.11756706  0.23532999  0.71481597
