Si and Ge interface calculation         
           1
    16.293001    0.000000    0.000000
   -10.862000   12.144086    0.000000
     0.000000    0.000000    7.006474
   Si   C 
    36    84
Direct configuration=     1
   0.97435850  0.98290563  0.00000000
   0.67435843  0.78290558  0.17332670
   0.37435842  0.58290553  0.34665340
   0.30769178  0.98290563  0.00000000
   0.00769173  0.78290558  0.17332670
   0.70769167  0.58290553  0.34665340
   0.64102507  0.98290563  0.00000000
   0.34102503  0.78290558  0.17332670
   0.04102499  0.58290553  0.34665340
   0.15769197  0.63290560  0.08666317
   0.85769194  0.43290553  0.25998989
   0.55769193  0.23290551  0.43331653
   0.49102521  0.63290560  0.08666317
   0.19102515  0.43290553  0.25998989
   0.89102519  0.23290551  0.43331653
   0.82435846  0.63290560  0.08666317
   0.52435839  0.43290553  0.25998989
   0.22435850  0.23290551  0.43331653
   0.14102516  0.48290560  0.00000000
   0.84102511  0.28290549  0.17332670
   0.54102510  0.08290543  0.34665340
   0.47435844  0.48290560  0.00000000
   0.17435838  0.28290549  0.17332670
   0.87435836  0.08290543  0.34665340
   0.80769169  0.48290560  0.00000000
   0.50769168  0.28290549  0.17332670
   0.20769163  0.08290543  0.34665340
   0.99102521  0.13290566  0.08666318
   0.69102514  0.93290561  0.25998989
   0.39102519  0.73290557  0.43331653
   0.32435846  0.13290566  0.08666318
   0.02435841  0.93290561  0.25998989
   0.72435844  0.73290557  0.43331653
   0.65769166  0.13290566  0.08666318
   0.35769162  0.93290561  0.25998989
   0.05769165  0.73290557  0.43331653
   0.30876541  0.71313000  0.57436830
   0.55162263  0.68455851  0.68820030
   0.79447985  0.65598702  0.80203235
   0.59447968  0.85598713  0.57436830
   0.83733690  0.82741565  0.68820030
   0.08019412  0.79884416  0.80203235
   0.88019389  0.99884427  0.57436830
   0.12305117  0.97027278  0.68820030
   0.36590844  0.94170129  0.80203235
   0.16590834  0.14170146  0.57436830
   0.40876549  0.11312997  0.68820030
   0.65162283  0.08455849  0.80203235
   0.45162255  0.28455854  0.57436830
   0.69447976  0.25598717  0.68820030
   0.93733698  0.22741556  0.80203235
   0.73733687  0.42741573  0.57436830
   0.98019409  0.39884424  0.68820030
   0.22305131  0.37027276  0.80203235
   0.02305102  0.57027292  0.57436830
   0.26590824  0.54170132  0.68820030
   0.50876552  0.51312995  0.80203235
   0.14447951  0.80598712  0.63128424
   0.38733691  0.77741563  0.74511617
   0.63019413  0.74884415  0.85894823
   0.43019378  0.94884425  0.63128418
   0.67305106  0.92027283  0.74511629
   0.91590828  0.89170128  0.85894823
   0.71590817  0.09170151  0.63128418
   0.95876539  0.06312990  0.74511629
   0.20162273  0.03455854  0.85894823
   0.00162244  0.23455858  0.63128418
   0.24447978  0.20598710  0.74511629
   0.48733705  0.17741561  0.85894823
   0.28733665  0.37741566  0.63128418
   0.53019398  0.34884429  0.74511629
   0.77305108  0.32027268  0.85894823
   0.57305109  0.52027285  0.63128424
   0.81590837  0.49170136  0.74511629
   0.05876565  0.46312988  0.85894823
   0.85876524  0.66312993  0.63128424
   0.10162246  0.63455844  0.74511629
   0.34447974  0.60598707  0.85894823
   0.95162267  0.78455859  0.57436830
   0.19447970  0.75598705  0.68820030
   0.43733710  0.72741562  0.80203235
   0.23733699  0.92741573  0.57436830
   0.48019415  0.89884424  0.68820030
   0.72305125  0.87027276  0.80203235
   0.52305114  0.07027292  0.57436830
   0.76590836  0.04170132  0.68820030
   0.00876558  0.01312995  0.80203235
   0.80876535  0.21313000  0.57436830
   0.05162263  0.18455851  0.68820030
   0.29447991  0.15598702  0.80203235
   0.09447968  0.35598707  0.57436830
   0.33733696  0.32741570  0.68820030
   0.58019406  0.29884410  0.80203235
   0.38019395  0.49884438  0.57436830
   0.62305117  0.47027290  0.68820035
   0.86590850  0.44170141  0.80203235
   0.66590822  0.64170146  0.57436830
   0.90876543  0.61313009  0.68820035
   0.15162277  0.58455849  0.80203235
   0.50162256  0.73455858  0.63128418
   0.74447978  0.70598698  0.74511629
   0.98733711  0.67741561  0.85894823
   0.78733671  0.87741572  0.63128418
   0.03019404  0.84884423  0.74511629
   0.27305126  0.82027274  0.85894823
   0.07305098  0.02027285  0.63128418
   0.31590837  0.99170136  0.74511629
   0.55876559  0.96312994  0.85894823
   0.35876519  0.16313005  0.63128418
   0.60162252  0.13455856  0.74511617
   0.84447974  0.10598707  0.85894823
   0.64447963  0.30598712  0.63128418
   0.88733697  0.27741551  0.74511629
   0.13019419  0.24884415  0.85894823
   0.93019396  0.44884419  0.63128418
   0.17305124  0.42027283  0.74511629
   0.41590851  0.39170146  0.85894823
   0.21590805  0.59170139  0.63128418
   0.45876545  0.56312990  0.74511629
   0.70162267  0.53455854  0.85894823
