  48  48   0   0
  0.2846444E+02  0.9177115E-09  0.1946760E-08  0.7647603E-09  0.5000000E-15
  1.000000000000000E-004
  CAR 
 Si and Ge interface calculation         
      7.39902449     -7.80757096  301      5.18623298      1.00000000
     -7.808  0.0000E+00  0.0000E+00  0.0000E+00  0.0000E+00
     -7.757  0.0000E+00  0.0000E+00  0.0000E+00  0.0000E+00
     -7.706  0.0000E+00  0.0000E+00  0.0000E+00  0.0000E+00
     -7.656  0.0000E+00  0.0000E+00  0.0000E+00  0.0000E+00
     -7.605  0.0000E+00  0.0000E+00  0.0000E+00  0.0000E+00
     -7.554  0.0000E+00  0.0000E+00  0.0000E+00  0.0000E+00
     -7.503  0.0000E+00  0.0000E+00  0.0000E+00  0.0000E+00
     -7.453  0.0000E+00  0.0000E+00  0.0000E+00  0.0000E+00
     -7.402  0.0000E+00  0.0000E+00  0.0000E+00  0.0000E+00
     -7.351  0.0000E+00  0.0000E+00  0.0000E+00  0.0000E+00
     -7.301  0.0000E+00  0.0000E+00  0.0000E+00  0.0000E+00
     -7.250  0.0000E+00  0.0000E+00  0.0000E+00  0.0000E+00
     -7.199  0.0000E+00  0.0000E+00  0.0000E+00  0.0000E+00
     -7.149  0.7962E-05  0.3398E-08  0.4036E-06  0.1722E-09
     -7.098  0.6252E+01  0.3314E+01  0.3169E+00  0.1680E+00
     -7.047  0.4755E+01  0.6619E+01  0.5580E+00  0.5035E+00
     -6.997  0.1858E+02  0.1944E+02  0.1500E+01  0.1489E+01
     -6.946  0.1408E+01  0.4481E+00  0.1571E+01  0.1511E+01
     -6.895  0.8460E+01  0.9633E+01  0.2000E+01  0.2000E+01
     -6.844  0.0000E+00  0.4566E-02  0.2000E+01  0.2000E+01
     -6.794  0.7605E-01  0.1545E-02  0.2004E+01  0.2000E+01
     -6.743  0.9700E+01  0.8687E+01  0.2496E+01  0.2440E+01
     -6.692  0.1824E+02  0.1391E+02  0.3420E+01  0.3145E+01
     -6.642  0.1580E+01  0.6995E+01  0.3500E+01  0.3500E+01
     -6.591  0.9563E+01  0.7845E+01  0.3985E+01  0.3898E+01
     -6.540  0.4557E+01  0.3173E+01  0.4216E+01  0.4059E+01
     -6.490  0.3510E+02  0.3679E+02  0.5995E+01  0.5923E+01
     -6.439  0.8900E+01  0.8917E+01  0.6446E+01  0.6375E+01
     -6.388  0.1304E+02  0.8157E+01  0.7107E+01  0.6789E+01
     -6.338  0.1671E+02  0.2155E+02  0.7954E+01  0.7881E+01
     -6.287  0.9110E+00  0.2340E+01  0.8000E+01  0.8000E+01
     -6.236  0.0000E+00  0.0000E+00  0.8000E+01  0.8000E+01
     -6.186  0.0000E+00  0.0000E+00  0.8000E+01  0.8000E+01
     -6.135  0.0000E+00  0.0000E+00  0.8000E+01  0.8000E+01
     -6.084  0.0000E+00  0.0000E+00  0.8000E+01  0.8000E+01
     -6.033  0.0000E+00  0.0000E+00  0.8000E+01  0.8000E+01
     -5.983  0.0000E+00  0.0000E+00  0.8000E+01  0.8000E+01
     -5.932  0.0000E+00  0.0000E+00  0.8000E+01  0.8000E+01
     -5.881  0.0000E+00  0.0000E+00  0.8000E+01  0.8000E+01
     -5.831  0.0000E+00  0.0000E+00  0.8000E+01  0.8000E+01
     -5.780  0.0000E+00  0.0000E+00  0.8000E+01  0.8000E+01
     -5.729  0.0000E+00  0.0000E+00  0.8000E+01  0.8000E+01
     -5.679  0.0000E+00  0.0000E+00  0.8000E+01  0.8000E+01
     -5.628  0.0000E+00  0.0000E+00  0.8000E+01  0.8000E+01
     -5.577  0.0000E+00  0.0000E+00  0.8000E+01  0.8000E+01
     -5.527  0.0000E+00  0.0000E+00  0.8000E+01  0.8000E+01
     -5.476  0.2081E-13  0.0000E+00  0.8000E+01  0.8000E+01
     -5.425  0.5412E+00  0.5283E-01  0.8027E+01  0.8003E+01
     -5.375  0.2747E+01  0.3233E+01  0.8167E+01  0.8167E+01
     -5.324  0.3613E+01  0.7659E+00  0.8350E+01  0.8205E+01
     -5.273  0.9487E+01  0.1160E+02  0.8831E+01  0.8793E+01
     -5.222  0.2458E+00  0.7890E+00  0.8843E+01  0.8833E+01
     -5.172  0.1363E+02  0.1324E+02  0.9534E+01  0.9504E+01
     -5.121  0.2617E+01  0.3133E+01  0.9667E+01  0.9663E+01
     -5.070  0.8189E+01  0.2287E+01  0.1008E+02  0.9779E+01
     -5.020  0.8506E+01  0.1422E+02  0.1051E+02  0.1050E+02
     -4.969  0.2577E+02  0.2019E+02  0.1182E+02  0.1152E+02
     -4.918  0.7859E+01  0.9691E+01  0.1222E+02  0.1201E+02
     -4.868  0.7130E+01  0.9090E+01  0.1258E+02  0.1248E+02
     -4.817  0.1488E+02  0.1642E+02  0.1333E+02  0.1331E+02
     -4.766  0.4725E+01  0.3843E+01  0.1357E+02  0.1350E+02
     -4.716  0.1024E+02  0.6472E+01  0.1409E+02  0.1383E+02
     -4.665  0.2257E+02  0.2084E+02  0.1524E+02  0.1489E+02
     -4.614  0.1039E+02  0.1548E+02  0.1576E+02  0.1567E+02
     -4.563  0.1969E+02  0.1444E+02  0.1676E+02  0.1640E+02
     -4.513  0.1612E+02  0.1901E+02  0.1758E+02  0.1737E+02
     -4.462  0.5052E+01  0.9190E+01  0.1783E+02  0.1783E+02
     -4.411  0.5053E+01  0.1808E+01  0.1809E+02  0.1792E+02
     -4.361  0.1144E+02  0.1380E+02  0.1867E+02  0.1862E+02
     -4.310  0.1778E+02  0.1718E+02  0.1957E+02  0.1949E+02
     -4.259  0.2019E+02  0.1553E+02  0.2059E+02  0.2028E+02
     -4.209  0.2558E+02  0.2501E+02  0.2189E+02  0.2155E+02
     -4.158  0.6099E+01  0.9308E+01  0.2220E+02  0.2202E+02
     -4.107  0.2413E+02  0.2287E+02  0.2342E+02  0.2318E+02
     -4.057  0.8333E+01  0.1283E+02  0.2384E+02  0.2383E+02
     -4.006  0.1792E+02  0.1380E+02  0.2475E+02  0.2453E+02
     -3.955  0.1470E+02  0.1753E+02  0.2550E+02  0.2542E+02
     -3.905  0.5939E+01  0.4559E+01  0.2580E+02  0.2565E+02
     -3.854  0.1492E+02  0.1302E+02  0.2656E+02  0.2631E+02
     -3.803  0.1308E+02  0.1422E+02  0.2722E+02  0.2703E+02
     -3.752  0.1650E+02  0.1760E+02  0.2805E+02  0.2792E+02
     -3.702  0.7991E+01  0.7366E+01  0.2846E+02  0.2830E+02
     -3.651  0.2194E+02  0.2065E+02  0.2957E+02  0.2934E+02
     -3.600  0.1646E+02  0.1873E+02  0.3041E+02  0.3029E+02
     -3.550  0.5137E+01  0.7220E+01  0.3067E+02  0.3066E+02
     -3.499  0.7863E+01  0.3417E+01  0.3107E+02  0.3083E+02
     -3.448  0.1477E+02  0.1817E+02  0.3181E+02  0.3175E+02
     -3.398  0.2409E+02  0.1739E+02  0.3304E+02  0.3263E+02
     -3.347  0.1136E+02  0.1646E+02  0.3361E+02  0.3347E+02
     -3.296  0.6050E+01  0.8550E+01  0.3392E+02  0.3390E+02
     -3.246  0.6915E+01  0.6819E+01  0.3427E+02  0.3425E+02
     -3.195  0.1797E+02  0.1613E+02  0.3518E+02  0.3507E+02
     -3.144  0.1604E+02  0.1390E+02  0.3599E+02  0.3577E+02
     -3.094  0.2638E+02  0.2217E+02  0.3733E+02  0.3689E+02
     -3.043  0.9954E+01  0.1554E+02  0.3783E+02  0.3768E+02
     -2.992  0.3395E+01  0.6290E+01  0.3801E+02  0.3800E+02
     -2.941  0.4835E+01  0.4894E+01  0.3825E+02  0.3825E+02
     -2.891  0.1442E+02  0.1087E+02  0.3898E+02  0.3880E+02
     -2.840  0.1352E+02  0.1667E+02  0.3967E+02  0.3964E+02
     -2.789  0.3919E+01  0.3757E+01  0.3987E+02  0.3983E+02
     -2.739  0.5966E+01  0.6454E+01  0.4017E+02  0.4016E+02
     -2.688  0.9674E+01  0.6732E+01  0.4066E+02  0.4050E+02
     -2.637  0.3542E+01  0.6432E+01  0.4084E+02  0.4083E+02
     -2.587  0.1339E+02  0.8694E+01  0.4152E+02  0.4127E+02
     -2.536  0.1413E+02  0.1606E+02  0.4223E+02  0.4208E+02
     -2.485  0.1308E+02  0.1026E+02  0.4290E+02  0.4260E+02
     -2.435  0.1521E+02  0.2024E+02  0.4367E+02  0.4363E+02
     -2.384  0.1741E+00  0.7255E+00  0.4368E+02  0.4367E+02
     -2.333  0.7479E+01  0.5571E+01  0.4405E+02  0.4395E+02
     -2.283  0.1243E+02  0.5580E+01  0.4468E+02  0.4423E+02
     -2.232  0.1400E+02  0.2169E+02  0.4539E+02  0.4533E+02
     -2.181  0.1928E+02  0.1763E+02  0.4637E+02  0.4622E+02
     -2.130  0.1647E+02  0.1095E+02  0.4721E+02  0.4678E+02
     -2.080  0.2306E+02  0.2846E+02  0.4837E+02  0.4822E+02
     -2.029  0.5713E+01  0.7961E+01  0.4866E+02  0.4863E+02
     -1.978  0.1160E+02  0.5622E+01  0.4925E+02  0.4891E+02
     -1.928  0.1033E+02  0.1377E+02  0.4978E+02  0.4961E+02
     -1.877  0.2766E+02  0.2139E+02  0.5118E+02  0.5069E+02
     -1.826  0.1310E+02  0.2158E+02  0.5184E+02  0.5179E+02
     -1.776  0.1081E+02  0.1082E+02  0.5239E+02  0.5234E+02
     -1.725  0.7663E+01  0.5951E+01  0.5278E+02  0.5264E+02
     -1.674  0.2388E+02  0.2401E+02  0.5399E+02  0.5385E+02
     -1.624  0.1734E+02  0.1663E+02  0.5487E+02  0.5470E+02
     -1.573  0.1256E+02  0.1068E+02  0.5550E+02  0.5524E+02
     -1.522  0.1600E+02  0.1686E+02  0.5632E+02  0.5609E+02
     -1.471  0.1283E+02  0.1119E+02  0.5697E+02  0.5666E+02
     -1.421  0.1481E+02  0.1476E+02  0.5772E+02  0.5741E+02
     -1.370  0.1571E+02  0.1890E+02  0.5851E+02  0.5837E+02
     -1.319  0.7263E+01  0.6152E+01  0.5888E+02  0.5868E+02
     -1.269  0.1458E+02  0.1284E+02  0.5962E+02  0.5933E+02
     -1.218  0.1285E+02  0.1657E+02  0.6027E+02  0.6017E+02
     -1.167  0.8098E+01  0.8434E+01  0.6068E+02  0.6060E+02
     -1.117  0.1613E+02  0.1593E+02  0.6150E+02  0.6140E+02
     -1.066  0.1818E+02  0.1497E+02  0.6242E+02  0.6216E+02
     -1.015  0.7945E+01  0.1072E+02  0.6282E+02  0.6271E+02
     -0.965  0.1354E+02  0.9250E+01  0.6351E+02  0.6318E+02
     -0.914  0.1040E+02  0.1622E+02  0.6404E+02  0.6400E+02
     -0.863  0.1146E+02  0.9723E+01  0.6462E+02  0.6449E+02
     -0.813  0.2728E+02  0.2468E+02  0.6600E+02  0.6574E+02
     -0.762  0.8494E+01  0.1302E+02  0.6643E+02  0.6640E+02
     -0.711  0.2975E+01  0.2028E+01  0.6658E+02  0.6650E+02
     -0.660  0.1179E+02  0.6862E+01  0.6718E+02  0.6685E+02
     -0.610  0.4296E+01  0.9686E+01  0.6740E+02  0.6734E+02
     -0.559  0.6925E+01  0.5961E+01  0.6775E+02  0.6765E+02
     -0.508  0.1276E+02  0.1270E+02  0.6840E+02  0.6829E+02
     -0.458  0.2011E+02  0.1620E+02  0.6941E+02  0.6911E+02
     -0.407  0.1619E+02  0.1954E+02  0.7024E+02  0.7010E+02
     -0.356  0.2184E+02  0.1682E+02  0.7134E+02  0.7095E+02
     -0.306  0.1947E+02  0.2252E+02  0.7233E+02  0.7209E+02
     -0.255  0.2070E+02  0.1695E+02  0.7338E+02  0.7295E+02
     -0.204  0.2333E+02  0.2669E+02  0.7456E+02  0.7431E+02
     -0.154  0.1276E+02  0.1277E+02  0.7521E+02  0.7495E+02
     -0.103  0.2161E+02  0.2543E+02  0.7630E+02  0.7624E+02
     -0.052  0.1603E+02  0.1323E+02  0.7712E+02  0.7691E+02
     -0.002  0.1858E+02  0.2037E+02  0.7806E+02  0.7795E+02
      0.049  0.1070E+02  0.1207E+02  0.7860E+02  0.7856E+02
      0.100  0.2104E+02  0.2169E+02  0.7967E+02  0.7966E+02
      0.151  0.5065E+00  0.1686E+00  0.7969E+02  0.7967E+02
      0.201  0.9270E+01  0.7813E+01  0.8016E+02  0.8006E+02
      0.252  0.4713E+01  0.3796E+01  0.8040E+02  0.8026E+02
      0.303  0.1853E+02  0.2085E+02  0.8134E+02  0.8131E+02
      0.353  0.6819E+01  0.5869E+01  0.8169E+02  0.8161E+02
      0.404  0.9479E+01  0.1075E+02  0.8217E+02  0.8216E+02
      0.455  0.8747E+01  0.1107E+01  0.8261E+02  0.8221E+02
      0.505  0.1795E+02  0.2340E+02  0.8352E+02  0.8340E+02
      0.556  0.7825E+01  0.9626E+01  0.8392E+02  0.8389E+02
      0.607  0.1191E+02  0.4216E+01  0.8452E+02  0.8410E+02
      0.657  0.9867E+01  0.1358E+02  0.8502E+02  0.8479E+02
      0.708  0.1240E+02  0.1428E+02  0.8565E+02  0.8551E+02
      0.759  0.6951E+01  0.6094E+01  0.8600E+02  0.8582E+02
      0.809  0.1455E+02  0.1478E+02  0.8674E+02  0.8657E+02
      0.860  0.1748E+02  0.1131E+02  0.8762E+02  0.8714E+02
      0.911  0.2254E+02  0.2342E+02  0.8877E+02  0.8833E+02
      0.962  0.1734E+02  0.2096E+02  0.8965E+02  0.8939E+02
      1.012  0.2024E+02  0.1624E+02  0.9067E+02  0.9021E+02
      1.063  0.2517E+02  0.3078E+02  0.9195E+02  0.9178E+02
      1.114  0.8843E+01  0.7035E+01  0.9240E+02  0.9213E+02
      1.164  0.1833E+02  0.1461E+02  0.9332E+02  0.9287E+02
      1.215  0.1156E+02  0.1742E+02  0.9391E+02  0.9375E+02
      1.266  0.2042E+02  0.2177E+02  0.9495E+02  0.9486E+02
      1.316  0.4350E+01  0.6080E+01  0.9517E+02  0.9517E+02
      1.367  0.1093E+02  0.6021E+01  0.9572E+02  0.9547E+02
      1.418  0.2608E+02  0.2794E+02  0.9704E+02  0.9689E+02
      1.468  0.1061E+02  0.6415E+01  0.9758E+02  0.9721E+02
      1.519  0.1174E+02  0.1880E+02  0.9818E+02  0.9817E+02
      1.570  0.7732E+01  0.4322E+01  0.9857E+02  0.9839E+02
      1.621  0.2479E+02  0.1604E+02  0.9982E+02  0.9920E+02
      1.671  0.3085E+02  0.2951E+02  0.1014E+03  0.1007E+03
      1.722  0.1391E+02  0.2651E+02  0.1021E+03  0.1020E+03
      1.773  0.1415E+02  0.1318E+02  0.1028E+03  0.1027E+03
      1.823  0.3812E+02  0.3268E+02  0.1047E+03  0.1044E+03
      1.874  0.1015E+02  0.1404E+02  0.1053E+03  0.1051E+03
      1.925  0.2489E+02  0.2340E+02  0.1065E+03  0.1063E+03
      1.975  0.2320E+02  0.2047E+02  0.1077E+03  0.1073E+03
      2.026  0.2755E+02  0.3000E+02  0.1091E+03  0.1088E+03
      2.077  0.2815E+02  0.2391E+02  0.1105E+03  0.1100E+03
      2.127  0.3011E+02  0.2856E+02  0.1120E+03  0.1115E+03
      2.178  0.2200E+02  0.2939E+02  0.1132E+03  0.1130E+03
      2.229  0.2714E+02  0.2478E+02  0.1145E+03  0.1142E+03
      2.279  0.2660E+02  0.2391E+02  0.1159E+03  0.1154E+03
      2.330  0.1780E+02  0.1658E+02  0.1168E+03  0.1163E+03
      2.381  0.2525E+02  0.2955E+02  0.1181E+03  0.1178E+03
      2.432  0.2254E+02  0.1637E+02  0.1192E+03  0.1186E+03
      2.482  0.1517E+02  0.2010E+02  0.1200E+03  0.1196E+03
      2.533  0.2996E+02  0.2636E+02  0.1215E+03  0.1210E+03
      2.584  0.3287E+02  0.3963E+02  0.1232E+03  0.1230E+03
      2.634  0.9692E+01  0.6730E+01  0.1237E+03  0.1233E+03
      2.685  0.2848E+02  0.2329E+02  0.1251E+03  0.1245E+03
      2.736  0.2432E+02  0.2162E+02  0.1263E+03  0.1256E+03
      2.786  0.3566E+02  0.4230E+02  0.1281E+03  0.1277E+03
      2.837  0.2640E+02  0.2638E+02  0.1295E+03  0.1291E+03
      2.888  0.2654E+02  0.2480E+02  0.1308E+03  0.1303E+03
      2.938  0.2529E+02  0.3150E+02  0.1321E+03  0.1319E+03
      2.989  0.3176E+02  0.3205E+02  0.1337E+03  0.1335E+03
      3.040  0.3314E+02  0.2270E+02  0.1354E+03  0.1347E+03
      3.090  0.2032E+02  0.2836E+02  0.1364E+03  0.1361E+03
      3.141  0.3028E+02  0.2862E+02  0.1380E+03  0.1376E+03
      3.192  0.2675E+02  0.2539E+02  0.1393E+03  0.1389E+03
      3.243  0.2400E+02  0.2107E+02  0.1405E+03  0.1399E+03
      3.293  0.2084E+02  0.2895E+02  0.1416E+03  0.1414E+03
      3.344  0.2907E+02  0.2170E+02  0.1431E+03  0.1425E+03
      3.395  0.1542E+02  0.2327E+02  0.1438E+03  0.1437E+03
      3.445  0.3387E+02  0.2106E+02  0.1456E+03  0.1448E+03
      3.496  0.3085E+02  0.3749E+02  0.1471E+03  0.1467E+03
      3.547  0.2754E+02  0.2689E+02  0.1485E+03  0.1480E+03
      3.597  0.2388E+02  0.1999E+02  0.1497E+03  0.1490E+03
      3.648  0.2223E+02  0.2819E+02  0.1509E+03  0.1505E+03
      3.699  0.3098E+02  0.2575E+02  0.1524E+03  0.1518E+03
      3.749  0.1855E+02  0.2324E+02  0.1534E+03  0.1529E+03
      3.800  0.3467E+02  0.3166E+02  0.1551E+03  0.1545E+03
      3.851  0.2097E+02  0.2412E+02  0.1562E+03  0.1558E+03
      3.902  0.2551E+02  0.2899E+02  0.1575E+03  0.1572E+03
      3.952  0.2265E+02  0.1635E+02  0.1586E+03  0.1581E+03
      4.003  0.2404E+02  0.2810E+02  0.1598E+03  0.1595E+03
      4.054  0.3457E+02  0.2500E+02  0.1616E+03  0.1608E+03
      4.104  0.1806E+02  0.2525E+02  0.1625E+03  0.1620E+03
      4.155  0.3678E+02  0.3824E+02  0.1644E+03  0.1640E+03
      4.206  0.2209E+02  0.2134E+02  0.1655E+03  0.1651E+03
      4.256  0.2674E+02  0.2448E+02  0.1669E+03  0.1663E+03
      4.307  0.2518E+02  0.2359E+02  0.1681E+03  0.1675E+03
      4.358  0.3479E+02  0.3055E+02  0.1699E+03  0.1690E+03
      4.408  0.2089E+02  0.3085E+02  0.1710E+03  0.1706E+03
      4.459  0.2923E+02  0.2569E+02  0.1724E+03  0.1719E+03
      4.510  0.3243E+02  0.3274E+02  0.1741E+03  0.1736E+03
      4.560  0.2633E+02  0.2209E+02  0.1754E+03  0.1747E+03
      4.611  0.2197E+02  0.2192E+02  0.1765E+03  0.1758E+03
      4.662  0.2241E+02  0.2619E+02  0.1777E+03  0.1771E+03
      4.713  0.2715E+02  0.2523E+02  0.1790E+03  0.1784E+03
      4.763  0.2218E+02  0.2212E+02  0.1802E+03  0.1795E+03
      4.814  0.2379E+02  0.2924E+02  0.1814E+03  0.1810E+03
      4.865  0.1877E+02  0.1483E+02  0.1823E+03  0.1818E+03
      4.915  0.3702E+02  0.2705E+02  0.1842E+03  0.1831E+03
      4.966  0.1613E+02  0.3095E+02  0.1850E+03  0.1847E+03
      5.017  0.4288E+02  0.2116E+02  0.1872E+03  0.1858E+03
      5.067  0.1622E+02  0.3750E+02  0.1880E+03  0.1877E+03
      5.118  0.2616E+02  0.1769E+02  0.1893E+03  0.1886E+03
      5.169  0.4135E+02  0.3011E+02  0.1914E+03  0.1901E+03
      5.219  0.3025E+02  0.3673E+02  0.1930E+03  0.1920E+03
      5.270  0.2506E+02  0.3525E+02  0.1942E+03  0.1937E+03
      5.321  0.2859E+02  0.2240E+02  0.1957E+03  0.1949E+03
      5.371  0.3212E+02  0.3393E+02  0.1973E+03  0.1966E+03
      5.422  0.3310E+02  0.3109E+02  0.1990E+03  0.1982E+03
      5.473  0.2364E+02  0.2316E+02  0.2002E+03  0.1994E+03
      5.524  0.3806E+02  0.4007E+02  0.2021E+03  0.2014E+03
      5.574  0.1529E+02  0.2093E+02  0.2029E+03  0.2024E+03
      5.625  0.2759E+02  0.1604E+02  0.2043E+03  0.2033E+03
      5.676  0.2498E+02  0.3575E+02  0.2056E+03  0.2051E+03
      5.726  0.3257E+02  0.2740E+02  0.2072E+03  0.2065E+03
      5.777  0.2099E+02  0.2387E+02  0.2083E+03  0.2077E+03
      5.828  0.2254E+02  0.1820E+02  0.2094E+03  0.2086E+03
      5.878  0.2782E+02  0.3557E+02  0.2108E+03  0.2104E+03
      5.929  0.3924E+02  0.2474E+02  0.2128E+03  0.2116E+03
      5.980  0.2591E+02  0.3774E+02  0.2141E+03  0.2136E+03
      6.030  0.1377E+02  0.1981E+02  0.2148E+03  0.2146E+03
      6.081  0.2927E+02  0.2511E+02  0.2163E+03  0.2158E+03
      6.132  0.2355E+02  0.2411E+02  0.2175E+03  0.2171E+03
      6.182  0.3750E+02  0.3445E+02  0.2194E+03  0.2188E+03
      6.233  0.3204E+02  0.3185E+02  0.2210E+03  0.2204E+03
      6.284  0.3258E+02  0.2771E+02  0.2227E+03  0.2218E+03
      6.335  0.3280E+02  0.4025E+02  0.2243E+03  0.2239E+03
      6.385  0.2457E+02  0.2927E+02  0.2256E+03  0.2253E+03
      6.436  0.3257E+02  0.2018E+02  0.2272E+03  0.2264E+03
      6.487  0.1725E+02  0.3058E+02  0.2281E+03  0.2279E+03
      6.537  0.2922E+02  0.2122E+02  0.2296E+03  0.2290E+03
      6.588  0.3237E+02  0.3242E+02  0.2312E+03  0.2306E+03
      6.639  0.1006E+02  0.1795E+02  0.2317E+03  0.2316E+03
      6.689  0.3876E+01  0.3982E+01  0.2319E+03  0.2318E+03
      6.740  0.1199E+01  0.4871E+01  0.2320E+03  0.2320E+03
      6.791  0.0000E+00  0.0000E+00  0.2320E+03  0.2320E+03
      6.841  0.0000E+00  0.0000E+00  0.2320E+03  0.2320E+03
      6.892  0.0000E+00  0.0000E+00  0.2320E+03  0.2320E+03
      6.943  0.0000E+00  0.0000E+00  0.2320E+03  0.2320E+03
      6.994  0.0000E+00  0.0000E+00  0.2320E+03  0.2320E+03
      7.044  0.0000E+00  0.0000E+00  0.2320E+03  0.2320E+03
      7.095  0.0000E+00  0.0000E+00  0.2320E+03  0.2320E+03
      7.146  0.0000E+00  0.0000E+00  0.2320E+03  0.2320E+03
      7.196  0.0000E+00  0.0000E+00  0.2320E+03  0.2320E+03
      7.247  0.0000E+00  0.0000E+00  0.2320E+03  0.2320E+03
      7.298  0.0000E+00  0.0000E+00  0.2320E+03  0.2320E+03
      7.348  0.0000E+00  0.0000E+00  0.2320E+03  0.2320E+03
      7.399  0.0000E+00  0.0000E+00  0.2320E+03  0.2320E+03
