<?xml version="1.0" encoding="ISO-8859-1"?>
<modeling>
 <generator>
  <i name="program" type="string">vasp </i>
  <i name="version" type="string">6.4.3  </i>
  <i name="subversion" type="string">19Mar24 (build Oct 22 2024 11:23:12) complex                          parallel </i>
  <i name="platform" type="string">LinuxIFC </i>
  <i name="date" type="string">2025 06 08 </i>
  <i name="time" type="string">23:57:14 </i>
 </generator>
 <incar>
  <i type="string" name="SYSTEM">Si and Ge interface calculation</i>
  <i type="int" name="ISTART">     0</i>
  <i type="logical" name="ADDGRID"> T  </i>
  <i type="int" name="ISPIN">     2</i>
  <i name="AMIX">      0.60000000</i>
  <i type="int" name="ICHARG">     2</i>
  <i type="int" name="NELM">   100</i>
  <i name="EDIFF">      0.00000010</i>
  <i name="ENCUT">    700.00000000</i>
  <i name="ENAUG">    900.00000000</i>
  <i type="int" name="NBANDS">   404</i>
  <i name="NUPDOWN">      1.00000000</i>
  <i name="NELECT">    672.00000000</i>
  <i type="string" name="LREAL">AUTO</i>
  <i type="int" name="ISMEAR">     0</i>
  <i name="SIGMA">      0.01000000</i>
  <i type="int" name="LMAXMIX">     6</i>
  <i type="logical" name="LWAVE"> F  </i>
  <i type="logical" name="LVTOT"> F  </i>
  <i type="logical" name="LVHAR"> T  </i>
  <i type="logical" name="LASPH"> T  </i>
  <i type="logical" name="LMIXTAU"> T  </i>
 </incar>
 <primitive_cell>
  <structure name="primitive_cell" >
   <crystal>
    <varray name="basis" >
     <v>      -4.00066900      -6.92936230       0.00000000 </v>
     <v>       8.00133700       0.00000083       0.00000000 </v>
     <v>       0.00000000       0.00000000      20.30401230 </v>
    </varray>
    <i name="volume">   1125.73889812 </i>
    <varray name="rec_basis" >
     <v>       0.00000001      -0.14431343       0.00000000 </v>
     <v>       0.12497912      -0.07215673       0.00000000 </v>
     <v>       0.00000000       0.00000000       0.04925135 </v>
    </varray>
   </crystal>
   <varray name="positions" >
    <v>       0.37823375       0.62176656       0.32176235 </v>
    <v>       0.04490011       0.95510018       0.00000000 </v>
    <v>       0.71156690       0.28843319       0.16088118 </v>
    <v>       0.04490065       0.95509976       0.36198267 </v>
    <v>       0.71156681       0.28843343       0.04022033 </v>
    <v>       0.37823357       0.62176644       0.20110145 </v>
    <v>       0.87823378       0.12176654       0.32176235 </v>
    <v>       0.54490002       0.45510011       0.00000003 </v>
    <v>       0.21156696       0.78843340       0.16088121 </v>
    <v>       0.54490035       0.45509979       0.36198264 </v>
    <v>       0.21156684       0.78843340       0.04022027 </v>
    <v>       0.87823375       0.12176654       0.20110145 </v>
    <v>       0.87823372       0.62176644       0.32176235 </v>
    <v>       0.54490008       0.95510024       0.00000003 </v>
    <v>       0.21156696       0.28843328       0.16088118 </v>
    <v>       0.54490041       0.95509964       0.36198261 </v>
    <v>       0.21156684       0.28843328       0.04022029 </v>
    <v>       0.87823369       0.62176644       0.20110145 </v>
    <v>       0.37823381       0.12176642       0.32176235 </v>
    <v>       0.04490005       0.45510008       0.00000003 </v>
    <v>       0.71156702       0.78843334       0.16088118 </v>
    <v>       0.04490035       0.45509943       0.36198267 </v>
    <v>       0.71156666       0.78843352       0.04022032 </v>
    <v>       0.37823327       0.12176657       0.20110148 </v>
    <v>       0.87421375       0.44620215       0.47340384 </v>
    <v>       0.87421383       0.11286911       0.65792608 </v>
    <v>       0.87421379       0.77953585       0.84244823 </v>
    <v>       0.54088054       0.77953556       0.47340384 </v>
    <v>       0.54088026       0.44620230       0.65792602 </v>
    <v>       0.54088034       0.11286923       0.84244823 </v>
    <v>       0.20754732       0.11286899       0.47340381 </v>
    <v>       0.20754728       0.77953556       0.65792602 </v>
    <v>       0.20754724       0.44620230       0.84244823 </v>
    <v>       0.87421383       0.11286899       0.51953429 </v>
    <v>       0.87421379       0.77953585       0.70405662 </v>
    <v>       0.87421375       0.44620230       0.88857889 </v>
    <v>       0.54088026       0.44620188       0.51953441 </v>
    <v>       0.54088034       0.11286887       0.70405662 </v>
    <v>       0.54088054       0.77953562       0.88857889 </v>
    <v>       0.20754728       0.77953556       0.51953435 </v>
    <v>       0.20754724       0.44620230       0.70405656 </v>
    <v>       0.20754732       0.11286947       0.88857883 </v>
   </varray>
  </structure>
  <varray name="primitive_index" >
   <v type="int" >        1 </v>
   <v type="int" >       11 </v>
   <v type="int" >       12 </v>
   <v type="int" >       13 </v>
   <v type="int" >       14 </v>
   <v type="int" >       24 </v>
   <v type="int" >       31 </v>
   <v type="int" >       26 </v>
   <v type="int" >       36 </v>
   <v type="int" >       46 </v>
   <v type="int" >       38 </v>
   <v type="int" >       42 </v>
   <v type="int" >       55 </v>
   <v type="int" >       53 </v>
   <v type="int" >       60 </v>
   <v type="int" >       67 </v>
   <v type="int" >       62 </v>
   <v type="int" >       66 </v>
   <v type="int" >       73 </v>
   <v type="int" >       80 </v>
   <v type="int" >       84 </v>
   <v type="int" >       88 </v>
   <v type="int" >       86 </v>
   <v type="int" >       93 </v>
   <v type="int" >      133 </v>
   <v type="int" >      134 </v>
   <v type="int" >       99 </v>
   <v type="int" >      115 </v>
   <v type="int" >      152 </v>
   <v type="int" >      153 </v>
   <v type="int" >      139 </v>
   <v type="int" >      104 </v>
   <v type="int" >      141 </v>
   <v type="int" >      142 </v>
   <v type="int" >      107 </v>
   <v type="int" >      144 </v>
   <v type="int" >      160 </v>
   <v type="int" >      161 </v>
   <v type="int" >      126 </v>
   <v type="int" >      112 </v>
   <v type="int" >      149 </v>
   <v type="int" >      150 </v>
  </varray>
 </primitive_cell>
 <kpoints>
  <generation param="Gamma">
   <v type="int" name="divisions">       2        2        2 </v>
   <v name="usershift">      0.00000000       0.00000000       0.00000000 </v>
   <v name="genvec1">      0.50000000       0.00000000       0.00000000 </v>
   <v name="genvec2">      0.00000000       0.50000000       0.00000000 </v>
   <v name="genvec3">      0.00000000       0.00000000       0.50000000 </v>
   <v name="shift">      0.00000000       0.00000000       0.00000000 </v>
  </generation>
  <varray name="kpointlist" >
   <v>       0.00000000       0.00000000       0.00000000 </v>
   <v>       0.50000000      -0.00000000       0.00000000 </v>
   <v>       0.50000000       0.50000000       0.00000000 </v>
   <v>       0.00000000       0.50000000       0.00000000 </v>
   <v>       0.00000000       0.00000000       0.50000000 </v>
   <v>       0.50000000      -0.00000000       0.50000000 </v>
   <v>       0.50000000       0.50000000       0.50000000 </v>
   <v>       0.00000000       0.50000000       0.50000000 </v>
  </varray>
  <varray name="weights" >
   <v>       0.12500000 </v>
   <v>       0.12500000 </v>
   <v>       0.12500000 </v>
   <v>       0.12500000 </v>
   <v>       0.12500000 </v>
   <v>       0.12500000 </v>
   <v>       0.12500000 </v>
   <v>       0.12500000 </v>
  </varray>
 </kpoints>
 <parameters>
  <separator name="general" >
   <i type="string" name="SYSTEM">Si and Ge interface calculation</i>
   <i type="logical" name="LCOMPAT"> F  </i>
  </separator>
  <separator name="electronic" >
   <i type="string" name="PREC">normal</i>
   <i name="ENMAX">    700.00000000</i>
   <i name="ENAUG">    900.00000000</i>
   <i name="EDIFF">      0.00000010</i>
   <i type="int" name="IALGO">    38</i>
   <i type="int" name="IWAVPR">    10</i>
   <i type="int" name="NBANDS">   404</i>
   <i type="int" name="NBANDSLOW">    -1</i>
   <i type="int" name="NBANDSHIGH">    -1</i>
   <i name="NELECT">    672.00000000</i>
   <i type="int" name="TURBO">     0</i>
   <i type="int" name="IRESTART">     0</i>
   <i type="int" name="NREBOOT">     0</i>
   <i type="int" name="NMIN">     0</i>
   <i name="EREF">      0.00000000</i>
   <separator name="electronic smearing" >
    <i type="int" name="ISMEAR">     0</i>
    <i name="SIGMA">      0.01000000</i>
    <i name="KSPACING">      0.50000000</i>
    <i type="logical" name="KGAMMA"> T  </i>
    <i type="logical" name="KBLOWUP"> T  </i>
   </separator>
   <separator name="electronic projectors" >
    <i type="logical" name="LREAL"> T  </i>
    <v name="ROPT">     -0.00050000     -0.00050000</v>
    <i type="int" name="LMAXPAW">  -100</i>
    <i type="int" name="LMAXMIX">     6</i>
    <i type="logical" name="NLSPLINE"> F  </i>
   </separator>
   <separator name="electronic startup" >
    <i type="int" name="ISTART">     0</i>
    <i type="int" name="ICHARG">     2</i>
    <i type="int" name="INIWAV">     1</i>
   </separator>
   <separator name="electronic spin" >
    <i type="int" name="ISPIN">     2</i>
    <i type="logical" name="LNONCOLLINEAR"> F  </i>
    <v name="MAGMOM">      0.00595238      0.00595238      0.00595238      0.00595238      0.00595238      0.00595238      0.00595238      0.00595238      0.00595238      0.00595238      0.00595238      0.00595238      0.00595238      0.00595238      0.00595238      0.00595238      0.00595238      0.00595238      0.00595238      0.00595238
      0.00595238      0.00595238      0.00595238      0.00595238      0.00595238      0.00595238      0.00595238      0.00595238      0.00595238      0.00595238      0.00595238      0.00595238      0.00595238      0.00595238      0.00595238      0.00595238      0.00595238      0.00595238      0.00595238      0.00595238
      0.00595238      0.00595238      0.00595238      0.00595238      0.00595238      0.00595238      0.00595238      0.00595238      0.00595238      0.00595238      0.00595238      0.00595238      0.00595238      0.00595238      0.00595238      0.00595238      0.00595238      0.00595238      0.00595238      0.00595238
      0.00595238      0.00595238      0.00595238      0.00595238      0.00595238      0.00595238      0.00595238      0.00595238      0.00595238      0.00595238      0.00595238      0.00595238      0.00595238      0.00595238      0.00595238      0.00595238      0.00595238      0.00595238      0.00595238      0.00595238
      0.00595238      0.00595238      0.00595238      0.00595238      0.00595238      0.00595238      0.00595238      0.00595238      0.00595238      0.00595238      0.00595238      0.00595238      0.00595238      0.00595238      0.00595238      0.00595238      0.00595238      0.00595238      0.00595238      0.00595238
      0.00595238      0.00595238      0.00595238      0.00595238      0.00595238      0.00595238      0.00595238      0.00595238      0.00595238      0.00595238      0.00595238      0.00595238      0.00595238      0.00595238      0.00595238      0.00595238      0.00595238      0.00595238      0.00595238      0.00595238
      0.00595238      0.00595238      0.00595238      0.00595238      0.00595238      0.00595238      0.00595238      0.00595238      0.00595238      0.00595238      0.00595238      0.00595238      0.00595238      0.00595238      0.00595238      0.00595238      0.00595238      0.00595238      0.00595238      0.00595238
      0.00595238      0.00595238      0.00595238      0.00595238      0.00595238      0.00595238      0.00595238      0.00595238      0.00595238      0.00595238      0.00595238      0.00595238      0.00595238      0.00595238      0.00595238      0.00595238      0.00595238      0.00595238      0.00595238      0.00595238
      0.00595238      0.00595238      0.00595238      0.00595238      0.00595238      0.00595238      0.00595238      0.00595238</v>
    <i name="NUPDOWN">      1.00000000</i>
    <i type="logical" name="LSORBIT"> F  </i>
    <v name="SAXIS">      0.00000000      0.00000000      1.00000000</v>
    <i type="logical" name="LSPIRAL"> F  </i>
    <v name="QSPIRAL">      0.00000000      0.00000000      0.00000000</v>
    <i type="logical" name="LZEROZ"> F  </i>
   </separator>
   <separator name="electronic exchange-correlation" >
    <i type="logical" name="LASPH"> T  </i>
   </separator>
   <separator name="electronic convergence" >
    <i type="int" name="NELM">   100</i>
    <i type="int" name="NELMDL">    -5</i>
    <i type="int" name="NELMIN">     2</i>
    <i name="ENINI">    700.00000000</i>
    <separator name="electronic convergence detail" >
     <i type="logical" name="LDIAG"> T  </i>
     <i type="logical" name="LSUBROT"> F  </i>
     <i name="WEIMIN">      0.00000000</i>
     <i name="EBREAK">      0.00000000</i>
     <i name="DEPER">      0.30000000</i>
     <i type="int" name="NRMM">     4</i>
     <i name="TIME">      0.40000000</i>
    </separator>
   </separator>
   <separator name="electronic mixer" >
    <i name="AMIX">      0.60000000</i>
    <i name="BMIX">      1.00000000</i>
    <i name="AMIN">      0.10000000</i>
    <i name="AMIX_MAG">      2.40000000</i>
    <i name="BMIX_MAG">      1.00000000</i>
    <separator name="electronic mixer details" >
     <i type="int" name="IMIX">     4</i>
     <i type="logical" name="MIXFIRST"> F  </i>
     <i type="int" name="MAXMIX">   -45</i>
     <i name="WC">    100.00000000</i>
     <i type="int" name="INIMIX">     1</i>
     <i type="int" name="MIXPRE">     1</i>
     <i type="int" name="MREMOVE">     5</i>
    </separator>
   </separator>
   <separator name="electronic dipolcorrection" >
    <i type="logical" name="LDIPOL"> F  </i>
    <i type="logical" name="LMONO"> F  </i>
    <i type="int" name="IDIPOL">     0</i>
    <i name="EPSILON">      1.00000000</i>
    <v name="DIPOL">   -100.00000000   -100.00000000   -100.00000000</v>
    <i name="EFIELD">      0.00000000</i>
    <i type="logical" name="LVACPOTAV"> F  </i>
   </separator>
  </separator>
  <separator name="grids" >
   <i type="int" name="NGX">   108</i>
   <i type="int" name="NGY">   108</i>
   <i type="int" name="NGZ">   140</i>
   <i type="int" name="NGXF">   216</i>
   <i type="int" name="NGYF">   216</i>
   <i type="int" name="NGZF">   280</i>
   <i type="logical" name="ADDGRID"> T  </i>
  </separator>
  <separator name="ionic" >
   <i type="int" name="NSW">     0</i>
   <i type="int" name="IBRION">    -1</i>
   <i type="int" name="MDALGO">     0</i>
   <i type="int" name="ISIF">     2</i>
   <i name="PSTRESS">      0.00000000</i>
   <i name="EDIFFG">      0.00000100</i>
   <i type="int" name="NFREE">     0</i>
   <i name="POTIM">      0.50000000</i>
   <i name="SMASS">     -3.00000000</i>
   <i name="SCALEE">      1.00000000</i>
  </separator>
  <separator name="ionic md" >
   <i name="TEBEG">      0.00010000</i>
   <i name="TEEND">      0.00010000</i>
   <i type="int" name="NBLOCK">     1</i>
   <i type="int" name="KBLOCK">     1</i>
   <i type="int" name="NPACO">   256</i>
   <i name="APACO">     10.00000000</i>
  </separator>
  <separator name="symmetry" >
   <i type="int" name="ISYM">     2</i>
   <i name="SYMPREC">      0.00001000</i>
  </separator>
  <separator name="dos" >
   <i type="int" name="LORBIT">     0</i>
   <v name="RWIGS">     -1.00000000     -1.00000000</v>
   <i type="int" name="NEDOS">   301</i>
   <i name="EMIN">     10.00000000</i>
   <i name="EMAX">    -10.00000000</i>
   <i name="EFERMI">      0.00000000</i>
  </separator>
  <separator name="writing" >
   <i type="int" name="NWRITE">     2</i>
   <i type="logical" name="LWAVE"> F  </i>
   <i type="logical" name="LDOWNSAMPLE"> F  </i>
   <i type="logical" name="LCHARG"> T  </i>
   <i type="logical" name="LPARD"> F  </i>
   <i type="logical" name="LVTOT"> F  </i>
   <i type="logical" name="LVHAR"> T  </i>
   <i type="logical" name="LELF"> F  </i>
   <i type="logical" name="LOPTICS"> F  </i>
   <v name="STM">      0.00000000      0.00000000      0.00000000      0.00000000      0.00000000      0.00000000      0.00000000</v>
  </separator>
  <separator name="performance" >
   <i type="int" name="NPAR">     4</i>
   <i type="int" name="NSIM">     4</i>
   <i type="int" name="NBLK">    -1</i>
   <i type="logical" name="LPLANE"> T  </i>
   <i type="logical" name="LSCALAPACK"> T  </i>
   <i type="logical" name="LSCAAWARE"> F  </i>
   <i type="logical" name="LSCALU"> F  </i>
   <i type="logical" name="LASYNC"> F  </i>
   <i type="logical" name="LORBITALREAL"> F  </i>
  </separator>
  <separator name="miscellaneous" >
   <i type="int" name="IDIOT">     3</i>
   <i type="int" name="PHON_NSTRUCT">    -1</i>
   <i type="logical" name="LMUSIC"> F  </i>
   <v name="POMASS">     72.61000000    118.71000000</v>
   <v name="DARWINR">      0.00000000      0.00000000</v>
   <v name="DARWINV">      1.00000000      1.00000000</v>
   <i type="logical" name="LCORR"> T  </i>
  </separator>
  <i type="logical" name="GGA_COMPAT"> T  </i>
  <i type="logical" name="LBERRY"> F  </i>
  <i type="int" name="ICORELEVEL">     0</i>
  <i type="logical" name="LDAU"> F  </i>
  <i type="int" name="I_CONSTRAINED_M">     0</i>
  <separator name="electronic exchange-correlation" >
   <i type="string" name="GGA    ">PE</i>
   <i type="string" name="XC_C">1</i>
   <i type="int" name="VOSKOWN">     0</i>
   <i type="logical" name="LHFCALC"> F  </i>
   <i type="string" name="PRECFOCK"></i>
   <i type="logical" name="LSYMGRAD"> F  </i>
   <i type="logical" name="LHFONE"> F  </i>
   <i type="logical" name="LRHFCALC"> F  </i>
   <i type="logical" name="LTHOMAS"> F  </i>
   <i type="logical" name="LMODELHF"> F  </i>
   <i type="logical" name="LFOCKACE"> F  </i>
   <i name="ENCUT4O">     -1.00000000</i>
   <i type="int" name="EXXOEP">     0</i>
   <i type="int" name="FOURORBIT">     0</i>
   <i name="AEXX">      0.00000000</i>
   <i name="HFALPHA">      0.00000000</i>
   <i name="MCALPHA">      0.00000000</i>
   <i name="ALDAX">      1.00000000</i>
   <i name="AGGAX">      1.00000000</i>
   <i name="AMGGAX">      1.00000000</i>
   <i name="ALDAC">      1.00000000</i>
   <i name="AGGAC">      1.00000000</i>
   <i name="AMGGAC">      1.00000000</i>
   <i type="int" name="NKREDX">     1</i>
   <i type="int" name="NKREDY">     1</i>
   <i type="int" name="NKREDZ">     1</i>
   <i type="logical" name="SHIFTRED"> F  </i>
   <i type="logical" name="ODDONLY"> F  </i>
   <i type="logical" name="EVENONLY"> F  </i>
   <i type="int" name="LMAXFOCK">     0</i>
   <i type="int" name="NMAXFOCKAE">     0</i>
   <i type="logical" name="LFOCKAEDFT"> F  </i>
   <i name="HFSCREEN">      0.00000000</i>
   <i name="HFSCREENC">      0.00000000</i>
   <i type="int" name="NBANDSGWLOW">     0</i>
  </separator>
  <separator name="vdW DFT" >
   <i type="logical" name="LUSE_VDW"> F  </i>
   <i type="int" name="IVDW_NL">    -1</i>
   <i type="logical" name="LSPIN_VDW"> F  </i>
   <i name="ZAB_VDW">     -0.84910000</i>
   <i name="GAMMA_VDW">      1.39626340</i>
   <i name="ALPHA_VDW">      0.00000000</i>
   <i name="PARAM1">      0.12340000</i>
   <i name="PARAM2">      1.00000000</i>
   <i name="BPARAM">      6.30000000</i>
   <i name="CPARAM">      0.00930000</i>
  </separator>
  <separator name="model GW" >
   <i type="int" name="MODEL_GW">     0</i>
   <i name="MODEL_EPS0">     16.08198725</i>
   <i name="MODEL_ALPHA">      1.00000000</i>
  </separator>
  <separator name="linear response parameters" >
   <i type="logical" name="LEPSILON"> F  </i>
   <i type="logical" name="LRPA"> F  </i>
   <i type="logical" name="LNABLA"> F  </i>
   <i type="logical" name="LVEL"> F  </i>
   <i name="CSHIFT">      0.10000000</i>
   <i name="OMEGAMAX">     -1.00000000</i>
   <i name="DEG_THRESHOLD">      0.00200000</i>
   <i name="RTIME">     -0.10000000</i>
   <i name="WPLASMAI">      0.00000000</i>
   <v name="DFIELD">      0.00000000      0.00000000      0.00000000</v>
   <v name="WPLASMA">      0.00000000      0.00000000      0.00000000      0.00000000      0.00000000      0.00000000      0.00000000      0.00000000      0.00000000</v>
  </separator>
  <separator name="orbital magnetization" >
   <i type="logical" name="NUCIND"> F  </i>
   <v name="MAGPOS">      0.00000000      0.00000000      0.00000000</v>
   <i type="logical" name="LNICSALL"> T  </i>
   <i type="logical" name="ORBITALMAG"> F  </i>
   <i type="logical" name="LMAGBLOCH"> F  </i>
   <i type="logical" name="LCHIMAG"> F  </i>
   <i type="logical" name="LGAUGE"> T  </i>
   <i type="int" name="MAGATOM">     0</i>
   <v name="MAGDIPOL">      0.00000000      0.00000000      0.00000000</v>
   <v name="AVECCONST">      0.00000000      0.00000000      0.00000000</v>
  </separator>
  <separator name="response functions" >
   <i type="logical" name="LALL_IN_ONE"> F  </i>
   <i type="int" name="IALL_IN_ONE">    -1</i>
   <i type="int" name="NBANDS_WAVE">    -1</i>
   <i type="logical" name="LFINITE_TEMPERATURE"> F  </i>
   <i type="logical" name="LADDER"> F  </i>
   <i type="logical" name="LRPAFORCE"> F  </i>
   <i type="logical" name="LFXC"> F  </i>
   <i type="logical" name="LHARTREE"> T  </i>
   <i type="int" name="IBSE">     0</i>
   <v type="int" name="KPOINT">    -1     0     0     0</v>
   <i type="logical" name="LTCTC"> F  </i>
   <i type="logical" name="LTCTE"> F  </i>
   <i type="logical" name="LTETE"> F  </i>
   <i type="logical" name="LTRIPLET"> F  </i>
   <i type="logical" name="LFXCEPS"> F  </i>
   <i type="logical" name="LFXHEG"> F  </i>
   <i type="int" name="NATURALO">     2</i>
   <i type="logical" name="LHOLEGF"> F  </i>
   <i type="logical" name="L2ORDER"> F  </i>
   <i type="logical" name="LDMP1"> F  </i>
   <i type="logical" name="LMP2LT"> F  </i>
   <i type="logical" name="LSMP2LT"> F  </i>
   <i type="logical" name="LGWLF"> F  </i>
   <i name="ENCUTGW">     -1.60000002</i>
   <i name="ENCUTGWSOFT">     -1.60000002</i>
   <i name="ENCUTLF">     -1.00000000</i>
   <i type="logical" name="ESF_SPLINES"> F  </i>
   <i name="ESF_CONV">      0.01000000</i>
   <i type="int" name="ESF_NINTER">    15</i>
   <i type="int" name="LMAXMP2">    -1</i>
   <i name="SCISSOR">      0.00000000</i>
   <i type="int" name="NOMEGA">     0</i>
   <i type="int" name="NOMEGAR">     0</i>
   <i type="int" name="NBANDSGW">    -1</i>
   <i type="int" name="NBANDSO">    -1</i>
   <i type="int" name="NBANDSV">    -1</i>
   <i type="int" name="NELMGW">     1</i>
   <i type="int" name="NELMHF">     1</i>
   <i type="int" name="DIM">     3</i>
   <i type="int" name="IESPILON">     4</i>
   <i type="int" name="ANTIRES">     0</i>
   <i name="OMEGAMAX">    -30.00000000</i>
   <i name="OMEGAMIN">    -30.00000000</i>
   <i name="OMEGATL">   -200.00000000</i>
   <i type="int" name="OMEGAGRID">     0</i>
   <i name="CSHIFT">     -0.10000000</i>
   <i type="logical" name="LSELFENERGY"> F  </i>
   <i type="logical" name="LSPECTRAL"> F  </i>
   <i type="logical" name="LSPECTRALGW"> F  </i>
   <i type="logical" name="LSINGLES"> F  </i>
   <i type="logical" name="LFERMIGW"> F  </i>
   <i type="logical" name="ODDONLYGW"> F  </i>
   <i type="logical" name="EVENONLYGW"> F  </i>
   <i type="int" name="NKREDLFX">     1</i>
   <i type="int" name="NKREDLFY">     1</i>
   <i type="int" name="NKREDLFZ">     1</i>
   <i type="int" name="MAXMEM">  2800</i>
   <i type="int" name="TELESCOPE">     0</i>
   <i type="int" name="NTAUPAR">    -1</i>
   <i type="int" name="NOMEGAPAR">    -1</i>
   <i name="DAMP_NEWTON">      0.80000001</i>
   <i name="LAMBDA">      1.00000000</i>
  </separator>
  <separator name="External order field" >
   <i name="OFIELD_KAPPA">      0.00000000</i>
   <v name="OFIELD_K">      0.00000000      0.00000000      0.00000000</v>
   <i name="OFIELD_Q6_NEAR">      0.00000000</i>
   <i name="OFIELD_Q6_FAR">      0.00000000</i>
   <i name="OFIELD_A">      0.00000000</i>
  </separator>
  <separator name="optional k-points parameters" >
   <i type="int" name="KPOINTS_OPT_MODE">     1</i>
   <i type="logical" name="LKPOINTS_OPT"> F  </i>
  </separator>
 </parameters>
 <atominfo>
  <atoms>     168 </atoms>
  <types>       2 </types>
  <array name="atoms" >
   <dimension dim="1">ion</dimension>
   <field type="string">element</field>
   <field type="int">atomtype</field>
   <set>
    <rc><c>Ge</c><c>   1</c></rc>
    <rc><c>Ge</c><c>   1</c></rc>
    <rc><c>Ge</c><c>   1</c></rc>
    <rc><c>Ge</c><c>   1</c></rc>
    <rc><c>Ge</c><c>   1</c></rc>
    <rc><c>Ge</c><c>   1</c></rc>
    <rc><c>Ge</c><c>   1</c></rc>
    <rc><c>Ge</c><c>   1</c></rc>
    <rc><c>Ge</c><c>   1</c></rc>
    <rc><c>Ge</c><c>   1</c></rc>
    <rc><c>Ge</c><c>   1</c></rc>
    <rc><c>Ge</c><c>   1</c></rc>
    <rc><c>Ge</c><c>   1</c></rc>
    <rc><c>Ge</c><c>   1</c></rc>
    <rc><c>Ge</c><c>   1</c></rc>
    <rc><c>Ge</c><c>   1</c></rc>
    <rc><c>Ge</c><c>   1</c></rc>
    <rc><c>Ge</c><c>   1</c></rc>
    <rc><c>Ge</c><c>   1</c></rc>
    <rc><c>Ge</c><c>   1</c></rc>
    <rc><c>Ge</c><c>   1</c></rc>
    <rc><c>Ge</c><c>   1</c></rc>
    <rc><c>Ge</c><c>   1</c></rc>
    <rc><c>Ge</c><c>   1</c></rc>
    <rc><c>Ge</c><c>   1</c></rc>
    <rc><c>Ge</c><c>   1</c></rc>
    <rc><c>Ge</c><c>   1</c></rc>
    <rc><c>Ge</c><c>   1</c></rc>
    <rc><c>Ge</c><c>   1</c></rc>
    <rc><c>Ge</c><c>   1</c></rc>
    <rc><c>Ge</c><c>   1</c></rc>
    <rc><c>Ge</c><c>   1</c></rc>
    <rc><c>Ge</c><c>   1</c></rc>
    <rc><c>Ge</c><c>   1</c></rc>
    <rc><c>Ge</c><c>   1</c></rc>
    <rc><c>Ge</c><c>   1</c></rc>
    <rc><c>Ge</c><c>   1</c></rc>
    <rc><c>Ge</c><c>   1</c></rc>
    <rc><c>Ge</c><c>   1</c></rc>
    <rc><c>Ge</c><c>   1</c></rc>
    <rc><c>Ge</c><c>   1</c></rc>
    <rc><c>Ge</c><c>   1</c></rc>
    <rc><c>Ge</c><c>   1</c></rc>
    <rc><c>Ge</c><c>   1</c></rc>
    <rc><c>Ge</c><c>   1</c></rc>
    <rc><c>Ge</c><c>   1</c></rc>
    <rc><c>Ge</c><c>   1</c></rc>
    <rc><c>Ge</c><c>   1</c></rc>
    <rc><c>Ge</c><c>   1</c></rc>
    <rc><c>Ge</c><c>   1</c></rc>
    <rc><c>Ge</c><c>   1</c></rc>
    <rc><c>Ge</c><c>   1</c></rc>
    <rc><c>Ge</c><c>   1</c></rc>
    <rc><c>Ge</c><c>   1</c></rc>
    <rc><c>Ge</c><c>   1</c></rc>
    <rc><c>Ge</c><c>   1</c></rc>
    <rc><c>Ge</c><c>   1</c></rc>
    <rc><c>Ge</c><c>   1</c></rc>
    <rc><c>Ge</c><c>   1</c></rc>
    <rc><c>Ge</c><c>   1</c></rc>
    <rc><c>Ge</c><c>   1</c></rc>
    <rc><c>Ge</c><c>   1</c></rc>
    <rc><c>Ge</c><c>   1</c></rc>
    <rc><c>Ge</c><c>   1</c></rc>
    <rc><c>Ge</c><c>   1</c></rc>
    <rc><c>Ge</c><c>   1</c></rc>
    <rc><c>Ge</c><c>   1</c></rc>
    <rc><c>Ge</c><c>   1</c></rc>
    <rc><c>Ge</c><c>   1</c></rc>
    <rc><c>Ge</c><c>   1</c></rc>
    <rc><c>Ge</c><c>   1</c></rc>
    <rc><c>Ge</c><c>   1</c></rc>
    <rc><c>Ge</c><c>   1</c></rc>
    <rc><c>Ge</c><c>   1</c></rc>
    <rc><c>Ge</c><c>   1</c></rc>
    <rc><c>Ge</c><c>   1</c></rc>
    <rc><c>Ge</c><c>   1</c></rc>
    <rc><c>Ge</c><c>   1</c></rc>
    <rc><c>Ge</c><c>   1</c></rc>
    <rc><c>Ge</c><c>   1</c></rc>
    <rc><c>Ge</c><c>   1</c></rc>
    <rc><c>Ge</c><c>   1</c></rc>
    <rc><c>Ge</c><c>   1</c></rc>
    <rc><c>Ge</c><c>   1</c></rc>
    <rc><c>Ge</c><c>   1</c></rc>
    <rc><c>Ge</c><c>   1</c></rc>
    <rc><c>Ge</c><c>   1</c></rc>
    <rc><c>Ge</c><c>   1</c></rc>
    <rc><c>Ge</c><c>   1</c></rc>
    <rc><c>Ge</c><c>   1</c></rc>
    <rc><c>Ge</c><c>   1</c></rc>
    <rc><c>Ge</c><c>   1</c></rc>
    <rc><c>Ge</c><c>   1</c></rc>
    <rc><c>Ge</c><c>   1</c></rc>
    <rc><c>Ge</c><c>   1</c></rc>
    <rc><c>Ge</c><c>   1</c></rc>
    <rc><c>Sn</c><c>   2</c></rc>
    <rc><c>Sn</c><c>   2</c></rc>
    <rc><c>Sn</c><c>   2</c></rc>
    <rc><c>Sn</c><c>   2</c></rc>
    <rc><c>Sn</c><c>   2</c></rc>
    <rc><c>Sn</c><c>   2</c></rc>
    <rc><c>Sn</c><c>   2</c></rc>
    <rc><c>Sn</c><c>   2</c></rc>
    <rc><c>Sn</c><c>   2</c></rc>
    <rc><c>Sn</c><c>   2</c></rc>
    <rc><c>Sn</c><c>   2</c></rc>
    <rc><c>Sn</c><c>   2</c></rc>
    <rc><c>Sn</c><c>   2</c></rc>
    <rc><c>Sn</c><c>   2</c></rc>
    <rc><c>Sn</c><c>   2</c></rc>
    <rc><c>Sn</c><c>   2</c></rc>
    <rc><c>Sn</c><c>   2</c></rc>
    <rc><c>Sn</c><c>   2</c></rc>
    <rc><c>Sn</c><c>   2</c></rc>
    <rc><c>Sn</c><c>   2</c></rc>
    <rc><c>Sn</c><c>   2</c></rc>
    <rc><c>Sn</c><c>   2</c></rc>
    <rc><c>Sn</c><c>   2</c></rc>
    <rc><c>Sn</c><c>   2</c></rc>
    <rc><c>Sn</c><c>   2</c></rc>
    <rc><c>Sn</c><c>   2</c></rc>
    <rc><c>Sn</c><c>   2</c></rc>
    <rc><c>Sn</c><c>   2</c></rc>
    <rc><c>Sn</c><c>   2</c></rc>
    <rc><c>Sn</c><c>   2</c></rc>
    <rc><c>Sn</c><c>   2</c></rc>
    <rc><c>Sn</c><c>   2</c></rc>
    <rc><c>Sn</c><c>   2</c></rc>
    <rc><c>Sn</c><c>   2</c></rc>
    <rc><c>Sn</c><c>   2</c></rc>
    <rc><c>Sn</c><c>   2</c></rc>
    <rc><c>Sn</c><c>   2</c></rc>
    <rc><c>Sn</c><c>   2</c></rc>
    <rc><c>Sn</c><c>   2</c></rc>
    <rc><c>Sn</c><c>   2</c></rc>
    <rc><c>Sn</c><c>   2</c></rc>
    <rc><c>Sn</c><c>   2</c></rc>
    <rc><c>Sn</c><c>   2</c></rc>
    <rc><c>Sn</c><c>   2</c></rc>
    <rc><c>Sn</c><c>   2</c></rc>
    <rc><c>Sn</c><c>   2</c></rc>
    <rc><c>Sn</c><c>   2</c></rc>
    <rc><c>Sn</c><c>   2</c></rc>
    <rc><c>Sn</c><c>   2</c></rc>
    <rc><c>Sn</c><c>   2</c></rc>
    <rc><c>Sn</c><c>   2</c></rc>
    <rc><c>Sn</c><c>   2</c></rc>
    <rc><c>Sn</c><c>   2</c></rc>
    <rc><c>Sn</c><c>   2</c></rc>
    <rc><c>Sn</c><c>   2</c></rc>
    <rc><c>Sn</c><c>   2</c></rc>
    <rc><c>Sn</c><c>   2</c></rc>
    <rc><c>Sn</c><c>   2</c></rc>
    <rc><c>Sn</c><c>   2</c></rc>
    <rc><c>Sn</c><c>   2</c></rc>
    <rc><c>Sn</c><c>   2</c></rc>
    <rc><c>Sn</c><c>   2</c></rc>
    <rc><c>Sn</c><c>   2</c></rc>
    <rc><c>Sn</c><c>   2</c></rc>
    <rc><c>Sn</c><c>   2</c></rc>
    <rc><c>Sn</c><c>   2</c></rc>
    <rc><c>Sn</c><c>   2</c></rc>
    <rc><c>Sn</c><c>   2</c></rc>
    <rc><c>Sn</c><c>   2</c></rc>
    <rc><c>Sn</c><c>   2</c></rc>
    <rc><c>Sn</c><c>   2</c></rc>
    <rc><c>Sn</c><c>   2</c></rc>
   </set>
  </array>
  <array name="atomtypes" >
   <dimension dim="1">type</dimension>
   <field type="int">atomspertype</field>
   <field type="string">element</field>
   <field>mass</field>
   <field>valence</field>
   <field type="string">pseudopotential</field>
   <set>
    <rc><c>  96</c><c>Ge</c><c>     72.61000000</c><c>      4.00000000</c><c>  PAW_PBE Ge 05Jan2001                  </c></rc>
    <rc><c>  72</c><c>Sn</c><c>    118.71000000</c><c>      4.00000000</c><c>  PAW_PBE Sn 08Apr2002                  </c></rc>
   </set>
  </array>
 </atominfo>
 <structure name="initialpos" >
  <crystal>
   <varray name="basis" >
    <v>      16.00267601       0.00000000       0.00000000 </v>
    <v>       8.00133800      13.85872459       0.00000000 </v>
    <v>       0.00000000       0.00000000      20.30401230 </v>
   </varray>
   <i name="volume">   4502.95643002 </i>
   <varray name="rec_basis" >
    <v>       0.06248955      -0.03607836       0.00000000 </v>
    <v>       0.00000000       0.07215671       0.00000000 </v>
    <v>       0.00000000       0.00000000       0.04925135 </v>
   </varray>
  </crystal>
  <varray name="positions" >
   <v>       0.31088322       0.31088316       0.32176235 </v>
   <v>       0.97755003       0.97755003       0.00000002 </v>
   <v>       0.64421654       0.64421660       0.16088121 </v>
   <v>       0.81088316       0.31088316       0.32176235 </v>
   <v>       0.47755000       0.97755003       0.00000003 </v>
   <v>       0.14421658       0.64421660       0.16088121 </v>
   <v>       0.31088316       0.81088316       0.32176235 </v>
   <v>       0.97755003       0.47755000       0.00000003 </v>
   <v>       0.64421660       0.14421658       0.16088121 </v>
   <v>       0.81088316       0.81088316       0.32176235 </v>
   <v>       0.47755000       0.47755000       0.00000000 </v>
   <v>       0.14421657       0.14421657       0.16088118 </v>
   <v>       0.47754979       0.47754973       0.36198267 </v>
   <v>       0.14421669       0.14421661       0.04022033 </v>
   <v>       0.81088328       0.81088322       0.20110148 </v>
   <v>       0.97754979       0.47754967       0.36198267 </v>
   <v>       0.64421666       0.14421663       0.04022033 </v>
   <v>       0.31088328       0.81088322       0.20110148 </v>
   <v>       0.47754967       0.97754979       0.36198267 </v>
   <v>       0.14421663       0.64421666       0.04022033 </v>
   <v>       0.81088322       0.31088328       0.20110148 </v>
   <v>       0.97754967       0.97754979       0.36198264 </v>
   <v>       0.64421660       0.64421666       0.04022033 </v>
   <v>       0.31088316       0.31088325       0.20110145 </v>
   <v>       0.56088316       0.56088316       0.32176238 </v>
   <v>       0.22755001       0.22755001       0.00000003 </v>
   <v>       0.89421660       0.89421660       0.16088118 </v>
   <v>       0.06088321       0.56088316       0.32176241 </v>
   <v>       0.72755003       0.22755005       0.00000003 </v>
   <v>       0.39421660       0.89421660       0.16088121 </v>
   <v>       0.56088316       0.06088318       0.32176235 </v>
   <v>       0.22755001       0.72754997       0.00000001 </v>
   <v>       0.89421654       0.39421660       0.16088118 </v>
   <v>       0.06088319       0.06088311       0.32176235 </v>
   <v>       0.72755003       0.72754991       0.00000002 </v>
   <v>       0.39421663       0.39421657       0.16088121 </v>
   <v>       0.72754979       0.72754979       0.36198264 </v>
   <v>       0.39421663       0.39421663       0.04022027 </v>
   <v>       0.06088319       0.06088319       0.20110145 </v>
   <v>       0.22754979       0.72754979       0.36198264 </v>
   <v>       0.89421660       0.39421663       0.04022029 </v>
   <v>       0.56088316       0.06088319       0.20110145 </v>
   <v>       0.72754979       0.22754985       0.36198264 </v>
   <v>       0.39421663       0.89421666       0.04022029 </v>
   <v>       0.06088320       0.56088328       0.20110145 </v>
   <v>       0.22754985       0.22754985       0.36198264 </v>
   <v>       0.89421672       0.89421666       0.04022028 </v>
   <v>       0.56088328       0.56088328       0.20110145 </v>
   <v>       0.31088316       0.56088316       0.32176235 </v>
   <v>       0.97755003       0.22755001       0.00000002 </v>
   <v>       0.64421654       0.89421660       0.16088121 </v>
   <v>       0.81088316       0.56088316       0.32176238 </v>
   <v>       0.47755003       0.22755001       0.00000003 </v>
   <v>       0.14421660       0.89421660       0.16088121 </v>
   <v>       0.31088316       0.06088318       0.32176235 </v>
   <v>       0.97755003       0.72754997       0.00000003 </v>
   <v>       0.64421660       0.39421660       0.16088121 </v>
   <v>       0.81088316       0.06088309       0.32176235 </v>
   <v>       0.47755000       0.72754991       0.00000002 </v>
   <v>       0.14421661       0.39421654       0.16088118 </v>
   <v>       0.47754979       0.72754979       0.36198264 </v>
   <v>       0.14421661       0.39421660       0.04022029 </v>
   <v>       0.81088316       0.06088319       0.20110145 </v>
   <v>       0.97754973       0.72754979       0.36198264 </v>
   <v>       0.64421660       0.39421663       0.04022029 </v>
   <v>       0.31088316       0.06088319       0.20110145 </v>
   <v>       0.47754973       0.22754985       0.36198261 </v>
   <v>       0.14421663       0.89421666       0.04022028 </v>
   <v>       0.81088316       0.56088328       0.20110145 </v>
   <v>       0.97754979       0.22754985       0.36198261 </v>
   <v>       0.64421666       0.89421666       0.04022027 </v>
   <v>       0.31088322       0.56088328       0.20110145 </v>
   <v>       0.56088311       0.31088316       0.32176235 </v>
   <v>       0.22755001       0.97755003       0.00000002 </v>
   <v>       0.89421660       0.64421660       0.16088121 </v>
   <v>       0.06088318       0.31088316       0.32176238 </v>
   <v>       0.72754997       0.97755003       0.00000003 </v>
   <v>       0.39421663       0.64421660       0.16088121 </v>
   <v>       0.56088316       0.81088316       0.32176238 </v>
   <v>       0.22755000       0.47755000       0.00000003 </v>
   <v>       0.89421660       0.14421658       0.16088121 </v>
   <v>       0.06088318       0.81088311       0.32176235 </v>
   <v>       0.72754997       0.47754994       0.00000001 </v>
   <v>       0.39421660       0.14421654       0.16088118 </v>
   <v>       0.72754979       0.47754985       0.36198267 </v>
   <v>       0.39421669       0.14421672       0.04022032 </v>
   <v>       0.06088328       0.81088334       0.20110148 </v>
   <v>       0.22754967       0.47754985       0.36198267 </v>
   <v>       0.89421666       0.14421673       0.04022032 </v>
   <v>       0.56088328       0.81088334       0.20110145 </v>
   <v>       0.72754979       0.97754985       0.36198264 </v>
   <v>       0.39421669       0.64421672       0.04022033 </v>
   <v>       0.06088328       0.31088337       0.20110148 </v>
   <v>       0.22754973       0.97754979       0.36198267 </v>
   <v>       0.89421666       0.64421666       0.04022032 </v>
   <v>       0.56088328       0.31088328       0.20110145 </v>
   <v>       0.72310114       0.06289315       0.47340384 </v>
   <v>       0.05643449       0.06289315       0.65792602 </v>
   <v>       0.38976786       0.06289315       0.84244823 </v>
   <v>       0.38976771       0.72955978       0.47340381 </v>
   <v>       0.72310114       0.72955978       0.65792602 </v>
   <v>       0.05643449       0.72955978       0.84244823 </v>
   <v>       0.05643433       0.39622641       0.47340384 </v>
   <v>       0.38976771       0.39622641       0.65792602 </v>
   <v>       0.72310114       0.39622641       0.84244823 </v>
   <v>       0.05643437       0.06289315       0.51953435 </v>
   <v>       0.38976786       0.06289315       0.70405662 </v>
   <v>       0.72310114       0.06289315       0.88857883 </v>
   <v>       0.72310114       0.72955978       0.51953441 </v>
   <v>       0.05643449       0.72955978       0.70405662 </v>
   <v>       0.38976786       0.72955978       0.88857883 </v>
   <v>       0.38976771       0.39622641       0.51953435 </v>
   <v>       0.72310108       0.39622641       0.70405662 </v>
   <v>       0.05643437       0.39622641       0.88857889 </v>
   <v>       0.38976771       0.22955978       0.47340384 </v>
   <v>       0.72310102       0.22955978       0.65792602 </v>
   <v>       0.05643449       0.22955978       0.84244823 </v>
   <v>       0.05643433       0.89622641       0.47340384 </v>
   <v>       0.38976774       0.89622641       0.65792608 </v>
   <v>       0.72310114       0.89622647       0.84244823 </v>
   <v>       0.72310114       0.56289309       0.47340384 </v>
   <v>       0.05643449       0.56289309       0.65792602 </v>
   <v>       0.38976774       0.56289309       0.84244823 </v>
   <v>       0.72310108       0.22955978       0.51953435 </v>
   <v>       0.05643437       0.22955978       0.70405662 </v>
   <v>       0.38976774       0.22955978       0.88857889 </v>
   <v>       0.38976771       0.89622641       0.51953435 </v>
   <v>       0.72310108       0.89622641       0.70405656 </v>
   <v>       0.05643460       0.89622641       0.88857889 </v>
   <v>       0.05643437       0.56289309       0.51953435 </v>
   <v>       0.38976762       0.56289309       0.70405650 </v>
   <v>       0.72310114       0.56289309       0.88857889 </v>
   <v>       0.22310103       0.06289315       0.47340384 </v>
   <v>       0.55643445       0.06289315       0.65792608 </v>
   <v>       0.88976783       0.06289315       0.84244823 </v>
   <v>       0.88976783       0.72955978       0.47340387 </v>
   <v>       0.22310123       0.72955978       0.65792602 </v>
   <v>       0.55643451       0.72955978       0.84244823 </v>
   <v>       0.55643439       0.39622641       0.47340381 </v>
   <v>       0.88976777       0.39622641       0.65792602 </v>
   <v>       0.22310111       0.39622641       0.84244823 </v>
   <v>       0.55643439       0.06289315       0.51953429 </v>
   <v>       0.88976771       0.06289315       0.70405650 </v>
   <v>       0.22310111       0.06289315       0.88857889 </v>
   <v>       0.22310098       0.72955978       0.51953435 </v>
   <v>       0.55643439       0.72955978       0.70405656 </v>
   <v>       0.88976777       0.72955978       0.88857889 </v>
   <v>       0.88976777       0.39622641       0.51953435 </v>
   <v>       0.22310111       0.39622641       0.70405656 </v>
   <v>       0.55643463       0.39622641       0.88857883 </v>
   <v>       0.88976771       0.22955990       0.47340381 </v>
   <v>       0.22310111       0.22955990       0.65792602 </v>
   <v>       0.55643451       0.22955990       0.84244823 </v>
   <v>       0.55643439       0.89622641       0.47340384 </v>
   <v>       0.88976771       0.89622641       0.65792602 </v>
   <v>       0.22310111       0.89622641       0.84244823 </v>
   <v>       0.22310102       0.56289309       0.47340384 </v>
   <v>       0.55643445       0.56289309       0.65792602 </v>
   <v>       0.88976783       0.56289309       0.84244823 </v>
   <v>       0.22310090       0.22955990       0.51953441 </v>
   <v>       0.55643433       0.22955990       0.70405662 </v>
   <v>       0.88976759       0.22955990       0.88857889 </v>
   <v>       0.88976771       0.89622647       0.51953441 </v>
   <v>       0.22310111       0.89622647       0.70405662 </v>
   <v>       0.55643451       0.89622647       0.88857889 </v>
   <v>       0.55643439       0.56289303       0.51953441 </v>
   <v>       0.88976771       0.56289309       0.70405662 </v>
   <v>       0.22310099       0.56289309       0.88857889 </v>
  </varray>
 </structure>
 <calculation>
  <scstep>
   <time name="dav">   76.86   77.58</time>
   <time name="total">   79.85   80.59</time>
   <energy>
    <i name="alphaZ">   1020.59519491 </i>
    <i name="ewald"> -14123.77530713 </i>
    <i name="hartreedc">  -4354.26421067 </i>
    <i name="XCdc">  -9235.83380301 </i>
    <i name="pawpsdc">  22099.84193803 </i>
    <i name="pawaedc"> -11791.56227843 </i>
    <i name="eentropy">     -0.00163517 </i>
    <i name="bandstr">   2920.17218655 </i>
    <i name="atom">  16853.79812076 </i>
    <i name="e_fr_energy">   3388.97020585 </i>
    <i name="e_wo_entrp">   3388.97184102 </i>
    <i name="e_0_energy">   3388.97102343 </i>
   </energy>
  </scstep>
  <scstep>
   <time name="dav">   86.91   87.72</time>
   <time name="total">   86.91   87.72</time>
   <energy>
    <i name="e_fr_energy">   -272.77163910 </i>
    <i name="e_wo_entrp">   -272.77077207 </i>
    <i name="e_0_energy">   -272.77120558 </i>
   </energy>
  </scstep>
  <scstep>
   <time name="dav">   90.55   91.44</time>
   <time name="total">   90.56   91.45</time>
   <energy>
    <i name="e_fr_energy">   -675.79661937 </i>
    <i name="e_wo_entrp">   -675.79378532 </i>
    <i name="e_0_energy">   -675.79520234 </i>
   </energy>
  </scstep>
  <scstep>
   <time name="dav">   88.98   89.80</time>
   <time name="total">   88.98   89.80</time>
   <energy>
    <i name="e_fr_energy">   -692.47095715 </i>
    <i name="e_wo_entrp">   -692.46849668 </i>
    <i name="e_0_energy">   -692.46972691 </i>
   </energy>
  </scstep>
  <scstep>
   <time name="dav">   95.62   96.51</time>
   <time name="total">  100.21  101.15</time>
   <energy>
    <i name="e_fr_energy">   -693.17180371 </i>
    <i name="e_wo_entrp">   -693.16940978 </i>
    <i name="e_0_energy">   -693.17060675 </i>
   </energy>
  </scstep>
  <scstep>
   <time name="dav">  107.23  108.29</time>
   <time name="total">  114.82  115.95</time>
   <energy>
    <i name="e_fr_energy">   -684.52336812 </i>
    <i name="e_wo_entrp">   -684.51760409 </i>
    <i name="e_0_energy">   -684.52048610 </i>
   </energy>
  </scstep>
  <scstep>
   <time name="dav">   93.33   94.25</time>
   <time name="total">  100.90  101.88</time>
   <energy>
    <i name="e_fr_energy">   -685.06966859 </i>
    <i name="e_wo_entrp">   -685.06780367 </i>
    <i name="e_0_energy">   -685.06873613 </i>
   </energy>
  </scstep>
  <scstep>
   <time name="dav">   91.53   92.49</time>
   <time name="total">   99.09  100.12</time>
   <energy>
    <i name="e_fr_energy">   -683.23889707 </i>
    <i name="e_wo_entrp">   -683.23475292 </i>
    <i name="e_0_energy">   -683.23682500 </i>
   </energy>
  </scstep>
  <scstep>
   <time name="dav">   88.70   89.58</time>
   <time name="total">   96.27   97.22</time>
   <energy>
    <i name="e_fr_energy">   -683.27714435 </i>
    <i name="e_wo_entrp">   -683.27332983 </i>
    <i name="e_0_energy">   -683.27523709 </i>
   </energy>
  </scstep>
  <scstep>
   <time name="dav">   87.61   88.45</time>
   <time name="total">   95.20   96.11</time>
   <energy>
    <i name="e_fr_energy">   -683.28054483 </i>
    <i name="e_wo_entrp">   -683.27628465 </i>
    <i name="e_0_energy">   -683.27841474 </i>
   </energy>
  </scstep>
  <scstep>
   <time name="dav">   88.07   88.95</time>
   <time name="total">   95.54   96.49</time>
   <energy>
    <i name="e_fr_energy">   -683.28213174 </i>
    <i name="e_wo_entrp">   -683.27838853 </i>
    <i name="e_0_energy">   -683.28026014 </i>
   </energy>
  </scstep>
  <scstep>
   <time name="dav">   84.03   84.86</time>
   <time name="total">   91.47   92.38</time>
   <energy>
    <i name="e_fr_energy">   -683.28177602 </i>
    <i name="e_wo_entrp">   -683.27810870 </i>
    <i name="e_0_energy">   -683.27994236 </i>
   </energy>
  </scstep>
  <scstep>
   <time name="dav">   85.35   86.20</time>
   <time name="total">   92.80   93.71</time>
   <energy>
    <i name="e_fr_energy">   -683.28222017 </i>
    <i name="e_wo_entrp">   -683.27853693 </i>
    <i name="e_0_energy">   -683.28037855 </i>
   </energy>
  </scstep>
  <scstep>
   <time name="dav">   84.98   85.80</time>
   <time name="total">   92.43   93.33</time>
   <energy>
    <i name="e_fr_energy">   -683.28232760 </i>
    <i name="e_wo_entrp">   -683.27864778 </i>
    <i name="e_0_energy">   -683.28048769 </i>
   </energy>
  </scstep>
  <scstep>
   <time name="dav">   83.27   84.12</time>
   <time name="total">   90.73   91.64</time>
   <energy>
    <i name="e_fr_energy">   -683.28236040 </i>
    <i name="e_wo_entrp">   -683.27868978 </i>
    <i name="e_0_energy">   -683.28052509 </i>
   </energy>
  </scstep>
  <scstep>
   <time name="dav">   84.90   85.76</time>
   <time name="total">   92.40   93.33</time>
   <energy>
    <i name="e_fr_energy">   -683.28237622 </i>
    <i name="e_wo_entrp">   -683.27870772 </i>
    <i name="e_0_energy">   -683.28054197 </i>
   </energy>
  </scstep>
  <scstep>
   <time name="dav">   84.51   85.34</time>
   <time name="total">   91.99   92.89</time>
   <energy>
    <i name="e_fr_energy">   -683.28238134 </i>
    <i name="e_wo_entrp">   -683.27871217 </i>
    <i name="e_0_energy">   -683.28054676 </i>
   </energy>
  </scstep>
  <scstep>
   <time name="dav">   83.55   84.35</time>
   <time name="total">   91.03   91.89</time>
   <energy>
    <i name="e_fr_energy">   -683.28238376 </i>
    <i name="e_wo_entrp">   -683.27871644 </i>
    <i name="e_0_energy">   -683.28055010 </i>
   </energy>
  </scstep>
  <scstep>
   <time name="dav">   81.52   82.35</time>
   <time name="total">   89.00   89.89</time>
   <energy>
    <i name="e_fr_energy">   -683.28238469 </i>
    <i name="e_wo_entrp">   -683.27872018 </i>
    <i name="e_0_energy">   -683.28055244 </i>
   </energy>
  </scstep>
  <scstep>
   <time name="dav">   72.02   72.81</time>
   <time name="total">   79.48   80.35</time>
   <energy>
    <i name="e_fr_energy">   -683.28238484 </i>
    <i name="e_wo_entrp">   -683.27872096 </i>
    <i name="e_0_energy">   -683.28055290 </i>
   </energy>
  </scstep>
  <scstep>
   <time name="dav">   59.05   59.65</time>
   <time name="total">   66.56   67.22</time>
   <energy>
    <i name="e_fr_energy">   -683.28238458 </i>
    <i name="e_wo_entrp">   -683.27872079 </i>
    <i name="e_0_energy">   -683.28055269 </i>
   </energy>
  </scstep>
  <scstep>
   <time name="dav">   53.94   54.46</time>
   <time name="total">   56.88   57.42</time>
   <energy>
    <i name="alphaZ">   1020.59519491 </i>
    <i name="ewald"> -14123.77530713 </i>
    <i name="hartreedc">  -4582.20669449 </i>
    <i name="XCdc">  -9184.89871751 </i>
    <i name="pawpsdc">  43305.46047398 </i>
    <i name="pawaedc"> -33038.62058179 </i>
    <i name="eentropy">     -0.00366334 </i>
    <i name="bandstr">   -933.63120995 </i>
    <i name="atom">  16853.79812076 </i>
    <i name="e_fr_energy">   -683.28238456 </i>
    <i name="e_wo_entrp">   -683.27872122 </i>
    <i name="e_0_energy">   -683.28055289 </i>
   </energy>
  </scstep>
  <structure>
   <crystal>
    <varray name="basis" >
     <v>      16.00267601       0.00000000       0.00000000 </v>
     <v>       8.00133800      13.85872459       0.00000000 </v>
     <v>       0.00000000       0.00000000      20.30401230 </v>
    </varray>
    <i name="volume">   4502.95643002 </i>
    <varray name="rec_basis" >
     <v>       0.06248955      -0.03607836       0.00000000 </v>
     <v>       0.00000000       0.07215671       0.00000000 </v>
     <v>       0.00000000       0.00000000       0.04925135 </v>
    </varray>
   </crystal>
   <varray name="positions" >
    <v>       0.31088322       0.31088316       0.32176235 </v>
    <v>       0.97755003       0.97755003       0.00000002 </v>
    <v>       0.64421654       0.64421660       0.16088121 </v>
    <v>       0.81088316       0.31088316       0.32176235 </v>
    <v>       0.47755000       0.97755003       0.00000003 </v>
    <v>       0.14421658       0.64421660       0.16088121 </v>
    <v>       0.31088316       0.81088316       0.32176235 </v>
    <v>       0.97755003       0.47755000       0.00000003 </v>
    <v>       0.64421660       0.14421658       0.16088121 </v>
    <v>       0.81088316       0.81088316       0.32176235 </v>
    <v>       0.47755000       0.47755000       0.00000000 </v>
    <v>       0.14421657       0.14421657       0.16088118 </v>
    <v>       0.47754979       0.47754973       0.36198267 </v>
    <v>       0.14421669       0.14421661       0.04022033 </v>
    <v>       0.81088328       0.81088322       0.20110148 </v>
    <v>       0.97754979       0.47754967       0.36198267 </v>
    <v>       0.64421666       0.14421663       0.04022033 </v>
    <v>       0.31088328       0.81088322       0.20110148 </v>
    <v>       0.47754967       0.97754979       0.36198267 </v>
    <v>       0.14421663       0.64421666       0.04022033 </v>
    <v>       0.81088322       0.31088328       0.20110148 </v>
    <v>       0.97754967       0.97754979       0.36198264 </v>
    <v>       0.64421660       0.64421666       0.04022033 </v>
    <v>       0.31088316       0.31088325       0.20110145 </v>
    <v>       0.56088316       0.56088316       0.32176238 </v>
    <v>       0.22755001       0.22755001       0.00000003 </v>
    <v>       0.89421660       0.89421660       0.16088118 </v>
    <v>       0.06088321       0.56088316       0.32176241 </v>
    <v>       0.72755003       0.22755005       0.00000003 </v>
    <v>       0.39421660       0.89421660       0.16088121 </v>
    <v>       0.56088316       0.06088318       0.32176235 </v>
    <v>       0.22755001       0.72754997       0.00000001 </v>
    <v>       0.89421654       0.39421660       0.16088118 </v>
    <v>       0.06088319       0.06088311       0.32176235 </v>
    <v>       0.72755003       0.72754991       0.00000002 </v>
    <v>       0.39421663       0.39421657       0.16088121 </v>
    <v>       0.72754979       0.72754979       0.36198264 </v>
    <v>       0.39421663       0.39421663       0.04022027 </v>
    <v>       0.06088319       0.06088319       0.20110145 </v>
    <v>       0.22754979       0.72754979       0.36198264 </v>
    <v>       0.89421660       0.39421663       0.04022029 </v>
    <v>       0.56088316       0.06088319       0.20110145 </v>
    <v>       0.72754979       0.22754985       0.36198264 </v>
    <v>       0.39421663       0.89421666       0.04022029 </v>
    <v>       0.06088320       0.56088328       0.20110145 </v>
    <v>       0.22754985       0.22754985       0.36198264 </v>
    <v>       0.89421672       0.89421666       0.04022028 </v>
    <v>       0.56088328       0.56088328       0.20110145 </v>
    <v>       0.31088316       0.56088316       0.32176235 </v>
    <v>       0.97755003       0.22755001       0.00000002 </v>
    <v>       0.64421654       0.89421660       0.16088121 </v>
    <v>       0.81088316       0.56088316       0.32176238 </v>
    <v>       0.47755003       0.22755001       0.00000003 </v>
    <v>       0.14421660       0.89421660       0.16088121 </v>
    <v>       0.31088316       0.06088318       0.32176235 </v>
    <v>       0.97755003       0.72754997       0.00000003 </v>
    <v>       0.64421660       0.39421660       0.16088121 </v>
    <v>       0.81088316       0.06088309       0.32176235 </v>
    <v>       0.47755000       0.72754991       0.00000002 </v>
    <v>       0.14421661       0.39421654       0.16088118 </v>
    <v>       0.47754979       0.72754979       0.36198264 </v>
    <v>       0.14421661       0.39421660       0.04022029 </v>
    <v>       0.81088316       0.06088319       0.20110145 </v>
    <v>       0.97754973       0.72754979       0.36198264 </v>
    <v>       0.64421660       0.39421663       0.04022029 </v>
    <v>       0.31088316       0.06088319       0.20110145 </v>
    <v>       0.47754973       0.22754985       0.36198261 </v>
    <v>       0.14421663       0.89421666       0.04022028 </v>
    <v>       0.81088316       0.56088328       0.20110145 </v>
    <v>       0.97754979       0.22754985       0.36198261 </v>
    <v>       0.64421666       0.89421666       0.04022027 </v>
    <v>       0.31088322       0.56088328       0.20110145 </v>
    <v>       0.56088311       0.31088316       0.32176235 </v>
    <v>       0.22755001       0.97755003       0.00000002 </v>
    <v>       0.89421660       0.64421660       0.16088121 </v>
    <v>       0.06088318       0.31088316       0.32176238 </v>
    <v>       0.72754997       0.97755003       0.00000003 </v>
    <v>       0.39421663       0.64421660       0.16088121 </v>
    <v>       0.56088316       0.81088316       0.32176238 </v>
    <v>       0.22755000       0.47755000       0.00000003 </v>
    <v>       0.89421660       0.14421658       0.16088121 </v>
    <v>       0.06088318       0.81088311       0.32176235 </v>
    <v>       0.72754997       0.47754994       0.00000001 </v>
    <v>       0.39421660       0.14421654       0.16088118 </v>
    <v>       0.72754979       0.47754985       0.36198267 </v>
    <v>       0.39421669       0.14421672       0.04022032 </v>
    <v>       0.06088328       0.81088334       0.20110148 </v>
    <v>       0.22754967       0.47754985       0.36198267 </v>
    <v>       0.89421666       0.14421673       0.04022032 </v>
    <v>       0.56088328       0.81088334       0.20110145 </v>
    <v>       0.72754979       0.97754985       0.36198264 </v>
    <v>       0.39421669       0.64421672       0.04022033 </v>
    <v>       0.06088328       0.31088337       0.20110148 </v>
    <v>       0.22754973       0.97754979       0.36198267 </v>
    <v>       0.89421666       0.64421666       0.04022032 </v>
    <v>       0.56088328       0.31088328       0.20110145 </v>
    <v>       0.72310114       0.06289315       0.47340384 </v>
    <v>       0.05643449       0.06289315       0.65792602 </v>
    <v>       0.38976786       0.06289315       0.84244823 </v>
    <v>       0.38976771       0.72955978       0.47340381 </v>
    <v>       0.72310114       0.72955978       0.65792602 </v>
    <v>       0.05643449       0.72955978       0.84244823 </v>
    <v>       0.05643433       0.39622641       0.47340384 </v>
    <v>       0.38976771       0.39622641       0.65792602 </v>
    <v>       0.72310114       0.39622641       0.84244823 </v>
    <v>       0.05643437       0.06289315       0.51953435 </v>
    <v>       0.38976786       0.06289315       0.70405662 </v>
    <v>       0.72310114       0.06289315       0.88857883 </v>
    <v>       0.72310114       0.72955978       0.51953441 </v>
    <v>       0.05643449       0.72955978       0.70405662 </v>
    <v>       0.38976786       0.72955978       0.88857883 </v>
    <v>       0.38976771       0.39622641       0.51953435 </v>
    <v>       0.72310108       0.39622641       0.70405662 </v>
    <v>       0.05643437       0.39622641       0.88857889 </v>
    <v>       0.38976771       0.22955978       0.47340384 </v>
    <v>       0.72310102       0.22955978       0.65792602 </v>
    <v>       0.05643449       0.22955978       0.84244823 </v>
    <v>       0.05643433       0.89622641       0.47340384 </v>
    <v>       0.38976774       0.89622641       0.65792608 </v>
    <v>       0.72310114       0.89622647       0.84244823 </v>
    <v>       0.72310114       0.56289309       0.47340384 </v>
    <v>       0.05643449       0.56289309       0.65792602 </v>
    <v>       0.38976774       0.56289309       0.84244823 </v>
    <v>       0.72310108       0.22955978       0.51953435 </v>
    <v>       0.05643437       0.22955978       0.70405662 </v>
    <v>       0.38976774       0.22955978       0.88857889 </v>
    <v>       0.38976771       0.89622641       0.51953435 </v>
    <v>       0.72310108       0.89622641       0.70405656 </v>
    <v>       0.05643460       0.89622641       0.88857889 </v>
    <v>       0.05643437       0.56289309       0.51953435 </v>
    <v>       0.38976762       0.56289309       0.70405650 </v>
    <v>       0.72310114       0.56289309       0.88857889 </v>
    <v>       0.22310103       0.06289315       0.47340384 </v>
    <v>       0.55643445       0.06289315       0.65792608 </v>
    <v>       0.88976783       0.06289315       0.84244823 </v>
    <v>       0.88976783       0.72955978       0.47340387 </v>
    <v>       0.22310123       0.72955978       0.65792602 </v>
    <v>       0.55643451       0.72955978       0.84244823 </v>
    <v>       0.55643439       0.39622641       0.47340381 </v>
    <v>       0.88976777       0.39622641       0.65792602 </v>
    <v>       0.22310111       0.39622641       0.84244823 </v>
    <v>       0.55643439       0.06289315       0.51953429 </v>
    <v>       0.88976771       0.06289315       0.70405650 </v>
    <v>       0.22310111       0.06289315       0.88857889 </v>
    <v>       0.22310098       0.72955978       0.51953435 </v>
    <v>       0.55643439       0.72955978       0.70405656 </v>
    <v>       0.88976777       0.72955978       0.88857889 </v>
    <v>       0.88976777       0.39622641       0.51953435 </v>
    <v>       0.22310111       0.39622641       0.70405656 </v>
    <v>       0.55643463       0.39622641       0.88857883 </v>
    <v>       0.88976771       0.22955990       0.47340381 </v>
    <v>       0.22310111       0.22955990       0.65792602 </v>
    <v>       0.55643451       0.22955990       0.84244823 </v>
    <v>       0.55643439       0.89622641       0.47340384 </v>
    <v>       0.88976771       0.89622641       0.65792602 </v>
    <v>       0.22310111       0.89622641       0.84244823 </v>
    <v>       0.22310102       0.56289309       0.47340384 </v>
    <v>       0.55643445       0.56289309       0.65792602 </v>
    <v>       0.88976783       0.56289309       0.84244823 </v>
    <v>       0.22310090       0.22955990       0.51953441 </v>
    <v>       0.55643433       0.22955990       0.70405662 </v>
    <v>       0.88976759       0.22955990       0.88857889 </v>
    <v>       0.88976771       0.89622647       0.51953441 </v>
    <v>       0.22310111       0.89622647       0.70405662 </v>
    <v>       0.55643451       0.89622647       0.88857889 </v>
    <v>       0.55643439       0.56289303       0.51953441 </v>
    <v>       0.88976771       0.56289309       0.70405662 </v>
    <v>       0.22310099       0.56289309       0.88857889 </v>
   </varray>
  </structure>
  <varray name="forces" >
   <v>       0.17566127      -0.06494597      -0.37577215 </v>
   <v>      -0.02240079      -0.21450989       0.50575278 </v>
   <v>      -0.20475140       0.19416058       0.17319663 </v>
   <v>       0.17566127      -0.06494597      -0.37577215 </v>
   <v>      -0.02240079      -0.21450989       0.50575278 </v>
   <v>      -0.20475140       0.19416058       0.17319663 </v>
   <v>       0.17566127      -0.06494597      -0.37577215 </v>
   <v>      -0.02240079      -0.21450989       0.50575278 </v>
   <v>      -0.20475140       0.19416058       0.17319663 </v>
   <v>       0.17566127      -0.06494597      -0.37577215 </v>
   <v>      -0.02240079      -0.21450989       0.50575278 </v>
   <v>      -0.20475140       0.19416058       0.17319663 </v>
   <v>       0.21339605       0.00239727      -0.38858329 </v>
   <v>       0.17401660      -0.09114974       0.45203208 </v>
   <v>      -0.21239957       0.20032261      -0.20289729 </v>
   <v>       0.21339605       0.00239727      -0.38858329 </v>
   <v>       0.17401660      -0.09114974       0.45203208 </v>
   <v>      -0.21239957       0.20032261      -0.20289729 </v>
   <v>       0.21339605       0.00239727      -0.38858329 </v>
   <v>       0.17401660      -0.09114974       0.45203208 </v>
   <v>      -0.21239957       0.20032261      -0.20289729 </v>
   <v>       0.21339605       0.00239727      -0.38858329 </v>
   <v>       0.17401660      -0.09114974       0.45203208 </v>
   <v>      -0.21239957       0.20032261      -0.20289729 </v>
   <v>      -0.01894903      -0.01623799      -0.23497439 </v>
   <v>       0.00895591       0.00273575      -0.98345624 </v>
   <v>      -0.00926672       0.00198265       0.12130965 </v>
   <v>      -0.01894903      -0.01623799      -0.23497439 </v>
   <v>       0.00895591       0.00273575      -0.98345624 </v>
   <v>      -0.00926672       0.00198265       0.12130965 </v>
   <v>      -0.01894903      -0.01623799      -0.23497439 </v>
   <v>       0.00895591       0.00273575      -0.98345624 </v>
   <v>      -0.00926672       0.00198265       0.12130965 </v>
   <v>      -0.01894903      -0.01623799      -0.23497439 </v>
   <v>       0.00895591       0.00273575      -0.98345624 </v>
   <v>      -0.00926672       0.00198265       0.12130965 </v>
   <v>       0.02426601      -0.02316827       0.39615276 </v>
   <v>       0.01911101       0.01695484       0.08549213 </v>
   <v>      -0.02007799      -0.00348040       0.01502988 </v>
   <v>       0.02426601      -0.02316827       0.39615276 </v>
   <v>       0.01911101       0.01695484       0.08549213 </v>
   <v>      -0.02007799      -0.00348040       0.01502988 </v>
   <v>       0.02426601      -0.02316827       0.39615276 </v>
   <v>       0.01911101       0.01695484       0.08549213 </v>
   <v>      -0.02007799      -0.00348040       0.01502988 </v>
   <v>       0.02426601      -0.02316827       0.39615276 </v>
   <v>       0.01911101       0.01695484       0.08549213 </v>
   <v>      -0.02007799      -0.00348040       0.01502988 </v>
   <v>      -0.15139263      -0.15759795      -0.32508873 </v>
   <v>      -0.30134559       0.11833770       0.24438708 </v>
   <v>       0.27132401       0.07766181       0.15456542 </v>
   <v>      -0.15139263      -0.15759795      -0.32508873 </v>
   <v>      -0.30134559       0.11833770       0.24438708 </v>
   <v>       0.27132401       0.07766181       0.15456542 </v>
   <v>      -0.15139263      -0.15759795      -0.32508873 </v>
   <v>      -0.30134559       0.11833770       0.24438708 </v>
   <v>       0.27132401       0.07766181       0.15456542 </v>
   <v>      -0.15139263      -0.15759795      -0.32508873 </v>
   <v>      -0.30134559       0.11833770       0.24438708 </v>
   <v>       0.27132401       0.07766181       0.15456542 </v>
   <v>      -0.20892582      -0.19263605      -0.09379147 </v>
   <v>      -0.15505714      -0.07886093       0.42207631 </v>
   <v>       0.25363028       0.06487451      -0.19562592 </v>
   <v>      -0.20892582      -0.19263605      -0.09379147 </v>
   <v>      -0.15505714      -0.07886093       0.42207631 </v>
   <v>       0.25363028       0.06487451      -0.19562592 </v>
   <v>      -0.20892582      -0.19263605      -0.09379147 </v>
   <v>      -0.15505714      -0.07886093       0.42207631 </v>
   <v>       0.25363028       0.06487451      -0.19562592 </v>
   <v>      -0.20892582      -0.19263605      -0.09379147 </v>
   <v>      -0.15505714      -0.07886093       0.42207631 </v>
   <v>       0.25363028       0.06487451      -0.19562592 </v>
   <v>      -0.07281400       0.18856565      -0.34070134 </v>
   <v>       0.18217840       0.10075402       0.37356343 </v>
   <v>      -0.05333996      -0.27181003       0.15343657 </v>
   <v>      -0.07281400       0.18856565      -0.34070134 </v>
   <v>       0.18217840       0.10075402       0.37356343 </v>
   <v>      -0.05333996      -0.27181003       0.15343657 </v>
   <v>      -0.07281400       0.18856565      -0.34070134 </v>
   <v>       0.18217840       0.10075402       0.37356343 </v>
   <v>      -0.05333996      -0.27181003       0.15343657 </v>
   <v>      -0.07281400       0.18856565      -0.34070134 </v>
   <v>       0.18217840       0.10075402       0.37356343 </v>
   <v>      -0.05333996      -0.27181003       0.15343657 </v>
   <v>      -0.07597506       0.26520770      -0.25351679 </v>
   <v>       0.00201040       0.18386793       0.44019533 </v>
   <v>      -0.07483614      -0.28364567      -0.21334137 </v>
   <v>      -0.07597506       0.26520770      -0.25351679 </v>
   <v>       0.00201040       0.18386793       0.44019533 </v>
   <v>      -0.07483614      -0.28364567      -0.21334137 </v>
   <v>      -0.07597506       0.26520770      -0.25351679 </v>
   <v>       0.00201040       0.18386793       0.44019533 </v>
   <v>      -0.07483614      -0.28364567      -0.21334137 </v>
   <v>      -0.07597506       0.26520770      -0.25351679 </v>
   <v>       0.00201040       0.18386793       0.44019533 </v>
   <v>      -0.07483614      -0.28364567      -0.21334137 </v>
   <v>      -0.29517047      -0.35470027       0.56916366 </v>
   <v>       0.00748181       0.00910939       0.10444033 </v>
   <v>       0.08116678      -0.15189682      -0.20040595 </v>
   <v>       0.54307928      -0.09581831       0.45808293 </v>
   <v>       0.00179687       0.00596753       0.46420728 </v>
   <v>      -0.14666578       0.00998415      -0.15065546 </v>
   <v>      -0.12634427       0.38243767       0.73570673 </v>
   <v>       0.00315502       0.00009740       0.14385516 </v>
   <v>       0.07074033       0.14676502      -0.18663102 </v>
   <v>      -0.00957210      -0.01566727       0.65666997 </v>
   <v>      -0.03925272       0.12050435      -0.19275175 </v>
   <v>       0.17828664       0.05955716      -0.56974062 </v>
   <v>      -0.01391821       0.00705521      -0.76863006 </v>
   <v>       0.12565575      -0.00699047      -0.21274263 </v>
   <v>      -0.09879898       0.09602300      -0.40660627 </v>
   <v>       0.01343885       0.01367779       0.50435806 </v>
   <v>      -0.06394500      -0.08945693      -0.19773580 </v>
   <v>       0.02584811      -0.15642874      -0.68002565 </v>
   <v>       0.54307928      -0.09581831       0.45808293 </v>
   <v>       0.00179687       0.00596753       0.46420728 </v>
   <v>      -0.14666578       0.00998415      -0.15065546 </v>
   <v>      -0.12634427       0.38243767       0.73570673 </v>
   <v>       0.00315502       0.00009740       0.14385516 </v>
   <v>       0.07074033       0.14676502      -0.18663102 </v>
   <v>      -0.29517047      -0.35470027       0.56916366 </v>
   <v>       0.00748181       0.00910939       0.10444033 </v>
   <v>       0.08116678      -0.15189682      -0.20040595 </v>
   <v>      -0.01391821       0.00705521      -0.76863006 </v>
   <v>       0.12565575      -0.00699047      -0.21274263 </v>
   <v>      -0.09879898       0.09602300      -0.40660627 </v>
   <v>       0.01343885       0.01367779       0.50435806 </v>
   <v>      -0.06394500      -0.08945693      -0.19773580 </v>
   <v>       0.02584811      -0.15642874      -0.68002565 </v>
   <v>      -0.00957210      -0.01566727       0.65666997 </v>
   <v>      -0.03925272       0.12050435      -0.19275175 </v>
   <v>       0.17828664       0.05955716      -0.56974062 </v>
   <v>      -0.29517047      -0.35470027       0.56916366 </v>
   <v>       0.00748181       0.00910939       0.10444033 </v>
   <v>       0.08116678      -0.15189682      -0.20040595 </v>
   <v>       0.54307928      -0.09581831       0.45808293 </v>
   <v>       0.00179687       0.00596753       0.46420728 </v>
   <v>      -0.14666578       0.00998415      -0.15065546 </v>
   <v>      -0.12634427       0.38243767       0.73570673 </v>
   <v>       0.00315502       0.00009740       0.14385516 </v>
   <v>       0.07074033       0.14676502      -0.18663102 </v>
   <v>      -0.00957210      -0.01566727       0.65666997 </v>
   <v>      -0.03925272       0.12050435      -0.19275175 </v>
   <v>       0.17828664       0.05955716      -0.56974062 </v>
   <v>      -0.01391821       0.00705521      -0.76863006 </v>
   <v>       0.12565575      -0.00699047      -0.21274263 </v>
   <v>      -0.09879898       0.09602300      -0.40660627 </v>
   <v>       0.01343885       0.01367779       0.50435806 </v>
   <v>      -0.06394500      -0.08945693      -0.19773580 </v>
   <v>       0.02584811      -0.15642874      -0.68002565 </v>
   <v>       0.54307928      -0.09581831       0.45808293 </v>
   <v>       0.00179687       0.00596753       0.46420728 </v>
   <v>      -0.14666578       0.00998415      -0.15065546 </v>
   <v>      -0.12634427       0.38243767       0.73570673 </v>
   <v>       0.00315502       0.00009740       0.14385516 </v>
   <v>       0.07074033       0.14676502      -0.18663102 </v>
   <v>      -0.29517047      -0.35470027       0.56916366 </v>
   <v>       0.00748181       0.00910939       0.10444033 </v>
   <v>       0.08116678      -0.15189682      -0.20040595 </v>
   <v>      -0.01391821       0.00705521      -0.76863006 </v>
   <v>       0.12565575      -0.00699047      -0.21274263 </v>
   <v>      -0.09879898       0.09602300      -0.40660627 </v>
   <v>       0.01343885       0.01367779       0.50435806 </v>
   <v>      -0.06394500      -0.08945693      -0.19773580 </v>
   <v>       0.02584811      -0.15642874      -0.68002565 </v>
   <v>      -0.00957210      -0.01566727       0.65666997 </v>
   <v>      -0.03925272       0.12050435      -0.19275175 </v>
   <v>       0.17828664       0.05955716      -0.56974062 </v>
  </varray>
  <varray name="stress" >
   <v>      36.49828388      -0.13354338      -0.23905108 </v>
   <v>      -0.13354354      37.15233191      -0.02381149 </v>
   <v>      -0.23905099      -0.02381142      69.43454407 </v>
  </varray>
  <energy>
   <i name="e_fr_energy">   -683.28238456 </i>
   <i name="e_wo_entrp">   -683.27872122 </i>
   <i name="e_0_energy">   -683.28055289 </i>
  </energy>
  <time name="totalsc"> 2109.36 2130.98</time>
  <eigenvalues>
   <array>
    <dimension dim="1">band</dimension>
    <dimension dim="2">kpoint</dimension>
    <dimension dim="3">spin</dimension>
    <field>eigene</field>
    <field>occ</field>
    <set>
     <set comment="spin 1">
      <set comment="kpoint 1">
       <r>   -8.7559    1.0000 </r>
       <r>   -8.3380    1.0000 </r>
       <r>   -8.1024    1.0000 </r>
       <r>   -8.1023    1.0000 </r>
       <r>   -8.1004    1.0000 </r>
       <r>   -8.0763    1.0000 </r>
       <r>   -8.0744    1.0000 </r>
       <r>   -8.0742    1.0000 </r>
       <r>   -7.6867    1.0000 </r>
       <r>   -7.6826    1.0000 </r>
       <r>   -7.6805    1.0000 </r>
       <r>   -7.6484    1.0000 </r>
       <r>   -7.6464    1.0000 </r>
       <r>   -7.6414    1.0000 </r>
       <r>   -7.5155    1.0000 </r>
       <r>   -6.9343    1.0000 </r>
       <r>   -6.9314    1.0000 </r>
       <r>   -6.9304    1.0000 </r>
       <r>   -6.8653    1.0000 </r>
       <r>   -6.8626    1.0000 </r>
       <r>   -6.8590    1.0000 </r>
       <r>   -6.8491    1.0000 </r>
       <r>   -6.8467    1.0000 </r>
       <r>   -6.8410    1.0000 </r>
       <r>   -6.7995    1.0000 </r>
       <r>   -6.7994    1.0000 </r>
       <r>   -6.7975    1.0000 </r>
       <r>   -6.7504    1.0000 </r>
       <r>   -6.7395    1.0000 </r>
       <r>   -6.6510    1.0000 </r>
       <r>   -6.5938    1.0000 </r>
       <r>   -6.5868    1.0000 </r>
       <r>   -6.5853    1.0000 </r>
       <r>   -6.4778    1.0000 </r>
       <r>   -6.4725    1.0000 </r>
       <r>   -6.4486    1.0000 </r>
       <r>   -6.3264    1.0000 </r>
       <r>   -6.3242    1.0000 </r>
       <r>   -6.3183    1.0000 </r>
       <r>   -6.2476    1.0000 </r>
       <r>   -6.1458    1.0000 </r>
       <r>   -5.8771    1.0000 </r>
       <r>   -5.8735    1.0000 </r>
       <r>   -5.8709    1.0000 </r>
       <r>   -5.8010    1.0000 </r>
       <r>   -5.7911    1.0000 </r>
       <r>   -5.7881    1.0000 </r>
       <r>   -5.7874    1.0000 </r>
       <r>   -5.7725    1.0000 </r>
       <r>   -5.7703    1.0000 </r>
       <r>   -5.7691    1.0000 </r>
       <r>   -5.7667    1.0000 </r>
       <r>   -5.5681    1.0000 </r>
       <r>   -5.5642    1.0000 </r>
       <r>   -5.5631    1.0000 </r>
       <r>   -5.4876    1.0000 </r>
       <r>   -5.4850    1.0000 </r>
       <r>   -5.4811    1.0000 </r>
       <r>   -5.4801    1.0000 </r>
       <r>   -5.4447    1.0000 </r>
       <r>   -5.4414    1.0000 </r>
       <r>   -5.4355    1.0000 </r>
       <r>   -5.4073    1.0000 </r>
       <r>   -5.0381    1.0000 </r>
       <r>   -5.0380    1.0000 </r>
       <r>   -5.0378    1.0000 </r>
       <r>   -5.0115    1.0000 </r>
       <r>   -4.9831    1.0000 </r>
       <r>   -4.7706    1.0000 </r>
       <r>   -4.7706    1.0000 </r>
       <r>   -4.7704    1.0000 </r>
       <r>   -4.7409    1.0000 </r>
       <r>   -4.7402    1.0000 </r>
       <r>   -4.7377    1.0000 </r>
       <r>   -4.7327    1.0000 </r>
       <r>   -4.6970    1.0000 </r>
       <r>   -4.6959    1.0000 </r>
       <r>   -4.6927    1.0000 </r>
       <r>   -4.6450    1.0000 </r>
       <r>   -4.6432    1.0000 </r>
       <r>   -4.6411    1.0000 </r>
       <r>   -4.4964    1.0000 </r>
       <r>   -4.4860    1.0000 </r>
       <r>   -4.4276    1.0000 </r>
       <r>   -4.3761    1.0000 </r>
       <r>   -4.3724    1.0000 </r>
       <r>   -4.3678    1.0000 </r>
       <r>   -4.3444    1.0000 </r>
       <r>   -4.2604    1.0000 </r>
       <r>   -4.2498    1.0000 </r>
       <r>   -3.8510    1.0000 </r>
       <r>   -3.8472    1.0000 </r>
       <r>   -3.8447    1.0000 </r>
       <r>   -3.8143    1.0000 </r>
       <r>   -3.7694    1.0000 </r>
       <r>   -3.7676    1.0000 </r>
       <r>   -3.7636    1.0000 </r>
       <r>   -3.7603    1.0000 </r>
       <r>   -3.7585    1.0000 </r>
       <r>   -3.6701    1.0000 </r>
       <r>   -3.6642    1.0000 </r>
       <r>   -3.6552    1.0000 </r>
       <r>   -3.6438    1.0000 </r>
       <r>   -3.3681    1.0000 </r>
       <r>   -3.3667    1.0000 </r>
       <r>   -3.3599    1.0000 </r>
       <r>   -3.3526    1.0000 </r>
       <r>   -3.3478    1.0000 </r>
       <r>   -3.3465    1.0000 </r>
       <r>   -3.2291    1.0000 </r>
       <r>   -3.2047    1.0000 </r>
       <r>   -3.1922    1.0000 </r>
       <r>   -3.1710    1.0000 </r>
       <r>   -3.1707    1.0000 </r>
       <r>   -3.1681    1.0000 </r>
       <r>   -3.0634    1.0000 </r>
       <r>   -3.0607    1.0000 </r>
       <r>   -3.0594    1.0000 </r>
       <r>   -3.0501    1.0000 </r>
       <r>   -3.0320    1.0000 </r>
       <r>   -2.9273    1.0000 </r>
       <r>   -2.9272    1.0000 </r>
       <r>   -2.9267    1.0000 </r>
       <r>   -2.9128    1.0000 </r>
       <r>   -2.7846    1.0000 </r>
       <r>   -2.7790    1.0000 </r>
       <r>   -2.7708    1.0000 </r>
       <r>   -2.6685    1.0000 </r>
       <r>   -2.6685    1.0000 </r>
       <r>   -2.6683    1.0000 </r>
       <r>   -2.4834    1.0000 </r>
       <r>   -2.4828    1.0000 </r>
       <r>   -2.4820    1.0000 </r>
       <r>   -2.2238    1.0000 </r>
       <r>   -2.2217    1.0000 </r>
       <r>   -2.2216    1.0000 </r>
       <r>   -2.2163    1.0000 </r>
       <r>   -2.2154    1.0000 </r>
       <r>   -2.2090    1.0000 </r>
       <r>   -2.0999    1.0000 </r>
       <r>   -2.0899    1.0000 </r>
       <r>   -2.0841    1.0000 </r>
       <r>   -1.9077    1.0000 </r>
       <r>   -1.8959    1.0000 </r>
       <r>   -1.8846    1.0000 </r>
       <r>   -1.6401    1.0000 </r>
       <r>   -1.5185    1.0000 </r>
       <r>   -1.4488    1.0000 </r>
       <r>   -1.4468    1.0000 </r>
       <r>   -1.4361    1.0000 </r>
       <r>   -1.4160    1.0000 </r>
       <r>   -1.4079    1.0000 </r>
       <r>   -1.4036    1.0000 </r>
       <r>   -0.8696    1.0000 </r>
       <r>   -0.8636    1.0000 </r>
       <r>   -0.8610    1.0000 </r>
       <r>   -0.8043    1.0000 </r>
       <r>   -0.8008    1.0000 </r>
       <r>   -0.7992    1.0000 </r>
       <r>   -0.7561    1.0000 </r>
       <r>   -0.7508    1.0000 </r>
       <r>   -0.7480    1.0000 </r>
       <r>   -0.7186    1.0000 </r>
       <r>   -0.7183    1.0000 </r>
       <r>   -0.7121    1.0000 </r>
       <r>   -0.2082    1.0000 </r>
       <r>   -0.2031    1.0000 </r>
       <r>   -0.2012    1.0000 </r>
       <r>   -0.1594    1.0000 </r>
       <r>   -0.1557    1.0000 </r>
       <r>   -0.1533    1.0000 </r>
       <r>   -0.1033    1.0000 </r>
       <r>   -0.1023    1.0000 </r>
       <r>   -0.0990    1.0000 </r>
       <r>   -0.0731    1.0000 </r>
       <r>   -0.0619    1.0000 </r>
       <r>   -0.0615    1.0000 </r>
       <r>   -0.0611    1.0000 </r>
       <r>   -0.0611    1.0000 </r>
       <r>   -0.0600    1.0000 </r>
       <r>    0.0062    1.0000 </r>
       <r>    0.0120    1.0000 </r>
       <r>    0.0138    1.0000 </r>
       <r>    0.0549    1.0000 </r>
       <r>    0.0609    1.0000 </r>
       <r>    0.0622    1.0000 </r>
       <r>    0.1803    1.0000 </r>
       <r>    0.1803    1.0000 </r>
       <r>    0.1842    1.0000 </r>
       <r>    0.2052    1.0000 </r>
       <r>    0.2080    1.0000 </r>
       <r>    0.2130    1.0000 </r>
       <r>    0.2226    1.0000 </r>
       <r>    0.2771    1.0000 </r>
       <r>    0.2830    1.0000 </r>
       <r>    0.2938    1.0000 </r>
       <r>    0.2944    1.0000 </r>
       <r>    0.2990    1.0000 </r>
       <r>    0.3287    1.0000 </r>
       <r>    0.3292    1.0000 </r>
       <r>    0.3299    1.0000 </r>
       <r>    0.3756    1.0000 </r>
       <r>    0.3957    1.0000 </r>
       <r>    0.4032    1.0000 </r>
       <r>    0.4705    1.0000 </r>
       <r>    0.4706    1.0000 </r>
       <r>    0.4724    1.0000 </r>
       <r>    0.5179    1.0000 </r>
       <r>    0.5189    1.0000 </r>
       <r>    0.5223    1.0000 </r>
       <r>    0.6492    1.0000 </r>
       <r>    0.6975    1.0000 </r>
       <r>    0.7053    1.0000 </r>
       <r>    0.7355    1.0000 </r>
       <r>    0.8540    1.0000 </r>
       <r>    0.8574    1.0000 </r>
       <r>    0.8576    1.0000 </r>
       <r>    0.8992    1.0000 </r>
       <r>    0.9005    1.0000 </r>
       <r>    0.9008    1.0000 </r>
       <r>    0.9023    1.0000 </r>
       <r>    0.9472    1.0000 </r>
       <r>    0.9576    1.0000 </r>
       <r>    0.9887    1.0000 </r>
       <r>    0.9888    1.0000 </r>
       <r>    0.9926    1.0000 </r>
       <r>    1.0150    1.0000 </r>
       <r>    1.0171    1.0000 </r>
       <r>    1.0192    1.0000 </r>
       <r>    1.1336    1.0000 </r>
       <r>    1.1937    1.0000 </r>
       <r>    1.2070    1.0000 </r>
       <r>    1.2145    1.0000 </r>
       <r>    1.2810    1.0000 </r>
       <r>    1.2817    1.0000 </r>
       <r>    1.2879    1.0000 </r>
       <r>    1.3493    1.0000 </r>
       <r>    1.3731    1.0000 </r>
[...]
       <r>    -2.8366    26.8153   244.8945 </r>
       <r>    -2.7830    35.2852   246.7870 </r>
       <r>    -2.7293    81.0706   251.1352 </r>
       <r>    -2.6757    48.3618   253.7291 </r>
       <r>    -2.6221    47.0013   256.2500 </r>
       <r>    -2.5684     0.0000   256.2500 </r>
       <r>    -2.5148    75.8809   260.3199 </r>
       <r>    -2.4612    33.3731   262.1098 </r>
       <r>    -2.4075    60.0459   265.3304 </r>
       <r>    -2.3539    50.6441   268.0467 </r>
       <r>    -2.3003   108.7131   273.8775 </r>
       <r>    -2.2466    25.5930   275.2501 </r>
       <r>    -2.1930    55.6883   278.2370 </r>
       <r>    -2.1394    27.9287   279.7349 </r>
       <r>    -2.0857     7.8696   280.1570 </r>
       <r>    -2.0321    34.3611   282.0000 </r>
       <r>    -1.9785     0.2528   282.0136 </r>
       <r>    -1.9248    55.6815   285.0000 </r>
       <r>    -1.8712    40.9968   287.1989 </r>
       <r>    -1.8176    56.8765   290.2495 </r>
       <r>    -1.7639    50.6739   292.9673 </r>
       <r>    -1.7103     5.3054   293.2519 </r>
       <r>    -1.6566    48.4115   295.8484 </r>
       <r>    -1.6030    96.4844   301.0234 </r>
       <r>    -1.5494    67.1842   304.6268 </r>
       <r>    -1.4957     6.9417   304.9991 </r>
       <r>    -1.4421     5.8230   305.3114 </r>
       <r>    -1.3885    35.7775   307.2304 </r>
       <r>    -1.3348     0.3663   307.2500 </r>
       <r>    -1.2812     0.0013   307.2501 </r>
       <r>    -1.2276    27.9778   308.7506 </r>
       <r>    -1.1739    27.9537   310.2500 </r>
       <r>    -1.1203     0.0000   310.2500 </r>
       <r>    -1.0667     1.4535   310.3280 </r>
       <r>    -1.0130    26.5134   311.7500 </r>
       <r>    -0.9594     0.0000   311.7500 </r>
       <r>    -0.9058     0.0000   311.7500 </r>
       <r>    -0.8521    14.3414   312.5192 </r>
       <r>    -0.7985    38.4570   314.5818 </r>
       <r>    -0.7449    39.8758   316.7206 </r>
       <r>    -0.6912    22.8686   317.9471 </r>
       <r>    -0.6376    59.4755   321.1371 </r>
       <r>    -0.5840    30.4232   322.7688 </r>
       <r>    -0.5303    18.2938   323.7500 </r>
       <r>    -0.4767     0.0000   323.7500 </r>
       <r>    -0.4230     0.0075   323.7504 </r>
       <r>    -0.3694     5.4077   324.0404 </r>
       <r>    -0.3158    59.6426   327.2394 </r>
       <r>    -0.2621    92.4424   332.1975 </r>
       <r>    -0.2085   131.2774   339.2385 </r>
       <r>    -0.1549    34.3688   341.0819 </r>
       <r>    -0.1012   114.4152   347.2185 </r>
       <r>    -0.0476    86.7148   351.8695 </r>
       <r>     0.0060   104.5760   357.4784 </r>
       <r>     0.0597    56.0764   360.4860 </r>
       <r>     0.1133    27.4324   361.9573 </r>
       <r>     0.1669    57.2760   365.0293 </r>
       <r>     0.2206   115.9781   371.2498 </r>
       <r>     0.2742   132.2756   378.3444 </r>
       <r>     0.3278   108.3942   384.1581 </r>
       <r>     0.3815    82.6028   388.5885 </r>
       <r>     0.4351    95.2131   393.6952 </r>
       <r>     0.4887   125.8137   400.4432 </r>
       <r>     0.5424    47.5394   402.9930 </r>
       <r>     0.5960    62.6964   406.3558 </r>
       <r>     0.6496    36.8948   408.3346 </r>
       <r>     0.7033    54.5432   411.2600 </r>
       <r>     0.7569   112.2544   417.2808 </r>
       <r>     0.8105   105.3018   422.9286 </r>
       <r>     0.8642   125.5222   429.6610 </r>
       <r>     0.9178   170.9289   438.8287 </r>
       <r>     0.9715   120.3611   445.2843 </r>
       <r>     1.0251   119.3563   451.6860 </r>
       <r>     1.0787    87.0448   456.3547 </r>
       <r>     1.1324   144.2771   464.0929 </r>
       <r>     1.1860    69.1327   467.8009 </r>
       <r>     1.2396   135.0797   475.0458 </r>
       <r>     1.2933   106.7710   480.7725 </r>
       <r>     1.3469    99.7955   486.1250 </r>
       <r>     1.4005   111.0578   492.0815 </r>
       <r>     1.4542    83.2616   496.5473 </r>
       <r>     1.5078   148.0178   504.4862 </r>
       <r>     1.5614   159.0678   513.0178 </r>
       <r>     1.6151   107.0173   518.7577 </r>
       <r>     1.6687   111.0902   524.7160 </r>
       <r>     1.7223   117.4065   531.0131 </r>
       <r>     1.7760   106.4823   536.7242 </r>
       <r>     1.8296    89.5081   541.5250 </r>
       <r>     1.8832    97.3796   546.7479 </r>
       <r>     1.9369    84.2781   551.2682 </r>
       <r>     1.9905    80.6474   555.5937 </r>
       <r>     2.0441    68.8368   559.2857 </r>
       <r>     2.0978    81.2328   563.6426 </r>
       <r>     2.1514   158.8460   572.1623 </r>
       <r>     2.2051    80.7275   576.4921 </r>
       <r>     2.2587    98.2726   581.7629 </r>
       <r>     2.3123    98.9258   587.0689 </r>
       <r>     2.3660    51.4130   589.8264 </r>
       <r>     2.4196    99.0087   595.1367 </r>
       <r>     2.4732    63.9579   598.5670 </r>
       <r>     2.5269    72.5763   602.4597 </r>
       <r>     2.5805    49.7945   605.1304 </r>
       <r>     2.6341    87.9005   609.8449 </r>
       <r>     2.6878   123.3326   616.4598 </r>
       <r>     2.7414    53.1770   619.3120 </r>
       <r>     2.7950    93.0674   624.3036 </r>
       <r>     2.8487    69.9050   628.0530 </r>
       <r>     2.9023    70.2885   631.8229 </r>
       <r>     2.9559    17.2830   632.7499 </r>
       <r>     3.0096    43.4700   635.0814 </r>
       <r>     3.0632    81.3595   639.4451 </r>
       <r>     3.1168    19.0748   640.4682 </r>
       <r>     3.1705   102.7568   645.9795 </r>
       <r>     3.2241    67.1523   649.5813 </r>
       <r>     3.2777    25.9362   650.9724 </r>
       <r>     3.3314    62.1661   654.3066 </r>
       <r>     3.3850    87.1076   658.9786 </r>
       <r>     3.4387    38.2322   661.0292 </r>
       <r>     3.4923    50.7168   663.7494 </r>
       <r>     3.5459    28.0141   665.2520 </r>
       <r>     3.5996    60.4788   668.4957 </r>
       <r>     3.6532    70.2399   672.2630 </r>
       <r>     3.7068    31.0751   673.9297 </r>
       <r>     3.7605    15.3583   674.7535 </r>
       <r>     3.8141    45.2505   677.1805 </r>
       <r>     3.8677     7.6970   677.5933 </r>
       <r>     3.9214    26.2267   679.0000 </r>
       <r>     3.9750     9.1761   679.4922 </r>
       <r>     4.0286    59.0191   682.6576 </r>
       <r>     4.0823     4.0255   682.8736 </r>
       <r>     4.1359    55.3093   685.8401 </r>
       <r>     4.1895    77.5116   689.9974 </r>
       <r>     4.2432     6.4844   690.3452 </r>
       <r>     4.2968    67.1881   693.9488 </r>
       <r>     4.3504    25.9656   695.3415 </r>
       <r>     4.4041    47.0526   697.8652 </r>
       <r>     4.4577    12.1364   698.5161 </r>
       <r>     4.5113    65.2152   702.0139 </r>
       <r>     4.5650    86.3673   706.6462 </r>
       <r>     4.6186     3.2442   706.8202 </r>
       <r>     4.6722    67.4142   710.4359 </r>
       <r>     4.7259    86.2784   715.0635 </r>
       <r>     4.7795   108.7032   720.8937 </r>
       <r>     4.8332    68.2525   724.5545 </r>
       <r>     4.8868    48.7567   727.1695 </r>
       <r>     4.9404    33.0555   728.9425 </r>
       <r>     4.9941    58.1007   732.0587 </r>
       <r>     5.0477    65.4238   735.5677 </r>
       <r>     5.1013    65.9177   739.1032 </r>
       <r>     5.1550   109.9480   745.0002 </r>
       <r>     5.2086   116.8892   751.2696 </r>
       <r>     5.2622    79.8175   755.5506 </r>
       <r>     5.3159    79.6160   759.8208 </r>
       <r>     5.3695    81.0115   764.1658 </r>
       <r>     5.4231    76.6829   768.2787 </r>
       <r>     5.4768    94.0591   773.3235 </r>
       <r>     5.5304    90.9025   778.1991 </r>
       <r>     5.5840    89.1854   782.9825 </r>
       <r>     5.6377   100.9018   788.3943 </r>
       <r>     5.6913    92.0570   793.3318 </r>
       <r>     5.7449   119.7287   799.7534 </r>
       <r>     5.7986    79.3426   804.0090 </r>
       <r>     5.8522    56.5373   807.0414 </r>
       <r>     5.9058    17.8733   808.0000 </r>
       <r>     5.9595     0.0000   808.0000 </r>
       <r>     6.0131     0.0000   808.0000 </r>
       <r>     6.0668     0.0000   808.0000 </r>
       <r>     6.1204     0.0000   808.0000 </r>
       <r>     6.1740     0.0000   808.0000 </r>
       <r>     6.2277     0.0000   808.0000 </r>
       <r>     6.2813     0.0000   808.0000 </r>
       <r>     6.3349     0.0000   808.0000 </r>
       <r>     6.3886     0.0000   808.0000 </r>
       <r>     6.4422     0.0000   808.0000 </r>
       <r>     6.4958     0.0000   808.0000 </r>
       <r>     6.5495     0.0000   808.0000 </r>
       <r>     6.6031     0.0000   808.0000 </r>
      </set>
     </set>
    </array>
   </total>
  </dos>
 </calculation>
 <structure name="finalpos" >
  <crystal>
   <varray name="basis" >
    <v>      16.00267601       0.00000000       0.00000000 </v>
    <v>       8.00133800      13.85872459       0.00000000 </v>
    <v>       0.00000000       0.00000000      20.30401230 </v>
   </varray>
   <i name="volume">   4502.95643002 </i>
   <varray name="rec_basis" >
    <v>       0.06248955      -0.03607836       0.00000000 </v>
    <v>       0.00000000       0.07215671       0.00000000 </v>
    <v>       0.00000000       0.00000000       0.04925135 </v>
   </varray>
  </crystal>
  <varray name="positions" >
   <v>       0.31088322       0.31088316       0.32176235 </v>
   <v>       0.97755003       0.97755003       0.00000002 </v>
   <v>       0.64421654       0.64421660       0.16088121 </v>
   <v>       0.81088316       0.31088316       0.32176235 </v>
   <v>       0.47755000       0.97755003       0.00000003 </v>
   <v>       0.14421658       0.64421660       0.16088121 </v>
   <v>       0.31088316       0.81088316       0.32176235 </v>
   <v>       0.97755003       0.47755000       0.00000003 </v>
   <v>       0.64421660       0.14421658       0.16088121 </v>
   <v>       0.81088316       0.81088316       0.32176235 </v>
   <v>       0.47755000       0.47755000       0.00000000 </v>
   <v>       0.14421657       0.14421657       0.16088118 </v>
   <v>       0.47754979       0.47754973       0.36198267 </v>
   <v>       0.14421669       0.14421661       0.04022033 </v>
   <v>       0.81088328       0.81088322       0.20110148 </v>
   <v>       0.97754979       0.47754967       0.36198267 </v>
   <v>       0.64421666       0.14421663       0.04022033 </v>
   <v>       0.31088328       0.81088322       0.20110148 </v>
   <v>       0.47754967       0.97754979       0.36198267 </v>
   <v>       0.14421663       0.64421666       0.04022033 </v>
   <v>       0.81088322       0.31088328       0.20110148 </v>
   <v>       0.97754967       0.97754979       0.36198264 </v>
   <v>       0.64421660       0.64421666       0.04022033 </v>
   <v>       0.31088316       0.31088325       0.20110145 </v>
   <v>       0.56088316       0.56088316       0.32176238 </v>
   <v>       0.22755001       0.22755001       0.00000003 </v>
   <v>       0.89421660       0.89421660       0.16088118 </v>
   <v>       0.06088321       0.56088316       0.32176241 </v>
   <v>       0.72755003       0.22755005       0.00000003 </v>
   <v>       0.39421660       0.89421660       0.16088121 </v>
   <v>       0.56088316       0.06088318       0.32176235 </v>
   <v>       0.22755001       0.72754997       0.00000001 </v>
   <v>       0.89421654       0.39421660       0.16088118 </v>
   <v>       0.06088319       0.06088311       0.32176235 </v>
   <v>       0.72755003       0.72754991       0.00000002 </v>
   <v>       0.39421663       0.39421657       0.16088121 </v>
   <v>       0.72754979       0.72754979       0.36198264 </v>
   <v>       0.39421663       0.39421663       0.04022027 </v>
   <v>       0.06088319       0.06088319       0.20110145 </v>
   <v>       0.22754979       0.72754979       0.36198264 </v>
   <v>       0.89421660       0.39421663       0.04022029 </v>
   <v>       0.56088316       0.06088319       0.20110145 </v>
   <v>       0.72754979       0.22754985       0.36198264 </v>
   <v>       0.39421663       0.89421666       0.04022029 </v>
   <v>       0.06088320       0.56088328       0.20110145 </v>
   <v>       0.22754985       0.22754985       0.36198264 </v>
   <v>       0.89421672       0.89421666       0.04022028 </v>
   <v>       0.56088328       0.56088328       0.20110145 </v>
   <v>       0.31088316       0.56088316       0.32176235 </v>
   <v>       0.97755003       0.22755001       0.00000002 </v>
   <v>       0.64421654       0.89421660       0.16088121 </v>
   <v>       0.81088316       0.56088316       0.32176238 </v>
   <v>       0.47755003       0.22755001       0.00000003 </v>
   <v>       0.14421660       0.89421660       0.16088121 </v>
   <v>       0.31088316       0.06088318       0.32176235 </v>
   <v>       0.97755003       0.72754997       0.00000003 </v>
   <v>       0.64421660       0.39421660       0.16088121 </v>
   <v>       0.81088316       0.06088309       0.32176235 </v>
   <v>       0.47755000       0.72754991       0.00000002 </v>
   <v>       0.14421661       0.39421654       0.16088118 </v>
   <v>       0.47754979       0.72754979       0.36198264 </v>
   <v>       0.14421661       0.39421660       0.04022029 </v>
   <v>       0.81088316       0.06088319       0.20110145 </v>
   <v>       0.97754973       0.72754979       0.36198264 </v>
   <v>       0.64421660       0.39421663       0.04022029 </v>
   <v>       0.31088316       0.06088319       0.20110145 </v>
   <v>       0.47754973       0.22754985       0.36198261 </v>
   <v>       0.14421663       0.89421666       0.04022028 </v>
   <v>       0.81088316       0.56088328       0.20110145 </v>
   <v>       0.97754979       0.22754985       0.36198261 </v>
   <v>       0.64421666       0.89421666       0.04022027 </v>
   <v>       0.31088322       0.56088328       0.20110145 </v>
   <v>       0.56088311       0.31088316       0.32176235 </v>
   <v>       0.22755001       0.97755003       0.00000002 </v>
   <v>       0.89421660       0.64421660       0.16088121 </v>
   <v>       0.06088318       0.31088316       0.32176238 </v>
   <v>       0.72754997       0.97755003       0.00000003 </v>
   <v>       0.39421663       0.64421660       0.16088121 </v>
   <v>       0.56088316       0.81088316       0.32176238 </v>
   <v>       0.22755000       0.47755000       0.00000003 </v>
   <v>       0.89421660       0.14421658       0.16088121 </v>
   <v>       0.06088318       0.81088311       0.32176235 </v>
   <v>       0.72754997       0.47754994       0.00000001 </v>
   <v>       0.39421660       0.14421654       0.16088118 </v>
   <v>       0.72754979       0.47754985       0.36198267 </v>
   <v>       0.39421669       0.14421672       0.04022032 </v>
   <v>       0.06088328       0.81088334       0.20110148 </v>
   <v>       0.22754967       0.47754985       0.36198267 </v>
   <v>       0.89421666       0.14421673       0.04022032 </v>
   <v>       0.56088328       0.81088334       0.20110145 </v>
   <v>       0.72754979       0.97754985       0.36198264 </v>
   <v>       0.39421669       0.64421672       0.04022033 </v>
   <v>       0.06088328       0.31088337       0.20110148 </v>
   <v>       0.22754973       0.97754979       0.36198267 </v>
   <v>       0.89421666       0.64421666       0.04022032 </v>
   <v>       0.56088328       0.31088328       0.20110145 </v>
   <v>       0.72310114       0.06289315       0.47340384 </v>
   <v>       0.05643449       0.06289315       0.65792602 </v>
   <v>       0.38976786       0.06289315       0.84244823 </v>
   <v>       0.38976771       0.72955978       0.47340381 </v>
   <v>       0.72310114       0.72955978       0.65792602 </v>
   <v>       0.05643449       0.72955978       0.84244823 </v>
   <v>       0.05643433       0.39622641       0.47340384 </v>
   <v>       0.38976771       0.39622641       0.65792602 </v>
   <v>       0.72310114       0.39622641       0.84244823 </v>
   <v>       0.05643437       0.06289315       0.51953435 </v>
   <v>       0.38976786       0.06289315       0.70405662 </v>
   <v>       0.72310114       0.06289315       0.88857883 </v>
   <v>       0.72310114       0.72955978       0.51953441 </v>
   <v>       0.05643449       0.72955978       0.70405662 </v>
   <v>       0.38976786       0.72955978       0.88857883 </v>
   <v>       0.38976771       0.39622641       0.51953435 </v>
   <v>       0.72310108       0.39622641       0.70405662 </v>
   <v>       0.05643437       0.39622641       0.88857889 </v>
   <v>       0.38976771       0.22955978       0.47340384 </v>
   <v>       0.72310102       0.22955978       0.65792602 </v>
   <v>       0.05643449       0.22955978       0.84244823 </v>
   <v>       0.05643433       0.89622641       0.47340384 </v>
   <v>       0.38976774       0.89622641       0.65792608 </v>
   <v>       0.72310114       0.89622647       0.84244823 </v>
   <v>       0.72310114       0.56289309       0.47340384 </v>
   <v>       0.05643449       0.56289309       0.65792602 </v>
   <v>       0.38976774       0.56289309       0.84244823 </v>
   <v>       0.72310108       0.22955978       0.51953435 </v>
   <v>       0.05643437       0.22955978       0.70405662 </v>
   <v>       0.38976774       0.22955978       0.88857889 </v>
   <v>       0.38976771       0.89622641       0.51953435 </v>
   <v>       0.72310108       0.89622641       0.70405656 </v>
   <v>       0.05643460       0.89622641       0.88857889 </v>
   <v>       0.05643437       0.56289309       0.51953435 </v>
   <v>       0.38976762       0.56289309       0.70405650 </v>
   <v>       0.72310114       0.56289309       0.88857889 </v>
   <v>       0.22310103       0.06289315       0.47340384 </v>
   <v>       0.55643445       0.06289315       0.65792608 </v>
   <v>       0.88976783       0.06289315       0.84244823 </v>
   <v>       0.88976783       0.72955978       0.47340387 </v>
   <v>       0.22310123       0.72955978       0.65792602 </v>
   <v>       0.55643451       0.72955978       0.84244823 </v>
   <v>       0.55643439       0.39622641       0.47340381 </v>
   <v>       0.88976777       0.39622641       0.65792602 </v>
   <v>       0.22310111       0.39622641       0.84244823 </v>
   <v>       0.55643439       0.06289315       0.51953429 </v>
   <v>       0.88976771       0.06289315       0.70405650 </v>
   <v>       0.22310111       0.06289315       0.88857889 </v>
   <v>       0.22310098       0.72955978       0.51953435 </v>
   <v>       0.55643439       0.72955978       0.70405656 </v>
   <v>       0.88976777       0.72955978       0.88857889 </v>
   <v>       0.88976777       0.39622641       0.51953435 </v>
   <v>       0.22310111       0.39622641       0.70405656 </v>
   <v>       0.55643463       0.39622641       0.88857883 </v>
   <v>       0.88976771       0.22955990       0.47340381 </v>
   <v>       0.22310111       0.22955990       0.65792602 </v>
   <v>       0.55643451       0.22955990       0.84244823 </v>
   <v>       0.55643439       0.89622641       0.47340384 </v>
   <v>       0.88976771       0.89622641       0.65792602 </v>
   <v>       0.22310111       0.89622641       0.84244823 </v>
   <v>       0.22310102       0.56289309       0.47340384 </v>
   <v>       0.55643445       0.56289309       0.65792602 </v>
   <v>       0.88976783       0.56289309       0.84244823 </v>
   <v>       0.22310090       0.22955990       0.51953441 </v>
   <v>       0.55643433       0.22955990       0.70405662 </v>
   <v>       0.88976759       0.22955990       0.88857889 </v>
   <v>       0.88976771       0.89622647       0.51953441 </v>
   <v>       0.22310111       0.89622647       0.70405662 </v>
   <v>       0.55643451       0.89622647       0.88857889 </v>
   <v>       0.55643439       0.56289303       0.51953441 </v>
   <v>       0.88976771       0.56289309       0.70405662 </v>
   <v>       0.22310099       0.56289309       0.88857889 </v>
  </varray>
 </structure>
</modeling>
