 120 120   0   0
  0.1187863E+02  0.1330318E-08  0.1629300E-08  0.7204130E-09  0.5000000E-15
  1.000000000000000E-004
  CAR 
 Si and Ge interface calculation         
      9.11781680    -14.33724389  301      5.38089507      1.00000000
    -14.337  0.0000E+00  0.0000E+00  0.0000E+00  0.0000E+00
    -14.259  0.0000E+00  0.0000E+00  0.0000E+00  0.0000E+00
    -14.181  0.0000E+00  0.0000E+00  0.0000E+00  0.0000E+00
    -14.103  0.0000E+00  0.0000E+00  0.0000E+00  0.0000E+00
    -14.025  0.0000E+00  0.0000E+00  0.0000E+00  0.0000E+00
    -13.946  0.0000E+00  0.0000E+00  0.0000E+00  0.0000E+00
    -13.868  0.0000E+00  0.0000E+00  0.0000E+00  0.0000E+00
    -13.790  0.0000E+00  0.0000E+00  0.0000E+00  0.0000E+00
    -13.712  0.0000E+00  0.0000E+00  0.0000E+00  0.0000E+00
    -13.634  0.0000E+00  0.0000E+00  0.0000E+00  0.0000E+00
    -13.555  0.0000E+00  0.0000E+00  0.0000E+00  0.0000E+00
    -13.477  0.0000E+00  0.0000E+00  0.0000E+00  0.0000E+00
    -13.399  0.0000E+00  0.0000E+00  0.0000E+00  0.0000E+00
    -13.321  0.1176E-11  0.5917E-16  0.9192E-13  0.4626E-17
    -13.243  0.4262E+01  0.4220E+01  0.3333E+00  0.3300E+00
    -13.164  0.1107E+02  0.8739E+01  0.1199E+01  0.1017E+01
    -13.086  0.1451E+02  0.1683E+02  0.2333E+01  0.2333E+01
    -13.008  0.1441E+02  0.8766E+01  0.3460E+01  0.3019E+01
    -12.930  0.9370E+01  0.1466E+02  0.4333E+01  0.4333E+01
    -12.852  0.1266E+02  0.9515E+01  0.5323E+01  0.5077E+01
    -12.774  0.1898E+02  0.2018E+02  0.6883E+01  0.6655E+01
    -12.695  0.1334E+02  0.1319E+02  0.8013E+01  0.7760E+01
    -12.617  0.1099E+02  0.1206E+02  0.8931E+01  0.8702E+01
    -12.539  0.5337E+01  0.7519E+01  0.9418E+01  0.9345E+01
    -12.461  0.1231E+02  0.1268E+02  0.1038E+02  0.1034E+02
    -12.383  0.2289E+02  0.2186E+02  0.1217E+02  0.1205E+02
    -12.304  0.1687E+01  0.3677E+01  0.1233E+02  0.1233E+02
    -12.226  0.6554E+01  0.4454E+01  0.1285E+02  0.1268E+02
    -12.148  0.2329E+02  0.2538E+02  0.1467E+02  0.1467E+02
    -12.070  0.9952E+01  0.8759E+01  0.1544E+02  0.1535E+02
    -11.992  0.7564E+01  0.5408E+01  0.1604E+02  0.1577E+02
    -11.914  0.1579E+02  0.1994E+02  0.1734E+02  0.1733E+02
    -11.835  0.1702E+02  0.1705E+02  0.1867E+02  0.1867E+02
    -11.757  0.2402E+02  0.1945E+02  0.2054E+02  0.2019E+02
    -11.679  0.4279E+01  0.7078E+01  0.2100E+02  0.2100E+02
    -11.601  0.9550E+01  0.8629E+01  0.2175E+02  0.2167E+02
    -11.523  0.2046E+02  0.2122E+02  0.2335E+02  0.2333E+02
    -11.444  0.8570E+01  0.8533E+01  0.2402E+02  0.2400E+02
    -11.366  0.8225E+01  0.8087E+01  0.2466E+02  0.2463E+02
    -11.288  0.1705E+02  0.1695E+02  0.2600E+02  0.2599E+02
    -11.210  0.4306E+01  0.4265E+01  0.2634E+02  0.2633E+02
    -11.132  0.1284E+02  0.1279E+02  0.2734E+02  0.2733E+02
    -11.054  0.8432E+01  0.8525E+01  0.2800E+02  0.2800E+02
    -10.975  0.0000E+00  0.0000E+00  0.2800E+02  0.2800E+02
    -10.897  0.5949E+01  0.3610E+01  0.2847E+02  0.2828E+02
    -10.819  0.2409E+01  0.3799E+01  0.2867E+02  0.2867E+02
    -10.741  0.4263E+01  0.4263E+01  0.2900E+02  0.2900E+02
    -10.663  0.8527E+01  0.8517E+01  0.2967E+02  0.2967E+02
    -10.584  0.2079E+01  0.1304E+00  0.2983E+02  0.2968E+02
    -10.506  0.2671E+02  0.2409E+02  0.3192E+02  0.3156E+02
    -10.428  0.1249E+02  0.1828E+02  0.3300E+02  0.3300E+02
    -10.350  0.1557E+02  0.1049E+02  0.3422E+02  0.3382E+02
    -10.272  0.2923E+02  0.3438E+02  0.3666E+02  0.3651E+02
    -10.194  0.1274E+02  0.1451E+02  0.3767E+02  0.3764E+02
    -10.115  0.8526E+01  0.8445E+01  0.3833E+02  0.3833E+02
    -10.037  0.1578E+02  0.1326E+02  0.3957E+02  0.3937E+02
     -9.959  0.1431E+02  0.1641E+02  0.4073E+02  0.4068E+02
     -9.881  0.1187E+02  0.1182E+02  0.4166E+02  0.4160E+02
     -9.803  0.2836E-12  0.0000E+00  0.4167E+02  0.4167E+02
     -9.724  0.1709E+02  0.1031E+02  0.4300E+02  0.4247E+02
     -9.646  0.2142E+02  0.2811E+02  0.4485E+02  0.4472E+02
     -9.568  0.1030E+02  0.1213E+02  0.4567E+02  0.4567E+02
     -9.490  0.6049E+01  0.1757E+01  0.4614E+02  0.4580E+02
     -9.412  0.6800E+01  0.1137E+02  0.4679E+02  0.4669E+02
     -9.333  0.6760E+01  0.8194E+01  0.4733E+02  0.4733E+02
     -9.255  0.1279E+02  0.1228E+02  0.4833E+02  0.4829E+02
     -9.177  0.8527E+01  0.8526E+01  0.4900E+02  0.4900E+02
     -9.099  0.7812E+01  0.4185E+01  0.4961E+02  0.4933E+02
     -9.021  0.1724E+02  0.2107E+02  0.5102E+02  0.5100E+02
     -8.943  0.2347E+02  0.1877E+02  0.5285E+02  0.5247E+02
     -8.864  0.1011E+01  0.6402E+01  0.5300E+02  0.5300E+02
     -8.786  0.1912E+02  0.1405E+02  0.5449E+02  0.5410E+02
     -8.708  0.1883E+02  0.2315E+02  0.5610E+02  0.5593E+02
     -8.630  0.2182E+02  0.1765E+02  0.5781E+02  0.5739E+02
     -8.552  0.1731E+02  0.1937E+02  0.5922E+02  0.5901E+02
     -8.473  0.4383E+02  0.3927E+02  0.6264E+02  0.6208E+02
     -8.395  0.4539E+01  0.1012E+02  0.6312E+02  0.6303E+02
     -8.317  0.2458E+02  0.2123E+02  0.6505E+02  0.6469E+02
     -8.239  0.2115E+02  0.2342E+02  0.6677E+02  0.6653E+02
     -8.161  0.1360E+02  0.1537E+02  0.6791E+02  0.6774E+02
     -8.083  0.1698E+02  0.1260E+02  0.6926E+02  0.6875E+02
     -8.004  0.3655E+02  0.3651E+02  0.7218E+02  0.7168E+02
     -7.926  0.1747E+02  0.2311E+02  0.7364E+02  0.7349E+02
     -7.848  0.9757E+01  0.8043E+01  0.7443E+02  0.7417E+02
     -7.770  0.2034E+02  0.2196E+02  0.7606E+02  0.7595E+02
     -7.692  0.1164E+02  0.9661E+01  0.7701E+02  0.7676E+02
     -7.613  0.7668E+01  0.1084E+02  0.7767E+02  0.7767E+02
     -7.535  0.1073E+02  0.6782E+01  0.7851E+02  0.7820E+02
     -7.457  0.9575E+01  0.1323E+02  0.7933E+02  0.7933E+02
     -7.379  0.7122E+01  0.3293E+01  0.7989E+02  0.7959E+02
     -7.301  0.1763E+02  0.1779E+02  0.8130E+02  0.8102E+02
     -7.223  0.8527E+01  0.1104E+02  0.8200E+02  0.8200E+02
     -7.144  0.0000E+00  0.0000E+00  0.8200E+02  0.8200E+02
     -7.066  0.6058E+01  0.1999E+01  0.8247E+02  0.8216E+02
     -6.988  0.1906E+01  0.6372E+01  0.8267E+02  0.8267E+02
     -6.910  0.4249E+01  0.4263E+01  0.8300E+02  0.8300E+02
     -6.832  0.1279E+02  0.1271E+02  0.8400E+02  0.8399E+02
     -6.753  0.4048E+00  0.1447E-01  0.8403E+02  0.8400E+02
     -6.675  0.8133E+01  0.8513E+01  0.8467E+02  0.8467E+02
     -6.597  0.8844E+01  0.8579E+01  0.8536E+02  0.8534E+02
     -6.519  0.8199E+01  0.8475E+01  0.8600E+02  0.8600E+02
     -6.441  0.9810E+01  0.5062E+01  0.8677E+02  0.8640E+02
     -6.363  0.1125E+02  0.1324E+02  0.8774E+02  0.8754E+02
     -6.284  0.9990E+01  0.1155E+02  0.8854E+02  0.8850E+02
     -6.206  0.2651E+01  0.2188E+01  0.8875E+02  0.8868E+02
     -6.128  0.1995E+02  0.1886E+02  0.9031E+02  0.9015E+02
     -6.050  0.2547E+02  0.2425E+02  0.9235E+02  0.9208E+02
     -5.972  0.2186E+02  0.2291E+02  0.9415E+02  0.9393E+02
     -5.893  0.2043E+02  0.1996E+02  0.9576E+02  0.9565E+02
     -5.815  0.2352E+02  0.2070E+02  0.9762E+02  0.9729E+02
     -5.737  0.2466E+02  0.2883E+02  0.9958E+02  0.9956E+02
     -5.659  0.1914E+02  0.1763E+02  0.1011E+03  0.1010E+03
     -5.581  0.1770E+02  0.1760E+02  0.1025E+03  0.1024E+03
     -5.503  0.1824E+02  0.1752E+02  0.1039E+03  0.1038E+03
     -5.424  0.2297E+02  0.2349E+02  0.1058E+03  0.1056E+03
     -5.346  0.2027E+02  0.1612E+02  0.1073E+03  0.1069E+03
     -5.268  0.1521E+02  0.1924E+02  0.1086E+03  0.1085E+03
     -5.190  0.1605E+02  0.1287E+02  0.1099E+03  0.1095E+03
     -5.112  0.1572E+02  0.2034E+02  0.1112E+03  0.1111E+03
     -5.033  0.2785E+02  0.2793E+02  0.1134E+03  0.1132E+03
     -4.955  0.1205E+02  0.1181E+02  0.1144E+03  0.1142E+03
     -4.877  0.1422E+02  0.1475E+02  0.1155E+03  0.1154E+03
     -4.799  0.2994E+02  0.2866E+02  0.1179E+03  0.1177E+03
     -4.721  0.3520E+02  0.3404E+02  0.1206E+03  0.1204E+03
     -4.642  0.3226E+02  0.3271E+02  0.1232E+03  0.1230E+03
     -4.564  0.3271E+02  0.2893E+02  0.1258E+03  0.1254E+03
     -4.486  0.3224E+02  0.3581E+02  0.1285E+03  0.1282E+03
     -4.408  0.2235E+02  0.2294E+02  0.1304E+03  0.1301E+03
     -4.330  0.2794E+02  0.2695E+02  0.1326E+03  0.1323E+03
     -4.252  0.2671E+02  0.2892E+02  0.1347E+03  0.1346E+03
     -4.173  0.2182E+02  0.2150E+02  0.1365E+03  0.1363E+03
     -4.095  0.3123E+02  0.2968E+02  0.1389E+03  0.1387E+03
     -4.017  0.2041E+02  0.1851E+02  0.1406E+03  0.1402E+03
     -3.939  0.3282E+02  0.3136E+02  0.1432E+03  0.1427E+03
     -3.861  0.2797E+02  0.3075E+02  0.1455E+03  0.1452E+03
     -3.782  0.2758E+02  0.2563E+02  0.1476E+03  0.1473E+03
     -3.704  0.2315E+02  0.2483E+02  0.1495E+03  0.1493E+03
     -3.626  0.2194E+02  0.2098E+02  0.1512E+03  0.1510E+03
     -3.548  0.1392E+02  0.1538E+02  0.1524E+03  0.1522E+03
     -3.470  0.3280E+02  0.2884E+02  0.1550E+03  0.1545E+03
     -3.392  0.2693E+02  0.3386E+02  0.1573E+03  0.1571E+03
     -3.313  0.3631E+02  0.3537E+02  0.1601E+03  0.1599E+03
     -3.235  0.3421E+02  0.3205E+02  0.1628E+03  0.1625E+03
     -3.157  0.3496E+02  0.3391E+02  0.1655E+03  0.1653E+03
     -3.079  0.2692E+02  0.2702E+02  0.1677E+03  0.1676E+03
     -3.001  0.2873E+02  0.2785E+02  0.1700E+03  0.1697E+03
     -2.922  0.2490E+02  0.2541E+02  0.1721E+03  0.1718E+03
     -2.844  0.3154E+02  0.3160E+02  0.1745E+03  0.1743E+03
     -2.766  0.2624E+02  0.2337E+02  0.1766E+03  0.1763E+03
     -2.688  0.2443E+02  0.2632E+02  0.1786E+03  0.1783E+03
     -2.610  0.3308E+02  0.3186E+02  0.1812E+03  0.1809E+03
     -2.532  0.2968E+02  0.3214E+02  0.1836E+03  0.1835E+03
     -2.453  0.2765E+02  0.2309E+02  0.1858E+03  0.1853E+03
     -2.375  0.1477E+02  0.1871E+02  0.1870E+03  0.1868E+03
     -2.297  0.2728E+02  0.2559E+02  0.1892E+03  0.1889E+03
     -2.219  0.3195E+02  0.3306E+02  0.1918E+03  0.1914E+03
     -2.141  0.3207E+02  0.3497E+02  0.1943E+03  0.1942E+03
     -2.062  0.2520E+02  0.2429E+02  0.1963E+03  0.1961E+03
     -1.984  0.3209E+02  0.3200E+02  0.1989E+03  0.1987E+03
     -1.906  0.3138E+02  0.2785E+02  0.2014E+03  0.2010E+03
     -1.828  0.3593E+02  0.3763E+02  0.2042E+03  0.2040E+03
     -1.750  0.2258E+02  0.2189E+02  0.2061E+03  0.2058E+03
     -1.672  0.2685E+02  0.2503E+02  0.2082E+03  0.2078E+03
     -1.593  0.2973E+02  0.2919E+02  0.2106E+03  0.2102E+03
     -1.515  0.2912E+02  0.3216E+02  0.2129E+03  0.2128E+03
     -1.437  0.2554E+02  0.2573E+02  0.2150E+03  0.2148E+03
     -1.359  0.1942E+02  0.1933E+02  0.2166E+03  0.2164E+03
     -1.281  0.2924E+02  0.2778E+02  0.2189E+03  0.2186E+03
     -1.202  0.2855E+02  0.2552E+02  0.2212E+03  0.2207E+03
     -1.124  0.3621E+02  0.3821E+02  0.2240E+03  0.2238E+03
     -1.046  0.3920E+02  0.3659E+02  0.2272E+03  0.2267E+03
     -0.968  0.2486E+02  0.2850E+02  0.2292E+03  0.2289E+03
     -0.890  0.4554E+02  0.4308E+02  0.2327E+03  0.2323E+03
     -0.811  0.2323E+02  0.2794E+02  0.2347E+03  0.2345E+03
     -0.733  0.3649E+02  0.3632E+02  0.2376E+03  0.2374E+03
     -0.655  0.4234E+02  0.4112E+02  0.2410E+03  0.2406E+03
     -0.577  0.3216E+02  0.3128E+02  0.2436E+03  0.2431E+03
     -0.499  0.3481E+02  0.3640E+02  0.2465E+03  0.2459E+03
     -0.421  0.4338E+02  0.4424E+02  0.2499E+03  0.2495E+03
     -0.342  0.3019E+02  0.3030E+02  0.2524E+03  0.2520E+03
     -0.264  0.4132E+02  0.3986E+02  0.2557E+03  0.2552E+03
     -0.186  0.3668E+02  0.3866E+02  0.2586E+03  0.2583E+03
     -0.108  0.3439E+02  0.3427E+02  0.2614E+03  0.2611E+03
     -0.030  0.3226E+02  0.3133E+02  0.2640E+03  0.2635E+03
      0.049  0.4004E+02  0.4199E+02  0.2672E+03  0.2669E+03
      0.127  0.2560E+02  0.2536E+02  0.2693E+03  0.2690E+03
      0.205  0.4264E+02  0.4156E+02  0.2726E+03  0.2724E+03
      0.283  0.3973E+02  0.3900E+02  0.2758E+03  0.2755E+03
      0.361  0.3104E+02  0.3269E+02  0.2782E+03  0.2781E+03
      0.439  0.3835E+02  0.3259E+02  0.2813E+03  0.2808E+03
      0.518  0.4302E+02  0.4758E+02  0.2847E+03  0.2846E+03
      0.596  0.4379E+02  0.4247E+02  0.2882E+03  0.2879E+03
      0.674  0.4240E+02  0.4265E+02  0.2916E+03  0.2914E+03
      0.752  0.4177E+02  0.4044E+02  0.2949E+03  0.2947E+03
      0.830  0.3820E+02  0.3559E+02  0.2979E+03  0.2976E+03
      0.909  0.3637E+02  0.3382E+02  0.3007E+03  0.3003E+03
      0.987  0.4106E+02  0.4146E+02  0.3040E+03  0.3037E+03
      1.065  0.3386E+02  0.3283E+02  0.3068E+03  0.3063E+03
      1.143  0.3422E+02  0.3727E+02  0.3096E+03  0.3093E+03
      1.221  0.4122E+02  0.3893E+02  0.3128E+03  0.3125E+03
      1.299  0.4370E+02  0.4190E+02  0.3163E+03  0.3158E+03
      1.378  0.3311E+02  0.3501E+02  0.3191E+03  0.3187E+03
      1.456  0.3299E+02  0.3505E+02  0.3218E+03  0.3215E+03
      1.534  0.4091E+02  0.3854E+02  0.3250E+03  0.3245E+03
      1.612  0.3746E+02  0.4094E+02  0.3281E+03  0.3277E+03
      1.690  0.3352E+02  0.3431E+02  0.3307E+03  0.3305E+03
      1.769  0.2767E+02  0.2279E+02  0.3329E+03  0.3324E+03
      1.847  0.4131E+02  0.4445E+02  0.3364E+03  0.3359E+03
      1.925  0.3615E+02  0.3790E+02  0.3393E+03  0.3390E+03
      2.003  0.3317E+02  0.3144E+02  0.3421E+03  0.3416E+03
      2.081  0.3636E+02  0.3979E+02  0.3450E+03  0.3447E+03
      2.159  0.4742E+02  0.4308E+02  0.3488E+03  0.3481E+03
      2.238  0.3710E+02  0.4076E+02  0.3518E+03  0.3514E+03
      2.316  0.3550E+02  0.3763E+02  0.3546E+03  0.3544E+03
      2.394  0.4042E+02  0.3826E+02  0.3578E+03  0.3574E+03
      2.472  0.2872E+02  0.2908E+02  0.3601E+03  0.3597E+03
      2.550  0.4026E+02  0.3631E+02  0.3634E+03  0.3626E+03
      2.629  0.3351E+02  0.4112E+02  0.3662E+03  0.3658E+03
      2.707  0.3810E+02  0.3483E+02  0.3692E+03  0.3686E+03
      2.785  0.4144E+02  0.3853E+02  0.3726E+03  0.3717E+03
      2.863  0.3462E+02  0.4165E+02  0.3754E+03  0.3750E+03
      2.941  0.3696E+02  0.3427E+02  0.3784E+03  0.3778E+03
      3.020  0.4460E+02  0.4681E+02  0.3820E+03  0.3815E+03
      3.098  0.4446E+02  0.4528E+02  0.3855E+03  0.3851E+03
      3.176  0.3626E+02  0.3440E+02  0.3884E+03  0.3879E+03
      3.254  0.3993E+02  0.3952E+02  0.3916E+03  0.3910E+03
      3.332  0.4180E+02  0.4246E+02  0.3950E+03  0.3945E+03
      3.410  0.3769E+02  0.3340E+02  0.3980E+03  0.3972E+03
      3.489  0.4460E+02  0.4531E+02  0.4016E+03  0.4009E+03
      3.567  0.4127E+02  0.4302E+02  0.4050E+03  0.4044E+03
      3.645  0.4290E+02  0.4482E+02  0.4084E+03  0.4079E+03
      3.723  0.3687E+02  0.4062E+02  0.4114E+03  0.4111E+03
      3.801  0.4169E+02  0.3583E+02  0.4147E+03  0.4140E+03
      3.880  0.4277E+02  0.4273E+02  0.4182E+03  0.4175E+03
      3.958  0.3599E+02  0.3667E+02  0.4211E+03  0.4204E+03
      4.036  0.4603E+02  0.4669E+02  0.4248E+03  0.4242E+03
      4.114  0.3898E+02  0.4211E+02  0.4280E+03  0.4275E+03
      4.192  0.4504E+02  0.4349E+02  0.4315E+03  0.4309E+03
      4.270  0.3510E+02  0.3308E+02  0.4344E+03  0.4338E+03
      4.349  0.4001E+02  0.3847E+02  0.4375E+03  0.4369E+03
      4.427  0.4576E+02  0.4114E+02  0.4411E+03  0.4403E+03
      4.505  0.3116E+02  0.3748E+02  0.4437E+03  0.4433E+03
      4.583  0.3691E+02  0.3503E+02  0.4467E+03  0.4461E+03
      4.661  0.4643E+02  0.5068E+02  0.4503E+03  0.4501E+03
      4.740  0.3502E+02  0.3449E+02  0.4531E+03  0.4529E+03
      4.818  0.3395E+02  0.2958E+02  0.4558E+03  0.4552E+03
      4.896  0.4570E+02  0.4261E+02  0.4594E+03  0.4586E+03
      4.974  0.3775E+02  0.4234E+02  0.4625E+03  0.4619E+03
      5.052  0.4942E+02  0.3870E+02  0.4664E+03  0.4650E+03
      5.130  0.4243E+02  0.5106E+02  0.4699E+03  0.4691E+03
      5.209  0.3063E+02  0.2861E+02  0.4724E+03  0.4713E+03
      5.287  0.5270E+02  0.4443E+02  0.4766E+03  0.4749E+03
      5.365  0.3853E+02  0.4242E+02  0.4797E+03  0.4784E+03
      5.443  0.3782E+02  0.4403E+02  0.4829E+03  0.4819E+03
      5.521  0.4300E+02  0.4260E+02  0.4863E+03  0.4853E+03
      5.600  0.5378E+02  0.4846E+02  0.4905E+03  0.4892E+03
      5.678  0.3820E+02  0.3796E+02  0.4936E+03  0.4922E+03
      5.756  0.3781E+02  0.4165E+02  0.4967E+03  0.4956E+03
      5.834  0.4771E+02  0.4600E+02  0.5005E+03  0.4992E+03
      5.912  0.3504E+02  0.3897E+02  0.5033E+03  0.5024E+03
      5.990  0.3493E+02  0.3471E+02  0.5062E+03  0.5051E+03
      6.069  0.4339E+02  0.3838E+02  0.5098E+03  0.5082E+03
      6.147  0.2936E+02  0.4177E+02  0.5122E+03  0.5114E+03
      6.225  0.3517E+02  0.3348E+02  0.5151E+03  0.5141E+03
      6.303  0.3858E+02  0.4425E+02  0.5182E+03  0.5175E+03
      6.381  0.2581E+02  0.2726E+02  0.5202E+03  0.5198E+03
      6.460  0.3865E+02  0.3671E+02  0.5232E+03  0.5228E+03
      6.538  0.3821E+02  0.3413E+02  0.5263E+03  0.5255E+03
      6.616  0.2886E+02  0.2770E+02  0.5286E+03  0.5279E+03
      6.694  0.3996E+02  0.4154E+02  0.5318E+03  0.5312E+03
      6.772  0.2905E+02  0.3199E+02  0.5341E+03  0.5338E+03
      6.850  0.3567E+02  0.2949E+02  0.5369E+03  0.5362E+03
      6.929  0.3638E+02  0.3746E+02  0.5397E+03  0.5393E+03
      7.007  0.4144E+02  0.3526E+02  0.5430E+03  0.5421E+03
      7.085  0.3236E+02  0.3633E+02  0.5457E+03  0.5450E+03
      7.163  0.3638E+02  0.3351E+02  0.5486E+03  0.5478E+03
      7.241  0.4269E+02  0.5004E+02  0.5521E+03  0.5517E+03
      7.320  0.3174E+02  0.2856E+02  0.5546E+03  0.5541E+03
      7.398  0.3299E+02  0.3032E+02  0.5573E+03  0.5565E+03
      7.476  0.2957E+02  0.2891E+02  0.5596E+03  0.5588E+03
      7.554  0.4189E+02  0.4557E+02  0.5629E+03  0.5625E+03
      7.632  0.4045E+02  0.3801E+02  0.5662E+03  0.5655E+03
      7.711  0.4150E+02  0.3818E+02  0.5695E+03  0.5687E+03
      7.789  0.3168E+02  0.3402E+02  0.5721E+03  0.5714E+03
      7.867  0.2710E+02  0.3288E+02  0.5742E+03  0.5740E+03
      7.945  0.1496E+02  0.1083E+02  0.5754E+03  0.5750E+03
      8.023  0.5962E+01  0.1195E+02  0.5759E+03  0.5759E+03
      8.101  0.9500E+00  0.1066E+01  0.5760E+03  0.5760E+03
      8.180  0.0000E+00  0.0000E+00  0.5760E+03  0.5760E+03
      8.258  0.0000E+00  0.0000E+00  0.5760E+03  0.5760E+03
      8.336  0.0000E+00  0.0000E+00  0.5760E+03  0.5760E+03
      8.414  0.0000E+00  0.0000E+00  0.5760E+03  0.5760E+03
      8.492  0.0000E+00  0.0000E+00  0.5760E+03  0.5760E+03
      8.571  0.0000E+00  0.0000E+00  0.5760E+03  0.5760E+03
      8.649  0.0000E+00  0.0000E+00  0.5760E+03  0.5760E+03
      8.727  0.0000E+00  0.0000E+00  0.5760E+03  0.5760E+03
      8.805  0.0000E+00  0.0000E+00  0.5760E+03  0.5760E+03
      8.883  0.0000E+00  0.0000E+00  0.5760E+03  0.5760E+03
      8.961  0.0000E+00  0.0000E+00  0.5760E+03  0.5760E+03
      9.040  0.0000E+00  0.0000E+00  0.5760E+03  0.5760E+03
      9.118  0.0000E+00  0.0000E+00  0.5760E+03  0.5760E+03
