  96  96   0   0
  0.2276159E+02  0.1265123E-08  0.1265123E-08  0.1393391E-08  0.5000000E-15
  1.000000000000000E-004
  CAR 
 Si and Ge interface calculation         
      6.47283781    -11.06826201  301      3.58825129      1.00000000
    -11.068  0.0000E+00  0.0000E+00  0.0000E+00  0.0000E+00
    -11.010  0.0000E+00  0.0000E+00  0.0000E+00  0.0000E+00
    -10.951  0.0000E+00  0.0000E+00  0.0000E+00  0.0000E+00
    -10.893  0.0000E+00  0.0000E+00  0.0000E+00  0.0000E+00
    -10.834  0.0000E+00  0.0000E+00  0.0000E+00  0.0000E+00
    -10.776  0.0000E+00  0.0000E+00  0.0000E+00  0.0000E+00
    -10.717  0.0000E+00  0.0000E+00  0.0000E+00  0.0000E+00
    -10.659  0.0000E+00  0.0000E+00  0.0000E+00  0.0000E+00
    -10.600  0.0000E+00  0.0000E+00  0.0000E+00  0.0000E+00
    -10.542  0.0000E+00  0.0000E+00  0.0000E+00  0.0000E+00
    -10.484  0.0000E+00  0.0000E+00  0.0000E+00  0.0000E+00
    -10.425  0.0000E+00  0.0000E+00  0.0000E+00  0.0000E+00
    -10.367  0.0000E+00  0.0000E+00  0.0000E+00  0.0000E+00
    -10.308  0.1356E-06  0.6885E-11  0.7928E-08  0.4025E-12
    -10.250  0.9842E+01  0.4694E+01  0.5755E+00  0.2745E+00
    -10.191  0.2298E+02  0.2134E+02  0.1919E+01  0.1522E+01
    -10.133  0.1376E+01  0.8174E+01  0.2000E+01  0.2000E+01
    -10.074  0.2837E+01  0.7542E+00  0.2166E+01  0.2044E+01
    -10.016  0.5192E+02  0.4835E+02  0.5202E+01  0.4871E+01
     -9.957  0.2245E+01  0.7899E+01  0.5333E+01  0.5333E+01
     -9.899  0.0000E+00  0.0000E+00  0.5333E+01  0.5333E+01
     -9.840  0.1236E-08  0.3312E-13  0.5333E+01  0.5333E+01
     -9.782  0.2035E+02  0.1034E+02  0.6523E+01  0.5938E+01
     -9.723  0.2449E+01  0.1246E+02  0.6667E+01  0.6667E+01
     -9.665  0.0000E+00  0.0000E+00  0.6667E+01  0.6667E+01
     -9.607  0.0000E+00  0.0000E+00  0.6667E+01  0.6667E+01
     -9.548  0.0000E+00  0.0000E+00  0.6667E+01  0.6667E+01
     -9.490  0.6757E+00  0.1114E-01  0.6706E+01  0.6667E+01
     -9.431  0.2213E+02  0.2279E+02  0.8000E+01  0.8000E+01
     -9.373  0.2520E+01  0.2207E+00  0.8147E+01  0.8013E+01
     -9.314  0.2028E+02  0.2258E+02  0.9333E+01  0.9333E+01
     -9.256  0.1784E+01  0.2200E+00  0.9438E+01  0.9346E+01
     -9.197  0.2093E+02  0.2123E+02  0.1066E+02  0.1059E+02
     -9.139  0.2286E+02  0.2259E+02  0.1200E+02  0.1191E+02
     -9.080  0.1260E+01  0.1646E+01  0.1207E+02  0.1200E+02
     -9.022  0.2291E+02  0.2276E+02  0.1341E+02  0.1334E+02
     -8.963  0.1007E+02  0.1136E+02  0.1400E+02  0.1400E+02
     -8.905  0.0000E+00  0.0000E+00  0.1400E+02  0.1400E+02
     -8.846  0.0000E+00  0.0000E+00  0.1400E+02  0.1400E+02
     -8.788  0.0000E+00  0.0000E+00  0.1400E+02  0.1400E+02
     -8.729  0.1551E+01  0.1841E+00  0.1409E+02  0.1401E+02
     -8.671  0.8016E+01  0.9288E+01  0.1456E+02  0.1455E+02
     -8.613  0.1340E+02  0.1190E+02  0.1534E+02  0.1525E+02
     -8.554  0.7784E+01  0.8348E+01  0.1580E+02  0.1574E+02
     -8.496  0.1602E+02  0.1230E+02  0.1674E+02  0.1646E+02
     -8.437  0.9989E+01  0.1325E+02  0.1732E+02  0.1723E+02
     -8.379  0.2496E+02  0.2512E+02  0.1878E+02  0.1870E+02
     -8.320  0.1351E+02  0.1337E+02  0.1957E+02  0.1948E+02
     -8.262  0.2399E+02  0.1801E+02  0.2097E+02  0.2053E+02
     -8.203  0.3778E+02  0.4151E+02  0.2318E+02  0.2296E+02
     -8.145  0.1859E+02  0.1783E+02  0.2427E+02  0.2400E+02
     -8.086  0.2573E+02  0.2752E+02  0.2577E+02  0.2561E+02
     -8.028  0.1334E+02  0.1500E+02  0.2655E+02  0.2649E+02
     -7.969  0.1232E+02  0.1054E+02  0.2727E+02  0.2711E+02
     -7.911  0.1639E+02  0.1695E+02  0.2823E+02  0.2810E+02
     -7.852  0.2514E+02  0.2351E+02  0.2970E+02  0.2947E+02
     -7.794  0.2176E+02  0.2398E+02  0.3097E+02  0.3087E+02
     -7.735  0.1466E+02  0.1417E+02  0.3183E+02  0.3170E+02
     -7.677  0.3051E+02  0.3152E+02  0.3362E+02  0.3355E+02
     -7.619  0.1808E+02  0.1736E+02  0.3467E+02  0.3456E+02
     -7.560  0.1701E+02  0.1481E+02  0.3567E+02  0.3543E+02
     -7.502  0.2617E+02  0.2675E+02  0.3720E+02  0.3699E+02
     -7.443  0.2434E+02  0.2694E+02  0.3862E+02  0.3857E+02
     -7.385  0.3007E+02  0.2525E+02  0.4038E+02  0.4004E+02
     -7.326  0.3283E+02  0.3387E+02  0.4230E+02  0.4202E+02
     -7.268  0.2619E+02  0.2712E+02  0.4383E+02  0.4361E+02
     -7.209  0.3021E+02  0.3198E+02  0.4560E+02  0.4548E+02
     -7.151  0.2165E+02  0.1892E+02  0.4686E+02  0.4658E+02
     -7.092  0.2643E+02  0.2665E+02  0.4841E+02  0.4814E+02
     -7.034  0.1936E+02  0.2147E+02  0.4954E+02  0.4940E+02
     -6.975  0.2852E+02  0.2414E+02  0.5121E+02  0.5081E+02
     -6.917  0.3028E+02  0.3202E+02  0.5298E+02  0.5268E+02
     -6.858  0.2374E+02  0.2779E+02  0.5437E+02  0.5431E+02
     -6.800  0.2835E+02  0.2472E+02  0.5602E+02  0.5575E+02
     -6.741  0.2740E+02  0.2672E+02  0.5763E+02  0.5731E+02
     -6.683  0.3272E+02  0.3372E+02  0.5954E+02  0.5928E+02
     -6.625  0.1949E+02  0.2357E+02  0.6068E+02  0.6066E+02
     -6.566  0.3018E+02  0.2974E+02  0.6244E+02  0.6240E+02
     -6.508  0.2403E+02  0.1917E+02  0.6385E+02  0.6352E+02
     -6.449  0.3800E+02  0.3734E+02  0.6607E+02  0.6571E+02
     -6.391  0.1815E+02  0.2392E+02  0.6713E+02  0.6710E+02
     -6.332  0.3226E+02  0.3022E+02  0.6902E+02  0.6887E+02
     -6.274  0.3172E+02  0.2809E+02  0.7087E+02  0.7051E+02
     -6.215  0.2350E+02  0.2589E+02  0.7225E+02  0.7203E+02
     -6.157  0.2726E+02  0.2663E+02  0.7384E+02  0.7358E+02
     -6.098  0.3135E+02  0.3135E+02  0.7567E+02  0.7542E+02
     -6.040  0.2679E+02  0.2921E+02  0.7724E+02  0.7713E+02
     -5.981  0.2529E+02  0.2322E+02  0.7872E+02  0.7848E+02
     -5.923  0.2355E+02  0.2513E+02  0.8010E+02  0.7995E+02
     -5.864  0.2288E+02  0.2177E+02  0.8143E+02  0.8123E+02
     -5.806  0.2405E+02  0.2335E+02  0.8284E+02  0.8259E+02
     -5.747  0.1801E+02  0.1997E+02  0.8389E+02  0.8376E+02
     -5.689  0.2218E+02  0.2063E+02  0.8519E+02  0.8497E+02
     -5.631  0.2852E+02  0.3009E+02  0.8686E+02  0.8673E+02
     -5.572  0.2620E+02  0.2464E+02  0.8839E+02  0.8817E+02
     -5.514  0.2822E+02  0.2674E+02  0.9004E+02  0.8973E+02
     -5.455  0.3329E+02  0.3033E+02  0.9199E+02  0.9150E+02
     -5.397  0.1737E+02  0.2393E+02  0.9300E+02  0.9290E+02
     -5.338  0.2154E+02  0.2000E+02  0.9426E+02  0.9407E+02
     -5.280  0.1929E+02  0.2023E+02  0.9539E+02  0.9526E+02
     -5.221  0.4590E+02  0.4127E+02  0.9807E+02  0.9767E+02
     -5.163  0.1292E+02  0.1721E+02  0.9883E+02  0.9867E+02
     -5.104  0.2845E+02  0.2887E+02  0.1005E+03  0.1004E+03
     -5.046  0.3392E+02  0.3036E+02  0.1025E+03  0.1021E+03
     -4.987  0.2441E+02  0.2440E+02  0.1039E+03  0.1036E+03
     -4.929  0.2234E+02  0.2553E+02  0.1052E+03  0.1051E+03
     -4.870  0.2164E+02  0.1938E+02  0.1065E+03  0.1062E+03
     -4.812  0.3071E+02  0.3045E+02  0.1083E+03  0.1080E+03
     -4.753  0.3178E+02  0.3214E+02  0.1101E+03  0.1099E+03
     -4.695  0.1366E+02  0.1754E+02  0.1109E+03  0.1109E+03
     -4.637  0.2769E+02  0.2387E+02  0.1125E+03  0.1123E+03
     -4.578  0.1719E+02  0.2128E+02  0.1136E+03  0.1135E+03
     -4.520  0.1588E+02  0.1385E+02  0.1145E+03  0.1143E+03
     -4.461  0.3656E+02  0.3800E+02  0.1166E+03  0.1165E+03
     -4.403  0.1784E+02  0.1249E+02  0.1177E+03  0.1173E+03
     -4.344  0.2613E+02  0.3043E+02  0.1192E+03  0.1191E+03
     -4.286  0.2191E+02  0.1949E+02  0.1205E+03  0.1202E+03
     -4.227  0.1741E+01  0.6141E+01  0.1206E+03  0.1206E+03
     -4.169  0.2195E+02  0.2008E+02  0.1219E+03  0.1217E+03
     -4.110  0.2865E+02  0.2694E+02  0.1235E+03  0.1233E+03
     -4.052  0.1944E+02  0.1734E+02  0.1247E+03  0.1243E+03
     -3.993  0.2216E+02  0.2519E+02  0.1260E+03  0.1258E+03
     -3.935  0.3670E+02  0.3847E+02  0.1281E+03  0.1280E+03
     -3.876  0.9874E+01  0.9179E+01  0.1287E+03  0.1286E+03
     -3.818  0.1764E+02  0.1550E+02  0.1297E+03  0.1295E+03
     -3.759  0.3570E+02  0.3833E+02  0.1318E+03  0.1317E+03
     -3.701  0.2145E+02  0.2047E+02  0.1331E+03  0.1329E+03
     -3.643  0.1767E+02  0.1263E+02  0.1341E+03  0.1337E+03
     -3.584  0.2726E+02  0.3414E+02  0.1357E+03  0.1357E+03
     -3.526  0.1514E+02  0.1096E+02  0.1366E+03  0.1363E+03
     -3.467  0.2583E+02  0.2760E+02  0.1381E+03  0.1379E+03
     -3.409  0.2538E+02  0.2457E+02  0.1396E+03  0.1393E+03
     -3.350  0.2756E+02  0.2518E+02  0.1412E+03  0.1408E+03
     -3.292  0.3198E+02  0.3362E+02  0.1430E+03  0.1428E+03
     -3.233  0.1623E+02  0.1980E+02  0.1440E+03  0.1439E+03
     -3.175  0.2721E+02  0.2422E+02  0.1456E+03  0.1454E+03
     -3.116  0.2311E+02  0.2202E+02  0.1469E+03  0.1466E+03
     -3.058  0.3198E+02  0.3170E+02  0.1488E+03  0.1485E+03
     -2.999  0.2907E+02  0.2660E+02  0.1505E+03  0.1501E+03
     -2.941  0.3184E+02  0.3450E+02  0.1524E+03  0.1521E+03
     -2.882  0.3193E+02  0.3381E+02  0.1542E+03  0.1541E+03
     -2.824  0.4023E+02  0.3567E+02  0.1566E+03  0.1561E+03
     -2.765  0.2087E+02  0.2287E+02  0.1578E+03  0.1575E+03
     -2.707  0.4596E+02  0.4508E+02  0.1605E+03  0.1601E+03
     -2.649  0.3599E+02  0.3592E+02  0.1626E+03  0.1622E+03
     -2.590  0.2494E+02  0.2899E+02  0.1641E+03  0.1639E+03
     -2.532  0.1734E+02  0.1627E+02  0.1651E+03  0.1649E+03
     -2.473  0.3215E+02  0.3082E+02  0.1670E+03  0.1667E+03
     -2.415  0.2242E+02  0.2267E+02  0.1683E+03  0.1680E+03
     -2.356  0.1216E+02  0.1427E+02  0.1690E+03  0.1688E+03
     -2.298  0.2204E+02  0.2223E+02  0.1703E+03  0.1701E+03
     -2.239  0.3771E+02  0.3504E+02  0.1725E+03  0.1722E+03
     -2.181  0.2606E+02  0.2824E+02  0.1740E+03  0.1738E+03
     -2.122  0.2511E+02  0.2351E+02  0.1755E+03  0.1752E+03
     -2.064  0.2169E+02  0.2248E+02  0.1767E+03  0.1765E+03
     -2.005  0.2075E+02  0.2278E+02  0.1779E+03  0.1778E+03
     -1.947  0.6502E+01  0.6193E+01  0.1783E+03  0.1782E+03
     -1.888  0.7795E+01  0.9672E+01  0.1788E+03  0.1788E+03
     -1.830  0.1719E+02  0.1167E+02  0.1798E+03  0.1795E+03
     -1.771  0.1343E+02  0.1582E+02  0.1806E+03  0.1804E+03
     -1.713  0.1673E+02  0.1644E+02  0.1815E+03  0.1813E+03
     -1.655  0.1248E+02  0.1269E+02  0.1823E+03  0.1821E+03
     -1.596  0.2193E+02  0.1779E+02  0.1836E+03  0.1831E+03
     -1.538  0.2802E+02  0.3090E+02  0.1852E+03  0.1849E+03
     -1.479  0.1751E+02  0.2202E+02  0.1862E+03  0.1862E+03
     -1.421  0.2410E+02  0.1503E+02  0.1876E+03  0.1871E+03
     -1.362  0.2556E+02  0.3189E+02  0.1891E+03  0.1890E+03
     -1.304  0.1471E+02  0.1616E+02  0.1900E+03  0.1899E+03
     -1.245  0.1173E+02  0.9818E+01  0.1907E+03  0.1905E+03
     -1.187  0.1765E+02  0.2025E+02  0.1917E+03  0.1917E+03
     -1.128  0.1373E+02  0.1091E+02  0.1925E+03  0.1923E+03
     -1.070  0.1361E+02  0.1290E+02  0.1933E+03  0.1931E+03
     -1.011  0.1313E+02  0.1476E+02  0.1941E+03  0.1939E+03
     -0.953  0.1553E+02  0.1437E+02  0.1950E+03  0.1948E+03
     -0.894  0.2542E+02  0.2542E+02  0.1965E+03  0.1962E+03
     -0.836  0.4301E+02  0.3866E+02  0.1990E+03  0.1985E+03
     -0.777  0.4066E+02  0.4170E+02  0.2014E+03  0.2009E+03
     -0.719  0.4366E+02  0.4239E+02  0.2039E+03  0.2034E+03
     -0.661  0.5300E+02  0.4988E+02  0.2070E+03  0.2063E+03
     -0.602  0.4842E+02  0.4904E+02  0.2098E+03  0.2092E+03
     -0.544  0.4181E+02  0.4754E+02  0.2123E+03  0.2120E+03
     -0.485  0.3452E+02  0.3002E+02  0.2143E+03  0.2137E+03
     -0.427  0.3828E+02  0.3998E+02  0.2165E+03  0.2161E+03
     -0.368  0.3255E+02  0.3521E+02  0.2184E+03  0.2181E+03
     -0.310  0.5616E+02  0.5087E+02  0.2217E+03  0.2211E+03
     -0.251  0.4596E+02  0.5061E+02  0.2244E+03  0.2241E+03
     -0.193  0.3397E+02  0.3599E+02  0.2264E+03  0.2262E+03
     -0.134  0.3047E+02  0.2763E+02  0.2282E+03  0.2278E+03
     -0.076  0.4261E+02  0.4343E+02  0.2307E+03  0.2303E+03
     -0.017  0.5057E+02  0.4837E+02  0.2336E+03  0.2332E+03
      0.041  0.5421E+02  0.5488E+02  0.2368E+03  0.2364E+03
      0.100  0.3117E+02  0.3274E+02  0.2386E+03  0.2383E+03
      0.158  0.5102E+02  0.5360E+02  0.2416E+03  0.2414E+03
      0.217  0.4700E+02  0.4529E+02  0.2444E+03  0.2441E+03
      0.275  0.3918E+02  0.4115E+02  0.2466E+03  0.2465E+03
      0.333  0.3779E+02  0.3603E+02  0.2489E+03  0.2486E+03
      0.392  0.5011E+02  0.4641E+02  0.2518E+03  0.2513E+03
      0.450  0.4696E+02  0.5017E+02  0.2545E+03  0.2542E+03
      0.509  0.4062E+02  0.3628E+02  0.2569E+03  0.2563E+03
      0.567  0.4732E+02  0.5038E+02  0.2597E+03  0.2593E+03
      0.626  0.5063E+02  0.5169E+02  0.2626E+03  0.2623E+03
      0.684  0.5022E+02  0.4651E+02  0.2656E+03  0.2650E+03
      0.743  0.5435E+02  0.5869E+02  0.2687E+03  0.2685E+03
      0.801  0.4754E+02  0.4616E+02  0.2715E+03  0.2712E+03
      0.860  0.5792E+02  0.5874E+02  0.2749E+03  0.2746E+03
      0.918  0.4738E+02  0.4553E+02  0.2777E+03  0.2773E+03
      0.977  0.4649E+02  0.4477E+02  0.2804E+03  0.2799E+03
      1.035  0.4787E+02  0.5257E+02  0.2832E+03  0.2830E+03
      1.094  0.5623E+02  0.5092E+02  0.2865E+03  0.2859E+03
      1.152  0.4972E+02  0.5554E+02  0.2894E+03  0.2892E+03
      1.211  0.4869E+02  0.4039E+02  0.2922E+03  0.2915E+03
      1.269  0.4068E+02  0.4482E+02  0.2946E+03  0.2942E+03
      1.327  0.3121E+02  0.3554E+02  0.2964E+03  0.2962E+03
      1.386  0.4118E+02  0.3890E+02  0.2989E+03  0.2985E+03
      1.444  0.6630E+02  0.6423E+02  0.3027E+03  0.3023E+03
      1.503  0.3133E+02  0.3858E+02  0.3046E+03  0.3045E+03
      1.561  0.4111E+02  0.3448E+02  0.3070E+03  0.3065E+03
      1.620  0.4049E+02  0.3823E+02  0.3093E+03  0.3088E+03
      1.678  0.5352E+02  0.5395E+02  0.3125E+03  0.3119E+03
      1.737  0.3621E+02  0.4029E+02  0.3146E+03  0.3143E+03
      1.795  0.3691E+02  0.3514E+02  0.3167E+03  0.3163E+03
      1.854  0.4241E+02  0.4412E+02  0.3192E+03  0.3189E+03
      1.912  0.4857E+02  0.4742E+02  0.3221E+03  0.3217E+03
      1.971  0.3019E+02  0.3336E+02  0.3238E+03  0.3236E+03
      2.029  0.3840E+02  0.3666E+02  0.3261E+03  0.3258E+03
      2.088  0.4175E+02  0.3726E+02  0.3285E+03  0.3280E+03
      2.146  0.4103E+02  0.4416E+02  0.3309E+03  0.3306E+03
      2.205  0.3654E+02  0.3410E+02  0.3330E+03  0.3325E+03
      2.263  0.4445E+02  0.4792E+02  0.3356E+03  0.3353E+03
      2.321  0.4724E+02  0.4533E+02  0.3384E+03  0.3380E+03
      2.380  0.3862E+02  0.3724E+02  0.3407E+03  0.3402E+03
      2.438  0.2998E+02  0.3264E+02  0.3424E+03  0.3421E+03
      2.497  0.3944E+02  0.3654E+02  0.3447E+03  0.3442E+03
      2.555  0.2929E+02  0.3521E+02  0.3464E+03  0.3463E+03
      2.614  0.3205E+02  0.3025E+02  0.3483E+03  0.3480E+03
      2.672  0.3437E+02  0.3503E+02  0.3503E+03  0.3501E+03
      2.731  0.4270E+02  0.3347E+02  0.3528E+03  0.3521E+03
      2.789  0.2898E+02  0.4016E+02  0.3545E+03  0.3544E+03
      2.848  0.3847E+02  0.3662E+02  0.3568E+03  0.3565E+03
      2.906  0.2991E+02  0.2946E+02  0.3585E+03  0.3583E+03
      2.965  0.4205E+02  0.3707E+02  0.3610E+03  0.3604E+03
      3.023  0.3919E+02  0.3667E+02  0.3633E+03  0.3626E+03
      3.082  0.3958E+02  0.4462E+02  0.3656E+03  0.3652E+03
      3.140  0.3088E+02  0.3486E+02  0.3674E+03  0.3672E+03
      3.198  0.3555E+02  0.3333E+02  0.3695E+03  0.3692E+03
      3.257  0.2893E+02  0.2784E+02  0.3712E+03  0.3708E+03
      3.315  0.3246E+02  0.2598E+02  0.3731E+03  0.3723E+03
      3.374  0.3289E+02  0.3416E+02  0.3750E+03  0.3743E+03
      3.432  0.3797E+02  0.3517E+02  0.3772E+03  0.3764E+03
      3.491  0.4348E+02  0.4421E+02  0.3797E+03  0.3790E+03
      3.549  0.4126E+02  0.4905E+02  0.3822E+03  0.3818E+03
      3.608  0.3464E+02  0.3040E+02  0.3842E+03  0.3836E+03
      3.666  0.2865E+02  0.2408E+02  0.3859E+03  0.3850E+03
      3.725  0.4037E+02  0.4492E+02  0.3882E+03  0.3876E+03
      3.783  0.3921E+02  0.4034E+02  0.3905E+03  0.3900E+03
      3.842  0.3240E+02  0.3368E+02  0.3924E+03  0.3920E+03
      3.900  0.3692E+02  0.3466E+02  0.3946E+03  0.3940E+03
      3.959  0.3086E+02  0.3614E+02  0.3964E+03  0.3961E+03
      4.017  0.3572E+02  0.3463E+02  0.3985E+03  0.3981E+03
      4.076  0.3806E+02  0.3592E+02  0.4007E+03  0.4002E+03
      4.134  0.3226E+02  0.2822E+02  0.4026E+03  0.4019E+03
      4.192  0.4090E+02  0.4069E+02  0.4050E+03  0.4043E+03
      4.251  0.3827E+02  0.3825E+02  0.4072E+03  0.4065E+03
      4.309  0.3863E+02  0.3832E+02  0.4095E+03  0.4087E+03
      4.368  0.4151E+02  0.4555E+02  0.4119E+03  0.4114E+03
      4.426  0.3290E+02  0.3100E+02  0.4138E+03  0.4132E+03
      4.485  0.4254E+02  0.4374E+02  0.4163E+03  0.4158E+03
      4.543  0.3254E+02  0.3215E+02  0.4182E+03  0.4177E+03
      4.602  0.3637E+02  0.3967E+02  0.4203E+03  0.4200E+03
      4.660  0.3340E+02  0.3518E+02  0.4223E+03  0.4220E+03
      4.719  0.4612E+02  0.3833E+02  0.4250E+03  0.4243E+03
      4.777  0.4182E+02  0.4420E+02  0.4274E+03  0.4269E+03
      4.836  0.3634E+02  0.3807E+02  0.4295E+03  0.4291E+03
      4.894  0.4306E+02  0.3978E+02  0.4321E+03  0.4314E+03
      4.953  0.2986E+02  0.3118E+02  0.4338E+03  0.4332E+03
      5.011  0.5197E+02  0.5345E+02  0.4368E+03  0.4364E+03
      5.070  0.4113E+02  0.3926E+02  0.4392E+03  0.4387E+03
      5.128  0.4414E+02  0.4574E+02  0.4418E+03  0.4413E+03
      5.186  0.3754E+02  0.3683E+02  0.4440E+03  0.4435E+03
      5.245  0.3712E+02  0.3640E+02  0.4462E+03  0.4456E+03
      5.303  0.5738E+02  0.5823E+02  0.4495E+03  0.4490E+03
      5.362  0.4814E+02  0.5251E+02  0.4524E+03  0.4521E+03
      5.420  0.4897E+02  0.4364E+02  0.4552E+03  0.4546E+03
      5.479  0.4544E+02  0.4967E+02  0.4579E+03  0.4575E+03
      5.537  0.4463E+02  0.4097E+02  0.4605E+03  0.4599E+03
      5.596  0.3933E+02  0.4234E+02  0.4628E+03  0.4624E+03
      5.654  0.1548E+02  0.2019E+02  0.4637E+03  0.4636E+03
      5.713  0.5176E+01  0.7007E+01  0.4640E+03  0.4640E+03
      5.771  0.0000E+00  0.0000E+00  0.4640E+03  0.4640E+03
      5.830  0.0000E+00  0.0000E+00  0.4640E+03  0.4640E+03
      5.888  0.0000E+00  0.0000E+00  0.4640E+03  0.4640E+03
      5.947  0.0000E+00  0.0000E+00  0.4640E+03  0.4640E+03
      6.005  0.0000E+00  0.0000E+00  0.4640E+03  0.4640E+03
      6.064  0.0000E+00  0.0000E+00  0.4640E+03  0.4640E+03
      6.122  0.0000E+00  0.0000E+00  0.4640E+03  0.4640E+03
      6.180  0.0000E+00  0.0000E+00  0.4640E+03  0.4640E+03
      6.239  0.0000E+00  0.0000E+00  0.4640E+03  0.4640E+03
      6.297  0.0000E+00  0.0000E+00  0.4640E+03  0.4640E+03
      6.356  0.0000E+00  0.0000E+00  0.4640E+03  0.4640E+03
      6.414  0.0000E+00  0.0000E+00  0.4640E+03  0.4640E+03
      6.473  0.0000E+00  0.0000E+00  0.4640E+03  0.4640E+03
